<LesHouchesEvents version="3.0">
<header>
<!--
#*********************************************************************
#                                                                    *
#                        MadGraph5_aMC@NLO                           *
#                                                                    *
#                           Going Beyond                             *
#                                                                    *
#                   http://madgraph.hep.uiuc.edu                     *
#                   http://madgraph.phys.ucl.ac.be                   *
#                   http://amcatnlo.cern.ch                          *
#                                                                    *
#                     The MadGraph5_aMC@NLO team                     *
#                                                                    *
#....................................................................*
#                                                                    *
# This file contains all the information necessary to reproduce      *
# the events generated:                                              *
#                                                                    *
# 1. software version                                                *
# 2. proc_card          : code generation info including model       *
# 3. param_card         : model primary parameters in the LH format  *
# 4. run_card           : running parameters (collider and cuts)     *
# 5. pythia_card        : present only if pythia has been run        *
# 6. pgs_card           : present only if pgs has been run           *
# 7. delphes_cards      : present only if delphes has been run       *
#                                                                    *
#                                                                    *
#*********************************************************************
-->
<MGVersion>
#5.2.2.3
</MGVersion>
<MG5ProcCard>
#************************************************************
#*                     MadGraph5_aMC@NLO                    *
#*                                                          *
#*                *                       *                 *
#*                  *        * *        *                   *
#*                    * * * * 5 * * * *                     *
#*                  *        * *        *                   *
#*                *                       *                 *
#*                                                          *
#*                                                          *
#*         VERSION 2.2.3                 2015-02-10         *
#*                                                          *
#*    The MadGraph5_aMC@NLO Development Team - Find us at   *
#*    https://server06.fynu.ucl.ac.be/projects/madgraph     *
#*                                                          *
#************************************************************
#*                                                          *
#*               Command File for MadGraph5_aMC@NLO         *
#*                                                          *
#*     run as ./bin/mg5_aMC  filename                       *
#*                                                          *
#************************************************************
set group_subprocesses Auto
set ignore_six_quark_processes False
set loop_optimized_output True
set gauge unitary
set complex_mass_scheme False
import model sm
define p = g u c d s u~ c~ d~ s~
define j = g u c d s u~ c~ d~ s~
define l+ = e+ mu+
define l- = e- mu-
define vl = ve vm vt
define vl~ = ve~ vm~ vt~
import model Zprime_UFO
generate p p > zph, zph > j j
add process p p > zph, zph > b b~
output Dijet_signal
</MG5ProcCard>
<MGProcCard>
#*********************************************************************
#                        MadGraph/MadEvent                           *
#                   http://madgraph.hep.uiuc.edu                     *
#                                                                    *
#                          proc_card.dat                             *
#*********************************************************************
#                                                                    *
#            This Files is generated by MADGRAPH 5                   *
#                                                                    *
# WARNING: This Files is generated for MADEVENT (compatibility issue)*
#          This files is NOT a valid MG4 proc_card.dat               *
#          Running this in MG4 will NEVER reproduce the result of MG5*
#                                                                    *
#*********************************************************************
#*********************************************************************
# Process(es) requested : mg2 input                                  *
#*********************************************************************
# Begin PROCESS # This is TAG. Do not modify this line
p p > zph , zph > j j           #Process
# Be carefull the coupling are here in MG5 convention
          
end_coup           # End the couplings input

done               # this tells MG there are no more procs
# End PROCESS  # This is TAG. Do not modify this line
#*********************************************************************
# Model information                                                  *
#*********************************************************************
# Begin MODEL  # This is TAG. Do not modify this line
Zprime_UFO
# End   MODEL  # This is TAG. Do not modify this line
#*********************************************************************
# Start multiparticle definitions                                    *
#*********************************************************************
# Begin MULTIPARTICLES # This is TAG. Do not modify this line

# End  MULTIPARTICLES # This is TAG. Do not modify this line
</MGProcCard>
<MGRunCard>
#*********************************************************************
#                       MadGraph5_aMC@NLO                            *
#                                                                    *
#                     run_card.dat MadEvent                          *
#                                                                    *
#  This file is used to set the parameters of the run.               *
#                                                                    *
#  Some notation/conventions:                                        *
#                                                                    *
#   Lines starting with a '# ' are info or comments                  *
#                                                                    *
#   mind the format:   value    = variable     ! comment             *
#*********************************************************************
#
#*******************                                                 
# Running parameters
#*******************                                                 
#                                                                    
#*********************************************************************
# Tag name for the run (one word)                                    *
#*********************************************************************
  tag_1     = run_tag ! name of the run 
#*********************************************************************
# Run to generate the grid pack                                      *
#*********************************************************************
  .false.     = gridpack  !True = setting up the grid pack
#*********************************************************************
# Number of events and rnd seed                                      *
# Warning: Do not generate more than 1M events in a single run       *
# If you want to run Pythia, avoid more than 50k events in a run.    *
#*********************************************************************
  2000 = nevents ! Number of unweighted events requested 
 2865 = iseed   ! rnd seed (0=assigned automatically=default))
#*********************************************************************
# Collider type and energy                                           *
# lpp: 0=No PDF, 1=proton, -1=antiproton, 2=photon from proton,      *
#                                         3=photon from electron     *
#*********************************************************************
        1     = lpp1    ! beam 1 type 
        1     = lpp2    ! beam 2 type
     4000     = ebeam1  ! beam 1 total energy in GeV
     4000     = ebeam2  ! beam 2 total energy in GeV
#*********************************************************************
# Beam polarization from -100 (left-handed) to 100 (right-handed)    *
#*********************************************************************
        0     = polbeam1 ! beam polarization for beam 1
        0     = polbeam2 ! beam polarization for beam 2
#*********************************************************************
# PDF CHOICE: this automatically fixes also alpha_s and its evol.    *
#*********************************************************************
 'nn23lo1'    = pdlabel     ! PDF set                                     
 230000    = lhaid     ! if pdlabel=lhapdf, this is the lhapdf number
#*********************************************************************
# Renormalization and factorization scales                           *
#*********************************************************************
 F        = fixed_ren_scale  ! if .true. use fixed ren scale
 F        = fixed_fac_scale  ! if .true. use fixed fac scale
 91.1880  = scale            ! fixed ren scale
 91.1880  = dsqrt_q2fact1    ! fixed fact scale for pdf1
 91.1880  = dsqrt_q2fact2    ! fixed fact scale for pdf2
 1        = scalefact        ! scale factor for event-by-event scales
#*********************************************************************
# Matching - Warning! ickkw > 1 is still beta
#*********************************************************************
 0        = ickkw            ! 0 no matching, 1 MLM, 2 CKKW matching
 1        = highestmult      ! for ickkw=2, highest mult group
 1        = ktscheme         ! for ickkw=1, 1 Durham kT, 2 Pythia pTE
 1        = alpsfact         ! scale factor for QCD emission vx
 F        = chcluster        ! cluster only according to channel diag
 T        = pdfwgt           ! for ickkw=1, perform pdf reweighting
 5        = asrwgtflavor     ! highest quark flavor for a_s reweight
 T        = clusinfo         ! include clustering tag in output
 3.0      = lhe_version       ! Change the way clustering information pass to shower.        
#*********************************************************************
#**********************************************************
#
#**********************************************************
# Automatic ptj and mjj cuts if xqcut > 0
# (turn off for VBF and single top processes)
#**********************************************************
   T  = auto_ptj_mjj  ! Automatic setting of ptj and mjj
#**********************************************************
#                                                                    
#**********************************
# BW cutoff (M+/-bwcutoff*Gamma)
#**********************************
  15  = bwcutoff      ! (M+/-bwcutoff*Gamma)
#**********************************************************
# Apply pt/E/eta/dr/mij cuts on decay products or not
# (note that etmiss/ptll/ptheavy/ht/sorted cuts always apply)
#**********************************************************
   T  = cut_decays    ! Cut decay products 
#*************************************************************
# Number of helicities to sum per event (0 = all helicities)
# 0 gives more stable result, but longer run time (needed for
# long decay chains e.g.).
# Use >=2 if most helicities contribute, e.g. pure QCD.
#*************************************************************
   0  = nhel          ! Number of helicities used per event
#*******************                                                 
# Standard Cuts
#*******************                                                 
#                                                                    
#*********************************************************************
# Minimum and maximum pt's (for max, -1 means no cut)                *
#*********************************************************************
 20  = ptj       ! minimum pt for the jets 
  0  = ptb       ! minimum pt for the b 
 10  = pta       ! minimum pt for the photons 
 10  = ptl       ! minimum pt for the charged leptons 
  0  = misset    ! minimum missing Et (sum of neutrino's momenta)
  0  = ptheavy   ! minimum pt for one heavy final state
 1.0 = ptonium   ! minimum pt for the quarkonium states
 -1  = ptjmax    ! maximum pt for the jets
 -1  = ptbmax    ! maximum pt for the b
 -1  = ptamax    ! maximum pt for the photons
 -1  = ptlmax    ! maximum pt for the charged leptons
 -1  = missetmax ! maximum missing Et (sum of neutrino's momenta)
#*********************************************************************
# Minimum and maximum E's (in the center of mass frame)              *
#*********************************************************************
  0  = ej     ! minimum E for the jets 
  0  = eb     ! minimum E for the b 
  0  = ea     ! minimum E for the photons 
  0  = el     ! minimum E for the charged leptons 
 -1   = ejmax ! maximum E for the jets
 -1   = ebmax ! maximum E for the b
 -1   = eamax ! maximum E for the photons
 -1   = elmax ! maximum E for the charged leptons
#*********************************************************************
# Maximum and minimum absolute rapidity (for max, -1 means no cut)   *
#*********************************************************************
   5  = etaj    ! max rap for the jets 
  -1  = etab    ! max rap for the b
 2.5  = etaa    ! max rap for the photons 
 2.5  = etal    ! max rap for the charged leptons 
 0.6  = etaonium ! max rap for the quarkonium states
   0  = etajmin ! min rap for the jets
   0  = etabmin ! min rap for the b
   0  = etaamin ! min rap for the photons
   0  = etalmin ! main rap for the charged leptons
#*********************************************************************
# Minimum and maximum DeltaR distance                                *
#*********************************************************************
 0.4 = drjj    ! min distance between jets 
 0   = drbb    ! min distance between b's 
 0.4 = drll    ! min distance between leptons 
 0.4 = draa    ! min distance between gammas 
 0   = drbj    ! min distance between b and jet 
 0.4 = draj    ! min distance between gamma and jet 
 0.4 = drjl    ! min distance between jet and lepton 
 0   = drab    ! min distance between gamma and b 
 0   = drbl    ! min distance between b and lepton 
 0.4 = dral    ! min distance between gamma and lepton 
 -1  = drjjmax ! max distance between jets
 -1  = drbbmax ! max distance between b's
 -1  = drllmax ! max distance between leptons
 -1  = draamax ! max distance between gammas
 -1  = drbjmax ! max distance between b and jet
 -1  = drajmax ! max distance between gamma and jet
 -1  = drjlmax ! max distance between jet and lepton
 -1  = drabmax ! max distance between gamma and b
 -1  = drblmax ! max distance between b and lepton
 -1  = dralmax ! maxdistance between gamma and lepton
#*********************************************************************
# Minimum and maximum invariant mass for pairs                       *
# WARNING: for four lepton final state mmll cut require to have      *
#          different lepton masses for each flavor!                  *           
#*********************************************************************
 0   = mmjj    ! min invariant mass of a jet pair 
 0   = mmbb    ! min invariant mass of a b pair 
 0   = mmaa    ! min invariant mass of gamma gamma pair
 0   = mmll    ! min invariant mass of l+l- (same flavour) lepton pair
 -1  = mmjjmax ! max invariant mass of a jet pair
 -1  = mmbbmax ! max invariant mass of a b pair
 -1  = mmaamax ! max invariant mass of gamma gamma pair
 -1  = mmllmax ! max invariant mass of l+l- (same flavour) lepton pair
#*********************************************************************
# Minimum and maximum invariant mass for all letpons                 *
#*********************************************************************
 0   = mmnl    ! min invariant mass for all letpons (l+- and vl) 
 -1  = mmnlmax ! max invariant mass for all letpons (l+- and vl) 
#*********************************************************************
# Minimum and maximum pt for 4-momenta sum of leptons                *
#*********************************************************************
 0   = ptllmin  ! Minimum pt for 4-momenta sum of leptons(l and vl)
 -1  = ptllmax  ! Maximum pt for 4-momenta sum of leptons(l and vl)
#*********************************************************************
# Inclusive cuts                                                     *
#*********************************************************************
 0  = xptj ! minimum pt for at least one jet  
 0  = xptb ! minimum pt for at least one b 
 0  = xpta ! minimum pt for at least one photon 
 0  = xptl ! minimum pt for at least one charged lepton 
#*********************************************************************
# Control the pt's of the jets sorted by pt                          *
#*********************************************************************
 0   = ptj1min ! minimum pt for the leading jet in pt
 0   = ptj2min ! minimum pt for the second jet in pt
 0   = ptj3min ! minimum pt for the third jet in pt
 0   = ptj4min ! minimum pt for the fourth jet in pt
 -1  = ptj1max ! maximum pt for the leading jet in pt 
 -1  = ptj2max ! maximum pt for the second jet in pt
 -1  = ptj3max ! maximum pt for the third jet in pt
 -1  = ptj4max ! maximum pt for the fourth jet in pt
 0   = cutuse  ! reject event if fails any (0) / all (1) jet pt cuts
#*********************************************************************
# Control the pt's of leptons sorted by pt                           *
#*********************************************************************
 0   = ptl1min ! minimum pt for the leading lepton in pt
 0   = ptl2min ! minimum pt for the second lepton in pt
 0   = ptl3min ! minimum pt for the third lepton in pt
 0   = ptl4min ! minimum pt for the fourth lepton in pt
 -1  = ptl1max ! maximum pt for the leading lepton in pt 
 -1  = ptl2max ! maximum pt for the second lepton in pt
 -1  = ptl3max ! maximum pt for the third lepton in pt
 -1  = ptl4max ! maximum pt for the fourth lepton in pt
#*********************************************************************
# Control the Ht(k)=Sum of k leading jets                            *
#*********************************************************************
 0   = htjmin ! minimum jet HT=Sum(jet pt)
 -1  = htjmax ! maximum jet HT=Sum(jet pt)
 0   = ihtmin  !inclusive Ht for all partons (including b)
 -1  = ihtmax  !inclusive Ht for all partons (including b)
 0   = ht2min ! minimum Ht for the two leading jets
 0   = ht3min ! minimum Ht for the three leading jets
 0   = ht4min ! minimum Ht for the four leading jets
 -1  = ht2max ! maximum Ht for the two leading jets
 -1  = ht3max ! maximum Ht for the three leading jets
 -1  = ht4max ! maximum Ht for the four leading jets
#***********************************************************************
# Photon-isolation cuts, according to hep-ph/9801442                   *
# When ptgmin=0, all the other parameters are ignored                  *
# When ptgmin>0, pta and draj are not going to be used                 *
#***********************************************************************
   0 = ptgmin ! Min photon transverse momentum
 0.4 = R0gamma ! Radius of isolation code
 1.0 = xn ! n parameter of eq.(3.4) in hep-ph/9801442
 1.0 = epsgamma ! epsilon_gamma parameter of eq.(3.4) in hep-ph/9801442
 .true. = isoEM ! isolate photons from EM energy (photons and leptons)
#*********************************************************************
# WBF cuts                                                           *
#*********************************************************************
 0   = xetamin ! minimum rapidity for two jets in the WBF case  
 0   = deltaeta ! minimum rapidity for two jets in the WBF case 
#*********************************************************************
# KT DURHAM CUT                                                      *
#*********************************************************************
 -1    =  ktdurham        
 0.4  =  dparameter 
#*********************************************************************
# maximal pdg code for quark to be considered as a light jet         *
# (otherwise b cuts are applied)                                     *
#*********************************************************************
 4 = maxjetflavor    ! Maximum jet pdg code
#*********************************************************************
# Jet measure cuts                                                   *
#*********************************************************************
 0   = xqcut   ! minimum kt jet measure between partons
#*********************************************************************
#
#*********************************************************************
# Store info for systematics studies                                 *
# WARNING: If use_syst is T, matched Pythia output is                *
#          meaningful ONLY if plotted taking matchscale              *
#          reweighting into account!                                 *
#*********************************************************************
   F  = use_syst      ! Enable systematics studies
#
#**************************************
# Parameter of the systematics study
#  will be used by SysCalc (if installed)
#**************************************                                  
#
0.5 1 2 = sys_scalefact  # factorization/renormalization scale factor
0.5 1 2 = sys_alpsfact  # \alpha_s emission scale factors
30 50 = sys_matchscale # variation of merging scale
# PDF sets and number of members (0 or none for all members).
CT10nlo.LHgrid = sys_pdf # matching scales
# MSTW2008nlo68cl.LHgrid 1  = sys_pdf
</MGRunCard>
<slha>
######################################################################
## PARAM_CARD AUTOMATICALY GENERATED BY MG5 FOLLOWING UFO MODEL   ####
######################################################################
##                                                                  ##
##  Width set on Auto will be computed following the information    ##
##        present in the decay.py files of the model.               ##
##        See  arXiv:1402.1178 for more details.                    ##
##                                                                  ##
######################################################################

###################################
## INFORMATION FOR CKMBLOCK
###################################
Block ckmblock 
    1 2.277360e-01 # cabi 

###################################
## INFORMATION FOR FRBLOCK
###################################
Block frblock 
    1 1.600000e+00 # gz 

###################################
## INFORMATION FOR MASS
###################################
Block mass 
    1 5.040000e-03 # MD 
    2 2.550000e-03 # MU 
    3 1.010000e-01 # MS 
    4 1.270000e+00 # MC 
    5 4.700000e+00 # MB 
    6 1.720000e+02 # MT 
   11 5.110000e-04 # Me 
   13 1.056600e-01 # MM 
   15 1.777000e+00 # MTA 
   23 9.118760e+01 # MZ 
   25 1.200000e+02 # MH 
  10030 1.600000e+03 # MZph 
  10031 3.000000e+02 # MZpl 
## Dependent parameters, given by model restrictions.
## Those values should be edited following the 
## analytical expression. MG5 ignores those values 
## but they are important for interfacing the output of MG5
## to external program such as Pythia.
  12 0.000000 # ve : 0.0 
  14 0.000000 # vm : 0.0 
  16 0.000000 # vt : 0.0 
  21 0.000000 # g : 0.0 
  22 0.000000 # a : 0.0 
  24 79.824360 # w+ : cmath.sqrt(MZ__exp__2/2. + cmath.sqrt(MZ__exp__4/4. - (aEW*cmath.pi*MZ__exp__2)/(Gf*sqrt__2))) 

###################################
## INFORMATION FOR SMINPUTS
###################################
Block sminputs 
    1 1.279000e+02 # aEWM1 
    2 1.166370e-05 # Gf 
    3 1.184000e-01 # aS 

###################################
## INFORMATION FOR YUKAWA
###################################
Block yukawa 
    1 5.040000e-03 # ymdo 
    2 2.550000e-03 # ymup 
    3 1.010000e-01 # yms 
    4 1.270000e+00 # ymc 
    5 4.700000e+00 # ymb 
    6 1.720000e+02 # ymt 
   11 5.110000e-04 # yme 
   13 1.056600e-01 # ymm 
   15 1.777000e+00 # ymtau 

###################################
## INFORMATION FOR DECAY
###################################
DECAY   6 1.508336e+00 # WT 
DECAY  23 2.495200e+00 # WZ 
DECAY  24 2.085000e+00 # WW 
DECAY  25 5.753088e-03 # WH 
## Dependent parameters, given by model restrictions.
## Those values should be edited following the 
## analytical expression. MG5 ignores those values 
## but they are important for interfacing the output of MG5
## to external program such as Pythia.
DECAY  1 0.000000 # d : 0.0 
DECAY  2 0.000000 # u : 0.0 
DECAY  3 0.000000 # s : 0.0 
DECAY  4 0.000000 # c : 0.0 
DECAY  5 0.000000 # b : 0.0 
DECAY  11 0.000000 # e- : 0.0 
DECAY  12 0.000000 # ve : 0.0 
DECAY  13 0.000000 # mu- : 0.0 
DECAY  14 0.000000 # vm : 0.0 
DECAY  15 0.000000 # ta- : 0.0 
DECAY  16 0.000000 # vt : 0.0 
DECAY  21 0.000000 # g : 0.0 
DECAY  22 0.000000 # a : 0.0 
DECAY  10030 0.308725 # zph : (gz__exp__2*MZph*(5 + cmath.sqrt(1 - (4*MT__exp__2)/MZph__exp__2)))/(144.*cmath.pi) 
DECAY  10031 0.132629 # zpl : (5*gz__exp__2*MZpl)/(144.*cmath.pi) 
#===========================================================
# QUANTUM NUMBERS OF NEW STATE(S) (NON SM PDG CODE)
#===========================================================

Block QNUMBERS 10030  # zph 
        1 0  # 3 times electric charge
        2 3  # number of spin states (2S+1)
        3 1  # colour rep (1: singlet, 3: triplet, 8: octet)
        4 0  # Particle/Antiparticle distinction (0=own anti)
Block QNUMBERS 10031  # zpl 
        1 0  # 3 times electric charge
        2 3  # number of spin states (2S+1)
        3 1  # colour rep (1: singlet, 3: triplet, 8: octet)
        4 0  # Particle/Antiparticle distinction (0=own anti)
</slha>
## END BANNER##
<MGGenerationInfo>
#  Number of Events        :         3928
#  Integrated weight (pb)  :  0.40766E+00
#  Max wgt                 :  0.14148E-03
#  Average wgt             :  0.10378E-03
</MGGenerationInfo>
</header>
<init>
     2212     2212  0.40000000000E+04  0.40000000000E+04 0 0  247000  247000 2   1
  0.40811354565E+00  0.98526494682E-03  0.14147960000E-03   0
</init>
<event>
 5   0  0.1375777E-03  0.1592658E+04  0.7818609E-02  0.8825071E-01
        2   -1    0    0  501    0  0.00000000000E+00  0.00000000000E+00  0.13331662853E+04  0.13331662853E+04  0.25500000920E-02 0.  1.
       -2   -1    0    0    0  501  0.00000000000E+00  0.00000000000E+00 -0.47566449089E+03  0.47566449090E+03  0.25500000920E-02 0. -1.
    10030    2    1    2    0    0  0.00000000000E+00  0.00000000000E+00  0.85750179438E+03  0.18088307762E+04  0.15926579826E+04 0.  0.
        1    1    3    3  502    0  0.91359581416E+02 -0.75700539315E+03  0.68956406809E+03  0.10280575579E+04  0.50400001928E-02 0.  1.
       -1    1    3    3    0  502 -0.91359581416E+02  0.75700539315E+03  0.16793772628E+03  0.78077321824E+03  0.50400001928E-02 0. -1.
</event>
<event>
 5   0  0.1375777E-03  0.1621662E+04  0.7818609E-02  0.8807350E-01
        2   -1    0    0  501    0  0.00000000000E+00  0.00000000000E+00  0.54139692410E+03  0.54139692410E+03  0.25500000920E-02 0. -1.
       -2   -1    0    0    0  501  0.00000000000E+00  0.00000000000E+00 -0.12143528677E+04  0.12143528677E+04  0.25500000920E-02 0.  1.
    10030    2    1    2    0    0  0.00000000000E+00  0.00000000000E+00 -0.67295594363E+03  0.17557497918E+04  0.16216619961E+04 0.  0.
        1    1    3    3  502    0  0.77979895903E+03  0.21543537975E+03 -0.27769216174E+03  0.85534306338E+03  0.50400001928E-02 0.  1.
       -1    1    3    3    0  502 -0.77979895903E+03 -0.21543537975E+03 -0.39526378189E+03  0.90040672845E+03  0.50400001928E-02 0. -1.
</event>
<event>
 5   0  0.1354766E-03  0.1596638E+04  0.7818609E-02  0.8822616E-01
        2   -1    0    0  501    0  0.00000000000E+00  0.00000000000E+00  0.68587058324E+03  0.68587058324E+03  0.25500000920E-02 0.  1.
       -2   -1    0    0    0  501  0.00000000000E+00  0.00000000000E+00 -0.92920360636E+03  0.92920360637E+03  0.25500000920E-02 0. -1.
    10030    2    1    2    0    0  0.00000000000E+00  0.00000000000E+00 -0.24333302313E+03  0.16150741896E+04  0.15966382426E+04 0.  0.
        3    1    3    3  502    0 -0.54025032059E+03  0.86488142542E+02 -0.70972483346E+03  0.89613612645E+03  0.10100000352E+00 0. -1.
       -3    1    3    3    0  502  0.54025032059E+03 -0.86488142542E+02  0.46639181034E+03  0.71893806315E+03  0.10100000352E+00 0.  1.
</event>
<event>
 5   0  0.1375777E-03  0.1610844E+04  0.7818609E-02  0.8813914E-01
        2   -1    0    0  501    0  0.00000000000E+00  0.00000000000E+00  0.15168734794E+04  0.15168734794E+04  0.25500000920E-02 0. -1.
       -2   -1    0    0    0  501  0.00000000000E+00  0.00000000000E+00 -0.42765901396E+03  0.42765901397E+03  0.25500000920E-02 0.  1.
    10030    2    1    2    0    0  0.00000000000E+00  0.00000000000E+00  0.10892144654E+04  0.19445324933E+04  0.16108440229E+04 0.  0.
        1    1    3    3  502    0  0.45682053292E+02 -0.67379596136E+03  0.10744033381E+04  0.12690273364E+04  0.50400001928E-02 0. -1.
       -1    1    3    3    0  502 -0.45682053292E+02  0.67379596136E+03  0.14811127295E+02  0.67550515694E+03  0.50400001928E-02 0.  1.
</event>
<event>
 5   0  0.1354766E-03  0.1561729E+04  0.7818609E-02  0.8844410E-01
        2   -1    0    0  501    0  0.00000000000E+00  0.00000000000E+00  0.52766334794E+03  0.52766334795E+03  0.25500000920E-02 0. -1.
       -2   -1    0    0    0  501  0.00000000000E+00  0.00000000000E+00 -0.11555657412E+04  0.11555657412E+04  0.25500000920E-02 0.  1.
    10030    2    1    2    0    0  0.00000000000E+00  0.00000000000E+00 -0.62790239330E+03  0.16832290892E+04  0.15617294104E+04 0.  0.
        3    1    3    3  502    0 -0.13926649938E+03  0.20165778637E+03 -0.11130414372E+04  0.11397027120E+04  0.10100000352E+00 0.  1.
       -3    1    3    3    0  502  0.13926649938E+03 -0.20165778637E+03  0.48513904386E+03  0.54352637722E+03  0.10100000352E+00 0. -1.
</event>
<event>
 5   0  0.7633213E-04  0.1622223E+04  0.7818609E-02  0.8807011E-01
        1   -1    0    0  501    0  0.00000000000E+00  0.00000000000E+00  0.98369919301E+03  0.98369919303E+03  0.50400001928E-02 0.  1.
       -1   -1    0    0    0  501  0.00000000000E+00  0.00000000000E+00 -0.66880416556E+03  0.66880416558E+03  0.50400001928E-02 0. -1.
    10030    2    1    2    0    0  0.00000000000E+00  0.00000000000E+00  0.31489502745E+03  0.16525033586E+04  0.16222233114E+04 0.  0.
        1    1    3    3  502    0 -0.50212976845E+03  0.21626526856E+03  0.76779507219E+03  0.94255728932E+03  0.50400001928E-02 0.  1.
       -1    1    3    3    0  502  0.50212976845E+03 -0.21626526856E+03 -0.45290004474E+03  0.70994606929E+03  0.50400001928E-02 0. -1.
</event>
<event>
 5   0  0.7499834E-04  0.1645822E+04  0.7818609E-02  0.8792882E-01
       -1   -1    0    0    0  501  0.00000000000E+00  0.00000000000E+00  0.52040934544E+03  0.52040934546E+03  0.50400001928E-02 0.  1.
        1   -1    0    0  501    0  0.00000000000E+00  0.00000000000E+00 -0.13012501285E+04  0.13012501285E+04  0.50400001928E-02 0. -1.
    10030    2    1    2    0    0  0.00000000000E+00  0.00000000000E+00 -0.78084078306E+03  0.18216594740E+04  0.16458222597E+04 0.  0.
        3    1    3    3  502    0 -0.43909489937E+03 -0.69396165706E+03 -0.44894280046E+03  0.93591493225E+03  0.10100000352E+00 0. -1.
       -3    1    3    3    0  502  0.43909489937E+03  0.69396165706E+03 -0.33189798259E+03  0.88574454171E+03  0.10100000352E+00 0.  1.
</event>
<event>
 5   0  0.1375777E-03  0.1571120E+04  0.7818609E-02  0.8838489E-01
        2   -1    0    0  501    0  0.00000000000E+00  0.00000000000E+00  0.13651347349E+04  0.13651347349E+04  0.25500000920E-02 0. -1.
       -2   -1    0    0    0  501  0.00000000000E+00  0.00000000000E+00 -0.45204633398E+03  0.45204633399E+03  0.25500000920E-02 0.  1.
    10030    2    1    2    0    0  0.00000000000E+00  0.00000000000E+00  0.91308840092E+03  0.18171810689E+04  0.15711195401E+04 0.  0.
        1    1    3    3  502    0  0.25225787095E+03 -0.33599934707E+03  0.12242568220E+04  0.12943470790E+04  0.50400001928E-02 0. -1.
       -1    1    3    3    0  502 -0.25225787095E+03  0.33599934707E+03 -0.31116842107E+03  0.52283398989E+03  0.50400001928E-02 0.  1.
</event>
<event>
 5   0  0.7124495E-04  0.1604759E+04  0.7818609E-02  0.8817630E-01
        1   -1    0    0  501    0  0.00000000000E+00  0.00000000000E+00  0.12129201681E+04  0.12129201682E+04  0.50400001928E-02 0.  1.
       -1   -1    0    0    0  501  0.00000000000E+00  0.00000000000E+00 -0.53079541378E+03  0.53079541381E+03  0.50400001928E-02 0. -1.
    10030    2    1    2    0    0  0.00000000000E+00  0.00000000000E+00  0.68212475436E+03  0.17437155820E+04  0.16047585022E+04 0.  0.
        2    1    3    3  502    0 -0.40482203300E+03 -0.61579884390E+03 -0.37882997579E+01  0.73695552496E+03  0.25500000920E-02 0. -1.
       -2    1    3    3    0  502  0.40482203300E+03  0.61579884390E+03  0.68591305412E+03  0.10067600570E+04  0.25500000920E-02 0.  1.
</event>
<event>
 5   0  0.1375777E-03  0.1709379E+04  0.7818609E-02  0.8756033E-01
        2   -1    0    0  501    0  0.00000000000E+00  0.00000000000E+00  0.76381045418E+03  0.76381045418E+03  0.25500000920E-02 0. -1.
       -2   -1    0    0    0  501  0.00000000000E+00  0.00000000000E+00 -0.95638099337E+03  0.95638099337E+03  0.25500000920E-02 0.  1.
    10030    2    1    2    0    0  0.00000000000E+00  0.00000000000E+00 -0.19257053919E+03  0.17201914476E+04  0.17093786016E+04 0.  0.
        1    1    3    3  502    0 -0.13582246229E+03  0.90300678352E+02 -0.94057496465E+03  0.95461155342E+03  0.50400001928E-02 0.  1.
       -1    1    3    3    0  502  0.13582246229E+03 -0.90300678352E+02  0.74800442546E+03  0.76557989413E+03  0.50400001928E-02 0. -1.
</event>
<event>
 5   0  0.5095750E-04  0.1605620E+04  0.7818609E-02  0.8817103E-01
       -4   -1    0    0    0  501  0.00000000000E+00  0.00000000000E+00  0.45820295424E+03  0.45820471427E+03  0.12699999809E+01 0. -1.
        4   -1    0    0  501    0  0.00000000000E+00  0.00000000000E+00 -0.14065865362E+04  0.14065871096E+04  0.12699999809E+01 0.  1.
    10030    2    1    2    0    0  0.00000000000E+00  0.00000000000E+00 -0.94838358199E+03  0.18647918238E+04  0.16056204806E+04 0.  0.
        3    1    3    3  502    0  0.76871464265E+03 -0.21614961338E+03 -0.37798753488E+03  0.88346898299E+03  0.10100000352E+00 0. -1.
       -3    1    3    3    0  502 -0.76871464265E+03  0.21614961338E+03 -0.57039604711E+03  0.98132284084E+03  0.10100000352E+00 0.  1.
</event>
<event>
 5   0  0.1339162E-03  0.1627699E+04  0.7818609E-02  0.8803710E-01
       -2   -1    0    0    0  501  0.00000000000E+00  0.00000000000E+00  0.88644352583E+03  0.88644352584E+03  0.25500000920E-02 0.  1.
        2   -1    0    0  501    0  0.00000000000E+00  0.00000000000E+00 -0.74720068304E+03  0.74720068304E+03  0.25500000920E-02 0. -1.
    10030    2    1    2    0    0  0.00000000000E+00  0.00000000000E+00  0.13924284280E+03  0.16336442089E+04  0.16276992449E+04 0.  0.
        5    1    3    3  502    0  0.28357099548E+03 -0.23409429060E+03 -0.65905817532E+03  0.75471346537E+03  0.46999998093E+01 0. -1.
       -5    1    3    3    0  502 -0.28357099548E+03  0.23409429060E+03  0.79830101811E+03  0.87893074351E+03  0.46999998093E+01 0.  1.
</event>
<event>
 5   0  0.7302027E-04  0.1053071E+04  0.7818609E-02  0.9252179E-01
       -1   -1    0    0    0  501  0.00000000000E+00  0.00000000000E+00  0.47060556890E+03  0.47060556893E+03  0.50400001928E-02 0.  1.
        1   -1    0    0  501    0  0.00000000000E+00  0.00000000000E+00 -0.58911223792E+03  0.58911223794E+03  0.50400001928E-02 0. -1.
    10030    2    1    2    0    0  0.00000000000E+00  0.00000000000E+00 -0.11850666902E+03  0.10597178069E+04  0.10530707477E+04 0.  0.
        5    1    3    3  502    0 -0.24807713500E+03 -0.23944128367E+03  0.34118176722E+03  0.48507884052E+03  0.46999998093E+01 0.  1.
       -5    1    3    3    0  502  0.24807713500E+03  0.23944128367E+03 -0.45968843624E+03  0.57463896635E+03  0.46999998093E+01 0. -1.
</event>
<event>
 5   0  0.7633213E-04  0.1568445E+04  0.7818609E-02  0.8840171E-01
        1   -1    0    0  501    0  0.00000000000E+00  0.00000000000E+00  0.16735493478E+04  0.16735493478E+04  0.50400001928E-02 0.  1.
       -1   -1    0    0    0  501  0.00000000000E+00  0.00000000000E+00 -0.36748548558E+03  0.36748548561E+03  0.50400001928E-02 0. -1.
    10030    2    1    2    0    0  0.00000000000E+00  0.00000000000E+00  0.13060638622E+04  0.20410348334E+04  0.15684452107E+04 0.  0.
        1    1    3    3  502    0  0.36411733530E+03  0.34962955314E+03  0.14340167126E+04  0.15202717488E+04  0.50400001928E-02 0.  1.
       -1    1    3    3    0  502 -0.36411733530E+03 -0.34962955314E+03 -0.12795285039E+03  0.52076308456E+03  0.50400001928E-02 0. -1.
</event>
<event>
 5   0  0.7499834E-04  0.1643972E+04  0.7818609E-02  0.8793981E-01
       -1   -1    0    0    0  501  0.00000000000E+00  0.00000000000E+00  0.11556067301E+04  0.11556067301E+04  0.50400001928E-02 0. -1.
        1   -1    0    0  501    0  0.00000000000E+00  0.00000000000E+00 -0.58468050233E+03  0.58468050235E+03  0.50400001928E-02 0.  1.
    10030    2    1    2    0    0  0.00000000000E+00  0.00000000000E+00  0.57092622776E+03  0.17402872324E+04  0.16439716828E+04 0.  0.
        3    1    3    3  502    0  0.71444474149E+03 -0.20656548449E+03 -0.85133288867E+02  0.74856414227E+03  0.10100000352E+00 0. -1.
       -3    1    3    3    0  502 -0.71444474149E+03  0.20656548449E+03  0.65605951663E+03  0.99172309017E+03  0.10100000352E+00 0.  1.
</event>
<event>
 5   0  0.7499834E-04  0.1660499E+04  0.7818609E-02  0.8784219E-01
       -1   -1    0    0    0  501  0.00000000000E+00  0.00000000000E+00  0.10180569528E+04  0.10180569528E+04  0.50400001928E-02 0. -1.
        1   -1    0    0  501    0  0.00000000000E+00  0.00000000000E+00 -0.67708830065E+03  0.67708830067E+03  0.50400001928E-02 0.  1.
    10030    2    1    2    0    0  0.00000000000E+00  0.00000000000E+00  0.34096865217E+03  0.16951452535E+04  0.16604992649E+04 0.  0.
        3    1    3    3  502    0  0.15520556945E+02 -0.75056762285E+03  0.53245511278E+03  0.92038095454E+03  0.10100000352E+00 0. -1.
       -3    1    3    3    0  502 -0.15520556945E+02  0.75056762285E+03 -0.19148646061E+03  0.77476429896E+03  0.10100000352E+00 0.  1.
</event>
<event>
 5   0  0.1375777E-03  0.1593141E+04  0.7818609E-02  0.8824773E-01
        2   -1    0    0  501    0  0.00000000000E+00  0.00000000000E+00  0.16646275639E+04  0.16646275639E+04  0.25500000920E-02 0.  1.
       -2   -1    0    0    0  501  0.00000000000E+00  0.00000000000E+00 -0.38118132140E+03  0.38118132141E+03  0.25500000920E-02 0. -1.
    10030    2    1    2    0    0  0.00000000000E+00  0.00000000000E+00  0.12834462425E+04  0.20458088853E+04  0.15931414682E+04 0.  0.
        1    1    3    3  502    0 -0.48477583055E+03  0.28818930783E+03  0.13641153202E+04  0.14761000270E+04  0.50400001928E-02 0.  1.
       -1    1    3    3    0  502  0.48477583055E+03 -0.28818930783E+03 -0.80669077712E+02  0.56970885824E+03  0.50400001928E-02 0. -1.
</event>
<event>
 5   0  0.7601145E-04  0.1612275E+04  0.7818609E-02  0.8813042E-01
        1   -1    0    0  501    0  0.00000000000E+00  0.00000000000E+00  0.12963450622E+04  0.12963450623E+04  0.50400001928E-02 0. -1.
       -1   -1    0    0    0  501  0.00000000000E+00  0.00000000000E+00 -0.50130015551E+03  0.50130015553E+03  0.50400001928E-02 0.  1.
    10030    2    1    2    0    0  0.00000000000E+00  0.00000000000E+00  0.79504490674E+03  0.17976452178E+04  0.16122753875E+04 0.  0.
        4    1    3    3  502    0 -0.28745976660E+03  0.55656416178E+03  0.96326558718E+03  0.11490339368E+04  0.12699999809E+01 0. -1.
       -4    1    3    3    0  502  0.28745976660E+03 -0.55656416178E+03 -0.16822068044E+03  0.64861128098E+03  0.12699999809E+01 0.  1.
</event>
<event>
 5   0  0.7633213E-04  0.1576316E+04  0.7818609E-02  0.8835231E-01
        1   -1    0    0  501    0  0.00000000000E+00  0.00000000000E+00  0.18619323261E+04  0.18619323261E+04  0.50400001928E-02 0. -1.
       -1   -1    0    0    0  501  0.00000000000E+00  0.00000000000E+00 -0.33362835564E+03  0.33362835567E+03  0.50400001928E-02 0.  1.
    10030    2    1    2    0    0  0.00000000000E+00  0.00000000000E+00  0.15283039705E+04  0.21955606818E+04  0.15763164915E+04 0.  0.
        1    1    3    3  502    0 -0.68110653080E+03  0.50358452211E+02  0.13120746119E+04  0.14791828377E+04  0.50400001928E-02 0. -1.
       -1    1    3    3    0  502  0.68110653080E+03 -0.50358452211E+02  0.21622935854E+03  0.71637784411E+03  0.50400001928E-02 0.  1.
</event>
<event>
 5   0  0.1414751E-03  0.1631158E+04  0.7818609E-02  0.8801632E-01
       -2   -1    0    0    0  501  0.00000000000E+00  0.00000000000E+00  0.47558539568E+03  0.47558539569E+03  0.25500000920E-02 0. -1.
        2   -1    0    0  501    0  0.00000000000E+00  0.00000000000E+00 -0.13986321826E+04  0.13986321827E+04  0.25500000920E-02 0.  1.
    10030    2    1    2    0    0  0.00000000000E+00  0.00000000000E+00 -0.92304678697E+03  0.18742175783E+04  0.16311579200E+04 0.  0.
        2    1    3    3  502    0  0.58496847663E+03  0.52630956178E+02  0.18866925666E+03  0.61689077203E+03  0.25500000920E-02 0. -1.
       -2    1    3    3    0  502 -0.58496847663E+03 -0.52630956178E+02 -0.11117160436E+04  0.12573268063E+04  0.25500000920E-02 0.  1.
</event>
<event>
 5   0  0.7499834E-04  0.1597949E+04  0.7818609E-02  0.8821809E-01
        1   -1    0    0  501    0  0.00000000000E+00  0.00000000000E+00  0.53886337233E+03  0.53886337235E+03  0.50400001928E-02 0. -1.
       -1   -1    0    0    0  501  0.00000000000E+00  0.00000000000E+00 -0.11846418957E+04  0.11846418957E+04  0.50400001928E-02 0.  1.
    10030    2    1    2    0    0  0.00000000000E+00  0.00000000000E+00 -0.64577852339E+03  0.17235052681E+04  0.15979488439E+04 0.  0.
        3    1    3    3  502    0 -0.79697838281E+03  0.45742532243E+02 -0.28722785002E+03  0.84839069417E+03  0.10100000352E+00 0. -1.
       -3    1    3    3    0  502  0.79697838281E+03 -0.45742532243E+02 -0.35855067337E+03  0.87511457392E+03  0.10100000352E+00 0.  1.
</event>
<event>
 5   0  0.1354766E-03  0.1607121E+04  0.7818609E-02  0.8816185E-01
        2   -1    0    0  501    0  0.00000000000E+00  0.00000000000E+00  0.12166908136E+04  0.12166908136E+04  0.25500000920E-02 0.  1.
       -2   -1    0    0    0  501  0.00000000000E+00  0.00000000000E+00 -0.53070955892E+03  0.53070955893E+03  0.25500000920E-02 0. -1.
    10030    2    1    2    0    0  0.00000000000E+00  0.00000000000E+00  0.68598125467E+03  0.17474003725E+04  0.16071209600E+04 0.  0.
        3    1    3    3  502    0  0.64102989591E+03 -0.15518283402E+03 -0.15610616502E+03  0.67776853304E+03  0.10100000352E+00 0. -1.
       -3    1    3    3    0  502 -0.64102989591E+03  0.15518283402E+03  0.84208741969E+03  0.10696318395E+04  0.10100000352E+00 0.  1.
</event>
<event>
 5   0  0.7633213E-04  0.1595531E+04  0.7818609E-02  0.8823298E-01
        1   -1    0    0  501    0  0.00000000000E+00  0.00000000000E+00  0.63624209892E+03  0.63624209894E+03  0.50400001928E-02 0.  1.
       -1   -1    0    0    0  501  0.00000000000E+00  0.00000000000E+00 -0.10002954100E+04  0.10002954100E+04  0.50400001928E-02 0. -1.
    10030    2    1    2    0    0  0.00000000000E+00  0.00000000000E+00 -0.36405331108E+03  0.16365375090E+04  0.15955313237E+04 0.  0.
        1    1    3    3  502    0 -0.73943277684E+03  0.65429131776E+01  0.12504422157E+03  0.74995979796E+03  0.50400001928E-02 0.  1.
       -1    1    3    3    0  502  0.73943277684E+03 -0.65429131776E+01 -0.48909753265E+03  0.88657771100E+03  0.50400001928E-02 0. -1.
</event>
<event>
 5   0  0.1414751E-03  0.1573609E+04  0.7818609E-02  0.8836927E-01
        2   -1    0    0  501    0  0.00000000000E+00  0.00000000000E+00  0.22134774700E+04  0.22134774700E+04  0.25500000920E-02 0.  1.
       -2   -1    0    0    0  501  0.00000000000E+00  0.00000000000E+00 -0.27967802133E+03  0.27967802134E+03  0.25500000920E-02 0. -1.
    10030    2    1    2    0    0  0.00000000000E+00  0.00000000000E+00  0.19337994487E+04  0.24931554914E+04  0.15736085906E+04 0.  0.
        2    1    3    3  502    0  0.24433068056E+03  0.73986991000E+03  0.11401389429E+04  0.13809495915E+04  0.25500000920E-02 0. -1.
       -2    1    3    3    0  502 -0.24433068056E+03 -0.73986991000E+03  0.79366050578E+03  0.11122058998E+04  0.25500000920E-02 0.  1.
</event>
<event>
 5   0  0.7124495E-04  0.1645973E+04  0.7818609E-02  0.8792793E-01
       -1   -1    0    0    0  501  0.00000000000E+00  0.00000000000E+00  0.12161214911E+04  0.12161214911E+04  0.50400001928E-02 0. -1.
        1   -1    0    0  501    0  0.00000000000E+00  0.00000000000E+00 -0.55693982581E+03  0.55693982583E+03  0.50400001928E-02 0.  1.
    10030    2    1    2    0    0  0.00000000000E+00  0.00000000000E+00  0.65918166532E+03  0.17730613170E+04  0.16459726504E+04 0.  0.
        2    1    3    3  502    0 -0.11339701062E+03  0.80021740489E+03  0.49681809798E+03  0.94870174427E+03  0.25500000920E-02 0.  1.
       -2    1    3    3    0  502  0.11339701062E+03 -0.80021740489E+03  0.16236356734E+03  0.82435957270E+03  0.25500000920E-02 0. -1.
</event>
<event>
 5   0  0.1354766E-03  0.1614847E+04  0.7818609E-02  0.8811479E-01
        2   -1    0    0  501    0  0.00000000000E+00  0.00000000000E+00  0.14404274514E+04  0.14404274514E+04  0.25500000920E-02 0.  1.
       -2   -1    0    0    0  501  0.00000000000E+00  0.00000000000E+00 -0.45259650053E+03  0.45259650054E+03  0.25500000920E-02 0. -1.
    10030    2    1    2    0    0  0.00000000000E+00  0.00000000000E+00  0.98783095090E+03  0.18930239520E+04  0.16148466476E+04 0.  0.
        3    1    3    3  502    0 -0.57899011461E+03  0.46313712046E+03  0.11914543659E+03  0.75094686258E+03  0.10100000352E+00 0. -1.
       -3    1    3    3    0  502  0.57899011461E+03 -0.46313712046E+03  0.86868551430E+03  0.11420770894E+04  0.10100000352E+00 0.  1.
</event>
<event>
 5   0  0.1339162E-03  0.1619726E+04  0.7818609E-02  0.8808520E-01
       -2   -1    0    0    0  501  0.00000000000E+00  0.00000000000E+00  0.34467406636E+03  0.34467406637E+03  0.25500000920E-02 0.  1.
        2   -1    0    0  501    0  0.00000000000E+00  0.00000000000E+00 -0.19028933392E+04  0.19028933392E+04  0.25500000920E-02 0. -1.
    10030    2    1    2    0    0  0.00000000000E+00  0.00000000000E+00 -0.15582192728E+04  0.22475674055E+04  0.16197258843E+04 0.  0.
        5    1    3    3  502    0 -0.15178963576E+03 -0.70625205461E+03 -0.12871078981E+04  0.14759745559E+04  0.46999998093E+01 0.  1.
       -5    1    3    3    0  502  0.15178963576E+03  0.70625205461E+03 -0.27111137466E+03  0.77159284965E+03  0.46999998093E+01 0. -1.
</event>
<event>
 5   0  0.7124495E-04  0.1638141E+04  0.7818609E-02  0.8797453E-01
        1   -1    0    0  501    0  0.00000000000E+00  0.00000000000E+00  0.11893548794E+04  0.11893548794E+04  0.50400001928E-02 0.  1.
       -1   -1    0    0    0  501  0.00000000000E+00  0.00000000000E+00 -0.56406733684E+03  0.56406733687E+03  0.50400001928E-02 0. -1.
    10030    2    1    2    0    0  0.00000000000E+00  0.00000000000E+00  0.62528754253E+03  0.17534222162E+04  0.16381407014E+04 0.  0.
        2    1    3    3  502    0  0.58883307664E+03  0.31572349095E+03  0.81976870569E+03  0.10575568286E+04  0.25500000920E-02 0.  1.
       -2    1    3    3    0  502 -0.58883307664E+03 -0.31572349095E+03 -0.19448116317E+03  0.69586538764E+03  0.25500000920E-02 0. -1.
</event>
<event>
 5   0  0.1354766E-03  0.1610229E+04  0.7818609E-02  0.8814289E-01
        2   -1    0    0  501    0  0.00000000000E+00  0.00000000000E+00  0.13928238793E+04  0.13928238793E+04  0.25500000920E-02 0.  1.
       -2   -1    0    0    0  501  0.00000000000E+00  0.00000000000E+00 -0.46539209713E+03  0.46539209713E+03  0.25500000920E-02 0. -1.
    10030    2    1    2    0    0  0.00000000000E+00  0.00000000000E+00  0.92743178214E+03  0.18582159764E+04  0.16102288360E+04 0.  0.
        3    1    3    3  502    0  0.25009131892E+03 -0.54053782676E+03 -0.16145626235E+03  0.61708584882E+03  0.10100000352E+00 0. -1.
       -3    1    3    3    0  502 -0.25009131892E+03  0.54053782676E+03  0.10888880445E+04  0.12411301276E+04  0.10100000352E+00 0.  1.
</event>
<event>
 5   0  0.1375777E-03  0.1257763E+04  0.7818609E-02  0.9063747E-01
       -2   -1    0    0    0  501  0.00000000000E+00  0.00000000000E+00  0.37705168533E+03  0.37705168534E+03  0.25500000920E-02 0.  1.
        2   -1    0    0  501    0  0.00000000000E+00  0.00000000000E+00 -0.10489065344E+04  0.10489065344E+04  0.25500000920E-02 0. -1.
    10030    2    1    2    0    0  0.00000000000E+00  0.00000000000E+00 -0.67185484903E+03  0.14259582197E+04  0.12577630564E+04 0.  0.
        1    1    3    3  502    0  0.49955438896E+03  0.18753605661E+03 -0.71325137426E+03  0.89075916104E+03  0.50400001928E-02 0. -1.
       -1    1    3    3    0  502 -0.49955438896E+03 -0.18753605661E+03  0.41396525233E+02  0.53519905866E+03  0.50400001928E-02 0.  1.
</event>
<event>
 5   0  0.7302027E-04  0.1611277E+04  0.7818609E-02  0.8813650E-01
       -1   -1    0    0    0  501  0.00000000000E+00  0.00000000000E+00  0.11349517948E+04  0.11349517948E+04  0.50400001928E-02 0.  1.
        1   -1    0    0  501    0  0.00000000000E+00  0.00000000000E+00 -0.57187726895E+03  0.57187726897E+03  0.50400001928E-02 0. -1.
    10030    2    1    2    0    0  0.00000000000E+00  0.00000000000E+00  0.56307452586E+03  0.17068290638E+04  0.16112766775E+04 0.  0.
        5    1    3    3  502    0 -0.28706755655E+03 -0.45415865909E+03 -0.35436461818E+03  0.64363362425E+03  0.46999998093E+01 0. -1.
       -5    1    3    3    0  502  0.28706755655E+03  0.45415865909E+03  0.91743914404E+03  0.10631954395E+04  0.46999998093E+01 0.  1.
</event>
<event>
 5   0  0.1354766E-03  0.1584966E+04  0.7818609E-02  0.8829837E-01
        2   -1    0    0  501    0  0.00000000000E+00  0.00000000000E+00  0.12138725815E+04  0.12138725815E+04  0.25500000920E-02 0. -1.
       -2   -1    0    0    0  501  0.00000000000E+00  0.00000000000E+00 -0.51737680378E+03  0.51737680378E+03  0.25500000920E-02 0.  1.
    10030    2    1    2    0    0  0.00000000000E+00  0.00000000000E+00  0.69649577777E+03  0.17312493853E+04  0.15849662664E+04 0.  0.
        3    1    3    3  502    0  0.53835042885E+03  0.50890033466E+03  0.40793236279E+02  0.74193317300E+03  0.10100000352E+00 0.  1.
       -3    1    3    3    0  502 -0.53835042885E+03 -0.50890033466E+03  0.65570254149E+03  0.98931621233E+03  0.10100000352E+00 0. -1.
</event>
<event>
 5   0  0.7601145E-04  0.1599813E+04  0.7818609E-02  0.8820663E-01
        1   -1    0    0  501    0  0.00000000000E+00  0.00000000000E+00  0.11068724271E+04  0.11068724271E+04  0.50400001928E-02 0.  1.
       -1   -1    0    0    0  501  0.00000000000E+00  0.00000000000E+00 -0.57807093649E+03  0.57807093651E+03  0.50400001928E-02 0. -1.
    10030    2    1    2    0    0  0.00000000000E+00  0.00000000000E+00  0.52880149062E+03  0.16849433636E+04  0.15998134648E+04 0.  0.
        4    1    3    3  502    0  0.19971726772E+03  0.41530419325E+03 -0.42421381387E+03  0.62635735227E+03  0.12699999809E+01 0. -1.
       -4    1    3    3    0  502 -0.19971726772E+03 -0.41530419325E+03  0.95301530450E+03  0.10585860114E+04  0.12699999809E+01 0.  1.
</event>
<event>
 5   0  0.7633213E-04  0.1064278E+04  0.7818609E-02  0.9240725E-01
        1   -1    0    0  501    0  0.00000000000E+00  0.00000000000E+00  0.14542633012E+04  0.14542633012E+04  0.50400001928E-02 0.  1.
       -1   -1    0    0    0  501  0.00000000000E+00  0.00000000000E+00 -0.19471862083E+03  0.19471862090E+03  0.50400001928E-02 0. -1.
    10030    2    1    2    0    0  0.00000000000E+00  0.00000000000E+00  0.12595446804E+04  0.16489819221E+04  0.10642784305E+04 0.  0.
        1    1    3    3  502    0 -0.19980383176E+03 -0.48932886386E+03  0.72538155728E+03  0.89752031279E+03  0.50400001928E-02 0. -1.
       -1    1    3    3    0  502  0.19980383176E+03  0.48932886386E+03  0.53416312309E+03  0.75146160933E+03  0.50400001928E-02 0.  1.
</event>
<event>
 5   0  0.7499834E-04  0.1599458E+04  0.7818609E-02  0.8820881E-01
        1   -1    0    0  501    0  0.00000000000E+00  0.00000000000E+00  0.11044952643E+04  0.11044952643E+04  0.50400001928E-02 0. -1.
       -1   -1    0    0    0  501  0.00000000000E+00  0.00000000000E+00 -0.57905800074E+03  0.57905800077E+03  0.50400001928E-02 0.  1.
    10030    2    1    2    0    0  0.00000000000E+00  0.00000000000E+00  0.52543726359E+03  0.16835532651E+04  0.15994584329E+04 0.  0.
        3    1    3    3  502    0 -0.38843133362E+03  0.37235749738E+03 -0.36002798641E+03  0.64741730591E+03  0.10100000352E+00 0.  1.
       -3    1    3    3    0  502  0.38843133362E+03 -0.37235749738E+03  0.88546525000E+03  0.10361359592E+04  0.10100000352E+00 0. -1.
</event>
<event>
 5   0  0.1414796E-03  0.1540207E+04  0.7818609E-02  0.8858147E-01
       -2   -1    0    0    0  501  0.00000000000E+00  0.00000000000E+00  0.39272996793E+03  0.39272996794E+03  0.25500000920E-02 0.  1.
        2   -1    0    0  501    0  0.00000000000E+00  0.00000000000E+00 -0.15100949296E+04  0.15100949296E+04  0.25500000920E-02 0. -1.
    10030    2    1    2    0    0  0.00000000000E+00  0.00000000000E+00 -0.11173649616E+04  0.19028248975E+04  0.15402071721E+04 0.  0.
        4    1    3    3  502    0  0.57813927963E+03 -0.43604325586E+03 -0.88244920529E+03  0.11415327242E+04  0.12699999809E+01 0. -1.
       -4    1    3    3    0  502 -0.57813927963E+03  0.43604325586E+03 -0.23491575634E+03  0.76129217329E+03  0.12699999809E+01 0.  1.
</event>
<event>
 5   0  0.1414796E-03  0.1582114E+04  0.7818609E-02  0.8831612E-01
       -2   -1    0    0    0  501  0.00000000000E+00  0.00000000000E+00  0.61529679684E+03  0.61529679685E+03  0.25500000920E-02 0. -1.
        2   -1    0    0  501    0  0.00000000000E+00  0.00000000000E+00 -0.10170230818E+04  0.10170230818E+04  0.25500000920E-02 0.  1.
    10030    2    1    2    0    0  0.00000000000E+00  0.00000000000E+00 -0.40172628495E+03  0.16323198786E+04  0.15821138323E+04 0.  0.
        4    1    3    3  502    0  0.64226569041E+03 -0.21733730626E+02 -0.67679529664E+03  0.93329044706E+03  0.12699999809E+01 0.  1.
       -4    1    3    3    0  502 -0.64226569041E+03  0.21733730626E+02  0.27506901169E+03  0.69902943158E+03  0.12699999809E+01 0. -1.
</event>
<event>
 5   0  0.5095750E-04  0.1525032E+04  0.7818609E-02  0.8867976E-01
       -4   -1    0    0    0  501  0.00000000000E+00  0.00000000000E+00  0.52472980159E+03  0.52473133847E+03  0.12699999809E+01 0.  1.
        4   -1    0    0  501    0  0.00000000000E+00  0.00000000000E+00 -0.11080535715E+04  0.11080542993E+04  0.12699999809E+01 0. -1.
    10030    2    1    2    0    0  0.00000000000E+00  0.00000000000E+00 -0.58332376993E+03  0.16327856378E+04  0.15250319073E+04 0.  0.
        5    1    3    3  502    0  0.38351992931E+03 -0.46812410650E+03 -0.78831363984E+03  0.99382503491E+03  0.46999998093E+01 0. -1.
       -5    1    3    3    0  502 -0.38351992931E+03  0.46812410650E+03  0.20498986991E+03  0.63896060288E+03  0.46999998093E+01 0.  1.
</event>
<event>
 5   0  0.7302027E-04  0.1627144E+04  0.7818609E-02  0.8804044E-01
        1   -1    0    0  501    0  0.00000000000E+00  0.00000000000E+00  0.95669119232E+03  0.95669119233E+03  0.50400001928E-02 0. -1.
       -1   -1    0    0    0  501  0.00000000000E+00  0.00000000000E+00 -0.69186312674E+03  0.69186312676E+03  0.50400001928E-02 0.  1.
    10030    2    1    2    0    0  0.00000000000E+00  0.00000000000E+00  0.26482806558E+03  0.16485543191E+04  0.16271439514E+04 0.  0.
        5    1    3    3  502    0 -0.36979561416E+03 -0.64424942648E+03  0.46854926613E+03  0.87827480014E+03  0.46999998093E+01 0. -1.
       -5    1    3    3    0  502  0.36979561416E+03  0.64424942648E+03 -0.20372120055E+03  0.77027951896E+03  0.46999998093E+01 0.  1.
</event>
<event>
 5   0  0.7302027E-04  0.1591831E+04  0.7818609E-02  0.8825583E-01
        1   -1    0    0  501    0  0.00000000000E+00  0.00000000000E+00  0.11152698298E+04  0.11152698298E+04  0.50400001928E-02 0.  1.
       -1   -1    0    0    0  501  0.00000000000E+00  0.00000000000E+00 -0.56800708523E+03  0.56800708525E+03  0.50400001928E-02 0. -1.
    10030    2    1    2    0    0  0.00000000000E+00  0.00000000000E+00  0.54726274459E+03  0.16832769151E+04  0.15918306007E+04 0.  0.
        5    1    3    3  502    0  0.98507283551E+01  0.18674748029E+03 -0.54443064782E+03  0.57567219711E+03  0.46999998093E+01 0. -1.
       -5    1    3    3    0  502 -0.98507283551E+01 -0.18674748029E+03  0.10916933924E+04  0.11076047180E+04  0.46999998093E+01 0.  1.
</event>
<event>
 5   0  0.1414751E-03  0.1676667E+04  0.7818609E-02  0.8774785E-01
       -2   -1    0    0    0  501  0.00000000000E+00  0.00000000000E+00  0.34315072376E+03  0.34315072377E+03  0.25500000920E-02 0. -1.
        2   -1    0    0  501    0  0.00000000000E+00  0.00000000000E+00 -0.20480892984E+04  0.20480892984E+04  0.25500000920E-02 0.  1.
    10030    2    1    2    0    0  0.00000000000E+00  0.00000000000E+00 -0.17049385746E+04  0.23912400222E+04  0.16766673195E+04 0.  0.
        2    1    3    3  502    0 -0.40855451118E+02 -0.78241073476E+03 -0.42707445739E+03  0.89231626564E+03  0.25500000920E-02 0. -1.
       -2    1    3    3    0  502  0.40855451118E+02  0.78241073476E+03 -0.12778641172E+04  0.14989237565E+04  0.25500000920E-02 0.  1.
</event>
<event>
 5   0  0.1354766E-03  0.1554071E+04  0.7818609E-02  0.8849272E-01
        2   -1    0    0  501    0  0.00000000000E+00  0.00000000000E+00  0.83585430830E+03  0.83585430830E+03  0.25500000920E-02 0. -1.
       -2   -1    0    0    0  501  0.00000000000E+00  0.00000000000E+00 -0.72235537342E+03  0.72235537343E+03  0.25500000920E-02 0.  1.
    10030    2    1    2    0    0  0.00000000000E+00  0.00000000000E+00  0.11349893488E+03  0.15582096817E+04  0.15540705917E+04 0.  0.
        3    1    3    3  502    0  0.24788694179E+03  0.29654463782E+03 -0.61913578635E+03  0.72987381804E+03  0.10100000352E+00 0.  1.
       -3    1    3    3    0  502 -0.24788694179E+03 -0.29654463782E+03  0.73263472122E+03  0.82833586369E+03  0.10100000352E+00 0. -1.
</event>
<event>
 5   0  0.1375777E-03  0.1576200E+04  0.7818609E-02  0.8835304E-01
        2   -1    0    0  501    0  0.00000000000E+00  0.00000000000E+00  0.21960049749E+04  0.21960049749E+04  0.25500000920E-02 0.  1.
       -2   -1    0    0    0  501  0.00000000000E+00  0.00000000000E+00 -0.28283236127E+03  0.28283236128E+03  0.25500000920E-02 0. -1.
    10030    2    1    2    0    0  0.00000000000E+00  0.00000000000E+00  0.19131726136E+04  0.24788373362E+04  0.15761995716E+04 0.  0.
        1    1    3    3  502    0  0.15924048227E+03  0.75007018125E+03  0.12428742205E+04  0.14603763679E+04  0.50400001928E-02 0.  1.
       -1    1    3    3    0  502 -0.15924048227E+03 -0.75007018125E+03  0.67029839314E+03  0.10184609683E+04  0.50400001928E-02 0. -1.
</event>
<event>
 5   0  0.1414751E-03  0.1622353E+04  0.7818609E-02  0.8806932E-01
       -2   -1    0    0    0  501  0.00000000000E+00  0.00000000000E+00  0.38941061346E+03  0.38941061347E+03  0.25500000920E-02 0. -1.
        2   -1    0    0  501    0  0.00000000000E+00  0.00000000000E+00 -0.16897518051E+04  0.16897518051E+04  0.25500000920E-02 0.  1.
    10030    2    1    2    0    0  0.00000000000E+00  0.00000000000E+00 -0.13003411916E+04  0.20791624185E+04  0.16223529666E+04 0.  0.
        2    1    3    3  502    0  0.25603565203E+03 -0.56391405094E+03 -0.13215651773E+04  0.14594820416E+04  0.25500000920E-02 0.  1.
       -2    1    3    3    0  502 -0.25603565203E+03  0.56391405094E+03  0.21223985698E+02  0.61968037692E+03  0.25500000920E-02 0. -1.
</event>
<event>
 5   0  0.1354766E-03  0.1586083E+04  0.7818609E-02  0.8829144E-01
       -2   -1    0    0    0  501  0.00000000000E+00  0.00000000000E+00  0.45001237842E+03  0.45001237842E+03  0.25500000920E-02 0. -1.
        2   -1    0    0  501    0  0.00000000000E+00  0.00000000000E+00 -0.13975499102E+04  0.13975499102E+04  0.25500000920E-02 0.  1.
    10030    2    1    2    0    0  0.00000000000E+00  0.00000000000E+00 -0.94753753182E+03  0.18475622887E+04  0.15860829223E+04 0.  0.
        3    1    3    3  502    0  0.49138884852E+03  0.12908655750E+03 -0.11830790799E+04  0.12875567790E+04  0.10100000352E+00 0.  1.
       -3    1    3    3    0  502 -0.49138884852E+03 -0.12908655750E+03  0.23554154804E+03  0.56000550965E+03  0.10100000352E+00 0. -1.
</event>
<event>
 5   0  0.7302027E-04  0.1656301E+04  0.7818609E-02  0.8786687E-01
        1   -1    0    0  501    0  0.00000000000E+00  0.00000000000E+00  0.13171181283E+04  0.13171181283E+04  0.50400001928E-02 0. -1.
       -1   -1    0    0    0  501  0.00000000000E+00  0.00000000000E+00 -0.52070769502E+03  0.52070769505E+03  0.50400001928E-02 0.  1.
    10030    2    1    2    0    0  0.00000000000E+00  0.00000000000E+00  0.79641043327E+03  0.18378258234E+04  0.16563013551E+04 0.  0.
        5    1    3    3  502    0  0.75297247559E+02 -0.80595333728E+03  0.59224501506E+03  0.10029988560E+04  0.46999998093E+01 0. -1.
       -5    1    3    3    0  502 -0.75297247559E+02  0.80595333728E+03  0.20416541821E+03  0.83482696731E+03  0.46999998093E+01 0.  1.
</event>
<event>
 5   0  0.1339162E-03  0.1646217E+04  0.7818609E-02  0.8792647E-01
       -2   -1    0    0    0  501  0.00000000000E+00  0.00000000000E+00  0.10782110680E+04  0.10782110680E+04  0.25500000920E-02 0.  1.
        2   -1    0    0  501    0  0.00000000000E+00  0.00000000000E+00 -0.62836299722E+03  0.62836299723E+03  0.25500000920E-02 0. -1.
    10030    2    1    2    0    0  0.00000000000E+00  0.00000000000E+00  0.44984807073E+03  0.17065740652E+04  0.16462174076E+04 0.  0.
        5    1    3    3  502    0 -0.31336815873E+03  0.62048813086E+03 -0.23200926447E+03  0.73284071410E+03  0.46999998093E+01 0. -1.
       -5    1    3    3    0  502  0.31336815873E+03 -0.62048813086E+03  0.68185733520E+03  0.97373335108E+03  0.46999998093E+01 0.  1.
</event>
<event>
 5   0  0.7302027E-04  0.1610684E+04  0.7818609E-02  0.8814011E-01
        1   -1    0    0  501    0  0.00000000000E+00  0.00000000000E+00  0.83341196963E+03  0.83341196964E+03  0.50400001928E-02 0. -1.
       -1   -1    0    0    0  501  0.00000000000E+00  0.00000000000E+00 -0.77821743043E+03  0.77821743044E+03  0.50400001928E-02 0.  1.
    10030    2    1    2    0    0  0.00000000000E+00  0.00000000000E+00  0.55194539199E+02  0.16116294001E+04  0.16106839808E+04 0.  0.
        5    1    3    3  502    0  0.16791067840E+03  0.54309174398E+03 -0.54318562847E+03  0.78626672019E+03  0.46999998093E+01 0.  1.
       -5    1    3    3    0  502 -0.16791067840E+03 -0.54309174398E+03  0.59838016767E+03  0.82536267989E+03  0.46999998093E+01 0. -1.
</event>
<event>
 5   0  0.7499834E-04  0.1635501E+04  0.7818609E-02  0.8799030E-01
        1   -1    0    0  501    0  0.00000000000E+00  0.00000000000E+00  0.60385695014E+03  0.60385695016E+03  0.50400001928E-02 0.  1.
       -1   -1    0    0    0  501  0.00000000000E+00  0.00000000000E+00 -0.11074078343E+04  0.11074078343E+04  0.50400001928E-02 0. -1.
    10030    2    1    2    0    0  0.00000000000E+00  0.00000000000E+00 -0.50355088414E+03  0.17112647844E+04  0.16355010454E+04 0.  0.
        3    1    3    3  502    0  0.33081644113E+03  0.55319985756E+03 -0.77832341803E+03  0.10105725869E+04  0.10100000352E+00 0. -1.
       -3    1    3    3    0  502 -0.33081644113E+03 -0.55319985756E+03  0.27477253389E+03  0.70069219755E+03  0.10100000352E+00 0.  1.
</event>
<event>
 5   0  0.1354766E-03  0.1580789E+04  0.7818609E-02  0.8832438E-01
       -2   -1    0    0    0  501  0.00000000000E+00  0.00000000000E+00  0.24469019754E+03  0.24469019755E+03  0.25500000920E-02 0.  1.
        2   -1    0    0  501    0  0.00000000000E+00  0.00000000000E+00 -0.25531193407E+04  0.25531193407E+04  0.25500000920E-02 0. -1.
    10030    2    1    2    0    0  0.00000000000E+00  0.00000000000E+00 -0.23084291432E+04  0.27978095383E+04  0.15807887599E+04 0.  0.
        3    1    3    3  502    0  0.12764700488E+03 -0.14763379323E+03 -0.25098029516E+04  0.25173796617E+04  0.10100000352E+00 0. -1.
       -3    1    3    3    0  502 -0.12764700488E+03  0.14763379323E+03  0.20137380845E+03  0.28042987660E+03  0.10100000352E+00 0.  1.
</event>
<event>
 5   0  0.7633213E-04  0.1583053E+04  0.7818609E-02  0.8831027E-01
       -1   -1    0    0    0  501  0.00000000000E+00  0.00000000000E+00  0.52498349306E+03  0.52498349308E+03  0.50400001928E-02 0. -1.
        1   -1    0    0  501    0  0.00000000000E+00  0.00000000000E+00 -0.11933985277E+04  0.11933985277E+04  0.50400001928E-02 0.  1.
    10030    2    1    2    0    0  0.00000000000E+00  0.00000000000E+00 -0.66841503465E+03  0.17183820208E+04  0.15830534138E+04 0.  0.
        1    1    3    3  502    0 -0.29555979477E+03 -0.51227928350E+03  0.23681257137E+03  0.63707601632E+03  0.50400001928E-02 0. -1.
       -1    1    3    3    0  502  0.29555979477E+03  0.51227928350E+03 -0.90522760602E+03  0.10813060045E+04  0.50400001928E-02 0.  1.
</event>
<event>
 5   0  0.7499834E-04  0.1622699E+04  0.7818609E-02  0.8806723E-01
       -1   -1    0    0    0  501  0.00000000000E+00  0.00000000000E+00  0.66945597212E+03  0.66945597214E+03  0.50400001928E-02 0.  1.
        1   -1    0    0  501    0  0.00000000000E+00  0.00000000000E+00 -0.98331831295E+03  0.98331831296E+03  0.50400001928E-02 0. -1.
    10030    2    1    2    0    0  0.00000000000E+00  0.00000000000E+00 -0.31386234083E+03  0.16527742851E+04  0.16226993771E+04 0.  0.
        3    1    3    3  502    0  0.11640343700E+03  0.22171443055E+03 -0.94297359963E+03  0.97565683960E+03  0.10100000352E+00 0. -1.
       -3    1    3    3    0  502 -0.11640343700E+03 -0.22171443055E+03  0.62911125880E+03  0.67711744551E+03  0.10100000352E+00 0.  1.
</event>
<event>
 5   0  0.7124495E-04  0.1592310E+04  0.7818609E-02  0.8825286E-01
       -1   -1    0    0    0  501  0.00000000000E+00  0.00000000000E+00  0.70927106660E+03  0.70927106662E+03  0.50400001928E-02 0. -1.
        1   -1    0    0  501    0  0.00000000000E+00  0.00000000000E+00 -0.89368179732E+03  0.89368179734E+03  0.50400001928E-02 0.  1.
    10030    2    1    2    0    0  0.00000000000E+00  0.00000000000E+00 -0.18441073072E+03  0.16029528640E+04  0.15923098211E+04 0.  0.
        2    1    3    3  502    0  0.59503153019E+02  0.75224971304E+03 -0.34775718795E+03  0.83087623493E+03  0.25500000920E-02 0.  1.
       -2    1    3    3    0  502 -0.59503153019E+02 -0.75224971304E+03  0.16334645723E+03  0.77207662902E+03  0.25500000920E-02 0. -1.
</event>
<event>
 5   0  0.7302027E-04  0.1616554E+04  0.7818609E-02  0.8810442E-01
        1   -1    0    0  501    0  0.00000000000E+00  0.00000000000E+00  0.14418781103E+04  0.14418781104E+04  0.50400001928E-02 0.  1.
       -1   -1    0    0    0  501  0.00000000000E+00  0.00000000000E+00 -0.45309778682E+03  0.45309778685E+03  0.50400001928E-02 0. -1.
    10030    2    1    2    0    0  0.00000000000E+00  0.00000000000E+00  0.98878032353E+03  0.18949758972E+04  0.16165540890E+04 0.  0.
        5    1    3    3  502    0 -0.70989541350E+03 -0.37868056151E+03  0.40405052575E+03  0.90034958940E+03  0.46999998093E+01 0. -1.
       -5    1    3    3    0  502  0.70989541350E+03  0.37868056151E+03  0.58472979778E+03  0.99462630781E+03  0.46999998093E+01 0.  1.
</event>
<event>
 5   0  0.1414796E-03  0.1593788E+04  0.7818609E-02  0.8824373E-01
       -2   -1    0    0    0  501  0.00000000000E+00  0.00000000000E+00  0.43431855509E+03  0.43431855510E+03  0.25500000920E-02 0. -1.
        2   -1    0    0  501    0  0.00000000000E+00  0.00000000000E+00 -0.14621526602E+04  0.14621526602E+04  0.25500000920E-02 0.  1.
    10030    2    1    2    0    0  0.00000000000E+00  0.00000000000E+00 -0.10278341051E+04  0.18964712153E+04  0.15937879793E+04 0.  0.
        4    1    3    3  502    0  0.39802895330E+03  0.63483433486E+03 -0.83672557326E+03  0.11231887545E+04  0.12699999809E+01 0. -1.
       -4    1    3    3    0  502 -0.39802895330E+03 -0.63483433486E+03 -0.19110853188E+03  0.77328246084E+03  0.12699999809E+01 0.  1.
</event>
<event>
 5   0  0.1375777E-03  0.1613718E+04  0.7818609E-02  0.8812165E-01
        2   -1    0    0  501    0  0.00000000000E+00  0.00000000000E+00  0.15459824240E+04  0.15459824240E+04  0.25500000920E-02 0.  1.
       -2   -1    0    0    0  501  0.00000000000E+00  0.00000000000E+00 -0.42110508261E+03  0.42110508262E+03  0.25500000920E-02 0. -1.
    10030    2    1    2    0    0  0.00000000000E+00  0.00000000000E+00  0.11248773414E+04  0.19670875066E+04  0.16137175173E+04 0.  0.
        1    1    3    3  502    0  0.37474930447E+03 -0.53235989500E+03 -0.18564237197E+02  0.65129772757E+03  0.50400001928E-02 0. -1.
       -1    1    3    3    0  502 -0.37474930447E+03  0.53235989500E+03  0.11434415786E+04  0.13157897791E+04  0.50400001928E-02 0.  1.
</event>
<event>
 5   0  0.7601145E-04  0.1530718E+04  0.7818609E-02  0.8864279E-01
        1   -1    0    0  501    0  0.00000000000E+00  0.00000000000E+00  0.64378080220E+03  0.64378080222E+03  0.50400001928E-02 0. -1.
       -1   -1    0    0    0  501  0.00000000000E+00  0.00000000000E+00 -0.90989702758E+03  0.90989702759E+03  0.50400001928E-02 0.  1.
    10030    2    1    2    0    0  0.00000000000E+00  0.00000000000E+00 -0.26611622538E+03  0.15536778298E+04  0.15307177903E+04 0.  0.
        4    1    3    3  502    0 -0.22943561208E+03  0.57632484950E+03 -0.58809225209E+03  0.85477783202E+03  0.12699999809E+01 0.  1.
       -4    1    3    3    0  502  0.22943561208E+03 -0.57632484950E+03  0.32197602670E+03  0.69889999779E+03  0.12699999809E+01 0. -1.
</event>
<event>
 5   0  0.1414751E-03  0.1538483E+04  0.7818609E-02  0.8859258E-01
       -2   -1    0    0    0  501  0.00000000000E+00  0.00000000000E+00  0.26989891542E+03  0.26989891543E+03  0.25500000920E-02 0.  1.
        2   -1    0    0  501    0  0.00000000000E+00  0.00000000000E+00 -0.21924227616E+04  0.21924227616E+04  0.25500000920E-02 0. -1.
    10030    2    1    2    0    0  0.00000000000E+00  0.00000000000E+00 -0.19225238461E+04  0.24623216770E+04  0.15384830522E+04 0.  0.
        2    1    3    3  502    0  0.43395763122E+03  0.45592467637E+03 -0.16690064643E+04  0.17837514160E+04  0.25500000920E-02 0. -1.
       -2    1    3    3    0  502 -0.43395763122E+03 -0.45592467637E+03 -0.25351738187E+03  0.67857026102E+03  0.25500000920E-02 0.  1.
</event>
<event>
 5   0  0.7302027E-04  0.1579905E+04  0.7818609E-02  0.8832989E-01
        1   -1    0    0  501    0  0.00000000000E+00  0.00000000000E+00  0.93881546305E+03  0.93881546306E+03  0.50400001928E-02 0. -1.
       -1   -1    0    0    0  501  0.00000000000E+00  0.00000000000E+00 -0.66469361143E+03  0.66469361145E+03  0.50400001928E-02 0.  1.
    10030    2    1    2    0    0  0.00000000000E+00  0.00000000000E+00  0.27412185162E+03  0.16035090745E+04  0.15799046055E+04 0.  0.
        5    1    3    3  502    0  0.35915866387E+03  0.45831443470E+03 -0.40472668095E+03  0.70913527846E+03  0.46999998093E+01 0.  1.
       -5    1    3    3    0  502 -0.35915866387E+03 -0.45831443470E+03  0.67884853258E+03  0.89437379605E+03  0.46999998093E+01 0. -1.
</event>
<event>
 5   0  0.1414751E-03  0.1190428E+04  0.7818609E-02  0.9121276E-01
        2   -1    0    0  501    0  0.00000000000E+00  0.00000000000E+00  0.17897156383E+04  0.17897156383E+04  0.25500000920E-02 0.  1.
       -2   -1    0    0    0  501  0.00000000000E+00  0.00000000000E+00 -0.19795318836E+03  0.19795318838E+03  0.25500000920E-02 0. -1.
    10030    2    1    2    0    0  0.00000000000E+00  0.00000000000E+00  0.15917624500E+04  0.19876688267E+04  0.11904283546E+04 0.  0.
        2    1    3    3  502    0  0.46698827713E+03  0.17937003564E+03  0.13344193118E+04  0.14251058068E+04  0.25500000920E-02 0.  1.
       -2    1    3    3    0  502 -0.46698827713E+03 -0.17937003564E+03  0.25734313813E+03  0.56256301995E+03  0.25500000920E-02 0. -1.
</event>
<event>
 5   0  0.7601145E-04  0.1636596E+04  0.7818609E-02  0.8798376E-01
       -1   -1    0    0    0  501  0.00000000000E+00  0.00000000000E+00  0.35189238162E+03  0.35189238166E+03  0.50400001928E-02 0. -1.
        1   -1    0    0  501    0  0.00000000000E+00  0.00000000000E+00 -0.19028886469E+04  0.19028886470E+04  0.50400001928E-02 0.  1.
    10030    2    1    2    0    0  0.00000000000E+00  0.00000000000E+00 -0.15509962653E+04  0.22547810286E+04  0.16365964903E+04 0.  0.
        4    1    3    3  502    0  0.43073055011E+03 -0.53360357643E+03 -0.16036433004E+03  0.70425841481E+03  0.12699999809E+01 0. -1.
       -4    1    3    3    0  502 -0.43073055011E+03  0.53360357643E+03 -0.13906319353E+04  0.15505226138E+04  0.12699999809E+01 0.  1.
</event>
<event>
 5   0  0.7124495E-04  0.1583083E+04  0.7818609E-02  0.8831008E-01
        1   -1    0    0  501    0  0.00000000000E+00  0.00000000000E+00  0.11188714743E+04  0.11188714743E+04  0.50400001928E-02 0. -1.
       -1   -1    0    0    0  501  0.00000000000E+00  0.00000000000E+00 -0.55997342355E+03  0.55997342358E+03  0.50400001928E-02 0.  1.
    10030    2    1    2    0    0  0.00000000000E+00  0.00000000000E+00  0.55889805072E+03  0.16788448979E+04  0.15830834343E+04 0.  0.
        2    1    3    3  502    0  0.33820391155E+02  0.10279483548E+03  0.11109896686E+04  0.11162475715E+04  0.25500000920E-02 0. -1.
       -2    1    3    3    0  502 -0.33820391155E+02 -0.10279483548E+03 -0.55209161791E+03  0.56259732636E+03  0.25500000920E-02 0.  1.
</event>
<event>
 5   0  0.7124495E-04  0.1883979E+04  0.7818609E-02  0.8662872E-01
        1   -1    0    0  501    0  0.00000000000E+00  0.00000000000E+00  0.73791297582E+03  0.73791297584E+03  0.50400001928E-02 0.  1.
       -1   -1    0    0    0  501  0.00000000000E+00  0.00000000000E+00 -0.12025057139E+04  0.12025057140E+04  0.50400001928E-02 0. -1.
    10030    2    1    2    0    0  0.00000000000E+00  0.00000000000E+00 -0.46459273812E+03  0.19404186898E+04  0.18839793734E+04 0.  0.
        2    1    3    3  502    0  0.54530464001E+02  0.72292728610E+03  0.38717588166E+03  0.82188964943E+03  0.25500000920E-02 0.  1.
       -2    1    3    3    0  502 -0.54530464001E+02 -0.72292728610E+03 -0.85176861979E+03  0.11185290404E+04  0.25500000920E-02 0. -1.
</event>
<event>
 5   0  0.1414796E-03  0.1675897E+04  0.7818609E-02  0.8775232E-01
        2   -1    0    0  501    0  0.00000000000E+00  0.00000000000E+00  0.25324414191E+04  0.25324414191E+04  0.25500000920E-02 0. -1.
       -2   -1    0    0    0  501  0.00000000000E+00  0.00000000000E+00 -0.27726504838E+03  0.27726504839E+03  0.25500000920E-02 0.  1.
    10030    2    1    2    0    0  0.00000000000E+00  0.00000000000E+00  0.22551763707E+04  0.28097064675E+04  0.16758967660E+04 0.  0.
        4    1    3    3  502    0  0.32005238240E+03  0.70847278064E+03  0.60331461953E+03  0.98405149836E+03  0.12699999809E+01 0.  1.
       -4    1    3    3    0  502 -0.32005238240E+03 -0.70847278064E+03  0.16518617512E+04  0.18256549691E+04  0.12699999809E+01 0. -1.
</event>
<event>
 5   0  0.5095750E-04  0.1577625E+04  0.7818609E-02  0.8834413E-01
        3   -1    0    0  501    0  0.00000000000E+00  0.00000000000E+00  0.69451885698E+03  0.69451886432E+03  0.10100000352E+00 0.  1.
       -3   -1    0    0    0  501  0.00000000000E+00  0.00000000000E+00 -0.89590817366E+03  0.89590817935E+03  0.10100000352E+00 0. -1.
    10030    2    1    2    0    0  0.00000000000E+00  0.00000000000E+00 -0.20138931668E+03  0.15904270437E+04  0.15776249632E+04 0.  0.
        4    1    3    3  502    0  0.19982918132E+03 -0.21483382883E+03  0.63746171768E+03  0.70174377812E+03  0.12699999809E+01 0.  1.
       -4    1    3    3    0  502 -0.19982918132E+03  0.21483382883E+03 -0.83885103436E+03  0.88868326555E+03  0.12699999809E+01 0. -1.
</event>
<event>
 5   0  0.1339162E-03  0.1608245E+04  0.7818609E-02  0.8815499E-01
        2   -1    0    0  501    0  0.00000000000E+00  0.00000000000E+00  0.27417120750E+04  0.27417120750E+04  0.25500000920E-02 0.  1.
       -2   -1    0    0    0  501  0.00000000000E+00  0.00000000000E+00 -0.23584283231E+03  0.23584283232E+03  0.25500000920E-02 0. -1.
    10030    2    1    2    0    0  0.00000000000E+00  0.00000000000E+00  0.25058692427E+04  0.29775549073E+04  0.16082451817E+04 0.  0.
        5    1    3    3  502    0 -0.99621070004E+02  0.79437122548E+03  0.11138793418E+04  0.13717504436E+04  0.46999998093E+01 0.  1.
       -5    1    3    3    0  502  0.99621070004E+02 -0.79437122548E+03  0.13919899009E+04  0.16058044637E+04  0.46999998093E+01 0. -1.
</event>
<event>
 5   0  0.1339162E-03  0.1580679E+04  0.7818609E-02  0.8832506E-01
        2   -1    0    0  501    0  0.00000000000E+00  0.00000000000E+00  0.53190984830E+03  0.53190984831E+03  0.25500000920E-02 0.  1.
       -2   -1    0    0    0  501  0.00000000000E+00  0.00000000000E+00 -0.11743282789E+04  0.11743282789E+04  0.25500000920E-02 0. -1.
    10030    2    1    2    0    0  0.00000000000E+00  0.00000000000E+00 -0.64241843058E+03  0.17062381272E+04  0.15806793181E+04 0.  0.
        5    1    3    3  502    0 -0.56554858253E+03  0.52386337814E+02 -0.91443146605E+03  0.10764741166E+04  0.46999998093E+01 0. -1.
       -5    1    3    3    0  502  0.56554858253E+03 -0.52386337814E+02  0.27201303547E+03  0.62976401060E+03  0.46999998093E+01 0.  1.
</event>
<event>
 5   0  0.1414796E-03  0.1546765E+04  0.7818609E-02  0.8853937E-01
        2   -1    0    0  501    0  0.00000000000E+00  0.00000000000E+00  0.11668031522E+04  0.11668031522E+04  0.25500000920E-02 0. -1.
       -2   -1    0    0    0  501  0.00000000000E+00  0.00000000000E+00 -0.51261466968E+03  0.51261466968E+03  0.25500000920E-02 0.  1.
    10030    2    1    2    0    0  0.00000000000E+00  0.00000000000E+00  0.65418848250E+03  0.16794178219E+04  0.15467648980E+04 0.  0.
        4    1    3    3  502    0 -0.53174575594E+03 -0.28937150248E+03  0.84964836109E+03  0.10432609289E+04  0.12699999809E+01 0. -1.
       -4    1    3    3    0  502  0.53174575594E+03  0.28937150248E+03 -0.19545987859E+03  0.63615689295E+03  0.12699999809E+01 0.  1.
</event>
<event>
 5   0  0.7601145E-04  0.1615255E+04  0.7818609E-02  0.8811231E-01
       -1   -1    0    0    0  501  0.00000000000E+00  0.00000000000E+00  0.42783061909E+03  0.42783061912E+03  0.50400001928E-02 0.  1.
        1   -1    0    0  501    0  0.00000000000E+00  0.00000000000E+00 -0.15245803318E+04  0.15245803318E+04  0.50400001928E-02 0. -1.
    10030    2    1    2    0    0  0.00000000000E+00  0.00000000000E+00 -0.10967497127E+04  0.19524109509E+04  0.16152549610E+04 0.  0.
        4    1    3    3  502    0  0.60763292812E+03 -0.52998685746E+03 -0.60450859998E+03  0.10077381132E+04  0.12699999809E+01 0.  1.
       -4    1    3    3    0  502 -0.60763292812E+03  0.52998685746E+03 -0.49224111273E+03  0.94467283775E+03  0.12699999809E+01 0. -1.
</event>
<event>
 5   0  0.7124495E-04  0.1559648E+04  0.7818609E-02  0.8845729E-01
        1   -1    0    0  501    0  0.00000000000E+00  0.00000000000E+00  0.24713079385E+04  0.24713079385E+04  0.50400001928E-02 0. -1.
       -1   -1    0    0    0  501  0.00000000000E+00  0.00000000000E+00 -0.24607435660E+03  0.24607435665E+03  0.50400001928E-02 0.  1.
    10030    2    1    2    0    0  0.00000000000E+00  0.00000000000E+00  0.22252335819E+04  0.27173822952E+04  0.15596480513E+04 0.  0.
        2    1    3    3  502    0 -0.53144533330E+03  0.56225741647E+03  0.94228061904E+03  0.12192047858E+04  0.25500000920E-02 0. -1.
       -2    1    3    3    0  502  0.53144533330E+03 -0.56225741647E+03  0.12829529629E+04  0.14981775094E+04  0.25500000920E-02 0.  1.
</event>
<event>
 5   0  0.1414751E-03  0.1205032E+04  0.7818609E-02  0.9108463E-01
       -2   -1    0    0    0  501  0.00000000000E+00  0.00000000000E+00  0.53425145790E+03  0.53425145791E+03  0.25500000920E-02 0. -1.
        2   -1    0    0  501    0  0.00000000000E+00  0.00000000000E+00 -0.67950350174E+03  0.67950350174E+03  0.25500000920E-02 0.  1.
    10030    2    1    2    0    0  0.00000000000E+00  0.00000000000E+00 -0.14525204383E+03  0.12137549597E+04  0.12050323422E+04 0.  0.
        2    1    3    3  502    0 -0.39462431117E+03  0.29806235893E+03 -0.41929202136E+03  0.64836356773E+03  0.25500000920E-02 0.  1.
       -2    1    3    3    0  502  0.39462431117E+03 -0.29806235893E+03  0.27403997752E+03  0.56539139192E+03  0.25500000920E-02 0. -1.
</event>
<event>
 5   0  0.7124495E-04  0.1574857E+04  0.7818609E-02  0.8836145E-01
       -1   -1    0    0    0  501  0.00000000000E+00  0.00000000000E+00  0.37307718510E+03  0.37307718513E+03  0.50400001928E-02 0.  1.
        1   -1    0    0  501    0  0.00000000000E+00  0.00000000000E+00 -0.16619705556E+04  0.16619705556E+04  0.50400001928E-02 0. -1.
    10030    2    1    2    0    0  0.00000000000E+00  0.00000000000E+00 -0.12888933705E+04  0.20350477407E+04  0.15748565606E+04 0.  0.
        2    1    3    3  502    0  0.46719580934E+02  0.39465411831E+03  0.23398030726E+03  0.46117391138E+03  0.25500000920E-02 0.  1.
       -2    1    3    3    0  502 -0.46719580934E+02 -0.39465411831E+03 -0.15228736778E+04  0.15738738294E+04  0.25500000920E-02 0. -1.
</event>
<event>
 5   0  0.1354766E-03  0.1599639E+04  0.7818609E-02  0.8820770E-01
       -2   -1    0    0    0  501  0.00000000000E+00  0.00000000000E+00  0.37022707511E+03  0.37022707512E+03  0.25500000920E-02 0. -1.
        2   -1    0    0  501    0  0.00000000000E+00  0.00000000000E+00 -0.17278892492E+04  0.17278892492E+04  0.25500000920E-02 0.  1.
    10030    2    1    2    0    0  0.00000000000E+00  0.00000000000E+00 -0.13576621741E+04  0.20981163243E+04  0.15996391879E+04 0.  0.
        3    1    3    3  502    0  0.35082764766E+03 -0.35132766527E+02  0.26279499765E+03  0.43974489268E+03  0.10100000352E+00 0. -1.
       -3    1    3    3    0  502 -0.35082764766E+03  0.35132766527E+02 -0.16204571717E+04  0.16583714316E+04  0.10100000352E+00 0.  1.
</event>
<event>
 5   0  0.1339162E-03  0.1638639E+04  0.7818609E-02  0.8797156E-01
        2   -1    0    0  501    0  0.00000000000E+00  0.00000000000E+00  0.13350997255E+04  0.13350997255E+04  0.25500000920E-02 0. -1.
       -2   -1    0    0    0  501  0.00000000000E+00  0.00000000000E+00 -0.50279751848E+03  0.50279751848E+03  0.25500000920E-02 0.  1.
    10030    2    1    2    0    0  0.00000000000E+00  0.00000000000E+00  0.83230220700E+03  0.18378972440E+04  0.16386394709E+04 0.  0.
        5    1    3    3  502    0  0.72468717749E+03 -0.35764339541E+03  0.26491208808E+03  0.85045917474E+03  0.46999998093E+01 0. -1.
       -5    1    3    3    0  502 -0.72468717749E+03  0.35764339541E+03  0.56739011891E+03  0.98743806921E+03  0.46999998093E+01 0.  1.
</event>
<event>
 5   0  0.7302027E-04  0.1592775E+04  0.7818609E-02  0.8824999E-01
       -1   -1    0    0    0  501  0.00000000000E+00  0.00000000000E+00  0.95018183311E+03  0.95018183313E+03  0.50400001928E-02 0.  1.
        1   -1    0    0  501    0  0.00000000000E+00  0.00000000000E+00 -0.66748565980E+03  0.66748565982E+03  0.50400001928E-02 0. -1.
    10030    2    1    2    0    0  0.00000000000E+00  0.00000000000E+00  0.28269617331E+03  0.16176674929E+04  0.15927746204E+04 0.  0.
        5    1    3    3  502    0 -0.60058006518E+03 -0.35841463060E+02 -0.38856254154E+03  0.71622898842E+03  0.46999998093E+01 0. -1.
       -5    1    3    3    0  502  0.60058006518E+03  0.35841463060E+02  0.67125871485E+03  0.90143850452E+03  0.46999998093E+01 0.  1.
</event>
<event>
 5   0  0.7499834E-04  0.1584429E+04  0.7818609E-02  0.8830171E-01
       -1   -1    0    0    0  501  0.00000000000E+00  0.00000000000E+00  0.10670148251E+04  0.10670148252E+04  0.50400001928E-02 0. -1.
        1   -1    0    0  501    0  0.00000000000E+00  0.00000000000E+00 -0.58818659321E+03  0.58818659324E+03  0.50400001928E-02 0.  1.
    10030    2    1    2    0    0  0.00000000000E+00  0.00000000000E+00  0.47882823193E+03  0.16552014184E+04  0.15844290012E+04 0.  0.
        3    1    3    3  502    0  0.10542797189E+03 -0.59721135013E+03 -0.29308697191E+03  0.67355507368E+03  0.10100000352E+00 0.  1.
       -3    1    3    3    0  502 -0.10542797189E+03  0.59721135013E+03  0.77191520384E+03  0.98164634472E+03  0.10100000352E+00 0. -1.
</event>
<event>
 5   0  0.1354766E-03  0.1615275E+04  0.7818609E-02  0.8811219E-01
        2   -1    0    0  501    0  0.00000000000E+00  0.00000000000E+00  0.13637845397E+04  0.13637845397E+04  0.25500000920E-02 0.  1.
       -2   -1    0    0    0  501  0.00000000000E+00  0.00000000000E+00 -0.47828536693E+03  0.47828536694E+03  0.25500000920E-02 0. -1.
    10030    2    1    2    0    0  0.00000000000E+00  0.00000000000E+00  0.88549917280E+03  0.18420699067E+04  0.16152748237E+04 0.  0.
        3    1    3    3  502    0 -0.84262626131E+00 -0.78108156417E+03  0.20851037215E+03  0.80843410703E+03  0.10100000352E+00 0. -1.
       -3    1    3    3    0  502  0.84262626131E+00  0.78108156417E+03  0.67698880065E+03  0.10336357997E+04  0.10100000352E+00 0.  1.
</event>
<event>
 5   0  0.1375777E-03  0.1571112E+04  0.7818609E-02  0.8838494E-01
        2   -1    0    0  501    0  0.00000000000E+00  0.00000000000E+00  0.13893760197E+04  0.13893760197E+04  0.25500000920E-02 0.  1.
       -2   -1    0    0    0  501  0.00000000000E+00  0.00000000000E+00 -0.44415470480E+03  0.44415470481E+03  0.25500000920E-02 0. -1.
    10030    2    1    2    0    0  0.00000000000E+00  0.00000000000E+00  0.94522131490E+03  0.18335307245E+04  0.15711115758E+04 0.  0.
        1    1    3    3  502    0 -0.50088682015E+03 -0.50128945964E+02 -0.23119256091E+03  0.55394089763E+03  0.50400001928E-02 0. -1.
       -1    1    3    3    0  502  0.50088682015E+03  0.50128945964E+02  0.11764138758E+04  0.12795898269E+04  0.50400001928E-02 0.  1.
</event>
<event>
 5   0  0.1375777E-03  0.1636147E+04  0.7818609E-02  0.8798644E-01
        2   -1    0    0  501    0  0.00000000000E+00  0.00000000000E+00  0.98456790667E+03  0.98456790667E+03  0.25500000920E-02 0.  1.
       -2   -1    0    0    0  501  0.00000000000E+00  0.00000000000E+00 -0.67973373310E+03  0.67973373311E+03  0.25500000920E-02 0. -1.
    10030    2    1    2    0    0  0.00000000000E+00  0.00000000000E+00  0.30483417357E+03  0.16643016398E+04  0.16361467156E+04 0.  0.
        1    1    3    3  502    0  0.53182761650E+03 -0.97978188815E+02 -0.47198933899E+03  0.71778428187E+03  0.50400001928E-02 0. -1.
       -1    1    3    3    0  502 -0.53182761650E+03  0.97978188815E+02  0.77682351256E+03  0.94651735792E+03  0.50400001928E-02 0.  1.
</event>
<event>
 5   0  0.1414751E-03  0.1584373E+04  0.7818609E-02  0.8830206E-01
       -2   -1    0    0    0  501  0.00000000000E+00  0.00000000000E+00  0.62323433494E+03  0.62323433494E+03  0.25500000920E-02 0.  1.
        2   -1    0    0  501    0  0.00000000000E+00  0.00000000000E+00 -0.10069401585E+04  0.10069401585E+04  0.25500000920E-02 0. -1.
    10030    2    1    2    0    0  0.00000000000E+00  0.00000000000E+00 -0.38370582359E+03  0.16301744935E+04  0.15843732894E+04 0.  0.
        2    1    3    3  502    0 -0.28961941298E+03 -0.15696993097E+03 -0.93312439890E+03  0.98956561552E+03  0.25500000920E-02 0. -1.
       -2    1    3    3    0  502  0.28961941298E+03  0.15696993097E+03  0.54941857531E+03  0.64060887795E+03  0.25500000920E-02 0.  1.
</event>
<event>
 5   0  0.7633213E-04  0.1600315E+04  0.7818609E-02  0.8820355E-01
       -1   -1    0    0    0  501  0.00000000000E+00  0.00000000000E+00  0.82009659588E+03  0.82009659589E+03  0.50400001928E-02 0.  1.
        1   -1    0    0  501    0  0.00000000000E+00  0.00000000000E+00 -0.78070281486E+03  0.78070281488E+03  0.50400001928E-02 0. -1.
    10030    2    1    2    0    0  0.00000000000E+00  0.00000000000E+00  0.39393781014E+02  0.16007994108E+04  0.16003146202E+04 0.  0.
        1    1    3    3  502    0 -0.21910016385E+03 -0.19317508815E+03  0.76485894697E+03  0.81873726266E+03  0.50400001928E-02 0.  1.
       -1    1    3    3    0  502  0.21910016385E+03  0.19317508815E+03 -0.72546516595E+03  0.78206214812E+03  0.50400001928E-02 0. -1.
</event>
<event>
 5   0  0.1375777E-03  0.1560512E+04  0.7818609E-02  0.8845181E-01
       -2   -1    0    0    0  501  0.00000000000E+00  0.00000000000E+00  0.69867894774E+03  0.69867894775E+03  0.25500000920E-02 0.  1.
        2   -1    0    0  501    0  0.00000000000E+00  0.00000000000E+00 -0.87135843033E+03  0.87135843033E+03  0.25500000920E-02 0. -1.
    10030    2    1    2    0    0  0.00000000000E+00  0.00000000000E+00 -0.17267948259E+03  0.15700373781E+04  0.15605124687E+04 0.  0.
        1    1    3    3  502    0  0.61508222606E+03  0.39572392827E+03  0.18712105789E+03  0.75494229088E+03  0.50400001928E-02 0.  1.
       -1    1    3    3    0  502 -0.61508222606E+03 -0.39572392827E+03 -0.35980054048E+03  0.81509508720E+03  0.50400001928E-02 0. -1.
</event>
<event>
 5   0  0.1414796E-03  0.1616775E+04  0.7818609E-02  0.8810308E-01
       -2   -1    0    0    0  501  0.00000000000E+00  0.00000000000E+00  0.49866347334E+03  0.49866347334E+03  0.25500000920E-02 0. -1.
        2   -1    0    0  501    0  0.00000000000E+00  0.00000000000E+00 -0.13104836845E+04  0.13104836845E+04  0.25500000920E-02 0.  1.
    10030    2    1    2    0    0  0.00000000000E+00  0.00000000000E+00 -0.81182021115E+03  0.18091471578E+04  0.16167749947E+04 0.  0.
        4    1    3    3  502    0  0.11769314875E+03 -0.42842133720E+03 -0.11616122238E+04  0.12436804617E+04  0.12699999809E+01 0.  1.
       -4    1    3    3    0  502 -0.11769314875E+03  0.42842133720E+03  0.34979201264E+03  0.56546669614E+03  0.12699999809E+01 0. -1.
</event>
<event>
 5   0  0.1354766E-03  0.1596813E+04  0.7818609E-02  0.8822508E-01
        2   -1    0    0  501    0  0.00000000000E+00  0.00000000000E+00  0.11913722176E+04  0.11913722176E+04  0.25500000920E-02 0. -1.
       -2   -1    0    0    0  501  0.00000000000E+00  0.00000000000E+00 -0.53505781984E+03  0.53505781984E+03  0.25500000920E-02 0.  1.
    10030    2    1    2    0    0  0.00000000000E+00  0.00000000000E+00  0.65631439775E+03  0.17264300374E+04  0.15968131029E+04 0.  0.
        3    1    3    3  502    0 -0.39508630840E+03 -0.60209341825E+03  0.70087686859E+03  0.10049069960E+04  0.10100000352E+00 0. -1.
       -3    1    3    3    0  502  0.39508630840E+03  0.60209341825E+03 -0.44562470842E+02  0.72152304148E+03  0.10100000352E+00 0.  1.
</event>
<event>
 5   0  0.7302027E-04  0.1576889E+04  0.7818609E-02  0.8834873E-01
       -1   -1    0    0    0  501  0.00000000000E+00  0.00000000000E+00  0.86920665088E+03  0.86920665089E+03  0.50400001928E-02 0. -1.
        1   -1    0    0  501    0  0.00000000000E+00  0.00000000000E+00 -0.71518610523E+03  0.71518610524E+03  0.50400001928E-02 0.  1.
    10030    2    1    2    0    0  0.00000000000E+00  0.00000000000E+00  0.15402054565E+03  0.15843927561E+04  0.15768887333E+04 0.  0.
        5    1    3    3  502    0  0.99270560172E+02 -0.21279053589E+03 -0.67922537392E+03  0.71868188710E+03  0.46999998093E+01 0.  1.
       -5    1    3    3    0  502 -0.99270560172E+02  0.21279053589E+03  0.83324591957E+03  0.86571086903E+03  0.46999998093E+01 0. -1.
</event>
<event>
 5   0  0.7124495E-04  0.1568035E+04  0.7818609E-02  0.8840430E-01
        1   -1    0    0  501    0  0.00000000000E+00  0.00000000000E+00  0.13864216718E+04  0.13864216718E+04  0.50400001928E-02 0.  1.
       -1   -1    0    0    0  501  0.00000000000E+00  0.00000000000E+00 -0.44335952031E+03  0.44335952034E+03  0.50400001928E-02 0. -1.
    10030    2    1    2    0    0  0.00000000000E+00  0.00000000000E+00  0.94306215144E+03  0.18297811921E+04  0.15680347539E+04 0.  0.
        2    1    3    3  502    0 -0.10318814075E+03 -0.35145413015E+03 -0.33737324069E+03  0.49798443905E+03  0.25500000920E-02 0. -1.
       -2    1    3    3    0  502  0.10318814075E+03  0.35145413015E+03  0.12804353921E+04  0.13317967531E+04  0.25500000920E-02 0.  1.
</event>
<event>
 5   0  0.1375777E-03  0.1640664E+04  0.7818609E-02  0.8795949E-01
        2   -1    0    0  501    0  0.00000000000E+00  0.00000000000E+00  0.18950035060E+04  0.18950035060E+04  0.25500000920E-02 0.  1.
       -2   -1    0    0    0  501  0.00000000000E+00  0.00000000000E+00 -0.35511521585E+03  0.35511521586E+03  0.25500000920E-02 0. -1.
    10030    2    1    2    0    0  0.00000000000E+00  0.00000000000E+00  0.15398882901E+04  0.22501187219E+04  0.16406639864E+04 0.  0.
        1    1    3    3  502    0 -0.75336711191E+03 -0.18706269512E+03  0.11338102874E+04  0.13740743157E+04  0.50400001928E-02 0. -1.
       -1    1    3    3    0  502  0.75336711191E+03  0.18706269512E+03  0.40607800275E+03  0.87604440616E+03  0.50400001928E-02 0.  1.
</event>
<event>
 5   0  0.1414796E-03  0.1592066E+04  0.7818609E-02  0.8825437E-01
       -2   -1    0    0    0  501  0.00000000000E+00  0.00000000000E+00  0.31934570216E+03  0.31934570217E+03  0.25500000920E-02 0.  1.
        2   -1    0    0  501    0  0.00000000000E+00  0.00000000000E+00 -0.19842719451E+04  0.19842719451E+04  0.25500000920E-02 0. -1.
    10030    2    1    2    0    0  0.00000000000E+00  0.00000000000E+00 -0.16649262430E+04  0.23036176473E+04  0.15920662268E+04 0.  0.
        4    1    3    3  502    0 -0.40532722916E+03 -0.67484724111E+03 -0.66151548853E+03  0.10282574172E+04  0.12699999809E+01 0.  1.
       -4    1    3    3    0  502  0.40532722916E+03  0.67484724111E+03 -0.10034107544E+04  0.12753602301E+04  0.12699999809E+01 0. -1.
</event>
<event>
 5   0  0.1354766E-03  0.1533295E+04  0.7818609E-02  0.8862609E-01
        2   -1    0    0  501    0  0.00000000000E+00  0.00000000000E+00  0.87743344972E+03  0.87743344972E+03  0.25500000920E-02 0.  1.
       -2   -1    0    0    0  501  0.00000000000E+00  0.00000000000E+00 -0.66984982777E+03  0.66984982778E+03  0.25500000920E-02 0. -1.
    10030    2    1    2    0    0  0.00000000000E+00  0.00000000000E+00  0.20758362195E+03  0.15472832775E+04  0.15332953338E+04 0.  0.
        3    1    3    3  502    0 -0.16353313907E+03  0.47681658375E+03  0.68668711164E+03  0.85184290899E+03  0.10100000352E+00 0.  1.
       -3    1    3    3    0  502  0.16353313907E+03 -0.47681658375E+03 -0.47910348969E+03  0.69544036851E+03  0.10100000352E+00 0. -1.
</event>
<event>
 5   0  0.7633213E-04  0.1536996E+04  0.7818609E-02  0.8860217E-01
        1   -1    0    0  501    0  0.00000000000E+00  0.00000000000E+00  0.89313773412E+03  0.89313773413E+03  0.50400001928E-02 0.  1.
       -1   -1    0    0    0  501  0.00000000000E+00  0.00000000000E+00 -0.66125190297E+03  0.66125190299E+03  0.50400001928E-02 0. -1.
    10030    2    1    2    0    0  0.00000000000E+00  0.00000000000E+00  0.23188583115E+03  0.15543896371E+04  0.15369958052E+04 0.  0.
        1    1    3    3  502    0  0.51837641081E+03  0.45905773043E+03 -0.22120789635E+03  0.72689822987E+03  0.50400001928E-02 0. -1.
       -1    1    3    3    0  502 -0.51837641081E+03 -0.45905773043E+03  0.45309372750E+03  0.82749140725E+03  0.50400001928E-02 0.  1.
</event>
<event>
 5   0  0.1414751E-03  0.1569987E+04  0.7818609E-02  0.8839202E-01
       -2   -1    0    0    0  501  0.00000000000E+00  0.00000000000E+00  0.44850587130E+03  0.44850587131E+03  0.25500000920E-02 0.  1.
        2   -1    0    0  501    0  0.00000000000E+00  0.00000000000E+00 -0.13739271850E+04  0.13739271850E+04  0.25500000920E-02 0. -1.
    10030    2    1    2    0    0  0.00000000000E+00  0.00000000000E+00 -0.92542131370E+03  0.18224330563E+04  0.15699865085E+04 0.  0.
        2    1    3    3  502    0  0.24539178884E+03 -0.47698218692E+03 -0.11280046701E+04  0.12490491073E+04  0.25500000920E-02 0. -1.
       -2    1    3    3    0  502 -0.24539178884E+03  0.47698218692E+03  0.20258335641E+03  0.57338394900E+03  0.25500000920E-02 0.  1.
</event>
<event>
 5   0  0.7633213E-04  0.1633272E+04  0.7818609E-02  0.8800364E-01
       -1   -1    0    0    0  501  0.00000000000E+00  0.00000000000E+00  0.12157088616E+04  0.12157088616E+04  0.50400001928E-02 0.  1.
        1   -1    0    0  501    0  0.00000000000E+00  0.00000000000E+00 -0.54856446423E+03  0.54856446426E+03  0.50400001928E-02 0. -1.
    10030    2    1    2    0    0  0.00000000000E+00  0.00000000000E+00  0.66714439737E+03  0.17642733259E+04  0.16332723966E+04 0.  0.
        1    1    3    3  502    0 -0.41536973135E+03  0.52730968397E+03  0.83596417799E+03  0.10721117588E+04  0.50400001928E-02 0.  1.
       -1    1    3    3    0  502  0.41536973135E+03 -0.52730968397E+03 -0.16881978062E+03  0.69216156704E+03  0.50400001928E-02 0. -1.
</event>
<event>
 5   0  0.7124495E-04  0.1574260E+04  0.7818609E-02  0.8836519E-01
        1   -1    0    0  501    0  0.00000000000E+00  0.00000000000E+00  0.34706991907E+03  0.34706991910E+03  0.50400001928E-02 0.  1.
       -1   -1    0    0    0  501  0.00000000000E+00  0.00000000000E+00 -0.17851543146E+04  0.17851543146E+04  0.50400001928E-02 0. -1.
    10030    2    1    2    0    0  0.00000000000E+00  0.00000000000E+00 -0.14380843955E+04  0.21322242337E+04  0.15742596527E+04 0.  0.
        2    1    3    3  502    0 -0.52644606469E+03 -0.27001077291E+03 -0.14222014418E+04  0.15403597689E+04  0.25500000920E-02 0. -1.
       -2    1    3    3    0  502  0.52644606469E+03  0.27001077291E+03 -0.15882953745E+02  0.59186446484E+03  0.25500000920E-02 0.  1.
</event>
<event>
 5   0  0.1339162E-03  0.1534858E+04  0.7818609E-02  0.8861598E-01
        2   -1    0    0  501    0  0.00000000000E+00  0.00000000000E+00  0.70677818382E+03  0.70677818382E+03  0.25500000920E-02 0.  1.
       -2   -1    0    0    0  501  0.00000000000E+00  0.00000000000E+00 -0.83328486025E+03  0.83328486026E+03  0.25500000920E-02 0. -1.
    10030    2    1    2    0    0  0.00000000000E+00  0.00000000000E+00 -0.12650667644E+03  0.15400630441E+04  0.15348583780E+04 0.  0.
        5    1    3    3  502    0 -0.34283611673E+02  0.74310686217E+03 -0.25241927132E+03  0.78557033623E+03  0.46999998093E+01 0.  1.
       -5    1    3    3    0  502  0.34283611673E+02 -0.74310686217E+03  0.12591259488E+03  0.75449270784E+03  0.46999998093E+01 0. -1.
</event>
<event>
 5   0  0.7633213E-04  0.1579221E+04  0.7818609E-02  0.8833416E-01
       -1   -1    0    0    0  501  0.00000000000E+00  0.00000000000E+00  0.39364821587E+03  0.39364821591E+03  0.50400001928E-02 0. -1.
        1   -1    0    0  501    0  0.00000000000E+00  0.00000000000E+00 -0.15838622320E+04  0.15838622320E+04  0.50400001928E-02 0.  1.
    10030    2    1    2    0    0  0.00000000000E+00  0.00000000000E+00 -0.11902140161E+04  0.19775104479E+04  0.15792207469E+04 0.  0.
        1    1    3    3  502    0  0.86455066701E+02  0.47687806377E+03 -0.13757022100E+04  0.14585759277E+04  0.50400001928E-02 0.  1.
       -1    1    3    3    0  502 -0.86455066701E+02 -0.47687806377E+03  0.18548819380E+03  0.51893452027E+03  0.50400001928E-02 0. -1.
</event>
<event>
 5   0  0.1414796E-03  0.1592819E+04  0.7818609E-02  0.8824972E-01
       -2   -1    0    0    0  501  0.00000000000E+00  0.00000000000E+00  0.97618284243E+03  0.97618284243E+03  0.25500000920E-02 0. -1.
        2   -1    0    0  501    0  0.00000000000E+00  0.00000000000E+00 -0.64974302796E+03  0.64974302797E+03  0.25500000920E-02 0.  1.
    10030    2    1    2    0    0  0.00000000000E+00  0.00000000000E+00  0.32643981446E+03  0.16259258704E+04  0.15928188797E+04 0.  0.
        4    1    3    3  502    0  0.12801931556E+03 -0.78188000769E+03  0.80661851657E+02  0.79638761843E+03  0.12699999809E+01 0.  1.
       -4    1    3    3    0  502 -0.12801931556E+03  0.78188000769E+03  0.24577796281E+03  0.82953825197E+03  0.12699999809E+01 0. -1.
</event>
<event>
 5   0  0.5095750E-04  0.1616599E+04  0.7818609E-02  0.8810415E-01
       -3   -1    0    0    0  501  0.00000000000E+00  0.00000000000E+00  0.98368788009E+03  0.98368788528E+03  0.10100000352E+00 0.  1.
        3   -1    0    0  501    0  0.00000000000E+00  0.00000000000E+00 -0.66418194730E+03  0.66418195498E+03  0.10100000352E+00 0. -1.
    10030    2    1    2    0    0  0.00000000000E+00  0.00000000000E+00  0.31950593279E+03  0.16478698403E+04  0.16165985801E+04 0.  0.
        1    1    3    3  502    0  0.37791989913E+03  0.42465628330E+03 -0.42598523205E+03  0.71036598107E+03  0.50400001928E-02 0. -1.
       -1    1    3    3    0  502 -0.37791989913E+03 -0.42465628330E+03  0.74549116484E+03  0.93750385919E+03  0.50400001928E-02 0.  1.
</event>
<event>
 5   0  0.1354766E-03  0.1655674E+04  0.7818609E-02  0.8787057E-01
       -2   -1    0    0    0  501  0.00000000000E+00  0.00000000000E+00  0.84763847652E+03  0.84763847652E+03  0.25500000920E-02 0.  1.
        2   -1    0    0  501    0  0.00000000000E+00  0.00000000000E+00 -0.80849845277E+03  0.80849845277E+03  0.25500000920E-02 0. -1.
    10030    2    1    2    0    0  0.00000000000E+00  0.00000000000E+00  0.39140023752E+02  0.16561369293E+04  0.16556743602E+04 0.  0.
        3    1    3    3  502    0 -0.74624094399E+03  0.32114044950E+03 -0.13955822215E+03  0.82430773524E+03  0.10100000352E+00 0.  1.
       -3    1    3    3    0  502  0.74624094399E+03 -0.32114044950E+03  0.17869824590E+03  0.83182919406E+03  0.10100000352E+00 0. -1.
</event>
<event>
 5   0  0.1339162E-03  0.1592560E+04  0.7818609E-02  0.8825131E-01
       -2   -1    0    0    0  501  0.00000000000E+00  0.00000000000E+00  0.10104509530E+04  0.10104509530E+04  0.25500000920E-02 0.  1.
        2   -1    0    0  501    0  0.00000000000E+00  0.00000000000E+00 -0.62750417690E+03  0.62750417690E+03  0.25500000920E-02 0. -1.
    10030    2    1    2    0    0  0.00000000000E+00  0.00000000000E+00  0.38294677614E+03  0.16379551299E+04  0.15925604461E+04 0.  0.
        5    1    3    3  502    0  0.77800220879E+03 -0.12422889886E+03  0.72772026653E+02  0.79122570361E+03  0.46999998093E+01 0.  1.
       -5    1    3    3    0  502 -0.77800220879E+03  0.12422889886E+03  0.31017474949E+03  0.84672942633E+03  0.46999998093E+01 0. -1.
</event>
<event>
 5   0  0.7499834E-04  0.1570876E+04  0.7818609E-02  0.8838642E-01
        1   -1    0    0  501    0  0.00000000000E+00  0.00000000000E+00  0.80316009249E+03  0.80316009251E+03  0.50400001928E-02 0.  1.
       -1   -1    0    0    0  501  0.00000000000E+00  0.00000000000E+00 -0.76810698834E+03  0.76810698836E+03  0.50400001928E-02 0. -1.
    10030    2    1    2    0    0  0.00000000000E+00  0.00000000000E+00  0.35053104151E+02  0.15712670809E+04  0.15708760356E+04 0.  0.
        3    1    3    3  502    0 -0.77684557409E+03  0.86175394424E+02 -0.59937061552E+02  0.78390541913E+03  0.10100000352E+00 0. -1.
       -3    1    3    3    0  502  0.77684557409E+03 -0.86175394424E+02  0.94990165702E+02  0.78736166174E+03  0.10100000352E+00 0.  1.
</event>
<event>
 5   0  0.1414751E-03  0.1595851E+04  0.7818609E-02  0.8823101E-01
       -2   -1    0    0    0  501  0.00000000000E+00  0.00000000000E+00  0.80270181095E+03  0.80270181095E+03  0.25500000920E-02 0. -1.
        2   -1    0    0  501    0  0.00000000000E+00  0.00000000000E+00 -0.79317776619E+03  0.79317776620E+03  0.25500000920E-02 0.  1.
    10030    2    1    2    0    0  0.00000000000E+00  0.00000000000E+00  0.95240447530E+01  0.15958795771E+04  0.15958511576E+04 0.  0.
        2    1    3    3  502    0  0.47473914271E+03 -0.61590478635E+03 -0.17404068596E+03  0.79687271245E+03  0.25500000920E-02 0. -1.
       -2    1    3    3    0  502 -0.47473914271E+03  0.61590478635E+03  0.18356473071E+03  0.79900686470E+03  0.25500000920E-02 0.  1.
</event>
<event>
 5   0  0.1414796E-03  0.1547360E+04  0.7818609E-02  0.8853556E-01
        2   -1    0    0  501    0  0.00000000000E+00  0.00000000000E+00  0.15068294223E+04  0.15068294223E+04  0.25500000920E-02 0. -1.
       -2   -1    0    0    0  501  0.00000000000E+00  0.00000000000E+00 -0.39724498195E+03  0.39724498196E+03  0.25500000920E-02 0.  1.
    10030    2    1    2    0    0  0.00000000000E+00  0.00000000000E+00  0.11095844403E+04  0.19040744043E+04  0.15473595919E+04 0.  0.
        4    1    3    3  502    0 -0.71779160108E+03  0.14996556395E+03  0.25121149336E+03  0.77512791218E+03  0.12699999809E+01 0.  1.
       -4    1    3    3    0  502  0.71779160108E+03 -0.14996556395E+03  0.85837294699E+03  0.11289464921E+04  0.12699999809E+01 0. -1.
</event>
<event>
 5   0  0.1414796E-03  0.1524835E+04  0.7818609E-02  0.8868104E-01
        2   -1    0    0  501    0  0.00000000000E+00  0.00000000000E+00  0.65307169066E+03  0.65307169067E+03  0.25500000920E-02 0. -1.
       -2   -1    0    0    0  501  0.00000000000E+00  0.00000000000E+00 -0.89007184975E+03  0.89007184976E+03  0.25500000920E-02 0.  1.
    10030    2    1    2    0    0  0.00000000000E+00  0.00000000000E+00 -0.23700015909E+03  0.15431435404E+04  0.15248353718E+04 0.  0.
        4    1    3    3  502    0 -0.19263745779E+03 -0.41181062268E+03  0.50087935647E+03  0.67644580103E+03  0.12699999809E+01 0. -1.
       -4    1    3    3    0  502  0.19263745779E+03  0.41181062268E+03 -0.73787951556E+03  0.86669773940E+03  0.12699999809E+01 0.  1.
</event>
<event>
 5   0  0.7601145E-04  0.1590800E+04  0.7818609E-02  0.8826220E-01
        1   -1    0    0  501    0  0.00000000000E+00  0.00000000000E+00  0.10385403550E+04  0.10385403551E+04  0.50400001928E-02 0.  1.
       -1   -1    0    0    0  501  0.00000000000E+00  0.00000000000E+00 -0.60918317781E+03  0.60918317783E+03  0.50400001928E-02 0. -1.
    10030    2    1    2    0    0  0.00000000000E+00  0.00000000000E+00  0.42935717724E+03  0.16477235329E+04  0.15908001934E+04 0.  0.
        4    1    3    3  502    0  0.93128105176E+02  0.51676693293E+03  0.83350036081E+03  0.98511185726E+03  0.12699999809E+01 0.  1.
       -4    1    3    3    0  502 -0.93128105176E+02 -0.51676693293E+03 -0.40414318358E+03  0.66261167563E+03  0.12699999809E+01 0. -1.
</event>
<event>
 5   0  0.7302027E-04  0.1664924E+04  0.7818609E-02  0.8781626E-01
        1   -1    0    0  501    0  0.00000000000E+00  0.00000000000E+00  0.14250844804E+04  0.14250844804E+04  0.50400001928E-02 0. -1.
       -1   -1    0    0    0  501  0.00000000000E+00  0.00000000000E+00 -0.48628201025E+03  0.48628201027E+03  0.50400001928E-02 0.  1.
    10030    2    1    2    0    0  0.00000000000E+00  0.00000000000E+00  0.93880247015E+03  0.19113664907E+04  0.16649239573E+04 0.  0.
        5    1    3    3  502    0 -0.14805027742E+03 -0.79385371049E+03  0.23737540582E+03  0.84171953262E+03  0.46999998093E+01 0.  1.
       -5    1    3    3    0  502  0.14805027742E+03  0.79385371049E+03  0.70142706433E+03  0.10696469581E+04  0.46999998093E+01 0. -1.
</event>
<event>
 5   0  0.7633213E-04  0.9115896E+03  0.7818609E-02  0.9411209E-01
       -1   -1    0    0    0  501  0.00000000000E+00  0.00000000000E+00  0.10003575054E+03  0.10003575067E+03  0.50400001928E-02 0.  1.
        1   -1    0    0  501    0  0.00000000000E+00  0.00000000000E+00 -0.20767466811E+04  0.20767466811E+04  0.50400001928E-02 0. -1.
    10030    2    1    2    0    0  0.00000000000E+00  0.00000000000E+00 -0.19767109306E+04  0.21767824318E+04  0.91158962933E+03 0.  0.
        1    1    3    3  502    0 -0.47145961939E+02 -0.39936008759E+03 -0.47599876698E+03  0.62312602856E+03  0.50400001928E-02 0.  1.
       -1    1    3    3    0  502  0.47145961939E+02  0.39936008759E+03 -0.15007121636E+04  0.15536564032E+04  0.50400001928E-02 0. -1.
</event>
<event>
 5   0  0.7601145E-04  0.1591317E+04  0.7818609E-02  0.8825900E-01
       -1   -1    0    0    0  501  0.00000000000E+00  0.00000000000E+00  0.35346369277E+03  0.35346369281E+03  0.50400001928E-02 0.  1.
        1   -1    0    0  501    0  0.00000000000E+00  0.00000000000E+00 -0.17910543313E+04  0.17910543313E+04  0.50400001928E-02 0. -1.
    10030    2    1    2    0    0  0.00000000000E+00  0.00000000000E+00 -0.14375906385E+04  0.21445180241E+04  0.15913172882E+04 0.  0.
        4    1    3    3  502    0 -0.71035290528E+03  0.34744682683E+03 -0.60015337064E+03  0.99272666365E+03  0.12699999809E+01 0.  1.
       -4    1    3    3    0  502  0.71035290528E+03 -0.34744682683E+03 -0.83743726791E+03  0.11517913605E+04  0.12699999809E+01 0. -1.
</event>
<event>
 5   0  0.7633213E-04  0.1614470E+04  0.7818609E-02  0.8811708E-01
       -1   -1    0    0    0  501  0.00000000000E+00  0.00000000000E+00  0.50113064359E+03  0.50113064361E+03  0.50400001928E-02 0. -1.
        1   -1    0    0  501    0  0.00000000000E+00  0.00000000000E+00 -0.13003160911E+04  0.13003160911E+04  0.50400001928E-02 0.  1.
    10030    2    1    2    0    0  0.00000000000E+00  0.00000000000E+00 -0.79918544755E+03  0.18014467348E+04  0.16144698692E+04 0.  0.
        1    1    3    3  502    0 -0.47011719482E+03 -0.18069198617E+02  0.33234292259E+03  0.57601084281E+03  0.50400001928E-02 0. -1.
       -1    1    3    3    0  502  0.47011719482E+03  0.18069198617E+02 -0.11315283701E+04  0.12254358919E+04  0.50400001928E-02 0.  1.
</event>
<event>
 5   0  0.1414751E-03  0.1573917E+04  0.7818609E-02  0.8836734E-01
        2   -1    0    0  501    0  0.00000000000E+00  0.00000000000E+00  0.16694780104E+04  0.16694780104E+04  0.25500000920E-02 0.  1.
       -2   -1    0    0    0  501  0.00000000000E+00  0.00000000000E+00 -0.37095658090E+03  0.37095658091E+03  0.25500000920E-02 0. -1.
    10030    2    1    2    0    0  0.00000000000E+00  0.00000000000E+00  0.12985214295E+04  0.20404345913E+04  0.15739172210E+04 0.  0.
        2    1    3    3  502    0  0.10979975784E+02  0.65453638566E+03  0.12154877620E+04  0.13805610959E+04  0.25500000920E-02 0.  1.
       -2    1    3    3    0  502 -0.10979975784E+02 -0.65453638566E+03  0.83033667550E+02  0.65987349543E+03  0.25500000920E-02 0. -1.
</event>
<event>
 5   0  0.7601145E-04  0.1636843E+04  0.7818609E-02  0.8798228E-01
        1   -1    0    0  501    0  0.00000000000E+00  0.00000000000E+00  0.67991818950E+03  0.67991818952E+03  0.50400001928E-02 0. -1.
       -1   -1    0    0    0  501  0.00000000000E+00  0.00000000000E+00 -0.98513912025E+03  0.98513912026E+03  0.50400001928E-02 0.  1.
    10030    2    1    2    0    0  0.00000000000E+00  0.00000000000E+00 -0.30522093075E+03  0.16650573098E+04  0.16368433121E+04 0.  0.
        4    1    3    3  502    0  0.50318438081E+03 -0.83737140113E+02 -0.80364677965E+03  0.95186983830E+03  0.12699999809E+01 0.  1.
       -4    1    3    3    0  502 -0.50318438081E+03  0.83737140113E+02  0.49842584890E+03  0.71318747148E+03  0.12699999809E+01 0. -1.
</event>
<event>
 5   0  0.1414796E-03  0.1466053E+04  0.7818609E-02  0.8907346E-01
        2   -1    0    0  501    0  0.00000000000E+00  0.00000000000E+00  0.15970600659E+04  0.15970600659E+04  0.25500000920E-02 0. -1.
       -2   -1    0    0    0  501  0.00000000000E+00  0.00000000000E+00 -0.33644812503E+03  0.33644812504E+03  0.25500000920E-02 0.  1.
    10030    2    1    2    0    0  0.00000000000E+00  0.00000000000E+00  0.12606119409E+04  0.19335081909E+04  0.14660530205E+04 0.  0.
        4    1    3    3  502    0 -0.31264805420E+02  0.53724672061E+03  0.12867115301E+04  0.13947185026E+04  0.12699999809E+01 0. -1.
       -4    1    3    3    0  502  0.31264805420E+02 -0.53724672061E+03 -0.26099589204E+02  0.53878968839E+03  0.12699999809E+01 0.  1.
</event>
<event>
 5   0  0.7633213E-04  0.1389714E+04  0.7818609E-02  0.8961298E-01
        1   -1    0    0  501    0  0.00000000000E+00  0.00000000000E+00  0.78570482563E+03  0.78570482565E+03  0.50400001928E-02 0. -1.
       -1   -1    0    0    0  501  0.00000000000E+00  0.00000000000E+00 -0.61451369774E+03  0.61451369776E+03  0.50400001928E-02 0.  1.
    10030    2    1    2    0    0  0.00000000000E+00  0.00000000000E+00  0.17119112789E+03  0.14002185234E+04  0.13897141832E+04 0.  0.
        1    1    3    3  502    0  0.59679777511E+03  0.73712594822E+02  0.43640144629E+03  0.74299889190E+03  0.50400001928E-02 0. -1.
       -1    1    3    3    0  502 -0.59679777511E+03 -0.73712594822E+02 -0.26521031840E+03  0.65721963150E+03  0.50400001928E-02 0.  1.
</event>
<event>
 5   0  0.7499834E-04  0.1589437E+04  0.7818609E-02  0.8827064E-01
       -1   -1    0    0    0  501  0.00000000000E+00  0.00000000000E+00  0.58992669956E+03  0.58992669958E+03  0.50400001928E-02 0.  1.
        1   -1    0    0  501    0  0.00000000000E+00  0.00000000000E+00 -0.10706032663E+04  0.10706032663E+04  0.50400001928E-02 0. -1.
    10030    2    1    2    0    0  0.00000000000E+00  0.00000000000E+00 -0.48067656671E+03  0.16605299659E+04  0.15894369461E+04 0.  0.
        3    1    3    3  502    0 -0.43819887101E+03  0.85813356919E+01 -0.93292748206E+03  0.10307500118E+04  0.10100000352E+00 0.  1.
       -3    1    3    3    0  502  0.43819887101E+03 -0.85813356919E+01  0.45225091535E+03  0.62977995404E+03  0.10100000352E+00 0. -1.
</event>
<event>
 5   0  0.1414751E-03  0.1587173E+04  0.7818609E-02  0.8828467E-01
       -2   -1    0    0    0  501  0.00000000000E+00  0.00000000000E+00  0.38253194274E+03  0.38253194274E+03  0.25500000920E-02 0. -1.
        2   -1    0    0  501    0  0.00000000000E+00  0.00000000000E+00 -0.16463459107E+04  0.16463459107E+04  0.25500000920E-02 0.  1.
    10030    2    1    2    0    0  0.00000000000E+00  0.00000000000E+00 -0.12638139680E+04  0.20288778535E+04  0.15871734620E+04 0.  0.
        2    1    3    3  502    0  0.17084821072E+03 -0.41440570218E+03 -0.14690287263E+04  0.15358927683E+04  0.25500000920E-02 0.  1.
       -2    1    3    3    0  502 -0.17084821072E+03  0.41440570218E+03  0.20521475833E+03  0.49298508512E+03  0.25500000920E-02 0. -1.
</event>
<event>
 5   0  0.1354766E-03  0.1605948E+04  0.7818609E-02  0.8816902E-01
       -2   -1    0    0    0  501  0.00000000000E+00  0.00000000000E+00  0.10607685884E+04  0.10607685884E+04  0.25500000920E-02 0.  1.
        2   -1    0    0  501    0  0.00000000000E+00  0.00000000000E+00 -0.60783052307E+03  0.60783052307E+03  0.25500000920E-02 0. -1.
    10030    2    1    2    0    0  0.00000000000E+00  0.00000000000E+00  0.45293806534E+03  0.16685991115E+04  0.16059483503E+04 0.  0.
        3    1    3    3  502    0  0.29507176475E+03  0.52719061732E+03  0.77603670562E+03  0.98347865865E+03  0.10100000352E+00 0.  1.
       -3    1    3    3    0  502 -0.29507176475E+03 -0.52719061732E+03 -0.32309864028E+03  0.68512045284E+03  0.10100000352E+00 0. -1.
</event>
<event>
 5   0  0.1339162E-03  0.1629827E+04  0.7818609E-02  0.8802431E-01
       -2   -1    0    0    0  501  0.00000000000E+00  0.00000000000E+00  0.47514541759E+03  0.47514541759E+03  0.25500000920E-02 0. -1.
        2   -1    0    0  501    0  0.00000000000E+00  0.00000000000E+00 -0.13976430623E+04  0.13976430623E+04  0.25500000920E-02 0.  1.
    10030    2    1    2    0    0  0.00000000000E+00  0.00000000000E+00 -0.92249764468E+03  0.18727884799E+04  0.16298266122E+04 0.  0.
        5    1    3    3  502    0  0.55882334213E+03 -0.35676390445E+03  0.83195121252E+02  0.66821218893E+03  0.46999998093E+01 0. -1.
       -5    1    3    3    0  502 -0.55882334213E+03  0.35676390445E+03 -0.10056927659E+04  0.12045762909E+04  0.46999998093E+01 0.  1.
</event>
<event>
 5   0  0.7601145E-04  0.1033770E+04  0.7818609E-02  0.9272263E-01
       -1   -1    0    0    0  501  0.00000000000E+00  0.00000000000E+00  0.17629249865E+03  0.17629249872E+03  0.50400001928E-02 0. -1.
        1   -1    0    0  501    0  0.00000000000E+00  0.00000000000E+00 -0.15154929673E+04  0.15154929674E+04  0.50400001928E-02 0.  1.
    10030    2    1    2    0    0  0.00000000000E+00  0.00000000000E+00 -0.13392004687E+04  0.16917854661E+04  0.10337698815E+04 0.  0.
        4    1    3    3  502    0  0.34030548248E+03 -0.28417981566E+03 -0.23475844920E+03  0.50167632135E+03  0.12699999809E+01 0. -1.
       -4    1    3    3    0  502 -0.34030548248E+03  0.28417981566E+03 -0.11044420195E+04  0.11901091447E+04  0.12699999809E+01 0.  1.
</event>
<event>
 5   0  0.7633213E-04  0.1579248E+04  0.7818609E-02  0.8833399E-01
       -1   -1    0    0    0  501  0.00000000000E+00  0.00000000000E+00  0.46205172031E+03  0.46205172034E+03  0.50400001928E-02 0. -1.
        1   -1    0    0  501    0  0.00000000000E+00  0.00000000000E+00 -0.13494298963E+04  0.13494298963E+04  0.50400001928E-02 0.  1.
    10030    2    1    2    0    0  0.00000000000E+00  0.00000000000E+00 -0.88737817601E+03  0.18114816167E+04  0.15792484353E+04 0.  0.
        1    1    3    3  502    0 -0.49986402055E+03  0.45455304240E+03 -0.91247309064E+03  0.11353808386E+04  0.50400001928E-02 0.  1.
       -1    1    3    3    0  502  0.49986402055E+03 -0.45455304240E+03  0.25094914630E+02  0.67610077812E+03  0.50400001928E-02 0. -1.
</event>
<event>
 5   0  0.7302027E-04  0.1613603E+04  0.7818609E-02  0.8812235E-01
        1   -1    0    0  501    0  0.00000000000E+00  0.00000000000E+00  0.12720935624E+04  0.12720935624E+04  0.50400001928E-02 0.  1.
       -1   -1    0    0    0  501  0.00000000000E+00  0.00000000000E+00 -0.51169841985E+03  0.51169841987E+03  0.50400001928E-02 0. -1.
    10030    2    1    2    0    0  0.00000000000E+00  0.00000000000E+00  0.76039514257E+03  0.17837919823E+04  0.16136025109E+04 0.  0.
        5    1    3    3  502    0 -0.55603237280E+03  0.37465520412E+03  0.87626704389E+03  0.11033605683E+04  0.46999998093E+01 0.  1.
       -5    1    3    3    0  502  0.55603237280E+03 -0.37465520412E+03 -0.11587190132E+03  0.68043141395E+03  0.46999998093E+01 0. -1.
</event>
<event>
 5   0  0.1354766E-03  0.1601182E+04  0.7818609E-02  0.8819822E-01
        2   -1    0    0  501    0  0.00000000000E+00  0.00000000000E+00  0.11016094758E+04  0.11016094758E+04  0.25500000920E-02 0. -1.
       -2   -1    0    0    0  501  0.00000000000E+00  0.00000000000E+00 -0.58182663254E+03  0.58182663255E+03  0.25500000920E-02 0.  1.
    10030    2    1    2    0    0  0.00000000000E+00  0.00000000000E+00  0.51978284330E+03  0.16834361084E+04  0.16011817282E+04 0.  0.
        3    1    3    3  502    0 -0.10666493605E+03  0.77581729611E+03  0.43479809784E+03  0.89572277051E+03  0.10100000352E+00 0. -1.
       -3    1    3    3    0  502  0.10666493605E+03 -0.77581729611E+03  0.84984745462E+02  0.78771333788E+03  0.10100000352E+00 0.  1.
</event>
<event>
 5   0  0.1414751E-03  0.1402404E+04  0.7818609E-02  0.8952080E-01
       -2   -1    0    0    0  501  0.00000000000E+00  0.00000000000E+00  0.45889826564E+03  0.45889826565E+03  0.25500000920E-02 0.  1.
        2   -1    0    0  501    0  0.00000000000E+00  0.00000000000E+00 -0.10714448855E+04  0.10714448855E+04  0.25500000920E-02 0. -1.
    10030    2    1    2    0    0  0.00000000000E+00  0.00000000000E+00 -0.61254661986E+03  0.15303431512E+04  0.14024039357E+04 0.  0.
        2    1    3    3  502    0  0.34400367731E+02 -0.23092927326E+03  0.41523628779E+03  0.47637473616E+03  0.25500000920E-02 0.  1.
       -2    1    3    3    0  502 -0.34400367731E+02  0.23092927326E+03 -0.10277829077E+04  0.10539684150E+04  0.25500000920E-02 0. -1.
</event>
<event>
 5   0  0.7124495E-04  0.1605263E+04  0.7818609E-02  0.8817321E-01
       -1   -1    0    0    0  501  0.00000000000E+00  0.00000000000E+00  0.11364777570E+04  0.11364777570E+04  0.50400001928E-02 0. -1.
        1   -1    0    0  501    0  0.00000000000E+00  0.00000000000E+00 -0.56685454188E+03  0.56685454191E+03  0.50400001928E-02 0.  1.
    10030    2    1    2    0    0  0.00000000000E+00  0.00000000000E+00  0.56962321508E+03  0.17033322989E+04  0.16052633159E+04 0.  0.
        2    1    3    3  502    0 -0.45343040864E+03  0.63858442075E+03  0.98504915336E+02  0.78936203117E+03  0.25500000920E-02 0.  1.
       -2    1    3    3    0  502  0.45343040864E+03 -0.63858442075E+03  0.47111829974E+03  0.91397026771E+03  0.25500000920E-02 0. -1.
</event>
<event>
 5   0  0.7124495E-04  0.1593658E+04  0.7818609E-02  0.8824454E-01
       -1   -1    0    0    0  501  0.00000000000E+00  0.00000000000E+00  0.64538378843E+03  0.64538378845E+03  0.50400001928E-02 0.  1.
        1   -1    0    0  501    0  0.00000000000E+00  0.00000000000E+00 -0.98381181756E+03  0.98381181757E+03  0.50400001928E-02 0. -1.
    10030    2    1    2    0    0  0.00000000000E+00  0.00000000000E+00 -0.33842802913E+03  0.16291956060E+04  0.15936576771E+04 0.  0.
        2    1    3    3  502    0 -0.51363481335E+03 -0.39446069881E+03 -0.64380357980E+03  0.91318290269E+03  0.25500000920E-02 0. -1.
       -2    1    3    3    0  502  0.51363481335E+03  0.39446069881E+03  0.30537555067E+03  0.71601270334E+03  0.25500000920E-02 0.  1.
</event>
<event>
 5   0  0.1375777E-03  0.1670414E+04  0.7818609E-02  0.8778421E-01
        2   -1    0    0  501    0  0.00000000000E+00  0.00000000000E+00  0.96762284247E+03  0.96762284247E+03  0.25500000920E-02 0.  1.
       -2   -1    0    0    0  501  0.00000000000E+00  0.00000000000E+00 -0.72091143714E+03  0.72091143714E+03  0.25500000920E-02 0. -1.
    10030    2    1    2    0    0  0.00000000000E+00  0.00000000000E+00  0.24671140533E+03  0.16885342796E+04  0.16704135703E+04 0.  0.
        1    1    3    3  502    0  0.67545743360E+03 -0.44534615714E+03 -0.86244630416E+02  0.81364247713E+03  0.50400001928E-02 0. -1.
       -1    1    3    3    0  502 -0.67545743360E+03  0.44534615714E+03  0.33295603574E+03  0.87489180248E+03  0.50400001928E-02 0.  1.
</event>
<event>
 5   0  0.7499834E-04  0.1594542E+04  0.7818609E-02  0.8823908E-01
       -1   -1    0    0    0  501  0.00000000000E+00  0.00000000000E+00  0.75266125566E+03  0.75266125568E+03  0.50400001928E-02 0.  1.
        1   -1    0    0  501    0  0.00000000000E+00  0.00000000000E+00 -0.84452461983E+03  0.84452461985E+03  0.50400001928E-02 0. -1.
    10030    2    1    2    0    0  0.00000000000E+00  0.00000000000E+00 -0.91863364167E+02  0.15971858755E+04  0.15945418914E+04 0.  0.
        3    1    3    3  502    0 -0.83008025340E+02 -0.79224183669E+03 -0.12657772103E+02  0.79667916345E+03  0.10100000352E+00 0. -1.
       -3    1    3    3    0  502  0.83008025340E+02  0.79224183669E+03 -0.79205592064E+02  0.80050671208E+03  0.10100000352E+00 0.  1.
</event>
<event>
 5   0  0.1375777E-03  0.1599345E+04  0.7818609E-02  0.8820950E-01
        2   -1    0    0  501    0  0.00000000000E+00  0.00000000000E+00  0.17876424243E+04  0.17876424243E+04  0.25500000920E-02 0. -1.
       -2   -1    0    0    0  501  0.00000000000E+00  0.00000000000E+00 -0.35772051993E+03  0.35772051994E+03  0.25500000920E-02 0.  1.
    10030    2    1    2    0    0  0.00000000000E+00  0.00000000000E+00  0.14299219043E+04  0.21453629442E+04  0.15993453379E+04 0.  0.
        1    1    3    3  502    0 -0.74427810492E+03  0.26710543169E+03  0.87470126565E+03  0.11791511834E+04  0.50400001928E-02 0.  1.
       -1    1    3    3    0  502  0.74427810492E+03 -0.26710543169E+03  0.55522063867E+03  0.96621176081E+03  0.50400001928E-02 0. -1.
</event>
<event>
 5   0  0.7124495E-04  0.1526692E+04  0.7818609E-02  0.8866895E-01
        1   -1    0    0  501    0  0.00000000000E+00  0.00000000000E+00  0.58806857374E+03  0.58806857376E+03  0.50400001928E-02 0. -1.
       -1   -1    0    0    0  501  0.00000000000E+00  0.00000000000E+00 -0.99086599800E+03  0.99086599802E+03  0.50400001928E-02 0.  1.
    10030    2    1    2    0    0  0.00000000000E+00  0.00000000000E+00 -0.40279742427E+03  0.15789345718E+04  0.15266920505E+04 0.  0.
        2    1    3    3  502    0  0.25821383056E+03  0.69655602500E+03 -0.19798274555E+02  0.74313972437E+03  0.25500000920E-02 0.  1.
       -2    1    3    3    0  502 -0.25821383056E+03 -0.69655602500E+03 -0.38299914971E+03  0.83579484740E+03  0.25500000920E-02 0. -1.
</event>
<event>
 5   0  0.7601145E-04  0.1597046E+04  0.7818609E-02  0.8822365E-01
        1   -1    0    0  501    0  0.00000000000E+00  0.00000000000E+00  0.15176172161E+04  0.15176172161E+04  0.50400001928E-02 0.  1.
       -1   -1    0    0    0  501  0.00000000000E+00  0.00000000000E+00 -0.42015804347E+03  0.42015804350E+03  0.50400001928E-02 0. -1.
    10030    2    1    2    0    0  0.00000000000E+00  0.00000000000E+00  0.10974591726E+04  0.19377752596E+04  0.15970461237E+04 0.  0.
        4    1    3    3  502    0  0.11717346828E+03  0.59441572699E+03 -0.82419590020E+02  0.61143624351E+03  0.12699999809E+01 0. -1.
       -4    1    3    3    0  502 -0.11717346828E+03 -0.59441572699E+03  0.11798787627E+04  0.13263390161E+04  0.12699999809E+01 0.  1.
</event>
<event>
 5   0  0.1414796E-03  0.1596050E+04  0.7818609E-02  0.8822979E-01
        2   -1    0    0  501    0  0.00000000000E+00  0.00000000000E+00  0.59397232042E+03  0.59397232042E+03  0.25500000920E-02 0. -1.
       -2   -1    0    0    0  501  0.00000000000E+00  0.00000000000E+00 -0.10721772694E+04  0.10721772694E+04  0.25500000920E-02 0.  1.
    10030    2    1    2    0    0  0.00000000000E+00  0.00000000000E+00 -0.47820494900E+03  0.16661495898E+04  0.15960496491E+04 0.  0.
        4    1    3    3  502    0  0.39840906295E+03 -0.69145203108E+03 -0.24172581084E+03  0.83382772397E+03  0.12699999809E+01 0. -1.
       -4    1    3    3    0  502 -0.39840906295E+03  0.69145203108E+03 -0.23647913816E+03  0.83232186588E+03  0.12699999809E+01 0.  1.
</event>
<event>
 5   0  0.1414751E-03  0.1608631E+04  0.7818609E-02  0.8815263E-01
        2   -1    0    0  501    0  0.00000000000E+00  0.00000000000E+00  0.87822859248E+03  0.87822859248E+03  0.25500000920E-02 0.  1.
       -2   -1    0    0    0  501  0.00000000000E+00  0.00000000000E+00 -0.73662313823E+03  0.73662313824E+03  0.25500000920E-02 0. -1.
    10030    2    1    2    0    0  0.00000000000E+00  0.00000000000E+00  0.14160545425E+03  0.16148517307E+04  0.16086310974E+04 0.  0.
        2    1    3    3  502    0  0.66744079750E+02 -0.70805837477E+03  0.44791759821E+03  0.84049485963E+03  0.25500000920E-02 0.  1.
       -2    1    3    3    0  502 -0.66744079750E+02  0.70805837477E+03 -0.30631214396E+03  0.77435687109E+03  0.25500000920E-02 0. -1.
</event>
<event>
 5   0  0.7302027E-04  0.1616982E+04  0.7818609E-02  0.8810183E-01
        1   -1    0    0  501    0  0.00000000000E+00  0.00000000000E+00  0.43587879685E+03  0.43587879688E+03  0.50400001928E-02 0. -1.
       -1   -1    0    0    0  501  0.00000000000E+00  0.00000000000E+00 -0.14996310376E+04  0.14996310376E+04  0.50400001928E-02 0.  1.
    10030    2    1    2    0    0  0.00000000000E+00  0.00000000000E+00 -0.10637522407E+04  0.19355098345E+04  0.16169815984E+04 0.  0.
        5    1    3    3  502    0 -0.33236714158E+03  0.32944525084E+03 -0.13210119268E+04  0.14014623401E+04  0.46999998093E+01 0.  1.
       -5    1    3    3    0  502  0.33236714158E+03 -0.32944525084E+03  0.25725968608E+03  0.53404749432E+03  0.46999998093E+01 0. -1.
</event>
<event>
 5   0  0.1339162E-03  0.1502445E+04  0.7818609E-02  0.8882829E-01
        2   -1    0    0  501    0  0.00000000000E+00  0.00000000000E+00  0.11110090346E+04  0.11110090346E+04  0.25500000920E-02 0. -1.
       -2   -1    0    0    0  501  0.00000000000E+00  0.00000000000E+00 -0.50794807239E+03  0.50794807240E+03  0.25500000920E-02 0.  1.
    10030    2    1    2    0    0  0.00000000000E+00  0.00000000000E+00  0.60306096224E+03  0.16189571070E+04  0.15024445382E+04 0.  0.
        5    1    3    3  502    0  0.40644059101E+03 -0.59422881239E+03  0.70394478721E+02  0.72338047259E+03  0.46999998093E+01 0.  1.
       -5    1    3    3    0  502 -0.40644059101E+03  0.59422881239E+03  0.53266648352E+03  0.89557663444E+03  0.46999998093E+01 0. -1.
</event>
<event>
 5   0  0.1414751E-03  0.1564547E+04  0.7818609E-02  0.8842629E-01
        2   -1    0    0  501    0  0.00000000000E+00  0.00000000000E+00  0.20008450221E+04  0.20008450221E+04  0.25500000920E-02 0.  1.
       -2   -1    0    0    0  501  0.00000000000E+00  0.00000000000E+00 -0.30584672210E+03  0.30584672211E+03  0.25500000920E-02 0. -1.
    10030    2    1    2    0    0  0.00000000000E+00  0.00000000000E+00  0.16949983000E+04  0.23066917442E+04  0.15645470801E+04 0.  0.
        2    1    3    3  502    0 -0.98579937723E+02  0.11013199085E+03  0.19800703407E+04  0.19855794151E+04  0.25500000920E-02 0.  1.
       -2    1    3    3    0  502  0.98579937723E+02 -0.11013199085E+03 -0.28507204069E+03  0.32111232913E+03  0.25500000920E-02 0. -1.
</event>
<event>
 5   0  0.5095750E-04  0.1579240E+04  0.7818609E-02  0.8833404E-01
        4   -1    0    0  501    0  0.00000000000E+00  0.00000000000E+00  0.12122762545E+04  0.12122769197E+04  0.12699999809E+01 0.  1.
       -4   -1    0    0    0  501  0.00000000000E+00  0.00000000000E+00 -0.51431974494E+03  0.51432131294E+03  0.12699999809E+01 0. -1.
    10030    2    1    2    0    0  0.00000000000E+00  0.00000000000E+00  0.69795650956E+03  0.17265982327E+04  0.15792397436E+04 0.  0.
        4    1    3    3  502    0  0.20013912483E+03 -0.48393099351E+03  0.99509847551E+03  0.11244854221E+04  0.12699999809E+01 0.  1.
       -4    1    3    3    0  502 -0.20013912483E+03  0.48393099351E+03 -0.29714196595E+03  0.60211281053E+03  0.12699999809E+01 0. -1.
</event>
<event>
 5   0  0.7499834E-04  0.1557470E+04  0.7818609E-02  0.8847111E-01
        1   -1    0    0  501    0  0.00000000000E+00  0.00000000000E+00  0.79812280064E+03  0.79812280066E+03  0.50400001928E-02 0.  1.
       -1   -1    0    0    0  501  0.00000000000E+00  0.00000000000E+00 -0.75981782004E+03  0.75981782006E+03  0.50400001928E-02 0. -1.
    10030    2    1    2    0    0  0.00000000000E+00  0.00000000000E+00  0.38304980600E+02  0.15579406207E+04  0.15574696485E+04 0.  0.
        3    1    3    3  502    0  0.42885992712E+03 -0.53916672373E+03  0.38231368133E+03  0.78789932998E+03  0.10100000352E+00 0.  1.
       -3    1    3    3    0  502 -0.42885992712E+03  0.53916672373E+03 -0.34400870073E+03  0.77004129073E+03  0.10100000352E+00 0. -1.
</event>
<event>
 5   0  0.1375777E-03  0.1694883E+04  0.7818609E-02  0.8764288E-01
        2   -1    0    0  501    0  0.00000000000E+00  0.00000000000E+00  0.16810793846E+04  0.16810793846E+04  0.25500000920E-02 0. -1.
       -2   -1    0    0    0  501  0.00000000000E+00  0.00000000000E+00 -0.42719998278E+03  0.42719998279E+03  0.25500000920E-02 0.  1.
    10030    2    1    2    0    0  0.00000000000E+00  0.00000000000E+00  0.12538794018E+04  0.21082793674E+04  0.16948829861E+04 0.  0.
        1    1    3    3  502    0  0.22225140471E+02  0.41682382146E+03 -0.29045528769E+03  0.50852760906E+03  0.50400001928E-02 0.  1.
       -1    1    3    3    0  502 -0.22225140471E+02 -0.41682382146E+03  0.15443346895E+04  0.15997517583E+04  0.50400001928E-02 0. -1.
</event>
<event>
 5   0  0.7499834E-04  0.1592630E+04  0.7818609E-02  0.8825089E-01
        1   -1    0    0  501    0  0.00000000000E+00  0.00000000000E+00  0.48889222979E+03  0.48889222981E+03  0.50400001928E-02 0. -1.
       -1   -1    0    0    0  501  0.00000000000E+00  0.00000000000E+00 -0.12970494424E+04  0.12970494424E+04  0.50400001928E-02 0.  1.
    10030    2    1    2    0    0  0.00000000000E+00  0.00000000000E+00 -0.80815721264E+03  0.17859416723E+04  0.15926297675E+04 0.  0.
        3    1    3    3  502    0 -0.16850461430E+02 -0.62022331075E+03 -0.96382144357E+03  0.11462603014E+04  0.10100000352E+00 0.  1.
       -3    1    3    3    0  502  0.16850461430E+02  0.62022331075E+03  0.15566423093E+03  0.63968137087E+03  0.10100000352E+00 0. -1.
</event>
<event>
 5   0  0.1414751E-03  0.1362556E+04  0.7818609E-02  0.8981377E-01
       -2   -1    0    0    0  501  0.00000000000E+00  0.00000000000E+00  0.98715230228E+03  0.98715230229E+03  0.25500000920E-02 0. -1.
        2   -1    0    0  501    0  0.00000000000E+00  0.00000000000E+00 -0.47018072640E+03  0.47018072641E+03  0.25500000920E-02 0.  1.
    10030    2    1    2    0    0  0.00000000000E+00  0.00000000000E+00  0.51697157588E+03  0.14573330287E+04  0.13625564011E+04 0.  0.
        2    1    3    3  502    0  0.18735122090E+03 -0.52682117978E+03  0.67478839678E+03  0.87634491832E+03  0.25500000920E-02 0. -1.
       -2    1    3    3    0  502 -0.18735122090E+03  0.52682117978E+03 -0.15781682090E+03  0.58098811038E+03  0.25500000920E-02 0.  1.
</event>
<event>
 5   0  0.1354766E-03  0.1411025E+04  0.7818609E-02  0.8945876E-01
       -2   -1    0    0    0  501  0.00000000000E+00  0.00000000000E+00  0.28347657692E+03  0.28347657693E+03  0.25500000920E-02 0. -1.
        2   -1    0    0  501    0  0.00000000000E+00  0.00000000000E+00 -0.17558699519E+04  0.17558699520E+04  0.25500000920E-02 0.  1.
    10030    2    1    2    0    0  0.00000000000E+00  0.00000000000E+00 -0.14723933750E+04  0.20393465289E+04  0.14110251642E+04 0.  0.
        3    1    3    3  502    0  0.33313147456E+03 -0.15164402744E+03 -0.16079086260E+04  0.16490429498E+04  0.10100000352E+00 0.  1.
       -3    1    3    3    0  502 -0.33313147456E+03  0.15164402744E+03  0.13551525099E+03  0.39030357909E+03  0.10100000352E+00 0. -1.
</event>
<event>
 5   0  0.1375777E-03  0.1615861E+04  0.7818609E-02  0.8810863E-01
        2   -1    0    0  501    0  0.00000000000E+00  0.00000000000E+00  0.12074835504E+04  0.12074835504E+04  0.25500000920E-02 0.  1.
       -2   -1    0    0    0  501  0.00000000000E+00  0.00000000000E+00 -0.54058821069E+03  0.54058821070E+03  0.25500000920E-02 0. -1.
    10030    2    1    2    0    0  0.00000000000E+00  0.00000000000E+00  0.66689533966E+03  0.17480717611E+04  0.16158606028E+04 0.  0.
        1    1    3    3  502    0 -0.64084837285E+03  0.41907941461E+03  0.61229144710E+03  0.98041573272E+03  0.50400001928E-02 0.  1.
       -1    1    3    3    0  502  0.64084837285E+03 -0.41907941461E+03  0.54603892562E+02  0.76765602834E+03  0.50400001928E-02 0. -1.
</event>
<event>
 5   0  0.1339162E-03  0.1393623E+04  0.7818609E-02  0.8958447E-01
        2   -1    0    0  501    0  0.00000000000E+00  0.00000000000E+00  0.28873903752E+03  0.28873903753E+03  0.25500000920E-02 0. -1.
       -2   -1    0    0    0  501  0.00000000000E+00  0.00000000000E+00 -0.16816103046E+04  0.16816103046E+04  0.25500000920E-02 0.  1.
    10030    2    1    2    0    0  0.00000000000E+00  0.00000000000E+00 -0.13928712671E+04  0.19703493422E+04  0.13936233937E+04 0.  0.
        5    1    3    3  502    0 -0.60433364735E+03 -0.30931157553E+03 -0.91832908949E+03  0.11420346819E+04  0.46999998093E+01 0.  1.
       -5    1    3    3    0  502  0.60433364735E+03  0.30931157553E+03 -0.47454217764E+03  0.82831466027E+03  0.46999998093E+01 0. -1.
</event>
<event>
 5   0  0.7601145E-04  0.1713709E+04  0.7818609E-02  0.8753584E-01
        1   -1    0    0  501    0  0.00000000000E+00  0.00000000000E+00  0.56827138530E+03  0.56827138532E+03  0.50400001928E-02 0. -1.
       -1   -1    0    0    0  501  0.00000000000E+00  0.00000000000E+00 -0.12919875434E+04  0.12919875434E+04  0.50400001928E-02 0.  1.
    10030    2    1    2    0    0  0.00000000000E+00  0.00000000000E+00 -0.72371615813E+03  0.18602589288E+04  0.17137089031E+04 0.  0.
        4    1    3    3  502    0 -0.43174737065E+03  0.24875330148E+03 -0.11185446464E+04  0.12245112232E+04  0.12699999809E+01 0.  1.
       -4    1    3    3    0  502  0.43174737065E+03 -0.24875330148E+03  0.39482848822E+03  0.63574770552E+03  0.12699999809E+01 0. -1.
</event>
<event>
 5   0  0.7302027E-04  0.1213468E+04  0.7818609E-02  0.9101149E-01
        1   -1    0    0  501    0  0.00000000000E+00  0.00000000000E+00  0.90642798454E+03  0.90642798456E+03  0.50400001928E-02 0.  1.
       -1   -1    0    0    0  501  0.00000000000E+00  0.00000000000E+00 -0.40612839709E+03  0.40612839712E+03  0.50400001928E-02 0. -1.
    10030    2    1    2    0    0  0.00000000000E+00  0.00000000000E+00  0.50029958746E+03  0.13125563817E+04  0.12134679962E+04 0.  0.
        5    1    3    3  502    0 -0.27581281309E+03  0.38698304378E+03 -0.15784503281E+03  0.50076514298E+03  0.46999998093E+01 0. -1.
       -5    1    3    3    0  502  0.27581281309E+03 -0.38698304378E+03  0.65814462027E+03  0.81179123870E+03  0.46999998093E+01 0.  1.
</event>
<event>
 5   0  0.1414796E-03  0.1635758E+04  0.7818609E-02  0.8798877E-01
        2   -1    0    0  501    0  0.00000000000E+00  0.00000000000E+00  0.95792729122E+03  0.95792729122E+03  0.25500000920E-02 0. -1.
       -2   -1    0    0    0  501  0.00000000000E+00  0.00000000000E+00 -0.69830555806E+03  0.69830555807E+03  0.25500000920E-02 0.  1.
    10030    2    1    2    0    0  0.00000000000E+00  0.00000000000E+00  0.25962173315E+03  0.16562328493E+04  0.16357578692E+04 0.  0.
        4    1    3    3  502    0 -0.61063226268E+03 -0.19689348959E+03 -0.38377144614E+03  0.74761015392E+03  0.12699999809E+01 0.  1.
       -4    1    3    3    0  502  0.61063226268E+03  0.19689348959E+03  0.64339317930E+03  0.90862269537E+03  0.12699999809E+01 0. -1.
</event>
<event>
 5   0  0.7601145E-04  0.1608538E+04  0.7818609E-02  0.8815320E-01
       -1   -1    0    0    0  501  0.00000000000E+00  0.00000000000E+00  0.81979544557E+03  0.81979544559E+03  0.50400001928E-02 0. -1.
        1   -1    0    0  501    0  0.00000000000E+00  0.00000000000E+00 -0.78903637746E+03  0.78903637748E+03  0.50400001928E-02 0.  1.
    10030    2    1    2    0    0  0.00000000000E+00  0.00000000000E+00  0.30759068115E+02  0.16088318231E+04  0.16085377567E+04 0.  0.
        4    1    3    3  502    0 -0.50495930797E+03  0.17238667917E+03 -0.58651594695E+03  0.79290834198E+03  0.12699999809E+01 0.  1.
       -4    1    3    3    0  502  0.50495930797E+03 -0.17238667917E+03  0.61727501506E+03  0.81592348108E+03  0.12699999809E+01 0. -1.
</event>
<event>
 5   0  0.7633213E-04  0.1596962E+04  0.7818609E-02  0.8822417E-01
       -1   -1    0    0    0  501  0.00000000000E+00  0.00000000000E+00  0.76737235440E+03  0.76737235442E+03  0.50400001928E-02 0. -1.
        1   -1    0    0  501    0  0.00000000000E+00  0.00000000000E+00 -0.83085061251E+03  0.83085061253E+03  0.50400001928E-02 0.  1.
    10030    2    1    2    0    0  0.00000000000E+00  0.00000000000E+00 -0.63478258110E+02  0.15982229669E+04  0.15969618539E+04 0.  0.
        1    1    3    3  502    0  0.46348434490E+03 -0.27708286465E+03  0.55692528356E+03  0.77573089622E+03  0.50400001928E-02 0. -1.
       -1    1    3    3    0  502 -0.46348434490E+03  0.27708286465E+03 -0.62040354167E+03  0.82249207072E+03  0.50400001928E-02 0.  1.
</event>
<event>
 5   0  0.1375777E-03  0.1578269E+04  0.7818609E-02  0.8834011E-01
       -2   -1    0    0    0  501  0.00000000000E+00  0.00000000000E+00  0.64467762643E+03  0.64467762644E+03  0.25500000920E-02 0. -1.
        2   -1    0    0  501    0  0.00000000000E+00  0.00000000000E+00 -0.96596032698E+03  0.96596032698E+03  0.25500000920E-02 0.  1.
    10030    2    1    2    0    0  0.00000000000E+00  0.00000000000E+00 -0.32128270055E+03  0.16106379534E+04  0.15782686854E+04 0.  0.
        1    1    3    3  502    0 -0.16733748493E+03 -0.76321593499E+03 -0.47771846307E+02  0.78280428372E+03  0.50400001928E-02 0. -1.
       -1    1    3    3    0  502  0.16733748493E+03  0.76321593499E+03 -0.27351085424E+03  0.82783366970E+03  0.50400001928E-02 0.  1.
</event>
<event>
 5   0  0.7302027E-04  0.1588982E+04  0.7818609E-02  0.8827346E-01
        1   -1    0    0  501    0  0.00000000000E+00  0.00000000000E+00  0.71618821568E+03  0.71618821570E+03  0.50400001928E-02 0. -1.
       -1   -1    0    0    0  501  0.00000000000E+00  0.00000000000E+00 -0.88135437325E+03  0.88135437327E+03  0.50400001928E-02 0.  1.
    10030    2    1    2    0    0  0.00000000000E+00  0.00000000000E+00 -0.16516615757E+03  0.15975425890E+04  0.15889815807E+04 0.  0.
        5    1    3    3  502    0  0.59481447651E+03 -0.28033675106E+03 -0.53085588631E+03  0.84511716199E+03  0.46999998093E+01 0.  1.
       -5    1    3    3    0  502 -0.59481447651E+03  0.28033675106E+03  0.36568972874E+03  0.75242542698E+03  0.46999998093E+01 0. -1.
</event>
<event>
 5   0  0.1414796E-03  0.1662133E+04  0.7818609E-02  0.8783261E-01
       -2   -1    0    0    0  501  0.00000000000E+00  0.00000000000E+00  0.49053060273E+03  0.49053060273E+03  0.25500000920E-02 0.  1.
        2   -1    0    0  501    0  0.00000000000E+00  0.00000000000E+00 -0.14080082104E+04  0.14080082104E+04  0.25500000920E-02 0. -1.
    10030    2    1    2    0    0  0.00000000000E+00  0.00000000000E+00 -0.91747760763E+03  0.18985388131E+04  0.16621325050E+04 0.  0.
        4    1    3    3  502    0 -0.57650753641E+03  0.51907140593E+03 -0.11822099453E+03  0.78471261009E+03  0.12699999809E+01 0.  1.
       -4    1    3    3    0  502  0.57650753641E+03 -0.51907140593E+03 -0.79925661310E+03  0.11138262030E+04  0.12699999809E+01 0. -1.
</event>
<event>
 5   0  0.1375777E-03  0.1633145E+04  0.7818609E-02  0.8800441E-01
        2   -1    0    0  501    0  0.00000000000E+00  0.00000000000E+00  0.84178126513E+03  0.84178126513E+03  0.25500000920E-02 0. -1.
       -2   -1    0    0    0  501  0.00000000000E+00  0.00000000000E+00 -0.79211827483E+03  0.79211827483E+03  0.25500000920E-02 0.  1.
    10030    2    1    2    0    0  0.00000000000E+00  0.00000000000E+00  0.49662990298E+02  0.16338995400E+04  0.16331446029E+04 0.  0.
        1    1    3    3  502    0  0.43245403371E+03  0.69265423837E+03  0.22846065586E+02  0.81688942210E+03  0.50400001928E-02 0. -1.
       -1    1    3    3    0  502 -0.43245403371E+03 -0.69265423837E+03  0.26816924712E+02  0.81701011786E+03  0.50400001928E-02 0.  1.
</event>
<event>
 5   0  0.1354766E-03  0.1601141E+04  0.7818609E-02  0.8819847E-01
        2   -1    0    0  501    0  0.00000000000E+00  0.00000000000E+00  0.30014660646E+04  0.30014660646E+04  0.25500000920E-02 0.  1.
       -2   -1    0    0    0  501  0.00000000000E+00  0.00000000000E+00 -0.21353339169E+03  0.21353339171E+03  0.25500000920E-02 0. -1.
    10030    2    1    2    0    0  0.00000000000E+00  0.00000000000E+00  0.27879326730E+04  0.32149994564E+04  0.16011411291E+04 0.  0.
        3    1    3    3  502    0 -0.13923488842E+03  0.62974800838E+02  0.29719090593E+04  0.29758352855E+04  0.10100000352E+00 0.  1.
       -3    1    3    3    0  502  0.13923488842E+03 -0.62974800838E+02 -0.18397638631E+03  0.23916417084E+03  0.10100000352E+00 0. -1.
</event>
<event>
 5   0  0.1414751E-03  0.1627143E+04  0.7818609E-02  0.8804044E-01
        2   -1    0    0  501    0  0.00000000000E+00  0.00000000000E+00  0.22949695175E+04  0.22949695175E+04  0.25500000920E-02 0. -1.
       -2   -1    0    0    0  501  0.00000000000E+00  0.00000000000E+00 -0.28841285199E+03  0.28841285200E+03  0.25500000920E-02 0.  1.
    10030    2    1    2    0    0  0.00000000000E+00  0.00000000000E+00  0.20065566655E+04  0.25833823695E+04  0.16271431453E+04 0.  0.
        2    1    3    3  502    0 -0.77815039088E+03 -0.19048985364E+03  0.12283388167E+04  0.14664994592E+04  0.25500000920E-02 0.  1.
       -2    1    3    3    0  502  0.77815039088E+03  0.19048985364E+03  0.77821784883E+03  0.11168829103E+04  0.25500000920E-02 0. -1.
</event>
<event>
 5   0  0.1375777E-03  0.1624251E+04  0.7818609E-02  0.8805786E-01
       -2   -1    0    0    0  501  0.00000000000E+00  0.00000000000E+00  0.74237124755E+03  0.74237124756E+03  0.25500000920E-02 0. -1.
        2   -1    0    0  501    0  0.00000000000E+00  0.00000000000E+00 -0.88843440602E+03  0.88843440602E+03  0.25500000920E-02 0.  1.
    10030    2    1    2    0    0  0.00000000000E+00  0.00000000000E+00 -0.14606315847E+03  0.16308056536E+04  0.16242514071E+04 0.  0.
        1    1    3    3  502    0 -0.61982341494E+03 -0.81417373629E+02 -0.59352320036E+03  0.86202067483E+03  0.50400001928E-02 0.  1.
       -1    1    3    3    0  502  0.61982341494E+03  0.81417373629E+02  0.44746004189E+03  0.76878497875E+03  0.50400001928E-02 0. -1.
</event>
<event>
 5   0  0.1339162E-03  0.1630117E+04  0.7818609E-02  0.8802257E-01
       -2   -1    0    0    0  501  0.00000000000E+00  0.00000000000E+00  0.36037742925E+03  0.36037742925E+03  0.25500000920E-02 0.  1.
        2   -1    0    0  501    0  0.00000000000E+00  0.00000000000E+00 -0.18434021573E+04  0.18434021573E+04  0.25500000920E-02 0. -1.
    10030    2    1    2    0    0  0.00000000000E+00  0.00000000000E+00 -0.14830247280E+04  0.22037795865E+04  0.16301172111E+04 0.  0.
        5    1    3    3  502    0  0.55007223622E+03  0.59574967504E+03 -0.85300477161E+03  0.11769181666E+04  0.46999998093E+01 0.  1.
       -5    1    3    3    0  502 -0.55007223622E+03 -0.59574967504E+03 -0.63001995642E+03  0.10268614200E+04  0.46999998093E+01 0. -1.
</event>
<event>
 5   0  0.1414751E-03  0.1579274E+04  0.7818609E-02  0.8833383E-01
       -2   -1    0    0    0  501  0.00000000000E+00  0.00000000000E+00  0.54683993671E+03  0.54683993672E+03  0.25500000920E-02 0.  1.
        2   -1    0    0  501    0  0.00000000000E+00  0.00000000000E+00 -0.11402361849E+04  0.11402361849E+04  0.25500000920E-02 0. -1.
    10030    2    1    2    0    0  0.00000000000E+00  0.00000000000E+00 -0.59339624815E+03  0.16870761216E+04  0.15792741158E+04 0.  0.
        2    1    3    3  502    0  0.48512824911E+03  0.58199668052E+03 -0.59128116305E+02  0.75997742622E+03  0.25500000920E-02 0.  1.
       -2    1    3    3    0  502 -0.48512824911E+03 -0.58199668052E+03 -0.53426813185E+03  0.92709869536E+03  0.25500000920E-02 0. -1.
</event>
<event>
 5   0  0.7499834E-04  0.1518795E+04  0.7818609E-02  0.8872050E-01
        1   -1    0    0  501    0  0.00000000000E+00  0.00000000000E+00  0.86289130865E+03  0.86289130867E+03  0.50400001928E-02 0. -1.
       -1   -1    0    0    0  501  0.00000000000E+00  0.00000000000E+00 -0.66831615070E+03  0.66831615072E+03  0.50400001928E-02 0.  1.
    10030    2    1    2    0    0  0.00000000000E+00  0.00000000000E+00  0.19457515795E+03  0.15312074594E+04  0.15187945192E+04 0.  0.
        3    1    3    3  502    0 -0.35571892626E+03  0.25543842786E+03  0.72276070709E+03  0.84508448977E+03  0.10100000352E+00 0. -1.
       -3    1    3    3    0  502  0.35571892626E+03 -0.25543842786E+03 -0.52818554914E+03  0.68612296962E+03  0.10100000352E+00 0.  1.
</event>
<event>
 5   0  0.7633213E-04  0.1556954E+04  0.7818609E-02  0.8847438E-01
       -1   -1    0    0    0  501  0.00000000000E+00  0.00000000000E+00  0.51739114145E+03  0.51739114147E+03  0.50400001928E-02 0. -1.
        1   -1    0    0  501    0  0.00000000000E+00  0.00000000000E+00 -0.11713112496E+04  0.11713112496E+04  0.50400001928E-02 0.  1.
    10030    2    1    2    0    0  0.00000000000E+00  0.00000000000E+00 -0.65392010812E+03  0.16887023911E+04  0.15569535182E+04 0.  0.
        1    1    3    3  502    0 -0.83036250878E+01 -0.72204863794E+03 -0.64243875318E+03  0.96651473727E+03  0.50400001928E-02 0.  1.
       -1    1    3    3    0  502  0.83036250878E+01  0.72204863794E+03 -0.11481354942E+02  0.72218765379E+03  0.50400001928E-02 0. -1.
</event>
<event>
 5   0  0.1414796E-03  0.1563537E+04  0.7818609E-02  0.8843267E-01
       -2   -1    0    0    0  501  0.00000000000E+00  0.00000000000E+00  0.12368517252E+04  0.12368517252E+04  0.25500000920E-02 0.  1.
        2   -1    0    0  501    0  0.00000000000E+00  0.00000000000E+00 -0.49412689620E+03  0.49412689621E+03  0.25500000920E-02 0. -1.
    10030    2    1    2    0    0  0.00000000000E+00  0.00000000000E+00  0.74272482903E+03  0.17309786215E+04  0.15635366373E+04 0.  0.
        4    1    3    3  502    0 -0.15926269611E+03  0.45902907149E+03 -0.30666945750E+03  0.57456075737E+03  0.12699999809E+01 0. -1.
       -4    1    3    3    0  502  0.15926269611E+03 -0.45902907149E+03  0.10493942865E+04  0.11564178641E+04  0.12699999809E+01 0.  1.
</event>
<event>
 5   0  0.1339162E-03  0.1601685E+04  0.7818609E-02  0.8819513E-01
       -2   -1    0    0    0  501  0.00000000000E+00  0.00000000000E+00  0.32540110751E+03  0.32540110752E+03  0.25500000920E-02 0.  1.
        2   -1    0    0  501    0  0.00000000000E+00  0.00000000000E+00 -0.19709483817E+04  0.19709483817E+04  0.25500000920E-02 0. -1.
    10030    2    1    2    0    0  0.00000000000E+00  0.00000000000E+00 -0.16455472742E+04  0.22963494893E+04  0.16016850955E+04 0.  0.
        5    1    3    3  502    0 -0.78250254950E+03  0.15477312102E+03 -0.92477609865E+03  0.12212689637E+04  0.46999998093E+01 0. -1.
       -5    1    3    3    0  502  0.78250254950E+03 -0.15477312102E+03 -0.72077117559E+03  0.10750805256E+04  0.46999998093E+01 0.  1.
</event>
<event>
 5   0  0.1339162E-03  0.1575287E+04  0.7818609E-02  0.8835876E-01
       -2   -1    0    0    0  501  0.00000000000E+00  0.00000000000E+00  0.37321830979E+03  0.37321830980E+03  0.25500000920E-02 0. -1.
        2   -1    0    0  501    0  0.00000000000E+00  0.00000000000E+00 -0.16622503662E+04  0.16622503662E+04  0.25500000920E-02 0.  1.
    10030    2    1    2    0    0  0.00000000000E+00  0.00000000000E+00 -0.12890320564E+04  0.20354686760E+04  0.15752869861E+04 0.  0.
        5    1    3    3  502    0 -0.89384193432E+02  0.44328998096E+03  0.18874435885E+03  0.49004292083E+03  0.46999998093E+01 0. -1.
       -5    1    3    3    0  502  0.89384193432E+02 -0.44328998096E+03 -0.14777764153E+04  0.15454257552E+04  0.46999998093E+01 0.  1.
</event>
<event>
 5   0  0.7601145E-04  0.1448001E+04  0.7818609E-02  0.8919787E-01
       -1   -1    0    0    0  501  0.00000000000E+00  0.00000000000E+00  0.23818955131E+03  0.23818955136E+03  0.50400001928E-02 0.  1.
        1   -1    0    0  501    0  0.00000000000E+00  0.00000000000E+00 -0.22006706688E+04  0.22006706688E+04  0.50400001928E-02 0. -1.
    10030    2    1    2    0    0  0.00000000000E+00  0.00000000000E+00 -0.19624811175E+04  0.24388602201E+04  0.14480010487E+04 0.  0.
        4    1    3    3  502    0  0.31240384495E+03 -0.11671786404E+03  0.10111483090E+03  0.34848966133E+03  0.12699999809E+01 0.  1.
       -4    1    3    3    0  502 -0.31240384495E+03  0.11671786404E+03 -0.20635959484E+04  0.20903705588E+04  0.12699999809E+01 0. -1.
</event>
<event>
 5   0  0.7302027E-04  0.1591910E+04  0.7818609E-02  0.8825534E-01
        1   -1    0    0  501    0  0.00000000000E+00  0.00000000000E+00  0.25707016851E+04  0.25707016851E+04  0.50400001928E-02 0. -1.
       -1   -1    0    0    0  501  0.00000000000E+00  0.00000000000E+00 -0.24644790797E+03  0.24644790802E+03  0.50400001928E-02 0.  1.
    10030    2    1    2    0    0  0.00000000000E+00  0.00000000000E+00  0.23242537771E+04  0.28171495931E+04  0.15919096110E+04 0.  0.
        5    1    3    3  502    0  0.52156296271E+03 -0.18946676881E+03  0.15233636819E+03  0.57545985058E+03  0.46999998093E+01 0.  1.
       -5    1    3    3    0  502 -0.52156296271E+03  0.18946676881E+03  0.21719174089E+04  0.22416897425E+04  0.46999998093E+01 0. -1.
</event>
<event>
 5   0  0.1375777E-03  0.1583178E+04  0.7818609E-02  0.8830949E-01
       -2   -1    0    0    0  501  0.00000000000E+00  0.00000000000E+00  0.28336579780E+03  0.28336579781E+03  0.25500000920E-02 0. -1.
        2   -1    0    0  501    0  0.00000000000E+00  0.00000000000E+00 -0.22113238124E+04  0.22113238124E+04  0.25500000920E-02 0.  1.
    10030    2    1    2    0    0  0.00000000000E+00  0.00000000000E+00 -0.19279580146E+04  0.24946896102E+04  0.15831784944E+04 0.  0.
        1    1    3    3  502    0 -0.18497847470E+03  0.16721430384E+03  0.21986353267E+03  0.33244192355E+03  0.50400001928E-02 0. -1.
       -1    1    3    3    0  502  0.18497847470E+03 -0.16721430384E+03 -0.21478215473E+04  0.21622476867E+04  0.50400001928E-02 0.  1.
</event>
<event>
 5   0  0.1414796E-03  0.1627728E+04  0.7818609E-02  0.8803692E-01
        2   -1    0    0  501    0  0.00000000000E+00  0.00000000000E+00  0.96276447758E+03  0.96276447758E+03  0.25500000920E-02 0. -1.
       -2   -1    0    0    0  501  0.00000000000E+00  0.00000000000E+00 -0.68799226181E+03  0.68799226182E+03  0.25500000920E-02 0.  1.
    10030    2    1    2    0    0  0.00000000000E+00  0.00000000000E+00  0.27477221576E+03  0.16507567394E+04  0.16277278772E+04 0.  0.
        4    1    3    3  502    0  0.14659218501E+03 -0.79951598973E+03  0.17867838164E+03  0.83225156263E+03  0.12699999809E+01 0. -1.
       -4    1    3    3    0  502 -0.14659218501E+03  0.79951598973E+03  0.96093834125E+02  0.81850517677E+03  0.12699999809E+01 0.  1.
</event>
<event>
 5   0  0.1414751E-03  0.1146101E+04  0.7818609E-02  0.9161388E-01
       -2   -1    0    0    0  501  0.00000000000E+00  0.00000000000E+00  0.50327865383E+03  0.50327865384E+03  0.25500000920E-02 0. -1.
        2   -1    0    0  501    0  0.00000000000E+00  0.00000000000E+00 -0.65249558329E+03  0.65249558330E+03  0.25500000920E-02 0.  1.
    10030    2    1    2    0    0  0.00000000000E+00  0.00000000000E+00 -0.14921692946E+03  0.11557742371E+04  0.11461013896E+04 0.  0.
        2    1    3    3  502    0  0.46429874010E+03  0.16331186840E+03 -0.37058685089E+03  0.61609958650E+03  0.25500000920E-02 0. -1.
       -2    1    3    3    0  502 -0.46429874010E+03 -0.16331186840E+03  0.22136992143E+03  0.53967465064E+03  0.25500000920E-02 0.  1.
</event>
<event>
 5   0  0.1414751E-03  0.1625391E+04  0.7818609E-02  0.8805099E-01
       -2   -1    0    0    0  501  0.00000000000E+00  0.00000000000E+00  0.62866670196E+03  0.62866670196E+03  0.25500000920E-02 0. -1.
        2   -1    0    0  501    0  0.00000000000E+00  0.00000000000E+00 -0.10505948897E+04  0.10505948897E+04  0.25500000920E-02 0.  1.
    10030    2    1    2    0    0  0.00000000000E+00  0.00000000000E+00 -0.42192818770E+03  0.16792615916E+04  0.16253910599E+04 0.  0.
        2    1    3    3  502    0  0.19098118907E+02  0.76017267694E+03 -0.50725611734E+03  0.91407658623E+03  0.25500000920E-02 0.  1.
       -2    1    3    3    0  502 -0.19098118907E+02 -0.76017267694E+03  0.85327929632E+02  0.76518500540E+03  0.25500000920E-02 0. -1.
</event>
<event>
 5   0  0.7124495E-04  0.1603045E+04  0.7818609E-02  0.8818680E-01
        1   -1    0    0  501    0  0.00000000000E+00  0.00000000000E+00  0.59814589697E+03  0.59814589700E+03  0.50400001928E-02 0. -1.
       -1   -1    0    0    0  501  0.00000000000E+00  0.00000000000E+00 -0.10740490716E+04  0.10740490716E+04  0.50400001928E-02 0.  1.
    10030    2    1    2    0    0  0.00000000000E+00  0.00000000000E+00 -0.47590317461E+03  0.16721949686E+04  0.16030446598E+04 0.  0.
        2    1    3    3  502    0  0.61782192595E+03 -0.23926248861E+03  0.23260324583E+03  0.70217856747E+03  0.25500000920E-02 0. -1.
       -2    1    3    3    0  502 -0.61782192595E+03  0.23926248861E+03 -0.70850642043E+03  0.97001640112E+03  0.25500000920E-02 0.  1.
</event>
<event>
 5   0  0.7499834E-04  0.1197240E+04  0.7818609E-02  0.9115275E-01
       -1   -1    0    0    0  501  0.00000000000E+00  0.00000000000E+00  0.76888585885E+03  0.76888585886E+03  0.50400001928E-02 0. -1.
        1   -1    0    0  501    0  0.00000000000E+00  0.00000000000E+00 -0.46605890401E+03  0.46605890404E+03  0.50400001928E-02 0.  1.
    10030    2    1    2    0    0  0.00000000000E+00  0.00000000000E+00  0.30282695483E+03  0.12349447629E+04  0.11972403279E+04 0.  0.
        3    1    3    3  502    0 -0.26803300333E+03  0.32115589470E+03  0.59310838578E+03  0.72578258939E+03  0.10100000352E+00 0. -1.
       -3    1    3    3    0  502  0.26803300333E+03 -0.32115589470E+03 -0.29028143095E+03  0.50916217351E+03  0.10100000352E+00 0.  1.
</event>
<event>
 5   0  0.1339162E-03  0.1576695E+04  0.7818609E-02  0.8834994E-01
        2   -1    0    0  501    0  0.00000000000E+00  0.00000000000E+00  0.85948220406E+03  0.85948220406E+03  0.25500000920E-02 0. -1.
       -2   -1    0    0    0  501  0.00000000000E+00  0.00000000000E+00 -0.72310026125E+03  0.72310026125E+03  0.25500000920E-02 0.  1.
    10030    2    1    2    0    0  0.00000000000E+00  0.00000000000E+00  0.13638194281E+03  0.15825824653E+04  0.15766950324E+04 0.  0.
        5    1    3    3  502    0  0.18898054286E+03  0.26731641947E+02  0.83592710899E+03  0.85745230060E+03  0.46999998093E+01 0. -1.
       -5    1    3    3    0  502 -0.18898054286E+03 -0.26731641947E+02 -0.69954516618E+03  0.72513016471E+03  0.46999998093E+01 0.  1.
</event>
<event>
 5   0  0.1375777E-03  0.1614226E+04  0.7818609E-02  0.8811856E-01
       -2   -1    0    0    0  501  0.00000000000E+00  0.00000000000E+00  0.45306515007E+03  0.45306515008E+03  0.25500000920E-02 0.  1.
        2   -1    0    0  501    0  0.00000000000E+00  0.00000000000E+00 -0.14378317478E+04  0.14378317478E+04  0.25500000920E-02 0. -1.
    10030    2    1    2    0    0  0.00000000000E+00  0.00000000000E+00 -0.98476659776E+03  0.18908968979E+04  0.16142260766E+04 0.  0.
        1    1    3    3  502    0 -0.22968393146E+03 -0.48162804577E+03  0.21697485015E+03  0.57601941675E+03  0.50400001928E-02 0.  1.
       -1    1    3    3    0  502  0.22968393146E+03  0.48162804577E+03 -0.12017414479E+04  0.13148774812E+04  0.50400001928E-02 0. -1.
</event>
<event>
 5   0  0.7601145E-04  0.1572872E+04  0.7818609E-02  0.8837389E-01
       -1   -1    0    0    0  501  0.00000000000E+00  0.00000000000E+00  0.48442902786E+03  0.48442902789E+03  0.50400001928E-02 0.  1.
        1   -1    0    0  501    0  0.00000000000E+00  0.00000000000E+00 -0.12767234482E+04  0.12767234482E+04  0.50400001928E-02 0. -1.
    10030    2    1    2    0    0  0.00000000000E+00  0.00000000000E+00 -0.79229442034E+03  0.17611524761E+04  0.15728724028E+04 0.  0.
        4    1    3    3  502    0 -0.26905785673E+03 -0.30176627539E+03  0.35915581403E+03  0.54078602689E+03  0.12699999809E+01 0.  1.
       -4    1    3    3    0  502  0.26905785673E+03  0.30176627539E+03 -0.11514502344E+04  0.12203664492E+04  0.12699999809E+01 0. -1.
</event>
<event>
 5   0  0.7499834E-04  0.1431758E+04  0.7818609E-02  0.8931146E-01
        1   -1    0    0  501    0  0.00000000000E+00  0.00000000000E+00  0.18365692115E+04  0.18365692115E+04  0.50400001928E-02 0. -1.
       -1   -1    0    0    0  501  0.00000000000E+00  0.00000000000E+00 -0.27904341053E+03  0.27904341058E+03  0.50400001928E-02 0.  1.
    10030    2    1    2    0    0  0.00000000000E+00  0.00000000000E+00  0.15575258010E+04  0.21156126221E+04  0.14317577121E+04 0.  0.
        3    1    3    3  502    0 -0.26087248411E+03  0.51575934114E+03  0.15461309040E+03  0.59830374298E+03  0.10100000352E+00 0.  1.
       -3    1    3    3    0  502  0.26087248411E+03 -0.51575934114E+03  0.14029127106E+04  0.15173088791E+04  0.10100000352E+00 0. -1.
</event>
<event>
 5   0  0.1339162E-03  0.1646764E+04  0.7818609E-02  0.8792323E-01
        2   -1    0    0  501    0  0.00000000000E+00  0.00000000000E+00  0.72262670100E+03  0.72262670100E+03  0.25500000920E-02 0. -1.
       -2   -1    0    0    0  501  0.00000000000E+00  0.00000000000E+00 -0.93818525631E+03  0.93818525632E+03  0.25500000920E-02 0.  1.
    10030    2    1    2    0    0  0.00000000000E+00  0.00000000000E+00 -0.21555855532E+03  0.16608119573E+04  0.16467637556E+04 0.  0.
        5    1    3    3  502    0 -0.58742707535E+03 -0.23481314091E+03 -0.63927390234E+03  0.89938923287E+03  0.46999998093E+01 0.  1.
       -5    1    3    3    0  502  0.58742707535E+03  0.23481314091E+03  0.42371534702E+03  0.76142272444E+03  0.46999998093E+01 0. -1.
</event>
<event>
 5   0  0.5095750E-04  0.1507418E+04  0.7818609E-02  0.8879535E-01
       -4   -1    0    0    0  501  0.00000000000E+00  0.00000000000E+00  0.70717200601E+03  0.70717314640E+03  0.12699999809E+01 0. -1.
        4   -1    0    0  501    0  0.00000000000E+00  0.00000000000E+00 -0.80330657941E+03  0.80330758333E+03  0.12699999809E+01 0.  1.
    10030    2    1    2    0    0  0.00000000000E+00  0.00000000000E+00 -0.96134573402E+02  0.15104807297E+04  0.15074183821E+04 0.  0.
        2    1    3    3  502    0  0.42160812571E+03  0.26131853651E+03 -0.61670296224E+03  0.79143119273E+03  0.25500000920E-02 0.  1.
       -2    1    3    3    0  502 -0.42160812571E+03 -0.26131853651E+03  0.52056838884E+03  0.71904953699E+03  0.25500000920E-02 0. -1.
</event>
<event>
 5   0  0.1414751E-03  0.1492373E+04  0.7818609E-02  0.8889541E-01
        2   -1    0    0  501    0  0.00000000000E+00  0.00000000000E+00  0.12734592720E+04  0.12734592720E+04  0.25500000920E-02 0. -1.
       -2   -1    0    0    0  501  0.00000000000E+00  0.00000000000E+00 -0.43722988570E+03  0.43722988571E+03  0.25500000920E-02 0.  1.
    10030    2    1    2    0    0  0.00000000000E+00  0.00000000000E+00  0.83622938626E+03  0.17106891577E+04  0.14923732133E+04 0.  0.
        2    1    3    3  502    0  0.72779367385E+03  0.16464801594E+03  0.41967426468E+03  0.85610693800E+03  0.25500000920E-02 0.  1.
       -2    1    3    3    0  502 -0.72779367385E+03 -0.16464801594E+03  0.41655512157E+03  0.85458221967E+03  0.25500000920E-02 0. -1.
</event>
<event>
 5   0  0.1414796E-03  0.1577199E+04  0.7818609E-02  0.8834679E-01
        2   -1    0    0  501    0  0.00000000000E+00  0.00000000000E+00  0.12615072407E+04  0.12615072407E+04  0.25500000920E-02 0.  1.
       -2   -1    0    0    0  501  0.00000000000E+00  0.00000000000E+00 -0.49297328808E+03  0.49297328809E+03  0.25500000920E-02 0. -1.
    10030    2    1    2    0    0  0.00000000000E+00  0.00000000000E+00  0.76853395260E+03  0.17544805288E+04  0.15771992549E+04 0.  0.
        4    1    3    3  502    0 -0.11014585112E+03 -0.60425102487E+03 -0.16593542776E+03  0.63622919508E+03  0.12699999809E+01 0. -1.
       -4    1    3    3    0  502  0.11014585112E+03  0.60425102487E+03  0.93446938036E+03  0.11182513337E+04  0.12699999809E+01 0.  1.
</event>
<event>
 5   0  0.7633213E-04  0.1583539E+04  0.7818609E-02  0.8830725E-01
        1   -1    0    0  501    0  0.00000000000E+00  0.00000000000E+00  0.18897920555E+04  0.18897920555E+04  0.50400001928E-02 0.  1.
       -1   -1    0    0    0  501  0.00000000000E+00  0.00000000000E+00 -0.33172914922E+03  0.33172914926E+03  0.50400001928E-02 0. -1.
    10030    2    1    2    0    0  0.00000000000E+00  0.00000000000E+00  0.15580629063E+04  0.22215212048E+04  0.15835392143E+04 0.  0.
        1    1    3    3  502    0 -0.24240409808E+03 -0.30808143620E+03  0.17440942386E+04  0.17876069566E+04  0.50400001928E-02 0.  1.
       -1    1    3    3    0  502  0.24240409808E+03  0.30808143620E+03 -0.18603133235E+03  0.43391424814E+03  0.50400001928E-02 0. -1.
</event>
<event>
 5   0  0.7633213E-04  0.1544283E+04  0.7818609E-02  0.8855528E-01
        1   -1    0    0  501    0  0.00000000000E+00  0.00000000000E+00  0.14859096180E+04  0.14859096180E+04  0.50400001928E-02 0. -1.
       -1   -1    0    0    0  501  0.00000000000E+00  0.00000000000E+00 -0.40123739387E+03  0.40123739390E+03  0.50400001928E-02 0.  1.
    10030    2    1    2    0    0  0.00000000000E+00  0.00000000000E+00  0.10846722241E+04  0.18871470119E+04  0.15442830086E+04 0.  0.
        1    1    3    3  502    0  0.41140873127E+03  0.53364171906E+03  0.10031076927E+04  0.12084103904E+04  0.50400001928E-02 0.  1.
       -1    1    3    3    0  502 -0.41140873127E+03 -0.53364171906E+03  0.81564531384E+02  0.67873662145E+03  0.50400001928E-02 0. -1.
</event>
<event>
 5   0  0.7302027E-04  0.1145112E+04  0.7818609E-02  0.9162305E-01
       -1   -1    0    0    0  501  0.00000000000E+00  0.00000000000E+00  0.65914100850E+03  0.65914100852E+03  0.50400001928E-02 0. -1.
        1   -1    0    0  501    0  0.00000000000E+00  0.00000000000E+00 -0.49734505585E+03  0.49734505588E+03  0.50400001928E-02 0.  1.
    10030    2    1    2    0    0  0.00000000000E+00  0.00000000000E+00  0.16179595265E+03  0.11564860644E+04  0.11451122595E+04 0.  0.
        5    1    3    3  502    0  0.13535624570E+03 -0.46089604878E+02  0.64079862911E+03  0.65657485330E+03  0.46999998093E+01 0. -1.
       -5    1    3    3    0  502 -0.13535624570E+03  0.46089604878E+02 -0.47900267646E+03  0.49991121110E+03  0.46999998093E+01 0.  1.
</event>
<event>
 5   0  0.1375777E-03  0.1161280E+04  0.7818609E-02  0.9147440E-01
       -2   -1    0    0    0  501  0.00000000000E+00  0.00000000000E+00  0.18884394729E+03  0.18884394731E+03  0.25500000920E-02 0. -1.
        2   -1    0    0  501    0  0.00000000000E+00  0.00000000000E+00 -0.17852975276E+04  0.17852975276E+04  0.25500000920E-02 0.  1.
    10030    2    1    2    0    0  0.00000000000E+00  0.00000000000E+00 -0.15964535803E+04  0.19741414749E+04  0.11612796945E+04 0.  0.
        1    1    3    3  502    0  0.32946059073E+03 -0.39339631867E+03 -0.33629219910E+03  0.61351233695E+03  0.50400001928E-02 0. -1.
       -1    1    3    3    0  502 -0.32946059073E+03  0.39339631867E+03 -0.12601613812E+04  0.13606291380E+04  0.50400001928E-02 0.  1.
</event>
<event>
 5   0  0.1414796E-03  0.1647674E+04  0.7818609E-02  0.8791783E-01
        2   -1    0    0  501    0  0.00000000000E+00  0.00000000000E+00  0.23373995350E+04  0.23373995350E+04  0.25500000920E-02 0. -1.
       -2   -1    0    0    0  501  0.00000000000E+00  0.00000000000E+00 -0.29036874926E+03  0.29036874927E+03  0.25500000920E-02 0.  1.
    10030    2    1    2    0    0  0.00000000000E+00  0.00000000000E+00  0.20470307857E+04  0.26277682843E+04  0.16476744575E+04 0.  0.
        4    1    3    3  502    0 -0.32405058104E+03  0.49840816487E+03  0.11391884555E+03  0.60530867675E+03  0.12699999809E+01 0.  1.
       -4    1    3    3    0  502  0.32405058104E+03 -0.49840816487E+03  0.19331119402E+04  0.20224596075E+04  0.12699999809E+01 0. -1.
</event>
<event>
 5   0  0.7601145E-04  0.1564333E+04  0.7818609E-02  0.8842764E-01
        1   -1    0    0  501    0  0.00000000000E+00  0.00000000000E+00  0.16068267965E+04  0.16068267965E+04  0.50400001928E-02 0.  1.
       -1   -1    0    0    0  501  0.00000000000E+00  0.00000000000E+00 -0.38074097407E+03  0.38074097411E+03  0.50400001928E-02 0. -1.
    10030    2    1    2    0    0  0.00000000000E+00  0.00000000000E+00  0.12260858224E+04  0.19875677706E+04  0.15643334679E+04 0.  0.
        4    1    3    3  502    0  0.23896120407E+03  0.71727718158E+03  0.35831638911E+03  0.83664882709E+03  0.12699999809E+01 0. -1.
       -4    1    3    3    0  502 -0.23896120407E+03 -0.71727718158E+03  0.86776943331E+03  0.11509189435E+04  0.12699999809E+01 0.  1.
</event>
<event>
 5   0  0.7302027E-04  0.1593202E+04  0.7818609E-02  0.8824735E-01
       -1   -1    0    0    0  501  0.00000000000E+00  0.00000000000E+00  0.10660783039E+04  0.10660783039E+04  0.50400001928E-02 0.  1.
        1   -1    0    0  501    0  0.00000000000E+00  0.00000000000E+00 -0.59524069614E+03  0.59524069616E+03  0.50400001928E-02 0. -1.
    10030    2    1    2    0    0  0.00000000000E+00  0.00000000000E+00  0.47083760777E+03  0.16613190001E+04  0.15932020484E+04 0.  0.
        5    1    3    3  502    0 -0.55166641000E+03 -0.28105451974E+02  0.83391402750E+03  0.10002801806E+04  0.46999998093E+01 0.  1.
       -5    1    3    3    0  502  0.55166641000E+03  0.28105451974E+02 -0.36307641973E+03  0.66103881952E+03  0.46999998093E+01 0. -1.
</event>
<event>
 5   0  0.1375777E-03  0.1633777E+04  0.7818609E-02  0.8800062E-01
        2   -1    0    0  501    0  0.00000000000E+00  0.00000000000E+00  0.17913638577E+04  0.17913638577E+04  0.25500000920E-02 0.  1.
       -2   -1    0    0    0  501  0.00000000000E+00  0.00000000000E+00 -0.37251311741E+03  0.37251311742E+03  0.25500000920E-02 0. -1.
    10030    2    1    2    0    0  0.00000000000E+00  0.00000000000E+00  0.14188507403E+04  0.21638769751E+04  0.16337766494E+04 0.  0.
        1    1    3    3  502    0 -0.41427404671E+03 -0.17286130983E+03 -0.19451711059E+03  0.48922482005E+03  0.50400001928E-02 0. -1.
       -1    1    3    3    0  502  0.41427404671E+03  0.17286130983E+03  0.16133678509E+04  0.16746521551E+04  0.50400001928E-02 0.  1.
</event>
<event>
 5   0  0.7499834E-04  0.1645089E+04  0.7818609E-02  0.8793317E-01
        1   -1    0    0  501    0  0.00000000000E+00  0.00000000000E+00  0.17188318244E+04  0.17188318244E+04  0.50400001928E-02 0.  1.
       -1   -1    0    0    0  501  0.00000000000E+00  0.00000000000E+00 -0.39362768908E+03  0.39362768911E+03  0.50400001928E-02 0. -1.
    10030    2    1    2    0    0  0.00000000000E+00  0.00000000000E+00  0.13252041353E+04  0.21124595135E+04  0.16450894188E+04 0.  0.
        3    1    3    3  502    0  0.27466031970E+03  0.75162593583E+03  0.90691860894E+03  0.12094962638E+04  0.10100000352E+00 0.  1.
       -3    1    3    3    0  502 -0.27466031970E+03 -0.75162593583E+03  0.41828552638E+03  0.90296324975E+03  0.10100000352E+00 0. -1.
</event>
<event>
 5   0  0.1414751E-03  0.1603227E+04  0.7818609E-02  0.8818568E-01
       -2   -1    0    0    0  501  0.00000000000E+00  0.00000000000E+00  0.29741861084E+03  0.29741861085E+03  0.25500000920E-02 0.  1.
        2   -1    0    0  501    0  0.00000000000E+00  0.00000000000E+00 -0.21605379543E+04  0.21605379543E+04  0.25500000920E-02 0. -1.
    10030    2    1    2    0    0  0.00000000000E+00  0.00000000000E+00 -0.18631193435E+04  0.24579565652E+04  0.16032269921E+04 0.  0.
        2    1    3    3  502    0  0.77159528832E+03 -0.17098414616E+03 -0.72592957465E+03  0.10731116506E+04  0.25500000920E-02 0.  1.
       -2    1    3    3    0  502 -0.77159528832E+03  0.17098414616E+03 -0.11371897688E+04  0.13848449146E+04  0.25500000920E-02 0. -1.
</event>
<event>
 5   0  0.1414751E-03  0.1550894E+04  0.7818609E-02  0.8851297E-01
       -2   -1    0    0    0  501  0.00000000000E+00  0.00000000000E+00  0.93021387661E+03  0.93021387661E+03  0.25500000920E-02 0.  1.
        2   -1    0    0  501    0  0.00000000000E+00  0.00000000000E+00 -0.64642986461E+03  0.64642986461E+03  0.25500000920E-02 0. -1.
    10030    2    1    2    0    0  0.00000000000E+00  0.00000000000E+00  0.28378401200E+03  0.15766437412E+04  0.15508939749E+04 0.  0.
        2    1    3    3  502    0 -0.15266289479E+03  0.73760892375E+03  0.32919309647E+03  0.82203465779E+03  0.25500000920E-02 0.  1.
       -2    1    3    3    0  502  0.15266289479E+03 -0.73760892375E+03 -0.45409084466E+02  0.75460908343E+03  0.25500000920E-02 0. -1.
</event>
<event>
 5   0  0.1414796E-03  0.1484553E+04  0.7818609E-02  0.8894790E-01
        2   -1    0    0  501    0  0.00000000000E+00  0.00000000000E+00  0.47688255962E+03  0.47688255963E+03  0.25500000920E-02 0.  1.
       -2   -1    0    0    0  501  0.00000000000E+00  0.00000000000E+00 -0.11553675900E+04  0.11553675900E+04  0.25500000920E-02 0. -1.
    10030    2    1    2    0    0  0.00000000000E+00  0.00000000000E+00 -0.67848503040E+03  0.16322501497E+04  0.14845533384E+04 0.  0.
        4    1    3    3  502    0 -0.52138423687E+03  0.42079973810E+03  0.12007842750E+02  0.67011920076E+03  0.12699999809E+01 0.  1.
       -4    1    3    3    0  502  0.52138423687E+03 -0.42079973810E+03 -0.69049287315E+03  0.96213094889E+03  0.12699999809E+01 0. -1.
</event>
<event>
 5   0  0.1339162E-03  0.8238047E+03  0.7818609E-02  0.9526186E-01
        2   -1    0    0  501    0  0.00000000000E+00  0.00000000000E+00  0.44555477957E+03  0.44555477958E+03  0.25500000920E-02 0. -1.
       -2   -1    0    0    0  501  0.00000000000E+00  0.00000000000E+00 -0.38079162596E+03  0.38079162596E+03  0.25500000920E-02 0.  1.
    10030    2    1    2    0    0  0.00000000000E+00  0.00000000000E+00  0.64763153614E+02  0.82634640554E+03  0.82380465881E+03 0.  0.
        5    1    3    3  502    0  0.67816422677E+02 -0.16375556313E+03 -0.34055375864E+03  0.38394518380E+03  0.46999998093E+01 0.  1.
       -5    1    3    3    0  502 -0.67816422677E+02  0.16375556313E+03  0.40531691226E+03  0.44240122174E+03  0.46999998093E+01 0. -1.
</event>
<event>
 5   0  0.1375777E-03  0.1635474E+04  0.7818609E-02  0.8799047E-01
        2   -1    0    0  501    0  0.00000000000E+00  0.00000000000E+00  0.13267665858E+04  0.13267665858E+04  0.25500000920E-02 0.  1.
       -2   -1    0    0    0  501  0.00000000000E+00  0.00000000000E+00 -0.50400248096E+03  0.50400248096E+03  0.25500000920E-02 0. -1.
    10030    2    1    2    0    0  0.00000000000E+00  0.00000000000E+00  0.82276410487E+03  0.18307690668E+04  0.16354738163E+04 0.  0.
        1    1    3    3  502    0  0.47115877022E+03  0.15293756195E+02  0.11593546809E+04  0.12515301682E+04  0.50400001928E-02 0.  1.
       -1    1    3    3    0  502 -0.47115877022E+03 -0.15293756195E+02 -0.33659057605E+03  0.57923889859E+03  0.50400001928E-02 0. -1.
</event>
<event>
 5   0  0.1339162E-03  0.1879672E+04  0.7818609E-02  0.8665042E-01
        2   -1    0    0  501    0  0.00000000000E+00  0.00000000000E+00  0.11873560903E+04  0.11873560903E+04  0.25500000920E-02 0.  1.
       -2   -1    0    0    0  501  0.00000000000E+00  0.00000000000E+00 -0.74391476839E+03  0.74391476840E+03  0.25500000920E-02 0. -1.
    10030    2    1    2    0    0  0.00000000000E+00  0.00000000000E+00  0.44344132191E+03  0.19312708587E+04  0.18796720256E+04 0.  0.
        5    1    3    3  502    0 -0.29736504373E+02  0.74054192267E+03 -0.37205626553E+03  0.82929762670E+03  0.46999998093E+01 0. -1.
       -5    1    3    3    0  502  0.29736504373E+02 -0.74054192267E+03  0.81549758744E+03  0.11019732320E+04  0.46999998093E+01 0.  1.
</event>
<event>
 5   0  0.7601145E-04  0.1617187E+04  0.7818609E-02  0.8810059E-01
       -1   -1    0    0    0  501  0.00000000000E+00  0.00000000000E+00  0.84692770160E+03  0.84692770161E+03  0.50400001928E-02 0. -1.
        1   -1    0    0  501    0  0.00000000000E+00  0.00000000000E+00 -0.77199418518E+03  0.77199418520E+03  0.50400001928E-02 0.  1.
    10030    2    1    2    0    0  0.00000000000E+00  0.00000000000E+00  0.74933516416E+02  0.16189218868E+04  0.16171867683E+04 0.  0.
        4    1    3    3  502    0  0.43169057233E+03 -0.19576529712E+03  0.69325804456E+03  0.83981493857E+03  0.12699999809E+01 0. -1.
       -4    1    3    3    0  502 -0.43169057233E+03  0.19576529712E+03 -0.61832452815E+03  0.77910694824E+03  0.12699999809E+01 0.  1.
</event>
<event>
 5   0  0.7302027E-04  0.1690501E+04  0.7818609E-02  0.8766801E-01
       -1   -1    0    0    0  501  0.00000000000E+00  0.00000000000E+00  0.94969666357E+03  0.94969666358E+03  0.50400001928E-02 0.  1.
        1   -1    0    0  501    0  0.00000000000E+00  0.00000000000E+00 -0.75229072814E+03  0.75229072815E+03  0.50400001928E-02 0. -1.
    10030    2    1    2    0    0  0.00000000000E+00  0.00000000000E+00  0.19740593543E+03  0.17019873917E+04  0.16905005112E+04 0.  0.
        5    1    3    3  502    0 -0.32838928409E+03  0.55346495538E+02  0.88084927305E+03  0.94171136146E+03  0.46999998093E+01 0.  1.
       -5    1    3    3    0  502  0.32838928409E+03 -0.55346495538E+02 -0.68344333762E+03  0.76027603027E+03  0.46999998093E+01 0. -1.
</event>
<event>
 5   0  0.1414796E-03  0.1599550E+04  0.7818609E-02  0.8820825E-01
        2   -1    0    0  501    0  0.00000000000E+00  0.00000000000E+00  0.19842935038E+04  0.19842935038E+04  0.25500000920E-02 0.  1.
       -2   -1    0    0    0  501  0.00000000000E+00  0.00000000000E+00 -0.32235133464E+03  0.32235133465E+03  0.25500000920E-02 0. -1.
    10030    2    1    2    0    0  0.00000000000E+00  0.00000000000E+00  0.16619421692E+04  0.23066448385E+04  0.15995495107E+04 0.  0.
        4    1    3    3  502    0  0.68713345442E+03  0.38092666245E+03  0.10467049493E+04  0.13087590955E+04  0.12699999809E+01 0.  1.
       -4    1    3    3    0  502 -0.68713345442E+03 -0.38092666245E+03  0.61523721993E+03  0.99788574298E+03  0.12699999809E+01 0. -1.
</event>
<event>
 5   0  0.1414751E-03  0.1656100E+04  0.7818609E-02  0.8786806E-01
        2   -1    0    0  501    0  0.00000000000E+00  0.00000000000E+00  0.15541967367E+04  0.15541967367E+04  0.25500000920E-02 0. -1.
       -2   -1    0    0    0  501  0.00000000000E+00  0.00000000000E+00 -0.44117127614E+03  0.44117127615E+03  0.25500000920E-02 0.  1.
    10030    2    1    2    0    0  0.00000000000E+00  0.00000000000E+00  0.11130254605E+04  0.19953680128E+04  0.16561001874E+04 0.  0.
        2    1    3    3  502    0  0.47214029819E+03 -0.54622755333E+03  0.10450174410E+04  0.12701741822E+04  0.25500000920E-02 0. -1.
       -2    1    3    3    0  502 -0.47214029819E+03  0.54622755333E+03  0.68008019520E+02  0.72519383059E+03  0.25500000920E-02 0.  1.
</event>
<event>
 5   0  0.7302027E-04  0.1611168E+04  0.7818609E-02  0.8813716E-01
        1   -1    0    0  501    0  0.00000000000E+00  0.00000000000E+00  0.12691809357E+04  0.12691809357E+04  0.50400001928E-02 0.  1.
       -1   -1    0    0    0  501  0.00000000000E+00  0.00000000000E+00 -0.51132646602E+03  0.51132646605E+03  0.50400001928E-02 0. -1.
    10030    2    1    2    0    0  0.00000000000E+00  0.00000000000E+00  0.75785446963E+03  0.17805074017E+04  0.16111682750E+04 0.  0.
        5    1    3    3  502    0  0.58807327272E+02  0.42550822886E+03 -0.37418924867E+03  0.56969749726E+03  0.46999998093E+01 0. -1.
       -5    1    3    3    0  502 -0.58807327272E+02 -0.42550822886E+03  0.11320437183E+04  0.12108099044E+04  0.46999998093E+01 0.  1.
</event>
<event>
 5   0  0.7124495E-04  0.1637634E+04  0.7818609E-02  0.8797756E-01
       -1   -1    0    0    0  501  0.00000000000E+00  0.00000000000E+00  0.92705726644E+03  0.92705726646E+03  0.50400001928E-02 0.  1.
        1   -1    0    0  501    0  0.00000000000E+00  0.00000000000E+00 -0.72321435872E+03  0.72321435874E+03  0.50400001928E-02 0. -1.
    10030    2    1    2    0    0  0.00000000000E+00  0.00000000000E+00  0.20384290772E+03  0.16502716252E+04  0.16376338131E+04 0.  0.
        2    1    3    3  502    0  0.48702643928E+03 -0.23085477121E+02  0.76482273979E+03  0.90701792436E+03  0.25500000920E-02 0.  1.
       -2    1    3    3    0  502 -0.48702643928E+03  0.23085477121E+02 -0.56097983207E+03  0.74325370084E+03  0.25500000920E-02 0. -1.
</event>
<event>
 5   0  0.1339162E-03  0.1593478E+04  0.7818609E-02  0.8824565E-01
       -2   -1    0    0    0  501  0.00000000000E+00  0.00000000000E+00  0.10106660434E+04  0.10106660434E+04  0.25500000920E-02 0. -1.
        2   -1    0    0  501    0  0.00000000000E+00  0.00000000000E+00 -0.62809351162E+03  0.62809351162E+03  0.25500000920E-02 0.  1.
    10030    2    1    2    0    0  0.00000000000E+00  0.00000000000E+00  0.38257253180E+03  0.16387595550E+04  0.15934776864E+04 0.  0.
        5    1    3    3  502    0  0.44876624058E+03  0.62770034975E+03 -0.12775683897E+02  0.77174100309E+03  0.46999998093E+01 0. -1.
       -5    1    3    3    0  502 -0.44876624058E+03 -0.62770034975E+03  0.39534821569E+03  0.86701855194E+03  0.46999998093E+01 0.  1.
</event>
<event>
 5   0  0.7124495E-04  0.1562938E+04  0.7818609E-02  0.8843646E-01
        1   -1    0    0  501    0  0.00000000000E+00  0.00000000000E+00  0.12333884548E+04  0.12333884548E+04  0.50400001928E-02 0.  1.
       -1   -1    0    0    0  501  0.00000000000E+00  0.00000000000E+00 -0.49513477795E+03  0.49513477798E+03  0.50400001928E-02 0. -1.
    10030    2    1    2    0    0  0.00000000000E+00  0.00000000000E+00  0.73825367684E+03  0.17285232328E+04  0.15629376427E+04 0.  0.
        2    1    3    3  502    0  0.31717522465E+02 -0.40999669329E+03 -0.36579862975E+03  0.55037435194E+03  0.25500000920E-02 0. -1.
       -2    1    3    3    0  502 -0.31717522465E+02  0.40999669329E+03  0.11040523066E+04  0.11781488808E+04  0.25500000920E-02 0.  1.
</event>
<event>
 5   0  0.7499834E-04  0.1615253E+04  0.7818609E-02  0.8811232E-01
        1   -1    0    0  501    0  0.00000000000E+00  0.00000000000E+00  0.48818864257E+03  0.48818864260E+03  0.50400001928E-02 0. -1.
       -1   -1    0    0    0  501  0.00000000000E+00  0.00000000000E+00 -0.13360822433E+04  0.13360822433E+04  0.50400001928E-02 0.  1.
    10030    2    1    2    0    0  0.00000000000E+00  0.00000000000E+00 -0.84789360071E+03  0.18242708859E+04  0.16152525211E+04 0.  0.
        3    1    3    3  502    0  0.76501991038E+03 -0.22785748033E+03 -0.28522930818E+03  0.84766164422E+03  0.10100000352E+00 0. -1.
       -3    1    3    3    0  502 -0.76501991038E+03  0.22785748033E+03 -0.56266429253E+03  0.97660924167E+03  0.10100000352E+00 0.  1.
</event>
<event>
 5   0  0.7633213E-04  0.1573429E+04  0.7818609E-02  0.8837040E-01
        1   -1    0    0  501    0  0.00000000000E+00  0.00000000000E+00  0.84134953631E+03  0.84134953632E+03  0.50400001928E-02 0.  1.
       -1   -1    0    0    0  501  0.00000000000E+00  0.00000000000E+00 -0.73562771137E+03  0.73562771139E+03  0.50400001928E-02 0. -1.
    10030    2    1    2    0    0  0.00000000000E+00  0.00000000000E+00  0.10572182493E+03  0.15769772477E+04  0.15734294187E+04 0.  0.
        1    1    3    3  502    0  0.29048013702E+03 -0.65671645483E+03  0.37493394427E+03  0.81008065934E+03  0.50400001928E-02 0.  1.
       -1    1    3    3    0  502 -0.29048013702E+03  0.65671645483E+03 -0.26921211934E+03  0.76689658838E+03  0.50400001928E-02 0. -1.
</event>
<event>
 5   0  0.1375777E-03  0.1629434E+04  0.7818609E-02  0.8802667E-01
       -2   -1    0    0    0  501  0.00000000000E+00  0.00000000000E+00  0.59914621778E+03  0.59914621779E+03  0.25500000920E-02 0.  1.
        2   -1    0    0  501    0  0.00000000000E+00  0.00000000000E+00 -0.11078489046E+04  0.11078489046E+04  0.25500000920E-02 0. -1.
    10030    2    1    2    0    0  0.00000000000E+00  0.00000000000E+00 -0.50870268684E+03  0.17069951224E+04  0.16294336207E+04 0.  0.
        1    1    3    3  502    0 -0.54881068719E+03  0.45721915429E+03  0.15611678363E+03  0.73117369727E+03  0.50400001928E-02 0.  1.
       -1    1    3    3    0  502  0.54881068719E+03 -0.45721915429E+03 -0.66481947047E+03  0.97582142514E+03  0.50400001928E-02 0. -1.
</event>
<event>
 5   0  0.1354766E-03  0.1598743E+04  0.7818609E-02  0.8821321E-01
        2   -1    0    0  501    0  0.00000000000E+00  0.00000000000E+00  0.94604459085E+03  0.94604459086E+03  0.25500000920E-02 0. -1.
       -2   -1    0    0    0  501  0.00000000000E+00  0.00000000000E+00 -0.67543813124E+03  0.67543813124E+03  0.25500000920E-02 0.  1.
    10030    2    1    2    0    0  0.00000000000E+00  0.00000000000E+00  0.27060645961E+03  0.16214827221E+04  0.15987427442E+04 0.  0.
        3    1    3    3  502    0 -0.17549142893E+03 -0.17233244161E+03 -0.63610629288E+03  0.68200215402E+03  0.10100000352E+00 0.  1.
       -3    1    3    3    0  502  0.17549142893E+03  0.17233244161E+03  0.90671275249E+03  0.93948056807E+03  0.10100000352E+00 0. -1.
</event>
<event>
 5   0  0.1339162E-03  0.1206405E+04  0.7818609E-02  0.9107269E-01
       -2   -1    0    0    0  501  0.00000000000E+00  0.00000000000E+00  0.82686142202E+03  0.82686142202E+03  0.25500000920E-02 0.  1.
        2   -1    0    0  501    0  0.00000000000E+00  0.00000000000E+00 -0.44004105429E+03  0.44004105430E+03  0.25500000920E-02 0. -1.
    10030    2    1    2    0    0  0.00000000000E+00  0.00000000000E+00  0.38682036773E+03  0.12669024763E+04  0.12064045290E+04 0.  0.
        5    1    3    3  502    0 -0.26971841110E+03  0.53909949554E+03  0.17101975945E+03  0.62661482228E+03  0.46999998093E+01 0.  1.
       -5    1    3    3    0  502  0.26971841110E+03 -0.53909949554E+03  0.21580060828E+03  0.64028765404E+03  0.46999998093E+01 0. -1.
</event>
<event>
 5   0  0.1414796E-03  0.1595952E+04  0.7818609E-02  0.8823038E-01
        2   -1    0    0  501    0  0.00000000000E+00  0.00000000000E+00  0.10541799521E+04  0.10541799521E+04  0.25500000920E-02 0.  1.
       -2   -1    0    0    0  501  0.00000000000E+00  0.00000000000E+00 -0.60403922373E+03  0.60403922374E+03  0.25500000920E-02 0. -1.
    10030    2    1    2    0    0  0.00000000000E+00  0.00000000000E+00  0.45014072841E+03  0.16582191759E+04  0.15959524303E+04 0.  0.
        4    1    3    3  502    0  0.68957582463E+03 -0.27515257714E+02  0.64131570800E+03  0.94210368726E+03  0.12699999809E+01 0. -1.
       -4    1    3    3    0  502 -0.68957582463E+03  0.27515257714E+02 -0.19117497959E+03  0.71611548862E+03  0.12699999809E+01 0.  1.
</event>
<event>
 5   0  0.1375777E-03  0.1583507E+04  0.7818609E-02  0.8830745E-01
        2   -1    0    0  501    0  0.00000000000E+00  0.00000000000E+00  0.12697550016E+04  0.12697550016E+04  0.25500000920E-02 0.  1.
       -2   -1    0    0    0  501  0.00000000000E+00  0.00000000000E+00 -0.49369655957E+03  0.49369655958E+03  0.25500000920E-02 0. -1.
    10030    2    1    2    0    0  0.00000000000E+00  0.00000000000E+00  0.77605844204E+03  0.17634515612E+04  0.15835070897E+04 0.  0.
        1    1    3    3  502    0 -0.35567035237E+02 -0.62644237389E+03  0.92578846058E+03  0.11183824639E+04  0.50400001928E-02 0.  1.
       -1    1    3    3    0  502  0.35567035237E+02  0.62644237389E+03 -0.14973001854E+03  0.64506909729E+03  0.50400001928E-02 0. -1.
</event>
<event>
 5   0  0.7124495E-04  0.1803888E+04  0.7818609E-02  0.8704234E-01
       -1   -1    0    0    0  501  0.00000000000E+00  0.00000000000E+00  0.57200796354E+03  0.57200796356E+03  0.50400001928E-02 0. -1.
        1   -1    0    0  501    0  0.00000000000E+00  0.00000000000E+00 -0.14221887451E+04  0.14221887451E+04  0.50400001928E-02 0.  1.
    10030    2    1    2    0    0  0.00000000000E+00  0.00000000000E+00 -0.85018078160E+03  0.19941967087E+04  0.18038883423E+04 0.  0.
        2    1    3    3  502    0  0.52710143654E+03  0.41930634308E+02 -0.12328684254E+04  0.13414762975E+04  0.25500000920E-02 0.  1.
       -2    1    3    3    0  502 -0.52710143654E+03 -0.41930634308E+02  0.38268764377E+03  0.65272041120E+03  0.25500000920E-02 0. -1.
</event>
<event>
 5   0  0.7499834E-04  0.1579568E+04  0.7818609E-02  0.8833199E-01
       -1   -1    0    0    0  501  0.00000000000E+00  0.00000000000E+00  0.32126739926E+03  0.32126739930E+03  0.50400001928E-02 0. -1.
        1   -1    0    0  501    0  0.00000000000E+00  0.00000000000E+00 -0.19415560894E+04  0.19415560894E+04  0.50400001928E-02 0.  1.
    10030    2    1    2    0    0  0.00000000000E+00  0.00000000000E+00 -0.16202886902E+04  0.22628234887E+04  0.15795678845E+04 0.  0.
        3    1    3    3  502    0 -0.77424129191E+03  0.12546420871E+03 -0.67754312012E+03  0.10364629929E+04  0.10100000352E+00 0. -1.
       -3    1    3    3    0  502  0.77424129191E+03 -0.12546420871E+03 -0.94274557006E+03  0.12263604959E+04  0.10100000352E+00 0.  1.
</event>
<event>
 5   0  0.1354766E-03  0.1340829E+04  0.7818609E-02  0.8997799E-01
        2   -1    0    0  501    0  0.00000000000E+00  0.00000000000E+00  0.16179468893E+04  0.16179468893E+04  0.25500000920E-02 0. -1.
       -2   -1    0    0    0  501  0.00000000000E+00  0.00000000000E+00 -0.27779397747E+03  0.27779397749E+03  0.25500000920E-02 0.  1.
    10030    2    1    2    0    0  0.00000000000E+00  0.00000000000E+00  0.13401529118E+04  0.18957408667E+04  0.13408294474E+04 0.  0.
        3    1    3    3  502    0  0.20848991323E+03  0.50405956834E+03  0.11901353910E+03  0.55830844973E+03  0.10100000352E+00 0.  1.
       -3    1    3    3    0  502 -0.20848991323E+03 -0.50405956834E+03  0.12211393727E+04  0.13374324170E+04  0.10100000352E+00 0. -1.
</event>
<event>
 5   0  0.1354766E-03  0.1630841E+04  0.7818609E-02  0.8801822E-01
       -2   -1    0    0    0  501  0.00000000000E+00  0.00000000000E+00  0.81178068945E+03  0.81178068945E+03  0.25500000920E-02 0.  1.
        2   -1    0    0  501    0  0.00000000000E+00  0.00000000000E+00 -0.81907650385E+03  0.81907650386E+03  0.25500000920E-02 0. -1.
    10030    2    1    2    0    0  0.00000000000E+00  0.00000000000E+00 -0.72958144024E+01  0.16308571933E+04  0.16308408739E+04 0.  0.
        3    1    3    3  502    0 -0.71365876386E+03  0.13901434025E+03 -0.37280828991E+03  0.81708007518E+03  0.10100000352E+00 0. -1.
       -3    1    3    3    0  502  0.71365876386E+03 -0.13901434025E+03  0.36551247551E+03  0.81377711813E+03  0.10100000352E+00 0.  1.
</event>
<event>
 5   0  0.7124495E-04  0.1571909E+04  0.7818609E-02  0.8837994E-01
       -1   -1    0    0    0  501  0.00000000000E+00  0.00000000000E+00  0.83509191036E+03  0.83509191038E+03  0.50400001928E-02 0. -1.
        1   -1    0    0  501    0  0.00000000000E+00  0.00000000000E+00 -0.73970797206E+03  0.73970797207E+03  0.50400001928E-02 0.  1.
    10030    2    1    2    0    0  0.00000000000E+00  0.00000000000E+00  0.95383938304E+02  0.15747998824E+04  0.15719085769E+04 0.  0.
        2    1    3    3  502    0  0.69529884357E+03 -0.31332095548E+03 -0.14269346792E+03  0.77586849968E+03  0.25500000920E-02 0.  1.
       -2    1    3    3    0  502 -0.69529884357E+03  0.31332095548E+03  0.23807740622E+03  0.79893138277E+03  0.25500000920E-02 0. -1.
</event>
<event>
 5   0  0.7633213E-04  0.1617679E+04  0.7818609E-02  0.8809760E-01
        1   -1    0    0  501    0  0.00000000000E+00  0.00000000000E+00  0.60033635522E+03  0.60033635524E+03  0.50400001928E-02 0.  1.
       -1   -1    0    0    0  501  0.00000000000E+00  0.00000000000E+00 -0.10897580703E+04  0.10897580703E+04  0.50400001928E-02 0. -1.
    10030    2    1    2    0    0  0.00000000000E+00  0.00000000000E+00 -0.48942171510E+03  0.16900944256E+04  0.16176790634E+04 0.  0.
        1    1    3    3  502    0  0.39546764794E+03 -0.62803176549E+02  0.48951625658E+03  0.63242791292E+03  0.50400001928E-02 0.  1.
       -1    1    3    3    0  502 -0.39546764794E+03  0.62803176549E+02 -0.97893797169E+03  0.10576665127E+04  0.50400001928E-02 0. -1.
</event>
<event>
 5   0  0.1339162E-03  0.1054697E+04  0.7818609E-02  0.9250508E-01
        2   -1    0    0  501    0  0.00000000000E+00  0.00000000000E+00  0.12312735281E+04  0.12312735281E+04  0.25500000920E-02 0. -1.
       -2   -1    0    0    0  501  0.00000000000E+00  0.00000000000E+00 -0.22586086054E+03  0.22586086055E+03  0.25500000920E-02 0.  1.
    10030    2    1    2    0    0  0.00000000000E+00  0.00000000000E+00  0.10054126675E+04  0.14571343886E+04  0.10546971103E+04 0.  0.
        5    1    3    3  502    0  0.27051350336E+03  0.20872895995E+03 -0.52210848904E+02  0.34567816963E+03  0.46999998093E+01 0.  1.
       -5    1    3    3    0  502 -0.27051350336E+03 -0.20872895995E+03  0.10576235164E+04  0.11114562190E+04  0.46999998093E+01 0. -1.
</event>
<event>
 5   0  0.7601145E-04  0.9582547E+03  0.7818609E-02  0.9355554E-01
       -1   -1    0    0    0  501  0.00000000000E+00  0.00000000000E+00  0.24248213996E+03  0.24248214001E+03  0.50400001928E-02 0.  1.
        1   -1    0    0  501    0  0.00000000000E+00  0.00000000000E+00 -0.94672135199E+03  0.94672135200E+03  0.50400001928E-02 0. -1.
    10030    2    1    2    0    0  0.00000000000E+00  0.00000000000E+00 -0.70423921203E+03  0.11892034920E+04  0.95825470396E+03 0.  0.
        4    1    3    3  502    0  0.15414564029E+03  0.31567065160E+03  0.52214585616E+02  0.35515745038E+03  0.12699999809E+01 0.  1.
       -4    1    3    3    0  502 -0.15414564029E+03 -0.31567065160E+03 -0.75645379765E+03  0.83404604164E+03  0.12699999809E+01 0. -1.
</event>
<event>
 5   0  0.7633213E-04  0.1622192E+04  0.7818609E-02  0.8807029E-01
       -1   -1    0    0    0  501  0.00000000000E+00  0.00000000000E+00  0.61631397244E+03  0.61631397246E+03  0.50400001928E-02 0.  1.
        1   -1    0    0  501    0  0.00000000000E+00  0.00000000000E+00 -0.10674380100E+04  0.10674380100E+04  0.50400001928E-02 0. -1.
    10030    2    1    2    0    0  0.00000000000E+00  0.00000000000E+00 -0.45112403755E+03  0.16837519825E+04  0.16221922948E+04 0.  0.
        1    1    3    3  502    0  0.28470397887E+03  0.59372829945E+03  0.26602171116E+03  0.71016702260E+03  0.50400001928E-02 0.  1.
       -1    1    3    3    0  502 -0.28470397887E+03 -0.59372829945E+03 -0.71714574871E+03  0.97358495986E+03  0.50400001928E-02 0. -1.
</event>
<event>
 5   0  0.1414796E-03  0.1637956E+04  0.7818609E-02  0.8797564E-01
        2   -1    0    0  501    0  0.00000000000E+00  0.00000000000E+00  0.10484392883E+04  0.10484392883E+04  0.25500000920E-02 0. -1.
       -2   -1    0    0    0  501  0.00000000000E+00  0.00000000000E+00 -0.63973625058E+03  0.63973625059E+03  0.25500000920E-02 0.  1.
    10030    2    1    2    0    0  0.00000000000E+00  0.00000000000E+00  0.40870303768E+03  0.16881755388E+04  0.16379555784E+04 0.  0.
        4    1    3    3  502    0  0.75088830670E+03 -0.22169173190E+03 -0.43312776131E+02  0.78412886862E+03  0.12699999809E+01 0.  1.
       -4    1    3    3    0  502 -0.75088830670E+03  0.22169173190E+03  0.45201581381E+03  0.90404667023E+03  0.12699999809E+01 0. -1.
</event>
<event>
 5   0  0.7499834E-04  0.1646287E+04  0.7818609E-02  0.8792606E-01
       -1   -1    0    0    0  501  0.00000000000E+00  0.00000000000E+00  0.87567029195E+03  0.87567029197E+03  0.50400001928E-02 0.  1.
        1   -1    0    0  501    0  0.00000000000E+00  0.00000000000E+00 -0.77376732232E+03  0.77376732234E+03  0.50400001928E-02 0. -1.
    10030    2    1    2    0    0  0.00000000000E+00  0.00000000000E+00  0.10190296963E+03  0.16494376143E+04  0.16462868001E+04 0.  0.
        3    1    3    3  502    0  0.49006997002E+03 -0.43286173293E+03 -0.45003270371E+03  0.79376778718E+03  0.10100000352E+00 0. -1.
       -3    1    3    3    0  502 -0.49006997002E+03  0.43286173293E+03  0.55193567334E+03  0.85566982713E+03  0.10100000352E+00 0.  1.
</event>
<event>
 5   0  0.7499834E-04  0.1499395E+04  0.7818609E-02  0.8884856E-01
        1   -1    0    0  501    0  0.00000000000E+00  0.00000000000E+00  0.11585741569E+04  0.11585741569E+04  0.50400001928E-02 0. -1.
       -1   -1    0    0    0  501  0.00000000000E+00  0.00000000000E+00 -0.48511881746E+03  0.48511881749E+03  0.50400001928E-02 0.  1.
    10030    2    1    2    0    0  0.00000000000E+00  0.00000000000E+00  0.67345533942E+03  0.16436929744E+04  0.14993947112E+04 0.  0.
        3    1    3    3  502    0 -0.52399450190E+03  0.93911738358E+01  0.92440481238E+03  0.10626300859E+04  0.10100000352E+00 0. -1.
       -3    1    3    3    0  502  0.52399450190E+03 -0.93911738358E+01 -0.25094947296E+03  0.58106288846E+03  0.10100000352E+00 0.  1.
</event>
<event>
 5   0  0.7633213E-04  0.1611711E+04  0.7818609E-02  0.8813386E-01
       -1   -1    0    0    0  501  0.00000000000E+00  0.00000000000E+00  0.14115963748E+04  0.14115963748E+04  0.50400001928E-02 0. -1.
        1   -1    0    0  501    0  0.00000000000E+00  0.00000000000E+00 -0.46004842435E+03  0.46004842437E+03  0.50400001928E-02 0.  1.
    10030    2    1    2    0    0  0.00000000000E+00  0.00000000000E+00  0.95154795042E+03  0.18716447992E+04  0.16117105051E+04 0.  0.
        1    1    3    3  502    0 -0.37233727975E+03 -0.71311929134E+03  0.53059461792E+03  0.96369332371E+03  0.50400001928E-02 0.  1.
       -1    1    3    3    0  502  0.37233727975E+03  0.71311929134E+03  0.42095333250E+03  0.90795147544E+03  0.50400001928E-02 0. -1.
</event>
<event>
 5   0  0.7302027E-04  0.1611344E+04  0.7818609E-02  0.8813609E-01
        1   -1    0    0  501    0  0.00000000000E+00  0.00000000000E+00  0.65174023147E+03  0.65174023149E+03  0.50400001928E-02 0. -1.
       -1   -1    0    0    0  501  0.00000000000E+00  0.00000000000E+00 -0.99596052907E+03  0.99596052909E+03  0.50400001928E-02 0.  1.
    10030    2    1    2    0    0  0.00000000000E+00  0.00000000000E+00 -0.34422029760E+03  0.16477007606E+04  0.16113442162E+04 0.  0.
        5    1    3    3  502    0 -0.79380968052E+03 -0.12488887525E+03 -0.11288604999E+03  0.81147790502E+03  0.46999998093E+01 0. -1.
       -5    1    3    3    0  502  0.79380968052E+03  0.12488887525E+03 -0.23133424761E+03  0.83622285556E+03  0.46999998093E+01 0.  1.
</event>
<event>
 5   0  0.7302027E-04  0.1597683E+04  0.7818609E-02  0.8821973E-01
       -1   -1    0    0    0  501  0.00000000000E+00  0.00000000000E+00  0.72634136547E+03  0.72634136548E+03  0.50400001928E-02 0.  1.
        1   -1    0    0  501    0  0.00000000000E+00  0.00000000000E+00 -0.87857821931E+03  0.87857821932E+03  0.50400001928E-02 0. -1.
    10030    2    1    2    0    0  0.00000000000E+00  0.00000000000E+00 -0.15223685384E+03  0.16049195848E+04  0.15976829517E+04 0.  0.
        5    1    3    3  502    0  0.19960877625E+03  0.50789514223E+02 -0.85143191893E+03  0.87600321968E+03  0.46999998093E+01 0. -1.
       -5    1    3    3    0  502 -0.19960877625E+03 -0.50789514223E+02  0.69919506509E+03  0.72891636513E+03  0.46999998093E+01 0.  1.
</event>
<event>
 5   0  0.7124495E-04  0.1592249E+04  0.7818609E-02  0.8825324E-01
        1   -1    0    0  501    0  0.00000000000E+00  0.00000000000E+00  0.81163837939E+03  0.81163837941E+03  0.50400001928E-02 0. -1.
       -1   -1    0    0    0  501  0.00000000000E+00  0.00000000000E+00 -0.78090692436E+03  0.78090692438E+03  0.50400001928E-02 0.  1.
    10030    2    1    2    0    0  0.00000000000E+00  0.00000000000E+00  0.30731455035E+02  0.15925453038E+04  0.15922487627E+04 0.  0.
        2    1    3    3  502    0  0.77417542361E+03 -0.87751371774E+02  0.17899980585E+03  0.79943030983E+03  0.25500000920E-02 0.  1.
       -2    1    3    3    0  502 -0.77417542361E+03  0.87751371774E+02 -0.14826835082E+03  0.79311499395E+03  0.25500000920E-02 0. -1.
</event>
<event>
 5   0  0.7124495E-04  0.1630305E+04  0.7818609E-02  0.8802144E-01
        1   -1    0    0  501    0  0.00000000000E+00  0.00000000000E+00  0.68689905421E+03  0.68689905423E+03  0.50400001928E-02 0.  1.
       -1   -1    0    0    0  501  0.00000000000E+00  0.00000000000E+00 -0.96735261807E+03  0.96735261808E+03  0.50400001928E-02 0. -1.
    10030    2    1    2    0    0  0.00000000000E+00  0.00000000000E+00 -0.28045356386E+03  0.16542516723E+04  0.16303050003E+04 0.  0.
        2    1    3    3  502    0  0.65674277995E+03 -0.47618175383E+03 -0.22148715413E+03  0.84090231368E+03  0.25500000920E-02 0. -1.
       -2    1    3    3    0  502 -0.65674277995E+03  0.47618175383E+03 -0.58966409726E+02  0.81334935863E+03  0.25500000920E-02 0.  1.
</event>
<event>
 5   0  0.7124495E-04  0.1639670E+04  0.7818609E-02  0.8796541E-01
       -1   -1    0    0    0  501  0.00000000000E+00  0.00000000000E+00  0.78150527422E+03  0.78150527423E+03  0.50400001928E-02 0.  1.
        1   -1    0    0  501    0  0.00000000000E+00  0.00000000000E+00 -0.86004441633E+03  0.86004441634E+03  0.50400001928E-02 0. -1.
    10030    2    1    2    0    0  0.00000000000E+00  0.00000000000E+00 -0.78539142111E+02  0.16415496906E+04  0.16396697807E+04 0.  0.
        2    1    3    3  502    0 -0.35094707250E+02  0.57042207783E+03 -0.62774981461E+03  0.84893039473E+03  0.25500000920E-02 0. -1.
       -2    1    3    3    0  502  0.35094707250E+02 -0.57042207783E+03  0.54921067250E+03  0.79261929584E+03  0.25500000920E-02 0.  1.
</event>
<event>
 5   0  0.1339162E-03  0.1596258E+04  0.7818609E-02  0.8822850E-01
       -2   -1    0    0    0  501  0.00000000000E+00  0.00000000000E+00  0.22033411170E+03  0.22033411171E+03  0.25500000920E-02 0. -1.
        2   -1    0    0  501    0  0.00000000000E+00  0.00000000000E+00 -0.28911096842E+04  0.28911096842E+04  0.25500000920E-02 0.  1.
    10030    2    1    2    0    0  0.00000000000E+00  0.00000000000E+00 -0.26707755725E+04  0.31114437960E+04  0.15962582299E+04 0.  0.
        5    1    3    3  502    0 -0.75910180419E+03  0.57039700848E+02 -0.86798785366E+03  0.11545189824E+04  0.46999998093E+01 0.  1.
       -5    1    3    3    0  502  0.75910180419E+03 -0.57039700848E+02 -0.18027877189E+04  0.19569248136E+04  0.46999998093E+01 0. -1.
</event>
<event>
 5   0  0.7633213E-04  0.1515921E+04  0.7818609E-02  0.8873934E-01
        1   -1    0    0  501    0  0.00000000000E+00  0.00000000000E+00  0.13798731276E+04  0.13798731276E+04  0.50400001928E-02 0.  1.
       -1   -1    0    0    0  501  0.00000000000E+00  0.00000000000E+00 -0.41634536472E+03  0.41634536475E+03  0.50400001928E-02 0. -1.
    10030    2    1    2    0    0  0.00000000000E+00  0.00000000000E+00  0.96352776287E+03  0.17962184923E+04  0.15159205528E+04 0.  0.
        1    1    3    3  502    0  0.27138973324E+03  0.63840695814E+03  0.11985812193E+03  0.70397571046E+03  0.50400001928E-02 0. -1.
       -1    1    3    3    0  502 -0.27138973324E+03 -0.63840695814E+03  0.84366964093E+03  0.10922427819E+04  0.50400001928E-02 0.  1.
</event>
<event>
 5   0  0.5095750E-04  0.1530917E+04  0.7818609E-02  0.8864150E-01
        3   -1    0    0  501    0  0.00000000000E+00  0.00000000000E+00  0.80720813725E+03  0.80720814357E+03  0.10100000352E+00 0.  1.
       -3   -1    0    0    0  501  0.00000000000E+00  0.00000000000E+00 -0.72586802452E+03  0.72586803155E+03  0.10100000352E+00 0. -1.
    10030    2    1    2    0    0  0.00000000000E+00  0.00000000000E+00  0.81340112731E+02  0.15330761751E+04  0.15309168314E+04 0.  0.
        3    1    3    3  502    0 -0.35541217079E+03  0.53897382255E+03  0.45248724019E+03  0.78838778864E+03  0.10100000352E+00 0.  1.
       -3    1    3    3    0  502  0.35541217079E+03 -0.53897382255E+03 -0.37114712746E+03  0.74468838648E+03  0.10100000352E+00 0. -1.
</event>
<event>
 5   0  0.1339162E-03  0.1590050E+04  0.7818609E-02  0.8826684E-01
        2   -1    0    0  501    0  0.00000000000E+00  0.00000000000E+00  0.16043504670E+04  0.16043504670E+04  0.25500000920E-02 0.  1.
       -2   -1    0    0    0  501  0.00000000000E+00  0.00000000000E+00 -0.39396933994E+03  0.39396933995E+03  0.25500000920E-02 0. -1.
    10030    2    1    2    0    0  0.00000000000E+00  0.00000000000E+00  0.12103811270E+04  0.19983198069E+04  0.15900501810E+04 0.  0.
        5    1    3    3  502    0 -0.12600883130E+03 -0.41982627083E+03  0.14387495102E+04  0.15040460653E+04  0.46999998093E+01 0.  1.
       -5    1    3    3    0  502  0.12600883130E+03  0.41982627083E+03 -0.22836838320E+03  0.49427374166E+03  0.46999998093E+01 0. -1.
</event>
<event>
 5   0  0.7601145E-04  0.1291700E+04  0.7818609E-02  0.9036173E-01
       -1   -1    0    0    0  501  0.00000000000E+00  0.00000000000E+00  0.62653496396E+03  0.62653496398E+03  0.50400001928E-02 0.  1.
        1   -1    0    0  501    0  0.00000000000E+00  0.00000000000E+00 -0.66576061113E+03  0.66576061114E+03  0.50400001928E-02 0. -1.
    10030    2    1    2    0    0  0.00000000000E+00  0.00000000000E+00 -0.39225647165E+02  0.12922955751E+04  0.12917001208E+04 0.  0.
        4    1    3    3  502    0  0.17204494820E+03  0.16032593301E+02  0.60297958529E+03  0.62724995132E+03  0.12699999809E+01 0.  1.
       -4    1    3    3    0  502 -0.17204494820E+03 -0.16032593301E+02 -0.64220523246E+03  0.66504562381E+03  0.12699999809E+01 0. -1.
</event>
<event>
 5   0  0.1414796E-03  0.1704910E+04  0.7818609E-02  0.8758569E-01
        2   -1    0    0  501    0  0.00000000000E+00  0.00000000000E+00  0.67288706585E+03  0.67288706585E+03  0.25500000920E-02 0. -1.
       -2   -1    0    0    0  501  0.00000000000E+00  0.00000000000E+00 -0.10799433630E+04  0.10799433630E+04  0.25500000920E-02 0.  1.
    10030    2    1    2    0    0  0.00000000000E+00  0.00000000000E+00 -0.40705629714E+03  0.17528304288E+04  0.17049104619E+04 0.  0.
        4    1    3    3  502    0  0.71311550856E+03 -0.94008173215E+02 -0.67388800483E+03  0.98564594106E+03  0.12699999809E+01 0.  1.
       -4    1    3    3    0  502 -0.71311550856E+03  0.94008173215E+02  0.26683170768E+03  0.76718448779E+03  0.12699999809E+01 0. -1.
</event>
<event>
 5   0  0.1375777E-03  0.1663155E+04  0.7818609E-02  0.8782662E-01
        2   -1    0    0  501    0  0.00000000000E+00  0.00000000000E+00  0.10646547840E+04  0.10646547840E+04  0.25500000920E-02 0.  1.
       -2   -1    0    0    0  501  0.00000000000E+00  0.00000000000E+00 -0.64952593644E+03  0.64952593645E+03  0.25500000920E-02 0. -1.
    10030    2    1    2    0    0  0.00000000000E+00  0.00000000000E+00  0.41512884758E+03  0.17141807205E+04  0.16631547079E+04 0.  0.
        1    1    3    3  502    0 -0.16133039150E+03 -0.50028041724E+03  0.87170402650E+03  0.10179272572E+04  0.50400001928E-02 0.  1.
       -1    1    3    3    0  502  0.16133039150E+03  0.50028041724E+03 -0.45657517892E+03  0.69625346328E+03  0.50400001928E-02 0. -1.
</event>
<event>
 5   0  0.7499834E-04  0.1573626E+04  0.7818609E-02  0.8836916E-01
       -1   -1    0    0    0  501  0.00000000000E+00  0.00000000000E+00  0.40352293270E+03  0.40352293274E+03  0.50400001928E-02 0. -1.
        1   -1    0    0  501    0  0.00000000000E+00  0.00000000000E+00 -0.15341748403E+04  0.15341748403E+04  0.50400001928E-02 0.  1.
    10030    2    1    2    0    0  0.00000000000E+00  0.00000000000E+00 -0.11306519076E+04  0.19376977731E+04  0.15736260431E+04 0.  0.
        3    1    3    3  502    0 -0.10268184814E+03 -0.39298447257E+03 -0.13950956330E+04  0.14530217455E+04  0.10100000352E+00 0.  1.
       -3    1    3    3    0  502  0.10268184814E+03  0.39298447257E+03  0.26444372534E+03  0.48467602756E+03  0.10100000352E+00 0. -1.
</event>
<event>
 5   0  0.1354766E-03  0.1569898E+04  0.7818609E-02  0.8839257E-01
       -2   -1    0    0    0  501  0.00000000000E+00  0.00000000000E+00  0.64244363079E+03  0.64244363080E+03  0.25500000920E-02 0. -1.
        2   -1    0    0  501    0  0.00000000000E+00  0.00000000000E+00 -0.95906438498E+03  0.95906438498E+03  0.25500000920E-02 0.  1.
    10030    2    1    2    0    0  0.00000000000E+00  0.00000000000E+00 -0.31662075419E+03  0.16015080158E+04  0.15698978383E+04 0.  0.
        3    1    3    3  502    0 -0.53527814504E+03  0.43497366092E+03  0.22396140064E+03  0.72517825218E+03  0.10100000352E+00 0. -1.
       -3    1    3    3    0  502  0.53527814504E+03 -0.43497366092E+03 -0.54058215482E+03  0.87632976360E+03  0.10100000352E+00 0.  1.
</event>
<event>
 5   0  0.7601145E-04  0.1555521E+04  0.7818609E-02  0.8848349E-01
        1   -1    0    0  501    0  0.00000000000E+00  0.00000000000E+00  0.35176901314E+03  0.35176901318E+03  0.50400001928E-02 0. -1.
       -1   -1    0    0    0  501  0.00000000000E+00  0.00000000000E+00 -0.17196275255E+04  0.17196275255E+04  0.50400001928E-02 0.  1.
    10030    2    1    2    0    0  0.00000000000E+00  0.00000000000E+00 -0.13678585123E+04  0.20713965387E+04  0.15555213630E+04 0.  0.
        4    1    3    3  502    0 -0.48836916294E+03 -0.23665234684E+02 -0.14893747826E+04  0.15675788142E+04  0.12699999809E+01 0.  1.
       -4    1    3    3    0  502  0.48836916294E+03  0.23665234684E+02  0.12151627030E+03  0.50381772447E+03  0.12699999809E+01 0. -1.
</event>
<event>
 5   0  0.1414751E-03  0.1629967E+04  0.7818609E-02  0.8802347E-01
        2   -1    0    0  501    0  0.00000000000E+00  0.00000000000E+00  0.18970093830E+04  0.18970093830E+04  0.25500000920E-02 0.  1.
       -2   -1    0    0    0  501  0.00000000000E+00  0.00000000000E+00 -0.35012885703E+03  0.35012885704E+03  0.25500000920E-02 0. -1.
    10030    2    1    2    0    0  0.00000000000E+00  0.00000000000E+00  0.15468805260E+04  0.22471382400E+04  0.16299665359E+04 0.  0.
        2    1    3    3  502    0  0.26110833028E+03 -0.41891744291E+03 -0.12058283220E+03  0.50814329037E+03  0.25500000920E-02 0. -1.
       -2    1    3    3    0  502 -0.26110833028E+03  0.41891744291E+03  0.16674633582E+04  0.17389949497E+04  0.25500000920E-02 0.  1.
</event>
<event>
 5   0  0.7601145E-04  0.1681958E+04  0.7818609E-02  0.8771722E-01
        1   -1    0    0  501    0  0.00000000000E+00  0.00000000000E+00  0.85744821655E+03  0.85744821657E+03  0.50400001928E-02 0.  1.
       -1   -1    0    0    0  501  0.00000000000E+00  0.00000000000E+00 -0.82482653098E+03  0.82482653100E+03  0.50400001928E-02 0. -1.
    10030    2    1    2    0    0  0.00000000000E+00  0.00000000000E+00  0.32621685570E+02  0.16822747476E+04  0.16819584275E+04 0.  0.
        4    1    3    3  502    0  0.83944921859E+03 -0.50624199139E+02  0.18885223626E+02  0.84118729467E+03  0.12699999809E+01 0.  1.
       -4    1    3    3    0  502 -0.83944921859E+03  0.50624199139E+02  0.13736461944E+02  0.84108745290E+03  0.12699999809E+01 0. -1.
</event>
<event>
 5   0  0.7601145E-04  0.1056088E+04  0.7818609E-02  0.9249081E-01
        1   -1    0    0  501    0  0.00000000000E+00  0.00000000000E+00  0.13549591946E+04  0.13549591946E+04  0.50400001928E-02 0.  1.
       -1   -1    0    0    0  501  0.00000000000E+00  0.00000000000E+00 -0.20578500997E+03  0.20578501003E+03  0.50400001928E-02 0. -1.
    10030    2    1    2    0    0  0.00000000000E+00  0.00000000000E+00  0.11491741846E+04  0.15607442046E+04  0.10560876695E+04 0.  0.
        4    1    3    3  502    0 -0.51342339233E+03 -0.10138982061E+03  0.67851299876E+03  0.85689262915E+03  0.12699999809E+01 0.  1.
       -4    1    3    3    0  502  0.51342339233E+03  0.10138982061E+03  0.47066118586E+03  0.70385157547E+03  0.12699999809E+01 0. -1.
</event>
<event>
 5   0  0.7124495E-04  0.1559797E+04  0.7818609E-02  0.8845634E-01
       -1   -1    0    0    0  501  0.00000000000E+00  0.00000000000E+00  0.29552023067E+03  0.29552023072E+03  0.50400001928E-02 0.  1.
        1   -1    0    0  501    0  0.00000000000E+00  0.00000000000E+00 -0.20582065304E+04  0.20582065304E+04  0.50400001928E-02 0. -1.
    10030    2    1    2    0    0  0.00000000000E+00  0.00000000000E+00 -0.17626862997E+04  0.23537267611E+04  0.15597969979E+04 0.  0.
        2    1    3    3  502    0  0.70864539348E+03 -0.25527436747E+03 -0.11865125450E+04  0.14054021901E+04  0.25500000920E-02 0. -1.
       -2    1    3    3    0  502 -0.70864539348E+03  0.25527436747E+03 -0.57617375466E+03  0.94832457099E+03  0.25500000920E-02 0.  1.
</event>
<event>
 5   0  0.1414751E-03  0.1605533E+04  0.7818609E-02  0.8817156E-01
        2   -1    0    0  501    0  0.00000000000E+00  0.00000000000E+00  0.15975330770E+04  0.15975330770E+04  0.25500000920E-02 0.  1.
       -2   -1    0    0    0  501  0.00000000000E+00  0.00000000000E+00 -0.40339329794E+03  0.40339329795E+03  0.25500000920E-02 0. -1.
    10030    2    1    2    0    0  0.00000000000E+00  0.00000000000E+00  0.11941397791E+04  0.20009263750E+04  0.16055331034E+04 0.  0.
        2    1    3    3  502    0 -0.51747508615E+03  0.54707772640E+03  0.94370220231E+03  0.12073310856E+04  0.25500000920E-02 0.  1.
       -2    1    3    3    0  502  0.51747508615E+03 -0.54707772640E+03  0.25043757676E+03  0.79359528941E+03  0.25500000920E-02 0. -1.
</event>
<event>
 5   0  0.1375777E-03  0.1600331E+04  0.7818609E-02  0.8820345E-01
       -2   -1    0    0    0  501  0.00000000000E+00  0.00000000000E+00  0.31456100726E+03  0.31456100727E+03  0.25500000920E-02 0. -1.
        2   -1    0    0  501    0  0.00000000000E+00  0.00000000000E+00 -0.20354233799E+04  0.20354233799E+04  0.25500000920E-02 0.  1.
    10030    2    1    2    0    0  0.00000000000E+00  0.00000000000E+00 -0.17208623726E+04  0.23499843872E+04  0.16003310015E+04 0.  0.
        1    1    3    3  502    0  0.76257351442E+03 -0.24188773919E+03 -0.83783513558E+03  0.11584454056E+04  0.50400001928E-02 0. -1.
       -1    1    3    3    0  502 -0.76257351442E+03  0.24188773919E+03 -0.88302723704E+03  0.11915389816E+04  0.50400001928E-02 0.  1.
</event>
<event>
 5   0  0.5095750E-04  0.1622450E+04  0.7818609E-02  0.8806874E-01
        4   -1    0    0  501    0  0.00000000000E+00  0.00000000000E+00  0.10160561394E+04  0.10160569331E+04  0.12699999809E+01 0. -1.
       -4   -1    0    0    0  501  0.00000000000E+00  0.00000000000E+00 -0.64768461804E+03  0.64768586317E+03  0.12699999809E+01 0.  1.
    10030    2    1    2    0    0  0.00000000000E+00  0.00000000000E+00  0.36837152134E+03  0.16637427963E+04  0.16224495414E+04 0.  0.
        4    1    3    3  502    0 -0.69889858172E+03 -0.53605299003E+02  0.60293068049E+03  0.92458627179E+03  0.12699999809E+01 0. -1.
       -4    1    3    3    0  502  0.69889858172E+03  0.53605299003E+02 -0.23455915915E+03  0.73915652446E+03  0.12699999809E+01 0.  1.
</event>
<event>
 5   0  0.1375777E-03  0.1511853E+04  0.7818609E-02  0.8876609E-01
       -2   -1    0    0    0  501  0.00000000000E+00  0.00000000000E+00  0.68490814131E+03  0.68490814132E+03  0.25500000920E-02 0.  1.
        2   -1    0    0  501    0  0.00000000000E+00  0.00000000000E+00 -0.83430856056E+03  0.83430856056E+03  0.25500000920E-02 0. -1.
    10030    2    1    2    0    0  0.00000000000E+00  0.00000000000E+00 -0.14940041925E+03  0.15192167019E+04  0.15118528043E+04 0.  0.
        1    1    3    3  502    0  0.32609853882E+03  0.41845999396E+03  0.46641659409E+03  0.70639469338E+03  0.50400001928E-02 0.  1.
       -1    1    3    3    0  502 -0.32609853882E+03 -0.41845999396E+03 -0.61581701334E+03  0.81282200850E+03  0.50400001928E-02 0. -1.
</event>
<event>
 5   0  0.7633213E-04  0.1575708E+04  0.7818609E-02  0.8835612E-01
        1   -1    0    0  501    0  0.00000000000E+00  0.00000000000E+00  0.51298743787E+03  0.51298743790E+03  0.50400001928E-02 0. -1.
       -1   -1    0    0    0  501  0.00000000000E+00  0.00000000000E+00 -0.12099985659E+04  0.12099985659E+04  0.50400001928E-02 0.  1.
    10030    2    1    2    0    0  0.00000000000E+00  0.00000000000E+00 -0.69701112801E+03  0.17229860038E+04  0.15757081762E+04 0.  0.
        1    1    3    3  502    0  0.15998688185E+03 -0.28521798242E+02 -0.11914725546E+04  0.12025041138E+04  0.50400001928E-02 0.  1.
       -1    1    3    3    0  502 -0.15998688185E+03  0.28521798242E+02  0.49446142661E+03  0.52048188996E+03  0.50400001928E-02 0. -1.
</event>
<event>
 5   0  0.1339162E-03  0.1704363E+04  0.7818609E-02  0.8758880E-01
       -2   -1    0    0    0  501  0.00000000000E+00  0.00000000000E+00  0.53617496416E+03  0.53617496417E+03  0.25500000920E-02 0.  1.
        2   -1    0    0  501    0  0.00000000000E+00  0.00000000000E+00 -0.13544327980E+04  0.13544327981E+04  0.25500000920E-02 0. -1.
    10030    2    1    2    0    0  0.00000000000E+00  0.00000000000E+00 -0.81825783389E+03  0.18906077622E+04  0.17043625870E+04 0.  0.
        5    1    3    3  502    0 -0.59300457978E+03 -0.61184618860E+03 -0.39421847007E+03  0.93885061766E+03  0.46999998093E+01 0. -1.
       -5    1    3    3    0  502  0.59300457978E+03  0.61184618860E+03 -0.42403936382E+03  0.95175714455E+03  0.46999998093E+01 0.  1.
</event>
<event>
 5   0  0.1414796E-03  0.1602760E+04  0.7818609E-02  0.8818854E-01
        2   -1    0    0  501    0  0.00000000000E+00  0.00000000000E+00  0.19972457204E+04  0.19972457204E+04  0.25500000920E-02 0. -1.
       -2   -1    0    0    0  501  0.00000000000E+00  0.00000000000E+00 -0.32154762343E+03  0.32154762344E+03  0.25500000920E-02 0.  1.
    10030    2    1    2    0    0  0.00000000000E+00  0.00000000000E+00  0.16756980970E+04  0.23187933438E+04  0.16027596386E+04 0.  0.
        4    1    3    3  502    0  0.38277965115E+03 -0.23137011100E+03 -0.12416456699E+03  0.46418836930E+03  0.12699999809E+01 0.  1.
       -4    1    3    3    0  502 -0.38277965115E+03  0.23137011100E+03  0.17998626639E+04  0.18546049745E+04  0.12699999809E+01 0. -1.
</event>
<event>
 5   0  0.1414796E-03  0.1400708E+04  0.7818609E-02  0.8953306E-01
       -2   -1    0    0    0  501  0.00000000000E+00  0.00000000000E+00  0.60169458457E+03  0.60169458457E+03  0.25500000920E-02 0. -1.
        2   -1    0    0  501    0  0.00000000000E+00  0.00000000000E+00 -0.81519018496E+03  0.81519018496E+03  0.25500000920E-02 0.  1.
    10030    2    1    2    0    0  0.00000000000E+00  0.00000000000E+00 -0.21349560039E+03  0.14168847695E+04  0.14007077064E+04 0.  0.
        4    1    3    3  502    0  0.25717354902E+03 -0.56523619806E+03 -0.43431441247E+03  0.75779998396E+03  0.12699999809E+01 0. -1.
       -4    1    3    3    0  502 -0.25717354902E+03  0.56523619806E+03  0.22081881208E+03  0.65908478558E+03  0.12699999809E+01 0.  1.
</event>
<event>
 5   0  0.7124495E-04  0.1582174E+04  0.7818609E-02  0.8831575E-01
       -1   -1    0    0    0  501  0.00000000000E+00  0.00000000000E+00  0.44185426534E+03  0.44185426537E+03  0.50400001928E-02 0.  1.
        1   -1    0    0  501    0  0.00000000000E+00  0.00000000000E+00 -0.14163459345E+04  0.14163459345E+04  0.50400001928E-02 0. -1.
    10030    2    1    2    0    0  0.00000000000E+00  0.00000000000E+00 -0.97449166914E+03  0.18582001999E+04  0.15821738114E+04 0.  0.
        2    1    3    3  502    0 -0.74782899206E+03 -0.17736292888E+03 -0.70732063429E+03  0.10445134224E+04  0.25500000920E-02 0. -1.
       -2    1    3    3    0  502  0.74782899206E+03  0.17736292888E+03 -0.26717103485E+03  0.81368677744E+03  0.25500000920E-02 0.  1.
</event>
<event>
 5   0  0.7499834E-04  0.1611384E+04  0.7818609E-02  0.8813585E-01
       -1   -1    0    0    0  501  0.00000000000E+00  0.00000000000E+00  0.65499264592E+03  0.65499264594E+03  0.50400001928E-02 0. -1.
        1   -1    0    0  501    0  0.00000000000E+00  0.00000000000E+00 -0.99106354457E+03  0.99106354459E+03  0.50400001928E-02 0.  1.
    10030    2    1    2    0    0  0.00000000000E+00  0.00000000000E+00 -0.33607089866E+03  0.16460561905E+04  0.16113836705E+04 0.  0.
        3    1    3    3  502    0 -0.54809439414E+03  0.36048868415E+03 -0.64583889328E+03  0.92057994903E+03  0.10100000352E+00 0.  1.
       -3    1    3    3    0  502  0.54809439414E+03 -0.36048868415E+03  0.30976799462E+03  0.72547624150E+03  0.10100000352E+00 0. -1.
</event>
<event>
 5   0  0.7302027E-04  0.1401061E+04  0.7818609E-02  0.8953051E-01
        1   -1    0    0  501    0  0.00000000000E+00  0.00000000000E+00  0.49438484764E+03  0.49438484767E+03  0.50400001928E-02 0.  1.
       -1   -1    0    0    0  501  0.00000000000E+00  0.00000000000E+00 -0.99263337591E+03  0.99263337593E+03  0.50400001928E-02 0. -1.
    10030    2    1    2    0    0  0.00000000000E+00  0.00000000000E+00 -0.49824852827E+03  0.14870182236E+04  0.14010608843E+04 0.  0.
        5    1    3    3  502    0 -0.13609636606E+03 -0.64147070861E+03  0.12394838754E+02  0.65588307866E+03  0.46999998093E+01 0.  1.
       -5    1    3    3    0  502  0.13609636606E+03  0.64147070861E+03 -0.51064336702E+03  0.83113514493E+03  0.46999998093E+01 0. -1.
</event>
<event>
 5   0  0.1414796E-03  0.1611795E+04  0.7818609E-02  0.8813335E-01
        2   -1    0    0  501    0  0.00000000000E+00  0.00000000000E+00  0.86289529157E+03  0.86289529158E+03  0.25500000920E-02 0. -1.
       -2   -1    0    0    0  501  0.00000000000E+00  0.00000000000E+00 -0.75266441719E+03  0.75266441720E+03  0.25500000920E-02 0.  1.
    10030    2    1    2    0    0  0.00000000000E+00  0.00000000000E+00  0.11023087438E+03  0.16155597088E+04  0.16117947534E+04 0.  0.
        4    1    3    3  502    0  0.18633122466E+03 -0.55692812018E+03  0.60829289604E+03  0.84552357543E+03  0.12699999809E+01 0. -1.
       -4    1    3    3    0  502 -0.18633122466E+03  0.55692812018E+03 -0.49806202166E+03  0.77003613334E+03  0.12699999809E+01 0.  1.
</event>
<event>
 5   0  0.1339162E-03  0.1568904E+04  0.7818609E-02  0.8839882E-01
        2   -1    0    0  501    0  0.00000000000E+00  0.00000000000E+00  0.72410001878E+03  0.72410001878E+03  0.25500000920E-02 0. -1.
       -2   -1    0    0    0  501  0.00000000000E+00  0.00000000000E+00 -0.84983425146E+03  0.84983425147E+03  0.25500000920E-02 0.  1.
    10030    2    1    2    0    0  0.00000000000E+00  0.00000000000E+00 -0.12573423269E+03  0.15739342702E+04  0.15689040728E+04 0.  0.
        5    1    3    3  502    0  0.22330802789E+03 -0.61861622545E+03  0.36604359299E+03  0.75270346862E+03  0.46999998093E+01 0. -1.
       -5    1    3    3    0  502 -0.22330802789E+03  0.61861622545E+03 -0.49177782568E+03  0.82123080162E+03  0.46999998093E+01 0.  1.
</event>
<event>
 5   0  0.1375777E-03  0.1620467E+04  0.7818609E-02  0.8808072E-01
        2   -1    0    0  501    0  0.00000000000E+00  0.00000000000E+00  0.75644830730E+03  0.75644830731E+03  0.25500000920E-02 0. -1.
       -2   -1    0    0    0  501  0.00000000000E+00  0.00000000000E+00 -0.86784244248E+03  0.86784244248E+03  0.25500000920E-02 0.  1.
    10030    2    1    2    0    0  0.00000000000E+00  0.00000000000E+00 -0.11139413517E+03  0.16242907498E+04  0.16204665336E+04 0.  0.
        1    1    3    3  502    0  0.49729094533E+03  0.36788575840E+03  0.46883486760E+03  0.77617288580E+03  0.50400001928E-02 0. -1.
       -1    1    3    3    0  502 -0.49729094533E+03 -0.36788575840E+03 -0.58022900278E+03  0.84811786399E+03  0.50400001928E-02 0.  1.
</event>
<event>
 5   0  0.1375777E-03  0.1597559E+04  0.7818609E-02  0.8822049E-01
        2   -1    0    0  501    0  0.00000000000E+00  0.00000000000E+00  0.10416715272E+04  0.10416715272E+04  0.25500000920E-02 0. -1.
       -2   -1    0    0    0  501  0.00000000000E+00  0.00000000000E+00 -0.61252386003E+03  0.61252386004E+03  0.25500000920E-02 0.  1.
    10030    2    1    2    0    0  0.00000000000E+00  0.00000000000E+00  0.42914766713E+03  0.16541953872E+04  0.15975589688E+04 0.  0.
        1    1    3    3  502    0  0.24576076998E+03 -0.51176566123E+03 -0.36726001821E+03  0.67615262262E+03  0.50400001928E-02 0.  1.
       -1    1    3    3    0  502 -0.24576076998E+03  0.51176566123E+03  0.79640768534E+03  0.97804276459E+03  0.50400001928E-02 0. -1.
</event>
<event>
 5   0  0.5095750E-04  0.8049339E+03  0.7818609E-02  0.9552903E-01
       -3   -1    0    0    0  501  0.00000000000E+00  0.00000000000E+00  0.72255821910E+03  0.72255822616E+03  0.10100000352E+00 0.  1.
        3   -1    0    0  501    0  0.00000000000E+00  0.00000000000E+00 -0.22417517158E+03  0.22417519433E+03  0.10100000352E+00 0. -1.
    10030    2    1    2    0    0  0.00000000000E+00  0.00000000000E+00  0.49838304752E+03  0.94673342049E+03  0.80493385282E+03 0.  0.
        4    1    3    3  502    0 -0.20575337530E+03 -0.69918159904E+02 -0.14923968561E+03  0.26362302099E+03  0.12699999809E+01 0. -1.
       -4    1    3    3    0  502  0.20575337530E+03  0.69918159904E+02  0.64762273313E+03  0.68311039950E+03  0.12699999809E+01 0.  1.
</event>
<event>
 5   0  0.5095750E-04  0.1497615E+04  0.7818609E-02  0.8886041E-01
        3   -1    0    0  501    0  0.00000000000E+00  0.00000000000E+00  0.82026977241E+03  0.82026977863E+03  0.10100000352E+00 0.  1.
       -3   -1    0    0    0  501  0.00000000000E+00  0.00000000000E+00 -0.68357098772E+03  0.68357099519E+03  0.10100000352E+00 0. -1.
    10030    2    1    2    0    0  0.00000000000E+00  0.00000000000E+00  0.13669878469E+03  0.15038407738E+04  0.14976149423E+04 0.  0.
        4    1    3    3  502    0 -0.59259001387E+03  0.48740884232E+02 -0.38870475931E+03  0.71037426836E+03  0.12699999809E+01 0. -1.
       -4    1    3    3    0  502  0.59259001387E+03 -0.48740884232E+02  0.52540354400E+03  0.79346650546E+03  0.12699999809E+01 0.  1.
</event>
<event>
 5   0  0.1414796E-03  0.1276542E+04  0.7818609E-02  0.9048377E-01
        2   -1    0    0  501    0  0.00000000000E+00  0.00000000000E+00  0.14023028632E+04  0.14023028632E+04  0.25500000920E-02 0.  1.
       -2   -1    0    0    0  501  0.00000000000E+00  0.00000000000E+00 -0.29051495568E+03  0.29051495569E+03  0.25500000920E-02 0. -1.
    10030    2    1    2    0    0  0.00000000000E+00  0.00000000000E+00  0.11117879075E+04  0.16928178189E+04  0.12765421327E+04 0.  0.
        4    1    3    3  502    0  0.33462125904E+03 -0.30543938959E+03  0.11520826318E+04  0.12379663206E+04  0.12699999809E+01 0.  1.
       -4    1    3    3    0  502 -0.33462125904E+03  0.30543938959E+03 -0.40294724287E+02  0.45485149821E+03  0.12699999809E+01 0. -1.
</event>
<event>
 5   0  0.7601145E-04  0.1495801E+04  0.7818609E-02  0.8887250E-01
        1   -1    0    0  501    0  0.00000000000E+00  0.00000000000E+00  0.99948499100E+03  0.99948499101E+03  0.50400001928E-02 0.  1.
       -1   -1    0    0    0  501  0.00000000000E+00  0.00000000000E+00 -0.55964321284E+03  0.55964321286E+03  0.50400001928E-02 0. -1.
    10030    2    1    2    0    0  0.00000000000E+00  0.00000000000E+00  0.43984177816E+03  0.15591282039E+04  0.14958007776E+04 0.  0.
        4    1    3    3  502    0  0.37633955820E+03 -0.28861289879E+03  0.82269851408E+03  0.94961219789E+03  0.12699999809E+01 0.  1.
       -4    1    3    3    0  502 -0.37633955820E+03  0.28861289879E+03 -0.38285673592E+03  0.60951600598E+03  0.12699999809E+01 0. -1.
</event>
<event>
 5   0  0.1414796E-03  0.1579465E+04  0.7818609E-02  0.8833264E-01
        2   -1    0    0  501    0  0.00000000000E+00  0.00000000000E+00  0.12253617967E+04  0.12253617967E+04  0.25500000920E-02 0.  1.
       -2   -1    0    0    0  501  0.00000000000E+00  0.00000000000E+00 -0.50897417170E+03  0.50897417171E+03  0.25500000920E-02 0. -1.
    10030    2    1    2    0    0  0.00000000000E+00  0.00000000000E+00  0.71638762499E+03  0.17343359684E+04  0.15794651063E+04 0.  0.
        4    1    3    3  502    0 -0.67105455358E+03 -0.95131489570E+02 -0.86905999786E+02  0.68331433461E+03  0.12699999809E+01 0. -1.
       -4    1    3    3    0  502  0.67105455358E+03  0.95131489570E+02  0.80329362477E+03  0.10510216338E+04  0.12699999809E+01 0.  1.
</event>
<event>
 5   0  0.7499834E-04  0.9866599E+03  0.7818609E-02  0.9323298E-01
        1   -1    0    0  501    0  0.00000000000E+00  0.00000000000E+00  0.59961288630E+03  0.59961288633E+03  0.50400001928E-02 0.  1.
       -1   -1    0    0    0  501  0.00000000000E+00  0.00000000000E+00 -0.40588590546E+03  0.40588590549E+03  0.50400001928E-02 0. -1.
    10030    2    1    2    0    0  0.00000000000E+00  0.00000000000E+00  0.19372698085E+03  0.10054987918E+04  0.98665985893E+03 0.  0.
        3    1    3    3  502    0 -0.29781245944E+03  0.12478875505E+03  0.47695934707E+03  0.57598153039E+03  0.10100000352E+00 0.  1.
       -3    1    3    3    0  502  0.29781245944E+03 -0.12478875505E+03 -0.28323236622E+03  0.42951726143E+03  0.10100000352E+00 0. -1.
</event>
<event>
 5   0  0.7601145E-04  0.1700875E+04  0.7818609E-02  0.8760865E-01
        1   -1    0    0  501    0  0.00000000000E+00  0.00000000000E+00  0.61802238707E+03  0.61802238709E+03  0.50400001928E-02 0.  1.
       -1   -1    0    0    0  501  0.00000000000E+00  0.00000000000E+00 -0.11702554399E+04  0.11702554399E+04  0.50400001928E-02 0. -1.
    10030    2    1    2    0    0  0.00000000000E+00  0.00000000000E+00 -0.55223305286E+03  0.17882778270E+04  0.17008751400E+04 0.  0.
        4    1    3    3  502    0  0.38946636885E+03  0.59393674217E+02 -0.10685238769E+04  0.11388400017E+04  0.12699999809E+01 0. -1.
       -4    1    3    3    0  502 -0.38946636885E+03 -0.59393674217E+02  0.51629082409E+03  0.64943782531E+03  0.12699999809E+01 0.  1.
</event>
<event>
 5   0  0.7124495E-04  0.1601539E+04  0.7818609E-02  0.8819603E-01
        1   -1    0    0  501    0  0.00000000000E+00  0.00000000000E+00  0.13008991772E+04  0.13008991772E+04  0.50400001928E-02 0. -1.
       -1   -1    0    0    0  501  0.00000000000E+00  0.00000000000E+00 -0.49291427799E+03  0.49291427802E+03  0.50400001928E-02 0.  1.
    10030    2    1    2    0    0  0.00000000000E+00  0.00000000000E+00  0.80798489921E+03  0.17938134552E+04  0.16015389832E+04 0.  0.
        2    1    3    3  502    0 -0.53434706656E+03 -0.58598719202E+03  0.52833381782E+03  0.95291363712E+03  0.25500000920E-02 0. -1.
       -2    1    3    3    0  502  0.53434706656E+03  0.58598719202E+03  0.27965108138E+03  0.84089981810E+03  0.25500000920E-02 0.  1.
</event>
<event>
 5   0  0.1375777E-03  0.1643395E+04  0.7818609E-02  0.8794324E-01
       -2   -1    0    0    0  501  0.00000000000E+00  0.00000000000E+00  0.37660420288E+03  0.37660420289E+03  0.25500000920E-02 0. -1.
        2   -1    0    0  501    0  0.00000000000E+00  0.00000000000E+00 -0.17928283827E+04  0.17928283827E+04  0.25500000920E-02 0.  1.
    10030    2    1    2    0    0  0.00000000000E+00  0.00000000000E+00 -0.14162241799E+04  0.21694325856E+04  0.16433949057E+04 0.  0.
        1    1    3    3  502    0 -0.80434949293E+03  0.15044046027E+03 -0.60953501457E+03  0.10203643334E+04  0.50400001928E-02 0. -1.
       -1    1    3    3    0  502  0.80434949293E+03 -0.15044046027E+03 -0.80668916529E+03  0.11490682522E+04  0.50400001928E-02 0.  1.
</event>
<event>
 5   0  0.7499834E-04  0.1618083E+04  0.7818609E-02  0.8809515E-01
       -1   -1    0    0    0  501  0.00000000000E+00  0.00000000000E+00  0.19645820732E+04  0.19645820732E+04  0.50400001928E-02 0.  1.
        1   -1    0    0  501    0  0.00000000000E+00  0.00000000000E+00 -0.33317434262E+03  0.33317434266E+03  0.50400001928E-02 0. -1.
    10030    2    1    2    0    0  0.00000000000E+00  0.00000000000E+00  0.16314077306E+04  0.22977564159E+04  0.16180832375E+04 0.  0.
        3    1    3    3  502    0 -0.65273242288E+03 -0.88326463621E+02  0.14828049583E+04  0.16225201801E+04  0.10100000352E+00 0.  1.
       -3    1    3    3    0  502  0.65273242288E+03  0.88326463621E+02  0.14860277227E+03  0.67523623583E+03  0.10100000352E+00 0. -1.
</event>
<event>
 5   0  0.1354766E-03  0.1572138E+04  0.7818609E-02  0.8837850E-01
       -2   -1    0    0    0  501  0.00000000000E+00  0.00000000000E+00  0.73874506483E+03  0.73874506483E+03  0.25500000920E-02 0. -1.
        2   -1    0    0  501    0  0.00000000000E+00  0.00000000000E+00 -0.83642496672E+03  0.83642496673E+03  0.25500000920E-02 0.  1.
    10030    2    1    2    0    0  0.00000000000E+00  0.00000000000E+00 -0.97679901894E+02  0.15751700316E+04  0.15721384370E+04 0.  0.
        3    1    3    3  502    0 -0.55551671638E+03  0.13053279966E+03  0.49281993434E+03  0.75399544551E+03  0.10100000352E+00 0. -1.
       -3    1    3    3    0  502  0.55551671638E+03 -0.13053279966E+03 -0.59049983624E+03  0.82117458604E+03  0.10100000352E+00 0.  1.
</event>
<event>
 5   0  0.1414751E-03  0.1584186E+04  0.7818609E-02  0.8830323E-01
       -2   -1    0    0    0  501  0.00000000000E+00  0.00000000000E+00  0.93130159972E+03  0.93130159972E+03  0.25500000920E-02 0. -1.
        2   -1    0    0  501    0  0.00000000000E+00  0.00000000000E+00 -0.67369262805E+03  0.67369262805E+03  0.25500000920E-02 0.  1.
    10030    2    1    2    0    0  0.00000000000E+00  0.00000000000E+00  0.25760897167E+03  0.16049942278E+04  0.15841856232E+04 0.  0.
        2    1    3    3  502    0  0.62407986259E+03 -0.47508428676E+03  0.24084765660E+03  0.82048055925E+03  0.25500000920E-02 0.  1.
       -2    1    3    3    0  502 -0.62407986259E+03  0.47508428676E+03  0.16761315065E+02  0.78451366852E+03  0.25500000920E-02 0. -1.
</event>
<event>
 5   0  0.1414796E-03  0.8136627E+03  0.7818609E-02  0.9540449E-01
        2   -1    0    0  501    0  0.00000000000E+00  0.00000000000E+00  0.10270030657E+04  0.10270030657E+04  0.25500000920E-02 0.  1.
       -2   -1    0    0    0  501  0.00000000000E+00  0.00000000000E+00 -0.16115993043E+03  0.16115993045E+03  0.25500000920E-02 0. -1.
    10030    2    1    2    0    0  0.00000000000E+00  0.00000000000E+00  0.86584313523E+03  0.11881629961E+04  0.81366268842E+03 0.  0.
        4    1    3    3  502    0  0.15832124034E+03  0.10976659490E+03 -0.90325792355E+02  0.21277848144E+03  0.12699999809E+01 0. -1.
       -4    1    3    3    0  502 -0.15832124034E+03 -0.10976659490E+03  0.95616892759E+03  0.97538451468E+03  0.12699999809E+01 0.  1.
</event>
<event>
 5   0  0.7601145E-04  0.1154665E+04  0.7818609E-02  0.9153490E-01
       -1   -1    0    0    0  501  0.00000000000E+00  0.00000000000E+00  0.39314289930E+03  0.39314289933E+03  0.50400001928E-02 0. -1.
        1   -1    0    0  501    0  0.00000000000E+00  0.00000000000E+00 -0.84781638112E+03  0.84781638113E+03  0.50400001928E-02 0.  1.
    10030    2    1    2    0    0  0.00000000000E+00  0.00000000000E+00 -0.45467348182E+03  0.12409592805E+04  0.11546653025E+04 0.  0.
        4    1    3    3  502    0 -0.96403754295E+02  0.55120268699E+03 -0.74613556573E+02  0.56452358827E+03  0.12699999809E+01 0.  1.
       -4    1    3    3    0  502  0.96403754295E+02 -0.55120268699E+03 -0.38005992524E+03  0.67643569219E+03  0.12699999809E+01 0. -1.
</event>
<event>
 5   0  0.7633213E-04  0.1570677E+04  0.7818609E-02  0.8838768E-01
       -1   -1    0    0    0  501  0.00000000000E+00  0.00000000000E+00  0.59432778219E+03  0.59432778221E+03  0.50400001928E-02 0.  1.
        1   -1    0    0  501    0  0.00000000000E+00  0.00000000000E+00 -0.10377380367E+04  0.10377380367E+04  0.50400001928E-02 0. -1.
    10030    2    1    2    0    0  0.00000000000E+00  0.00000000000E+00 -0.44341025449E+03  0.16320658189E+04  0.15706769825E+04 0.  0.
        1    1    3    3  502    0  0.36864072249E+03  0.69296454745E+03 -0.24841382957E+03  0.82328930338E+03  0.50400001928E-02 0. -1.
       -1    1    3    3    0  502 -0.36864072249E+03 -0.69296454745E+03 -0.19499642492E+03  0.80877651553E+03  0.50400001928E-02 0.  1.
</event>
<event>
 5   0  0.1414796E-03  0.1199386E+04  0.7818609E-02  0.9113394E-01
       -2   -1    0    0    0  501  0.00000000000E+00  0.00000000000E+00  0.17810674422E+03  0.17810674424E+03  0.25500000920E-02 0. -1.
        2   -1    0    0  501    0  0.00000000000E+00  0.00000000000E+00 -0.20191919647E+04  0.20191919647E+04  0.25500000920E-02 0.  1.
    10030    2    1    2    0    0  0.00000000000E+00  0.00000000000E+00 -0.18410852205E+04  0.21972987090E+04  0.11993860210E+04 0.  0.
        4    1    3    3  502    0  0.22074485940E+03 -0.20307737177E+03  0.30805578747E+02  0.30152828798E+03  0.12699999809E+01 0. -1.
       -4    1    3    3    0  502 -0.22074485940E+03  0.20307737177E+03 -0.18718907993E+04  0.18957704210E+04  0.12699999809E+01 0.  1.
</event>
<event>
 5   0  0.1339162E-03  0.1678089E+04  0.7818609E-02  0.8773961E-01
       -2   -1    0    0    0  501  0.00000000000E+00  0.00000000000E+00  0.89439742872E+03  0.89439742872E+03  0.25500000920E-02 0.  1.
        2   -1    0    0  501    0  0.00000000000E+00  0.00000000000E+00 -0.78711687080E+03  0.78711687081E+03  0.25500000920E-02 0. -1.
    10030    2    1    2    0    0  0.00000000000E+00  0.00000000000E+00  0.10728055792E+03  0.16815142995E+04  0.16780885619E+04 0.  0.
        5    1    3    3  502    0 -0.10774350028E+03 -0.29478737685E+03  0.83334505311E+03  0.89050228913E+03  0.46999998093E+01 0.  1.
       -5    1    3    3    0  502  0.10774350028E+03  0.29478737685E+03 -0.72606449520E+03  0.79101201040E+03  0.46999998093E+01 0. -1.
</event>
<event>
 5   0  0.7124495E-04  0.1585733E+04  0.7818609E-02  0.8829361E-01
        1   -1    0    0  501    0  0.00000000000E+00  0.00000000000E+00  0.10156555400E+04  0.10156555400E+04  0.50400001928E-02 0.  1.
       -1   -1    0    0    0  501  0.00000000000E+00  0.00000000000E+00 -0.61894748956E+03  0.61894748958E+03  0.50400001928E-02 0. -1.
    10030    2    1    2    0    0  0.00000000000E+00  0.00000000000E+00  0.39670805041E+03  0.16346030296E+04  0.15857332017E+04 0.  0.
        2    1    3    3  502    0 -0.39138206810E+03  0.25959383915E+03 -0.46013531511E+03  0.65749022256E+03  0.25500000920E-02 0. -1.
       -2    1    3    3    0  502  0.39138206810E+03 -0.25959383915E+03  0.85684336551E+03  0.97711280699E+03  0.25500000920E-02 0.  1.
</event>
<event>
 5   0  0.7499834E-04  0.1600705E+04  0.7818609E-02  0.8820115E-01
       -1   -1    0    0    0  501  0.00000000000E+00  0.00000000000E+00  0.61476606431E+03  0.61476606433E+03  0.50400001928E-02 0. -1.
        1   -1    0    0  501    0  0.00000000000E+00  0.00000000000E+00 -0.10419633965E+04  0.10419633965E+04  0.50400001928E-02 0.  1.
    10030    2    1    2    0    0  0.00000000000E+00  0.00000000000E+00 -0.42719733220E+03  0.16567294608E+04  0.16007045155E+04 0.  0.
        3    1    3    3  502    0  0.49343935235E+03 -0.62991240377E+03 -0.23127552919E+03  0.83292281243E+03  0.10100000352E+00 0.  1.
       -3    1    3    3    0  502 -0.49343935235E+03  0.62991240377E+03 -0.19592180301E+03  0.82380664841E+03  0.10100000352E+00 0. -1.
</event>
<event>
 5   0  0.1414751E-03  0.1603153E+04  0.7818609E-02  0.8818614E-01
        2   -1    0    0  501    0  0.00000000000E+00  0.00000000000E+00  0.17376887443E+04  0.17376887443E+04  0.25500000920E-02 0.  1.
       -2   -1    0    0    0  501  0.00000000000E+00  0.00000000000E+00 -0.36975814096E+03  0.36975814097E+03  0.25500000920E-02 0. -1.
    10030    2    1    2    0    0  0.00000000000E+00  0.00000000000E+00  0.13679306033E+04  0.21074468852E+04  0.16031525937E+04 0.  0.
        2    1    3    3  502    0  0.65333330548E+03  0.39174893180E+03  0.10118507097E+04  0.12665518120E+04  0.25500000920E-02 0.  1.
       -2    1    3    3    0  502 -0.65333330548E+03 -0.39174893180E+03  0.35607989358E+03  0.84089507326E+03  0.25500000920E-02 0. -1.
</event>
<event>
 5   0  0.1414796E-03  0.1605396E+04  0.7818609E-02  0.8817240E-01
        2   -1    0    0  501    0  0.00000000000E+00  0.00000000000E+00  0.24217920936E+04  0.24217920936E+04  0.25500000920E-02 0.  1.
       -2   -1    0    0    0  501  0.00000000000E+00  0.00000000000E+00 -0.26605269202E+03  0.26605269203E+03  0.25500000920E-02 0. -1.
    10030    2    1    2    0    0  0.00000000000E+00  0.00000000000E+00  0.21557394016E+04  0.26878447856E+04  0.16053962826E+04 0.  0.
        4    1    3    3  502    0 -0.38264849182E+03  0.65367066000E+03  0.15227857592E+04  0.17007596189E+04  0.12699999809E+01 0.  1.
       -4    1    3    3    0  502  0.38264849182E+03 -0.65367066000E+03  0.63295364239E+03  0.98708516671E+03  0.12699999809E+01 0. -1.
</event>
<event>
 5   0  0.7633213E-04  0.1575108E+04  0.7818609E-02  0.8835987E-01
       -1   -1    0    0    0  501  0.00000000000E+00  0.00000000000E+00  0.10856494160E+04  0.10856494160E+04  0.50400001928E-02 0. -1.
        1   -1    0    0  501    0  0.00000000000E+00  0.00000000000E+00 -0.57130932711E+03  0.57130932713E+03  0.50400001928E-02 0.  1.
    10030    2    1    2    0    0  0.00000000000E+00  0.00000000000E+00  0.51434008888E+03  0.16569587431E+04  0.15751084246E+04 0.  0.
        1    1    3    3  502    0 -0.20392973547E+03  0.41670622077E+03  0.92664484557E+03  0.10362924690E+04  0.50400001928E-02 0. -1.
       -1    1    3    3    0  502  0.20392973547E+03 -0.41670622077E+03 -0.41230475669E+03  0.62066627414E+03  0.50400001928E-02 0.  1.
</event>
<event>
 5   0  0.7633213E-04  0.1607759E+04  0.7818609E-02  0.8815796E-01
        1   -1    0    0  501    0  0.00000000000E+00  0.00000000000E+00  0.13445508748E+04  0.13445508748E+04  0.50400001928E-02 0. -1.
       -1   -1    0    0    0  501  0.00000000000E+00  0.00000000000E+00 -0.48062295342E+03  0.48062295345E+03  0.50400001928E-02 0.  1.
    10030    2    1    2    0    0  0.00000000000E+00  0.00000000000E+00  0.86392792139E+03  0.18251738283E+04  0.16077587039E+04 0.  0.
        1    1    3    3  502    0 -0.77665462723E+03 -0.58756182311E+02  0.65780690077E+03  0.10194874289E+04  0.50400001928E-02 0. -1.
       -1    1    3    3    0  502  0.77665462723E+03  0.58756182311E+02  0.20612102061E+03  0.80568639936E+03  0.50400001928E-02 0.  1.
</event>
<event>
 5   0  0.1354766E-03  0.1602619E+04  0.7818609E-02  0.8818941E-01
       -2   -1    0    0    0  501  0.00000000000E+00  0.00000000000E+00  0.66073356379E+03  0.66073356380E+03  0.25500000920E-02 0. -1.
        2   -1    0    0  501    0  0.00000000000E+00  0.00000000000E+00 -0.97179419242E+03  0.97179419242E+03  0.25500000920E-02 0.  1.
    10030    2    1    2    0    0  0.00000000000E+00  0.00000000000E+00 -0.31106062863E+03  0.16325277562E+04  0.16026191563E+04 0.  0.
        3    1    3    3  502    0 -0.32813780434E+03  0.22347201987E+03  0.55350759587E+03  0.68116432025E+03  0.10100000352E+00 0. -1.
       -3    1    3    3    0  502  0.32813780434E+03 -0.22347201987E+03 -0.86456822449E+03  0.95136343597E+03  0.10100000352E+00 0.  1.
</event>
<event>
 5   0  0.7601145E-04  0.1478142E+04  0.7818609E-02  0.8899120E-01
        1   -1    0    0  501    0  0.00000000000E+00  0.00000000000E+00  0.87677727523E+03  0.87677727525E+03  0.50400001928E-02 0.  1.
       -1   -1    0    0    0  501  0.00000000000E+00  0.00000000000E+00 -0.62299309455E+03  0.62299309457E+03  0.50400001928E-02 0. -1.
    10030    2    1    2    0    0  0.00000000000E+00  0.00000000000E+00  0.25378418068E+03  0.14997703698E+04  0.14781423314E+04 0.  0.
        4    1    3    3  502    0 -0.37477734324E+03  0.60528467863E+03 -0.74498863048E+02  0.71580674255E+03  0.12699999809E+01 0.  1.
       -4    1    3    3    0  502  0.37477734324E+03 -0.60528467863E+03  0.32828304373E+03  0.78396362727E+03  0.12699999809E+01 0. -1.
</event>
<event>
 5   0  0.7499834E-04  0.1601603E+04  0.7818609E-02  0.8819564E-01
       -1   -1    0    0    0  501  0.00000000000E+00  0.00000000000E+00  0.12695498395E+04  0.12695498395E+04  0.50400001928E-02 0.  1.
        1   -1    0    0  501    0  0.00000000000E+00  0.00000000000E+00 -0.50512609335E+03  0.50512609337E+03  0.50400001928E-02 0. -1.
    10030    2    1    2    0    0  0.00000000000E+00  0.00000000000E+00  0.76442374614E+03  0.17746759329E+04  0.16016026358E+04 0.  0.
        3    1    3    3  502    0  0.27200092597E+03  0.67842989183E+03  0.74472131042E+03  0.10434852477E+04  0.10100000352E+00 0. -1.
       -3    1    3    3    0  502 -0.27200092597E+03 -0.67842989183E+03  0.19702435723E+02  0.73119068514E+03  0.10100000352E+00 0.  1.
</event>
<event>
 5   0  0.7633213E-04  0.1561870E+04  0.7818609E-02  0.8844321E-01
       -1   -1    0    0    0  501  0.00000000000E+00  0.00000000000E+00  0.35485857107E+03  0.35485857110E+03  0.50400001928E-02 0.  1.
        1   -1    0    0  501    0  0.00000000000E+00  0.00000000000E+00 -0.17185991524E+04  0.17185991524E+04  0.50400001928E-02 0. -1.
    10030    2    1    2    0    0  0.00000000000E+00  0.00000000000E+00 -0.13637405814E+04  0.20734577235E+04  0.15618702117E+04 0.  0.
        1    1    3    3  502    0  0.25644075561E+03 -0.61055740290E+03 -0.12313491979E+04  0.13981284099E+04  0.50400001928E-02 0. -1.
       -1    1    3    3    0  502 -0.25644075561E+03  0.61055740290E+03 -0.13239138341E+03  0.67532931359E+03  0.50400001928E-02 0.  1.
</event>
<event>
 5   0  0.7499834E-04  0.1593014E+04  0.7818609E-02  0.8824851E-01
       -1   -1    0    0    0  501  0.00000000000E+00  0.00000000000E+00  0.52050123863E+03  0.52050123865E+03  0.50400001928E-02 0.  1.
        1   -1    0    0  501    0  0.00000000000E+00  0.00000000000E+00 -0.12188701189E+04  0.12188701189E+04  0.50400001928E-02 0. -1.
    10030    2    1    2    0    0  0.00000000000E+00  0.00000000000E+00 -0.69836888029E+03  0.17393713576E+04  0.15930140070E+04 0.  0.
        3    1    3    3  502    0  0.66255593446E+03 -0.29467179576E+03  0.10656648033E+02  0.72520714823E+03  0.10100000352E+00 0. -1.
       -3    1    3    3    0  502 -0.66255593446E+03  0.29467179576E+03 -0.70902552832E+03  0.10141642093E+04  0.10100000352E+00 0.  1.
</event>
<event>
 5   0  0.1339162E-03  0.1583194E+04  0.7818609E-02  0.8830939E-01
       -2   -1    0    0    0  501  0.00000000000E+00  0.00000000000E+00  0.63294804385E+03  0.63294804386E+03  0.25500000920E-02 0.  1.
        2   -1    0    0  501    0  0.00000000000E+00  0.00000000000E+00 -0.99001188654E+03  0.99001188654E+03  0.25500000920E-02 0. -1.
    10030    2    1    2    0    0  0.00000000000E+00  0.00000000000E+00 -0.35706384269E+03  0.16229599304E+04  0.15831943494E+04 0.  0.
        5    1    3    3  502    0  0.30414335963E+03  0.62851449891E+03 -0.56082005905E+03  0.89558633709E+03  0.46999998093E+01 0. -1.
       -5    1    3    3    0  502 -0.30414335963E+03 -0.62851449891E+03  0.20375621636E+03  0.72737359331E+03  0.46999998093E+01 0.  1.
</event>
<event>
 5   0  0.7601145E-04  0.1669180E+04  0.7818609E-02  0.8779140E-01
        1   -1    0    0  501    0  0.00000000000E+00  0.00000000000E+00  0.13036456683E+04  0.13036456683E+04  0.50400001928E-02 0.  1.
       -1   -1    0    0    0  501  0.00000000000E+00  0.00000000000E+00 -0.53430212828E+03  0.53430212830E+03  0.50400001928E-02 0. -1.
    10030    2    1    2    0    0  0.00000000000E+00  0.00000000000E+00  0.76934353998E+03  0.18379477966E+04  0.16691802241E+04 0.  0.
        4    1    3    3  502    0 -0.70813033770E+02  0.58173826844E+03  0.10389793674E+04  0.11928594375E+04  0.12699999809E+01 0.  1.
       -4    1    3    3    0  502  0.70813033770E+02 -0.58173826844E+03 -0.26963582744E+03  0.64508835911E+03  0.12699999809E+01 0. -1.
</event>
<event>
 5   0  0.7633213E-04  0.1651370E+04  0.7818609E-02  0.8789596E-01
        1   -1    0    0  501    0  0.00000000000E+00  0.00000000000E+00  0.14738033148E+04  0.14738033148E+04  0.50400001928E-02 0. -1.
       -1   -1    0    0    0  501  0.00000000000E+00  0.00000000000E+00 -0.46258250490E+03  0.46258250492E+03  0.50400001928E-02 0.  1.
    10030    2    1    2    0    0  0.00000000000E+00  0.00000000000E+00  0.10112208099E+04  0.19363858198E+04  0.16513698909E+04 0.  0.
        1    1    3    3  502    0  0.58530876920E+03  0.49501444418E+03  0.14585154301E+03  0.78031937556E+03  0.50400001928E-02 0.  1.
       -1    1    3    3    0  502 -0.58530876920E+03 -0.49501444418E+03  0.86536926693E+03  0.11560664442E+04  0.50400001928E-02 0. -1.
</event>
<event>
 5   0  0.7499834E-04  0.1659646E+04  0.7818609E-02  0.8784720E-01
       -1   -1    0    0    0  501  0.00000000000E+00  0.00000000000E+00  0.56701328283E+03  0.56701328285E+03  0.50400001928E-02 0.  1.
        1   -1    0    0  501    0  0.00000000000E+00  0.00000000000E+00 -0.12144446378E+04  0.12144446378E+04  0.50400001928E-02 0. -1.
    10030    2    1    2    0    0  0.00000000000E+00  0.00000000000E+00 -0.64743135495E+03  0.17814579206E+04  0.16596460356E+04 0.  0.
        3    1    3    3  502    0  0.54140244886E+03 -0.30133013170E+03  0.26878524743E+03  0.67539764535E+03  0.10100000352E+00 0.  1.
       -3    1    3    3    0  502 -0.54140244886E+03  0.30133013170E+03 -0.91621660238E+03  0.11060602753E+04  0.10100000352E+00 0. -1.
</event>
<event>
 5   0  0.1339162E-03  0.1604222E+04  0.7818609E-02  0.8817959E-01
        2   -1    0    0  501    0  0.00000000000E+00  0.00000000000E+00  0.18771694826E+04  0.18771694826E+04  0.25500000920E-02 0. -1.
       -2   -1    0    0    0  501  0.00000000000E+00  0.00000000000E+00 -0.34274043508E+03  0.34274043509E+03  0.25500000920E-02 0.  1.
    10030    2    1    2    0    0  0.00000000000E+00  0.00000000000E+00  0.15344290476E+04  0.22199099177E+04  0.16042217867E+04 0.  0.
        5    1    3    3  502    0 -0.46828427294E+03 -0.63973903459E+03  0.59884842470E+03  0.99357823971E+03  0.46999998093E+01 0.  1.
       -5    1    3    3    0  502  0.46828427294E+03  0.63973903459E+03  0.93558062285E+03  0.12263316780E+04  0.46999998093E+01 0. -1.
</event>
<event>
 5   0  0.1414796E-03  0.1826514E+04  0.7818609E-02  0.8692325E-01
       -2   -1    0    0    0  501  0.00000000000E+00  0.00000000000E+00  0.93949759554E+03  0.93949759554E+03  0.25500000920E-02 0.  1.
        2   -1    0    0  501    0  0.00000000000E+00  0.00000000000E+00 -0.88774927721E+03  0.88774927721E+03  0.25500000920E-02 0. -1.
    10030    2    1    2    0    0  0.00000000000E+00  0.00000000000E+00  0.51748318329E+02  0.18272468728E+04  0.18265139599E+04 0.  0.
        4    1    3    3  502    0 -0.34908451241E+03  0.29077941166E+03  0.81841931333E+03  0.93606861307E+03  0.12699999809E+01 0.  1.
       -4    1    3    3    0  502  0.34908451241E+03 -0.29077941166E+03 -0.76667099500E+03  0.89117825968E+03  0.12699999809E+01 0. -1.
</event>
<event>
 5   0  0.7302027E-04  0.1579451E+04  0.7818609E-02  0.8833272E-01
        1   -1    0    0  501    0  0.00000000000E+00  0.00000000000E+00  0.70261637528E+03  0.70261637530E+03  0.50400001928E-02 0.  1.
       -1   -1    0    0    0  501  0.00000000000E+00  0.00000000000E+00 -0.88763436480E+03  0.88763436482E+03  0.50400001928E-02 0. -1.
    10030    2    1    2    0    0  0.00000000000E+00  0.00000000000E+00 -0.18501798952E+03  0.15902507401E+04  0.15794510945E+04 0.  0.
        5    1    3    3  502    0  0.27694755238E+03 -0.63134878202E+03  0.29527789800E+03  0.75000823887E+03  0.46999998093E+01 0.  1.
       -5    1    3    3    0  502 -0.27694755238E+03  0.63134878202E+03 -0.48029588752E+03  0.84024250124E+03  0.46999998093E+01 0. -1.
</event>
<event>
 5   0  0.1414796E-03  0.1239784E+04  0.7818609E-02  0.9078729E-01
        2   -1    0    0  501    0  0.00000000000E+00  0.00000000000E+00  0.17490048928E+04  0.17490048928E+04  0.25500000920E-02 0.  1.
       -2   -1    0    0    0  501  0.00000000000E+00  0.00000000000E+00 -0.21970543537E+03  0.21970543538E+03  0.25500000920E-02 0. -1.
    10030    2    1    2    0    0  0.00000000000E+00  0.00000000000E+00  0.15292994574E+04  0.19687103282E+04  0.12397836609E+04 0.  0.
        4    1    3    3  502    0  0.58540249005E+03  0.30532462409E+02  0.44454566790E+03  0.73569747204E+03  0.12699999809E+01 0. -1.
       -4    1    3    3    0  502 -0.58540249005E+03 -0.30532462409E+02  0.10847537895E+04  0.12330128561E+04  0.12699999809E+01 0.  1.
</event>
<event>
 5   0  0.7499834E-04  0.1598803E+04  0.7818609E-02  0.8821284E-01
       -1   -1    0    0    0  501  0.00000000000E+00  0.00000000000E+00  0.68949180672E+03  0.68949180674E+03  0.50400001928E-02 0. -1.
        1   -1    0    0  501    0  0.00000000000E+00  0.00000000000E+00 -0.92683120842E+03  0.92683120843E+03  0.50400001928E-02 0.  1.
    10030    2    1    2    0    0  0.00000000000E+00  0.00000000000E+00 -0.23733940169E+03  0.16163230152E+04  0.15988027076E+04 0.  0.
        3    1    3    3  502    0  0.63539731196E+03 -0.22133069747E+02 -0.60856526054E+03  0.88009732607E+03  0.10100000352E+00 0.  1.
       -3    1    3    3    0  502 -0.63539731196E+03  0.22133069747E+02  0.37122585885E+03  0.73622568910E+03  0.10100000352E+00 0. -1.
</event>
<event>
 5   0  0.1414751E-03  0.1535670E+04  0.7818609E-02  0.8861073E-01
        2   -1    0    0  501    0  0.00000000000E+00  0.00000000000E+00  0.11816714981E+04  0.11816714981E+04  0.25500000920E-02 0. -1.
       -2   -1    0    0    0  501  0.00000000000E+00  0.00000000000E+00 -0.49892926012E+03  0.49892926013E+03  0.25500000920E-02 0.  1.
    10030    2    1    2    0    0  0.00000000000E+00  0.00000000000E+00  0.68274223794E+03  0.16806007582E+04  0.15356698685E+04 0.  0.
        2    1    3    3  502    0  0.74636758483E+03 -0.35354826253E+02  0.53484976944E+03  0.91890087131E+03  0.25500000920E-02 0. -1.
       -2    1    3    3    0  502 -0.74636758483E+03  0.35354826253E+02  0.14789246851E+03  0.76169988688E+03  0.25500000920E-02 0.  1.
</event>
<event>
 5   0  0.1375777E-03  0.1340636E+04  0.7818609E-02  0.8997947E-01
       -2   -1    0    0    0  501  0.00000000000E+00  0.00000000000E+00  0.60921187321E+03  0.60921187322E+03  0.25500000920E-02 0. -1.
        2   -1    0    0  501    0  0.00000000000E+00  0.00000000000E+00 -0.73755381500E+03  0.73755381500E+03  0.25500000920E-02 0.  1.
    10030    2    1    2    0    0  0.00000000000E+00  0.00000000000E+00 -0.12834194179E+03  0.13467656882E+04  0.13406364776E+04 0.  0.
        1    1    3    3  502    0  0.39336018658E+03  0.47074938233E+03  0.20722955293E+03  0.64751934719E+03  0.50400001928E-02 0. -1.
       -1    1    3    3    0  502 -0.39336018658E+03 -0.47074938233E+03 -0.33557149472E+03  0.69924634103E+03  0.50400001928E-02 0.  1.
</event>
<event>
 5   0  0.7601145E-04  0.1590651E+04  0.7818609E-02  0.8826312E-01
        1   -1    0    0  501    0  0.00000000000E+00  0.00000000000E+00  0.13168666767E+04  0.13168666767E+04  0.50400001928E-02 0.  1.
       -1   -1    0    0    0  501  0.00000000000E+00  0.00000000000E+00 -0.48033947229E+03  0.48033947232E+03  0.50400001928E-02 0. -1.
    10030    2    1    2    0    0  0.00000000000E+00  0.00000000000E+00  0.83652720441E+03  0.17972061490E+04  0.15906514950E+04 0.  0.
        4    1    3    3  502    0 -0.42643861703E+03  0.35722337441E+03 -0.22395060695E+03  0.59967818084E+03  0.12699999809E+01 0. -1.
       -4    1    3    3    0  502  0.42643861703E+03 -0.35722337441E+03  0.10604778114E+04  0.11975279682E+04  0.12699999809E+01 0.  1.
</event>
<event>
 5   0  0.1375777E-03  0.1594982E+04  0.7818609E-02  0.8823637E-01
       -2   -1    0    0    0  501  0.00000000000E+00  0.00000000000E+00  0.34326089869E+03  0.34326089870E+03  0.25500000920E-02 0.  1.
        2   -1    0    0  501    0  0.00000000000E+00  0.00000000000E+00 -0.18527945164E+04  0.18527945164E+04  0.25500000920E-02 0. -1.
    10030    2    1    2    0    0  0.00000000000E+00  0.00000000000E+00 -0.15095336177E+04  0.21960554151E+04  0.15949820197E+04 0.  0.
        1    1    3    3  502    0  0.49229964712E+03  0.22247195566E+03 -0.15624751612E+04  0.16532336021E+04  0.50400001928E-02 0. -1.
       -1    1    3    3    0  502 -0.49229964712E+03 -0.22247195566E+03  0.52941543532E+02  0.54282181300E+03  0.50400001928E-02 0.  1.
</event>
<event>
 5   0  0.7124495E-04  0.1629343E+04  0.7818609E-02  0.8802722E-01
        1   -1    0    0  501    0  0.00000000000E+00  0.00000000000E+00  0.11636315146E+04  0.11636315146E+04  0.50400001928E-02 0.  1.
       -1   -1    0    0    0  501  0.00000000000E+00  0.00000000000E+00 -0.57036043375E+03  0.57036043377E+03  0.50400001928E-02 0. -1.
    10030    2    1    2    0    0  0.00000000000E+00  0.00000000000E+00  0.59327108087E+03  0.17339919484E+04  0.16293426594E+04 0.  0.
        2    1    3    3  502    0 -0.70651343513E+03 -0.39378116391E+03  0.40016985674E+03  0.90241938882E+03  0.25500000920E-02 0.  1.
       -2    1    3    3    0  502  0.70651343513E+03  0.39378116391E+03  0.19310122413E+03  0.83157255957E+03  0.25500000920E-02 0. -1.
</event>
<event>
 5   0  0.1414796E-03  0.1625612E+04  0.7818609E-02  0.8804966E-01
       -2   -1    0    0    0  501  0.00000000000E+00  0.00000000000E+00  0.11529109345E+04  0.11529109345E+04  0.25500000920E-02 0.  1.
        2   -1    0    0  501    0  0.00000000000E+00  0.00000000000E+00 -0.57303078589E+03  0.57303078590E+03  0.25500000920E-02 0. -1.
    10030    2    1    2    0    0  0.00000000000E+00  0.00000000000E+00  0.57988014860E+03  0.17259417204E+04  0.16256118342E+04 0.  0.
        4    1    3    3  502    0  0.62055468549E+03  0.38027751366E+03 -0.94268073907E+02  0.73388499626E+03  0.12699999809E+01 0. -1.
       -4    1    3    3    0  502 -0.62055468549E+03 -0.38027751366E+03  0.67414822250E+03  0.99205672413E+03  0.12699999809E+01 0.  1.
</event>
<event>
 5   0  0.1354766E-03  0.1583889E+04  0.7818609E-02  0.8830507E-01
        2   -1    0    0  501    0  0.00000000000E+00  0.00000000000E+00  0.48877491581E+03  0.48877491582E+03  0.25500000920E-02 0.  1.
       -2   -1    0    0    0  501  0.00000000000E+00  0.00000000000E+00 -0.12831596297E+04  0.12831596297E+04  0.25500000920E-02 0. -1.
    10030    2    1    2    0    0  0.00000000000E+00  0.00000000000E+00 -0.79438471389E+03  0.17719345455E+04  0.15838891880E+04 0.  0.
        3    1    3    3  502    0 -0.39761783233E+03 -0.67434569465E+03 -0.53113202134E+03  0.94601442419E+03  0.10100000352E+00 0. -1.
       -3    1    3    3    0  502  0.39761783233E+03  0.67434569465E+03 -0.26325269254E+03  0.82592012132E+03  0.10100000352E+00 0.  1.
</event>
<event>
 5   0  0.7124495E-04  0.1553155E+04  0.7818609E-02  0.8849855E-01
        1   -1    0    0  501    0  0.00000000000E+00  0.00000000000E+00  0.18757883601E+04  0.18757883601E+04  0.50400001928E-02 0.  1.
       -1   -1    0    0    0  501  0.00000000000E+00  0.00000000000E+00 -0.32150339954E+03  0.32150339958E+03  0.50400001928E-02 0. -1.
    10030    2    1    2    0    0  0.00000000000E+00  0.00000000000E+00  0.15542849605E+04  0.21972917597E+04  0.15531546409E+04 0.  0.
        2    1    3    3  502    0 -0.11901887506E+03  0.68499515344E+03  0.12665821960E+04  0.14448578864E+04  0.25500000920E-02 0.  1.
       -2    1    3    3    0  502  0.11901887506E+03 -0.68499515344E+03  0.28770276459E+03  0.75243387325E+03  0.25500000920E-02 0. -1.
</event>
<event>
 5   0  0.7601145E-04  0.1603794E+04  0.7818609E-02  0.8818221E-01
        1   -1    0    0  501    0  0.00000000000E+00  0.00000000000E+00  0.58962601552E+03  0.58962601554E+03  0.50400001928E-02 0. -1.
       -1   -1    0    0    0  501  0.00000000000E+00  0.00000000000E+00 -0.10905870460E+04  0.10905870460E+04  0.50400001928E-02 0.  1.
    10030    2    1    2    0    0  0.00000000000E+00  0.00000000000E+00 -0.50096103045E+03  0.16802130615E+04  0.16037936208E+04 0.  0.
        4    1    3    3  502    0  0.51952331859E+03 -0.60356935309E+03 -0.15199904613E+03  0.81074395802E+03  0.12699999809E+01 0.  1.
       -4    1    3    3    0  502 -0.51952331859E+03  0.60356935309E+03 -0.34896198432E+03  0.86946910350E+03  0.12699999809E+01 0. -1.
</event>
<event>
 5   0  0.7499834E-04  0.1633883E+04  0.7818609E-02  0.8799998E-01
        1   -1    0    0  501    0  0.00000000000E+00  0.00000000000E+00  0.93406230584E+03  0.93406230586E+03  0.50400001928E-02 0. -1.
       -1   -1    0    0    0  501  0.00000000000E+00  0.00000000000E+00 -0.71450669835E+03  0.71450669837E+03  0.50400001928E-02 0.  1.
    10030    2    1    2    0    0  0.00000000000E+00  0.00000000000E+00  0.21955560749E+03  0.16485690042E+04  0.16338834404E+04 0.  0.
        3    1    3    3  502    0  0.55107484006E+03 -0.21397552002E+03 -0.45913831175E+03  0.74851653424E+03  0.10100000352E+00 0.  1.
       -3    1    3    3    0  502 -0.55107484006E+03  0.21397552002E+03  0.67869391924E+03  0.90005246999E+03  0.10100000352E+00 0. -1.
</event>
<event>
 5   0  0.7499834E-04  0.1601959E+04  0.7818609E-02  0.8819345E-01
        1   -1    0    0  501    0  0.00000000000E+00  0.00000000000E+00  0.91275981198E+03  0.91275981199E+03  0.50400001928E-02 0. -1.
       -1   -1    0    0    0  501  0.00000000000E+00  0.00000000000E+00 -0.70288820884E+03  0.70288820885E+03  0.50400001928E-02 0.  1.
    10030    2    1    2    0    0  0.00000000000E+00  0.00000000000E+00  0.20987160314E+03  0.16156480208E+04  0.16019589375E+04 0.  0.
        3    1    3    3  502    0  0.68134438337E+03 -0.23153224067E+03  0.45969543649E+03  0.85390705101E+03  0.10100000352E+00 0. -1.
       -3    1    3    3    0  502 -0.68134438337E+03  0.23153224067E+03 -0.24982383335E+03  0.76174096984E+03  0.10100000352E+00 0.  1.
</event>
<event>
 5   0  0.1354766E-03  0.1526210E+04  0.7818609E-02  0.8867208E-01
        2   -1    0    0  501    0  0.00000000000E+00  0.00000000000E+00  0.94288694445E+03  0.94288694445E+03  0.25500000920E-02 0.  1.
       -2   -1    0    0    0  501  0.00000000000E+00  0.00000000000E+00 -0.61760258040E+03  0.61760258040E+03  0.25500000920E-02 0. -1.
    10030    2    1    2    0    0  0.00000000000E+00  0.00000000000E+00  0.32528436405E+03  0.15604895249E+04  0.15262102213E+04 0.  0.
        3    1    3    3  502    0 -0.25003685781E+03 -0.17283588525E+03 -0.55303535183E+03  0.63106163254E+03  0.10100000352E+00 0. -1.
       -3    1    3    3    0  502  0.25003685781E+03  0.17283588525E+03  0.87831971588E+03  0.92942789231E+03  0.10100000352E+00 0.  1.
</event>
<event>
 5   0  0.1339162E-03  0.1595834E+04  0.7818609E-02  0.8823112E-01
       -2   -1    0    0    0  501  0.00000000000E+00  0.00000000000E+00  0.35376375930E+03  0.35376375931E+03  0.25500000920E-02 0. -1.
        2   -1    0    0  501    0  0.00000000000E+00  0.00000000000E+00 -0.17997073792E+04  0.17997073792E+04  0.25500000920E-02 0.  1.
    10030    2    1    2    0    0  0.00000000000E+00  0.00000000000E+00 -0.14459436199E+04  0.21534711385E+04  0.15958336356E+04 0.  0.
        5    1    3    3  502    0 -0.68223001339E+03 -0.32628341135E+03 -0.37959337852E+03  0.84617485114E+03  0.46999998093E+01 0.  1.
       -5    1    3    3    0  502  0.68223001339E+03  0.32628341135E+03 -0.10663502414E+04  0.13072962874E+04  0.46999998093E+01 0. -1.
</event>
<event>
 5   0  0.1414751E-03  0.1595678E+04  0.7818609E-02  0.8823208E-01
       -2   -1    0    0    0  501  0.00000000000E+00  0.00000000000E+00  0.10286601954E+04  0.10286601954E+04  0.25500000920E-02 0. -1.
        2   -1    0    0  501    0  0.00000000000E+00  0.00000000000E+00 -0.61881184314E+03  0.61881184314E+03  0.25500000920E-02 0.  1.
    10030    2    1    2    0    0  0.00000000000E+00  0.00000000000E+00  0.40984835229E+03  0.16474720386E+04  0.15956780521E+04 0.  0.
        2    1    3    3  502    0  0.46694243048E+03 -0.64585772656E+03  0.16657454404E+03  0.81419562457E+03  0.25500000920E-02 0. -1.
       -2    1    3    3    0  502 -0.46694243048E+03  0.64585772656E+03  0.24327380825E+03  0.83327641400E+03  0.25500000920E-02 0.  1.
</event>
<event>
 5   0  0.7633213E-04  0.1599134E+04  0.7818609E-02  0.8821080E-01
        1   -1    0    0  501    0  0.00000000000E+00  0.00000000000E+00  0.13918049544E+04  0.13918049544E+04  0.50400001928E-02 0.  1.
       -1   -1    0    0    0  501  0.00000000000E+00  0.00000000000E+00 -0.45933686273E+03  0.45933686276E+03  0.50400001928E-02 0. -1.
    10030    2    1    2    0    0  0.00000000000E+00  0.00000000000E+00  0.93246809169E+03  0.18511418172E+04  0.15991339173E+04 0.  0.
        1    1    3    3  502    0 -0.79262301019E+03  0.93603309854E+02  0.41078432053E+03  0.89763944539E+03  0.50400001928E-02 0.  1.
       -1    1    3    3    0  502  0.79262301019E+03 -0.93603309854E+02  0.52168377115E+03  0.95350237179E+03  0.50400001928E-02 0. -1.
</event>
<event>
 5   0  0.1414751E-03  0.1564921E+04  0.7818609E-02  0.8842393E-01
       -2   -1    0    0    0  501  0.00000000000E+00  0.00000000000E+00  0.74020742140E+03  0.74020742141E+03  0.25500000920E-02 0.  1.
        2   -1    0    0  501    0  0.00000000000E+00  0.00000000000E+00 -0.82712500303E+03  0.82712500304E+03  0.25500000920E-02 0. -1.
    10030    2    1    2    0    0  0.00000000000E+00  0.00000000000E+00 -0.86917581630E+02  0.15673324244E+04  0.15649205292E+04 0.  0.
        2    1    3    3  502    0 -0.44854069170E+03  0.43540634040E+03 -0.51479715039E+03  0.80980463041E+03  0.25500000920E-02 0. -1.
       -2    1    3    3    0  502  0.44854069170E+03 -0.43540634040E+03  0.42787956876E+03  0.75752779404E+03  0.25500000920E-02 0.  1.
</event>
<event>
 5   0  0.7633213E-04  0.1627799E+04  0.7818609E-02  0.8803650E-01
       -1   -1    0    0    0  501  0.00000000000E+00  0.00000000000E+00  0.17551948210E+04  0.17551948210E+04  0.50400001928E-02 0. -1.
        1   -1    0    0  501    0  0.00000000000E+00  0.00000000000E+00 -0.37741252770E+03  0.37741252773E+03  0.50400001928E-02 0.  1.
    10030    2    1    2    0    0  0.00000000000E+00  0.00000000000E+00  0.13777822933E+04  0.21326073487E+04  0.16277991449E+04 0.  0.
        1    1    3    3  502    0 -0.46160426603E+03  0.47905129053E+03  0.74581937399E+02  0.66942595019E+03  0.50400001928E-02 0.  1.
       -1    1    3    3    0  502  0.46160426603E+03 -0.47905129053E+03  0.13032003559E+04  0.14631813985E+04  0.50400001928E-02 0. -1.
</event>
<event>
 5   0  0.7302027E-04  0.1551629E+04  0.7818609E-02  0.8850828E-01
        1   -1    0    0  501    0  0.00000000000E+00  0.00000000000E+00  0.68814849866E+03  0.68814849868E+03  0.50400001928E-02 0. -1.
       -1   -1    0    0    0  501  0.00000000000E+00  0.00000000000E+00 -0.87464875365E+03  0.87464875367E+03  0.50400001928E-02 0.  1.
    10030    2    1    2    0    0  0.00000000000E+00  0.00000000000E+00 -0.18650025499E+03  0.15627972523E+04  0.15516291138E+04 0.  0.
        5    1    3    3  502    0 -0.33991827394E+03  0.52328769911E+03 -0.55753623856E+03  0.83680535150E+03  0.46999998093E+01 0.  1.
       -5    1    3    3    0  502  0.33991827394E+03 -0.52328769911E+03  0.37103598357E+03  0.72599190085E+03  0.46999998093E+01 0. -1.
</event>
<event>
 5   0  0.1414796E-03  0.1389658E+04  0.7818609E-02  0.8961339E-01
        2   -1    0    0  501    0  0.00000000000E+00  0.00000000000E+00  0.96230646656E+03  0.96230646657E+03  0.25500000920E-02 0. -1.
       -2   -1    0    0    0  501  0.00000000000E+00  0.00000000000E+00 -0.50169788198E+03  0.50169788199E+03  0.25500000920E-02 0.  1.
    10030    2    1    2    0    0  0.00000000000E+00  0.00000000000E+00  0.46060858458E+03  0.14640043486E+04  0.13896576789E+04 0.  0.
        4    1    3    3  502    0  0.29978403420E+02  0.61636847415E+03 -0.10611819521E+03  0.62615611860E+03  0.12699999809E+01 0.  1.
       -4    1    3    3    0  502 -0.29978403420E+02 -0.61636847415E+03  0.56672677979E+03  0.83784822995E+03  0.12699999809E+01 0. -1.
</event>
<event>
 5   0  0.7499834E-04  0.1484761E+04  0.7818609E-02  0.8894650E-01
        1   -1    0    0  501    0  0.00000000000E+00  0.00000000000E+00  0.16211410028E+04  0.16211410028E+04  0.50400001928E-02 0. -1.
       -1   -1    0    0    0  501  0.00000000000E+00  0.00000000000E+00 -0.33996364386E+03  0.33996364390E+03  0.50400001928E-02 0.  1.
    10030    2    1    2    0    0  0.00000000000E+00  0.00000000000E+00  0.12811773589E+04  0.19611046467E+04  0.14847612637E+04 0.  0.
        3    1    3    3  502    0  0.53420952050E+03  0.39976486715E+03  0.10704896740E+04  0.12614039452E+04  0.10100000352E+00 0. -1.
       -3    1    3    3    0  502 -0.53420952050E+03 -0.39976486715E+03  0.21068768495E+03  0.69970070144E+03  0.10100000352E+00 0.  1.
</event>
<event>
 5   0  0.5095750E-04  0.1623059E+04  0.7818609E-02  0.8806506E-01
       -3   -1    0    0    0  501  0.00000000000E+00  0.00000000000E+00  0.37927967338E+03  0.37927968683E+03  0.10100000352E+00 0.  1.
        3   -1    0    0  501    0  0.00000000000E+00  0.00000000000E+00 -0.17363966370E+04  0.17363966400E+04  0.10100000352E+00 0. -1.
    10030    2    1    2    0    0  0.00000000000E+00  0.00000000000E+00 -0.13571169637E+04  0.21156763268E+04  0.16230587995E+04 0.  0.
        3    1    3    3  502    0 -0.23562803029E+03  0.77381717562E+03 -0.76370052250E+03  0.11124531847E+04  0.10100000352E+00 0.  1.
       -3    1    3    3    0  502  0.23562803029E+03 -0.77381717562E+03 -0.59341644116E+03  0.10032231421E+04  0.10100000352E+00 0. -1.
</event>
<event>
 5   0  0.7633213E-04  0.1618892E+04  0.7818609E-02  0.8809025E-01
       -1   -1    0    0    0  501  0.00000000000E+00  0.00000000000E+00  0.57323918477E+03  0.57323918479E+03  0.50400001928E-02 0.  1.
        1   -1    0    0  501    0  0.00000000000E+00  0.00000000000E+00 -0.11429829072E+04  0.11429829073E+04  0.50400001928E-02 0. -1.
    10030    2    1    2    0    0  0.00000000000E+00  0.00000000000E+00 -0.56974372248E+03  0.17162220921E+04  0.16188917073E+04 0.  0.
        1    1    3    3  502    0 -0.19146437909E+03 -0.27251907127E+03  0.49723449500E+03  0.59847088125E+03  0.50400001928E-02 0.  1.
       -1    1    3    3    0  502  0.19146437909E+03  0.27251907127E+03 -0.10669782175E+04  0.11177512108E+04  0.50400001928E-02 0. -1.
</event>
<event>
 5   0  0.7124495E-04  0.1622978E+04  0.7818609E-02  0.8806555E-01
        1   -1    0    0  501    0  0.00000000000E+00  0.00000000000E+00  0.12728641394E+04  0.12728641394E+04  0.50400001928E-02 0.  1.
       -1   -1    0    0    0  501  0.00000000000E+00  0.00000000000E+00 -0.51734853953E+03  0.51734853956E+03  0.50400001928E-02 0. -1.
    10030    2    1    2    0    0  0.00000000000E+00  0.00000000000E+00  0.75551559985E+03  0.17902126790E+04  0.16229780079E+04 0.  0.
        2    1    3    3  502    0 -0.42185184752E+03  0.54518254141E+03 -0.94534041485E+02  0.69578708648E+03  0.25500000920E-02 0. -1.
       -2    1    3    3    0  502  0.42185184752E+03 -0.54518254141E+03  0.85004964134E+03  0.10944255925E+04  0.25500000920E-02 0.  1.
</event>
<event>
 5   0  0.7601145E-04  0.1582593E+04  0.7818609E-02  0.8831314E-01
       -1   -1    0    0    0  501  0.00000000000E+00  0.00000000000E+00  0.38874091899E+03  0.38874091902E+03  0.50400001928E-02 0.  1.
        1   -1    0    0  501    0  0.00000000000E+00  0.00000000000E+00 -0.16107137518E+04  0.16107137518E+04  0.50400001928E-02 0. -1.
    10030    2    1    2    0    0  0.00000000000E+00  0.00000000000E+00 -0.12219728328E+04  0.19994546708E+04  0.15825932442E+04 0.  0.
        4    1    3    3  502    0  0.61084903692E+03 -0.17131694578E+03 -0.12084879533E+04  0.13648922257E+04  0.12699999809E+01 0. -1.
       -4    1    3    3    0  502 -0.61084903692E+03  0.17131694578E+03 -0.13484879534E+02  0.63456244507E+03  0.12699999809E+01 0.  1.
</event>
<event>
 5   0  0.5095750E-04  0.1550475E+04  0.7818609E-02  0.8851565E-01
       -3   -1    0    0    0  501  0.00000000000E+00  0.00000000000E+00  0.15405729996E+04  0.15405730030E+04  0.10100000352E+00 0.  1.
        3   -1    0    0  501    0  0.00000000000E+00  0.00000000000E+00 -0.39010992319E+03  0.39010993627E+03  0.10100000352E+00 0. -1.
    10030    2    1    2    0    0  0.00000000000E+00  0.00000000000E+00  0.11504630765E+04  0.19306829392E+04  0.15504745472E+04 0.  0.
        4    1    3    3  502    0 -0.15753672752E+02 -0.69660072839E+02  0.15364664890E+04  0.15381259990E+04  0.12699999809E+01 0.  1.
       -4    1    3    3    0  502  0.15753672752E+02  0.69660072839E+02 -0.38600341255E+03  0.39255694026E+03  0.12699999809E+01 0. -1.
</event>
<event>
 5   0  0.1375777E-03  0.1628430E+04  0.7818609E-02  0.8803271E-01
       -2   -1    0    0    0  501  0.00000000000E+00  0.00000000000E+00  0.59242313994E+03  0.59242313995E+03  0.25500000920E-02 0.  1.
        2   -1    0    0  501    0  0.00000000000E+00  0.00000000000E+00 -0.11190408737E+04  0.11190408737E+04  0.25500000920E-02 0. -1.
    10030    2    1    2    0    0  0.00000000000E+00  0.00000000000E+00 -0.52661773372E+03  0.17114640136E+04  0.16284295602E+04 0.  0.
        1    1    3    3  502    0  0.16900363859E+03 -0.39422120727E+03  0.46405942388E+03  0.63192067464E+03  0.50400001928E-02 0.  1.
       -1    1    3    3    0  502 -0.16900363859E+03  0.39422120727E+03 -0.99067715760E+03  0.10795433390E+04  0.50400001928E-02 0. -1.
</event>
<event>
 5   0  0.7124495E-04  0.1549904E+04  0.7818609E-02  0.8851929E-01
        1   -1    0    0  501    0  0.00000000000E+00  0.00000000000E+00  0.95916983169E+03  0.95916983171E+03  0.50400001928E-02 0.  1.
       -1   -1    0    0    0  501  0.00000000000E+00  0.00000000000E+00 -0.62611511582E+03  0.62611511584E+03  0.50400001928E-02 0. -1.
    10030    2    1    2    0    0  0.00000000000E+00  0.00000000000E+00  0.33305471587E+03  0.15852849475E+04  0.15499041652E+04 0.  0.
        2    1    3    3  502    0  0.25552292141E+03  0.81532124235E+02  0.91018099030E+03  0.94887769799E+03  0.25500000920E-02 0.  1.
       -2    1    3    3    0  502 -0.25552292141E+03 -0.81532124235E+02 -0.57712627442E+03  0.63640724955E+03  0.25500000920E-02 0. -1.
</event>
<event>
 5   0  0.1354766E-03  0.1147228E+04  0.7818609E-02  0.9160345E-01
        2   -1    0    0  501    0  0.00000000000E+00  0.00000000000E+00  0.81979034507E+03  0.81979034507E+03  0.25500000920E-02 0. -1.
       -2   -1    0    0    0  501  0.00000000000E+00  0.00000000000E+00 -0.40136230433E+03  0.40136230434E+03  0.25500000920E-02 0.  1.
    10030    2    1    2    0    0  0.00000000000E+00  0.00000000000E+00  0.41842804073E+03  0.12211526494E+04  0.11472278622E+04 0.  0.
        3    1    3    3  502    0  0.91350256287E+02 -0.45722264695E+03 -0.14643486947E+03  0.48871320773E+03  0.10100000352E+00 0.  1.
       -3    1    3    3    0  502 -0.91350256287E+02  0.45722264695E+03  0.56486291020E+03  0.73243944169E+03  0.10100000352E+00 0. -1.
</event>
<event>
 5   0  0.7601145E-04  0.1599021E+04  0.7818609E-02  0.8821149E-01
        1   -1    0    0  501    0  0.00000000000E+00  0.00000000000E+00  0.10830251431E+04  0.10830251431E+04  0.50400001928E-02 0. -1.
       -1   -1    0    0    0  501  0.00000000000E+00  0.00000000000E+00 -0.59021470031E+03  0.59021470033E+03  0.50400001928E-02 0.  1.
    10030    2    1    2    0    0  0.00000000000E+00  0.00000000000E+00  0.49281044276E+03  0.16732398434E+04  0.15990214011E+04 0.  0.
        4    1    3    3  502    0  0.56423335910E+03  0.50406128288E+03  0.51681529033E+03  0.91626236289E+03  0.12699999809E+01 0. -1.
       -4    1    3    3    0  502 -0.56423335910E+03 -0.50406128288E+03 -0.24004847569E+02  0.75697748053E+03  0.12699999809E+01 0.  1.
</event>
<event>
 5   0  0.1375777E-03  0.1590335E+04  0.7818609E-02  0.8826508E-01
        2   -1    0    0  501    0  0.00000000000E+00  0.00000000000E+00  0.74495481313E+03  0.74495481313E+03  0.25500000920E-02 0. -1.
       -2   -1    0    0    0  501  0.00000000000E+00  0.00000000000E+00 -0.84876449377E+03  0.84876449377E+03  0.25500000920E-02 0.  1.
    10030    2    1    2    0    0  0.00000000000E+00  0.00000000000E+00 -0.10380968064E+03  0.15937193069E+04  0.15903348010E+04 0.  0.
        1    1    3    3  502    0 -0.44208853983E+03  0.29765741837E+03  0.53947728971E+03  0.75833894922E+03  0.50400001928E-02 0.  1.
       -1    1    3    3    0  502  0.44208853983E+03 -0.29765741837E+03 -0.64328697035E+03  0.83538035769E+03  0.50400001928E-02 0. -1.
</event>
<event>
 5   0  0.7499834E-04  0.1615005E+04  0.7818609E-02  0.8811382E-01
       -1   -1    0    0    0  501  0.00000000000E+00  0.00000000000E+00  0.43838944402E+03  0.43838944405E+03  0.50400001928E-02 0. -1.
        1   -1    0    0  501    0  0.00000000000E+00  0.00000000000E+00 -0.14874000227E+04  0.14874000227E+04  0.50400001928E-02 0.  1.
    10030    2    1    2    0    0  0.00000000000E+00  0.00000000000E+00 -0.10490105787E+04  0.19257894668E+04  0.16150052248E+04 0.  0.
        3    1    3    3  502    0 -0.11865814065E+03 -0.27456718786E+03  0.36989566722E+03  0.47569917997E+03  0.10100000352E+00 0. -1.
       -3    1    3    3    0  502  0.11865814065E+03  0.27456718786E+03 -0.14189062459E+04  0.14500902868E+04  0.10100000352E+00 0.  1.
</event>
<event>
 5   0  0.1414796E-03  0.1582016E+04  0.7818609E-02  0.8831673E-01
       -2   -1    0    0    0  501  0.00000000000E+00  0.00000000000E+00  0.63193479389E+03  0.63193479390E+03  0.25500000920E-02 0.  1.
        2   -1    0    0  501    0  0.00000000000E+00  0.00000000000E+00 -0.99012353600E+03  0.99012353601E+03  0.25500000920E-02 0. -1.
    10030    2    1    2    0    0  0.00000000000E+00  0.00000000000E+00 -0.35818874211E+03  0.16220583299E+04  0.15820158187E+04 0.  0.
        4    1    3    3  502    0  0.21723529729E+03  0.46155783493E+02 -0.95750089783E+03  0.98291968796E+03  0.12699999809E+01 0. -1.
       -4    1    3    3    0  502 -0.21723529729E+03 -0.46155783493E+02  0.59931215572E+03  0.63913864195E+03  0.12699999809E+01 0.  1.
</event>
<event>
 5   0  0.1414796E-03  0.1570917E+04  0.7818609E-02  0.8838617E-01
        2   -1    0    0  501    0  0.00000000000E+00  0.00000000000E+00  0.65903502656E+03  0.65903502657E+03  0.25500000920E-02 0. -1.
       -2   -1    0    0    0  501  0.00000000000E+00  0.00000000000E+00 -0.93613389688E+03  0.93613389689E+03  0.25500000920E-02 0.  1.
    10030    2    1    2    0    0  0.00000000000E+00  0.00000000000E+00 -0.27709887032E+03  0.15951689235E+04  0.15709169648E+04 0.  0.
        4    1    3    3  502    0 -0.62101962560E+03 -0.40769319507E+03 -0.39756438100E+03  0.84257828516E+03  0.12699999809E+01 0.  1.
       -4    1    3    3    0  502  0.62101962560E+03  0.40769319507E+03  0.12046551068E+03  0.75259063829E+03  0.12699999809E+01 0. -1.
</event>
<event>
 5   0  0.1339162E-03  0.1612500E+04  0.7818609E-02  0.8812905E-01
        2   -1    0    0  501    0  0.00000000000E+00  0.00000000000E+00  0.51055948427E+03  0.51055948428E+03  0.25500000920E-02 0.  1.
       -2   -1    0    0    0  501  0.00000000000E+00  0.00000000000E+00 -0.12731898740E+04  0.12731898740E+04  0.25500000920E-02 0. -1.
    10030    2    1    2    0    0  0.00000000000E+00  0.00000000000E+00 -0.76263038971E+03  0.17837493583E+04  0.16125001277E+04 0.  0.
        5    1    3    3  502    0 -0.14574330442E+03  0.28017473710E+03 -0.12019032282E+04  0.12427117341E+04  0.46999998093E+01 0. -1.
       -5    1    3    3    0  502  0.14574330442E+03 -0.28017473710E+03  0.43927283851E+03  0.54103762415E+03  0.46999998093E+01 0.  1.
</event>
<event>
 5   0  0.1414751E-03  0.1614445E+04  0.7818609E-02  0.8811723E-01
       -2   -1    0    0    0  501  0.00000000000E+00  0.00000000000E+00  0.13504869340E+04  0.13504869340E+04  0.25500000920E-02 0. -1.
        2   -1    0    0  501    0  0.00000000000E+00  0.00000000000E+00 -0.48249843808E+03  0.48249843809E+03  0.25500000920E-02 0.  1.
    10030    2    1    2    0    0  0.00000000000E+00  0.00000000000E+00  0.86798849594E+03  0.18329853721E+04  0.16144445934E+04 0.  0.
        2    1    3    3  502    0  0.63309353404E+03 -0.49284307688E+03  0.53494682718E+03  0.96429758332E+03  0.25500000920E-02 0. -1.
       -2    1    3    3    0  502 -0.63309353404E+03  0.49284307688E+03  0.33304166876E+03  0.86868778880E+03  0.25500000920E-02 0.  1.
</event>
<event>
 5   0  0.1354766E-03  0.1577690E+04  0.7818609E-02  0.8834372E-01
        2   -1    0    0  501    0  0.00000000000E+00  0.00000000000E+00  0.39745295897E+03  0.39745295898E+03  0.25500000920E-02 0. -1.
       -2   -1    0    0    0  501  0.00000000000E+00  0.00000000000E+00 -0.15656614154E+04  0.15656614155E+04  0.25500000920E-02 0.  1.
    10030    2    1    2    0    0  0.00000000000E+00  0.00000000000E+00 -0.11682084565E+04  0.19631143744E+04  0.15776904162E+04 0.  0.
        3    1    3    3  502    0  0.61090462413E+03 -0.26412283320E+03 -0.57204721223E+02  0.66801027022E+03  0.10100000352E+00 0. -1.
       -3    1    3    3    0  502 -0.61090462413E+03  0.26412283320E+03 -0.11110037353E+04  0.12951041042E+04  0.10100000352E+00 0.  1.
</event>
<event>
 5   0  0.1354766E-03  0.1628506E+04  0.7818609E-02  0.8803225E-01
        2   -1    0    0  501    0  0.00000000000E+00  0.00000000000E+00  0.25008786001E+04  0.25008786001E+04  0.25500000920E-02 0.  1.
       -2   -1    0    0    0  501  0.00000000000E+00  0.00000000000E+00 -0.26510991312E+03  0.26510991313E+03  0.25500000920E-02 0. -1.
    10030    2    1    2    0    0  0.00000000000E+00  0.00000000000E+00  0.22357686870E+04  0.27659885132E+04  0.16285057057E+04 0.  0.
        3    1    3    3  502    0  0.25050798999E+03 -0.68896123431E+03  0.51597447404E+03  0.89646611954E+03  0.10100000352E+00 0. -1.
       -3    1    3    3    0  502 -0.25050798999E+03  0.68896123431E+03  0.17197942130E+04  0.18695223937E+04  0.10100000352E+00 0.  1.
</event>
<event>
 5   0  0.1414751E-03  0.1589129E+04  0.7818609E-02  0.8827254E-01
        2   -1    0    0  501    0  0.00000000000E+00  0.00000000000E+00  0.61236565456E+03  0.61236565457E+03  0.25500000920E-02 0.  1.
       -2   -1    0    0    0  501  0.00000000000E+00  0.00000000000E+00 -0.10309736359E+04  0.10309736359E+04  0.25500000920E-02 0. -1.
    10030    2    1    2    0    0  0.00000000000E+00  0.00000000000E+00 -0.41860798132E+03  0.16433392905E+04  0.15891291268E+04 0.  0.
        2    1    3    3  502    0  0.75715013537E+03  0.19571758284E+03 -0.35463697679E+03  0.85869033128E+03  0.25500000920E-02 0.  1.
       -2    1    3    3    0  502 -0.75715013537E+03 -0.19571758284E+03 -0.63971004529E+02  0.78464895918E+03  0.25500000920E-02 0. -1.
</event>
<event>
 5   0  0.5095750E-04  0.1584454E+04  0.7818609E-02  0.8830156E-01
       -3   -1    0    0    0  501  0.00000000000E+00  0.00000000000E+00  0.16604794737E+04  0.16604794768E+04  0.10100000352E+00 0.  1.
        3   -1    0    0  501    0  0.00000000000E+00  0.00000000000E+00 -0.37797746241E+03  0.37797747591E+03  0.10100000352E+00 0. -1.
    10030    2    1    2    0    0  0.00000000000E+00  0.00000000000E+00  0.12825020113E+04  0.20384569527E+04  0.15844542717E+04 0.  0.
        5    1    3    3  502    0 -0.23886455430E+03  0.33012533241E+03 -0.23280085907E+03  0.46931582158E+03  0.46999998093E+01 0. -1.
       -5    1    3    3    0  502  0.23886455430E+03 -0.33012533241E+03  0.15153028704E+04  0.15691411311E+04  0.46999998093E+01 0.  1.
</event>
<event>
 5   0  0.5095750E-04  0.1650541E+04  0.7818609E-02  0.8790086E-01
       -4   -1    0    0    0  501  0.00000000000E+00  0.00000000000E+00  0.11225010981E+04  0.11225018165E+04  0.12699999809E+01 0. -1.
        4   -1    0    0  501    0  0.00000000000E+00  0.00000000000E+00 -0.60674313114E+03  0.60674446028E+03  0.12699999809E+01 0.  1.
    10030    2    1    2    0    0  0.00000000000E+00  0.00000000000E+00  0.51575796696E+03  0.17292462768E+04  0.16505412462E+04 0.  0.
        4    1    3    3  502    0 -0.14532800306E+03  0.65707663163E+03  0.75836084797E+03  0.10138948254E+04  0.12699999809E+01 0.  1.
       -4    1    3    3    0  502  0.14532800306E+03 -0.65707663163E+03 -0.24260288100E+03  0.71535145144E+03  0.12699999809E+01 0. -1.
</event>
<event>
 5   0  0.1354766E-03  0.1468646E+04  0.7818609E-02  0.8905575E-01
       -2   -1    0    0    0  501  0.00000000000E+00  0.00000000000E+00  0.88163275368E+03  0.88163275368E+03  0.25500000920E-02 0. -1.
        2   -1    0    0  501    0  0.00000000000E+00  0.00000000000E+00 -0.61162709379E+03  0.61162709379E+03  0.25500000920E-02 0.  1.
    10030    2    1    2    0    0  0.00000000000E+00  0.00000000000E+00  0.27000565989E+03  0.14932598475E+04  0.14686462868E+04 0.  0.
        3    1    3    3  502    0 -0.35489701660E+03  0.20118474655E+03 -0.48580621351E+03  0.63437755471E+03  0.10100000352E+00 0.  1.
       -3    1    3    3    0  502  0.35489701660E+03 -0.20118474655E+03  0.75581187341E+03  0.85888229276E+03  0.10100000352E+00 0. -1.
</event>
<event>
 5   0  0.7601145E-04  0.1587852E+04  0.7818609E-02  0.8828046E-01
       -1   -1    0    0    0  501  0.00000000000E+00  0.00000000000E+00  0.17516557164E+04  0.17516557164E+04  0.50400001928E-02 0. -1.
        1   -1    0    0  501    0  0.00000000000E+00  0.00000000000E+00 -0.35984166925E+03  0.35984166929E+03  0.50400001928E-02 0.  1.
    10030    2    1    2    0    0  0.00000000000E+00  0.00000000000E+00  0.13918140471E+04  0.21114973857E+04  0.15878522815E+04 0.  0.
        4    1    3    3  502    0  0.45908494572E+03  0.80781849183E+02 -0.15871192177E+03  0.49241829938E+03  0.12699999809E+01 0.  1.
       -4    1    3    3    0  502 -0.45908494572E+03 -0.80781849183E+02  0.15505259689E+04  0.16190790863E+04  0.12699999809E+01 0. -1.
</event>
<event>
 5   0  0.1375777E-03  0.1543667E+04  0.7818609E-02  0.8855923E-01
        2   -1    0    0  501    0  0.00000000000E+00  0.00000000000E+00  0.73958401699E+03  0.73958401700E+03  0.25500000920E-02 0.  1.
       -2   -1    0    0    0  501  0.00000000000E+00  0.00000000000E+00 -0.80548881009E+03  0.80548881009E+03  0.25500000920E-02 0. -1.
    10030    2    1    2    0    0  0.00000000000E+00  0.00000000000E+00 -0.65904793096E+02  0.15450728271E+04  0.15436666088E+04 0.  0.
        1    1    3    3  502    0  0.33830925391E+03 -0.25874269461E+01  0.66141352467E+03  0.74291836476E+03  0.50400001928E-02 0.  1.
       -1    1    3    3    0  502 -0.33830925391E+03  0.25874269461E+01 -0.72731831776E+03  0.80215446233E+03  0.50400001928E-02 0. -1.
</event>
<event>
 5   0  0.1414751E-03  0.1593582E+04  0.7818609E-02  0.8824501E-01
       -2   -1    0    0    0  501  0.00000000000E+00  0.00000000000E+00  0.48672071491E+03  0.48672071492E+03  0.25500000920E-02 0.  1.
        2   -1    0    0  501    0  0.00000000000E+00  0.00000000000E+00 -0.13043943662E+04  0.13043943662E+04  0.25500000920E-02 0. -1.
    10030    2    1    2    0    0  0.00000000000E+00  0.00000000000E+00 -0.81767365132E+03  0.17911150812E+04  0.15935818253E+04 0.  0.
        2    1    3    3  502    0 -0.65932800452E+02  0.17811289485E+03  0.46090753537E+03  0.49850485821E+03  0.25500000920E-02 0.  1.
       -2    1    3    3    0  502  0.65932800452E+02 -0.17811289485E+03 -0.12785811867E+04  0.12926102229E+04  0.25500000920E-02 0. -1.
</event>
<event>
 5   0  0.7124495E-04  0.1392407E+04  0.7818609E-02  0.8959333E-01
       -1   -1    0    0    0  501  0.00000000000E+00  0.00000000000E+00  0.22265925663E+03  0.22265925669E+03  0.50400001928E-02 0.  1.
        1   -1    0    0  501    0  0.00000000000E+00  0.00000000000E+00 -0.21768651768E+04  0.21768651768E+04  0.50400001928E-02 0. -1.
    10030    2    1    2    0    0  0.00000000000E+00  0.00000000000E+00 -0.19542059201E+04  0.23995244335E+04  0.13924068114E+04 0.  0.
        2    1    3    3  502    0 -0.25426460653E+03 -0.62164724472E+03 -0.12930036807E+04  0.14570361373E+04  0.25500000920E-02 0.  1.
       -2    1    3    3    0  502  0.25426460653E+03  0.62164724472E+03 -0.66120223940E+03  0.94248829616E+03  0.25500000920E-02 0. -1.
</event>
<event>
 5   0  0.1339162E-03  0.1590832E+04  0.7818609E-02  0.8826200E-01
        2   -1    0    0  501    0  0.00000000000E+00  0.00000000000E+00  0.58206035878E+03  0.58206035878E+03  0.25500000920E-02 0. -1.
       -2   -1    0    0    0  501  0.00000000000E+00  0.00000000000E+00 -0.10869783459E+04  0.10869783459E+04  0.25500000920E-02 0.  1.
    10030    2    1    2    0    0  0.00000000000E+00  0.00000000000E+00 -0.50491798710E+03  0.16690387047E+04  0.15908324940E+04 0.  0.
        5    1    3    3  502    0  0.28406799369E+03  0.33497914656E+03  0.44328497887E+03  0.62404271982E+03  0.46999998093E+01 0. -1.
       -5    1    3    3    0  502 -0.28406799369E+03 -0.33497914656E+03 -0.94820296597E+03  0.10449959848E+04  0.46999998093E+01 0.  1.
</event>
<event>
 5   0  0.7499834E-04  0.1667011E+04  0.7818609E-02  0.8780406E-01
       -1   -1    0    0    0  501  0.00000000000E+00  0.00000000000E+00  0.11868944548E+04  0.11868944548E+04  0.50400001928E-02 0. -1.
        1   -1    0    0  501    0  0.00000000000E+00  0.00000000000E+00 -0.58533550563E+03  0.58533550565E+03  0.50400001928E-02 0.  1.
    10030    2    1    2    0    0  0.00000000000E+00  0.00000000000E+00  0.60155894917E+03  0.17722299605E+04  0.16670110568E+04 0.  0.
        3    1    3    3  502    0  0.24237061924E+03  0.37070690152E+03  0.10514376112E+04  0.11409155027E+04  0.10100000352E+00 0. -1.
       -3    1    3    3    0  502 -0.24237061924E+03 -0.37070690152E+03 -0.44987866198E+03  0.63131445779E+03  0.10100000352E+00 0.  1.
</event>
<event>
 5   0  0.7499834E-04  0.1059907E+04  0.7818609E-02  0.9245175E-01
       -1   -1    0    0    0  501  0.00000000000E+00  0.00000000000E+00  0.61847320641E+03  0.61847320643E+03  0.50400001928E-02 0.  1.
        1   -1    0    0  501    0  0.00000000000E+00  0.00000000000E+00 -0.45410351431E+03  0.45410351434E+03  0.50400001928E-02 0. -1.
    10030    2    1    2    0    0  0.00000000000E+00  0.00000000000E+00  0.16436969210E+03  0.10725767208E+04  0.10599072725E+04 0.  0.
        3    1    3    3  502    0  0.19535040844E+03 -0.56266865222E+02  0.57744592613E+03  0.61218587864E+03  0.10100000352E+00 0.  1.
       -3    1    3    3    0  502 -0.19535040844E+03  0.56266865222E+02 -0.41307623402E+03  0.46039084213E+03  0.10100000352E+00 0. -1.
</event>
<event>
 5   0  0.7601145E-04  0.1043223E+04  0.7818609E-02  0.9262369E-01
       -1   -1    0    0    0  501  0.00000000000E+00  0.00000000000E+00  0.22417972718E+03  0.22417972723E+03  0.50400001928E-02 0. -1.
        1   -1    0    0  501    0  0.00000000000E+00  0.00000000000E+00 -0.12136617812E+04  0.12136617812E+04  0.50400001928E-02 0.  1.
    10030    2    1    2    0    0  0.00000000000E+00  0.00000000000E+00 -0.98948205406E+03  0.14378415085E+04  0.10432226360E+04 0.  0.
        4    1    3    3  502    0 -0.39198518780E+03  0.64262607134E+02 -0.28782749981E+02  0.39826138368E+03  0.12699999809E+01 0. -1.
       -4    1    3    3    0  502  0.39198518780E+03 -0.64262607134E+02 -0.96069930408E+03  0.10395801248E+04  0.12699999809E+01 0.  1.
</event>
<event>
 5   0  0.1414796E-03  0.1598144E+04  0.7818609E-02  0.8821689E-01
       -2   -1    0    0    0  501  0.00000000000E+00  0.00000000000E+00  0.75555990734E+03  0.75555990735E+03  0.25500000920E-02 0.  1.
        2   -1    0    0  501    0  0.00000000000E+00  0.00000000000E+00 -0.84508966490E+03  0.84508966491E+03  0.25500000920E-02 0. -1.
    10030    2    1    2    0    0  0.00000000000E+00  0.00000000000E+00 -0.89529757560E+02  0.16006495723E+04  0.15981437594E+04 0.  0.
        4    1    3    3  502    0  0.78049075181E+03 -0.16523514918E+03 -0.90066184017E+02  0.80285864172E+03  0.12699999809E+01 0. -1.
       -4    1    3    3    0  502 -0.78049075181E+03  0.16523514918E+03  0.53642645729E+00  0.79779093053E+03  0.12699999809E+01 0.  1.
</event>
<event>
 5   0  0.1414751E-03  0.1644421E+04  0.7818609E-02  0.8793714E-01
       -2   -1    0    0    0  501  0.00000000000E+00  0.00000000000E+00  0.10596380355E+04  0.10596380355E+04  0.25500000920E-02 0.  1.
        2   -1    0    0  501    0  0.00000000000E+00  0.00000000000E+00 -0.63798201737E+03  0.63798201737E+03  0.25500000920E-02 0. -1.
    10030    2    1    2    0    0  0.00000000000E+00  0.00000000000E+00  0.42165601817E+03  0.16976200529E+04  0.16444208848E+04 0.  0.
        2    1    3    3  502    0  0.36489838139E+02 -0.29226848385E+03 -0.58165049828E+03  0.65197367822E+03  0.25500000920E-02 0. -1.
       -2    1    3    3    0  502 -0.36489838139E+02  0.29226848385E+03  0.10033065164E+04  0.10456463747E+04  0.25500000920E-02 0.  1.
</event>
<event>
 5   0  0.1414796E-03  0.1599536E+04  0.7818609E-02  0.8820833E-01
       -2   -1    0    0    0  501  0.00000000000E+00  0.00000000000E+00  0.10703645705E+04  0.10703645705E+04  0.25500000920E-02 0.  1.
        2   -1    0    0  501    0  0.00000000000E+00  0.00000000000E+00 -0.59758008413E+03  0.59758008413E+03  0.25500000920E-02 0. -1.
    10030    2    1    2    0    0  0.00000000000E+00  0.00000000000E+00  0.47278448638E+03  0.16679446546E+04  0.15995356202E+04 0.  0.
        4    1    3    3  502    0 -0.70446285078E+03  0.26548191507E+03  0.51789787034E+03  0.91376603809E+03  0.12699999809E+01 0.  1.
       -4    1    3    3    0  502  0.70446285078E+03 -0.26548191507E+03 -0.45113383962E+02  0.75417861655E+03  0.12699999809E+01 0. -1.
</event>
<event>
 5   0  0.1375777E-03  0.1603558E+04  0.7818609E-02  0.8818365E-01
       -2   -1    0    0    0  501  0.00000000000E+00  0.00000000000E+00  0.49906777849E+03  0.49906777850E+03  0.25500000920E-02 0. -1.
        2   -1    0    0  501    0  0.00000000000E+00  0.00000000000E+00 -0.12881014056E+04  0.12881014056E+04  0.25500000920E-02 0.  1.
    10030    2    1    2    0    0  0.00000000000E+00  0.00000000000E+00 -0.78903362709E+03  0.17871691841E+04  0.16035584267E+04 0.  0.
        1    1    3    3  502    0 -0.12679815099E+03  0.67295807210E+03  0.70244672717E+02  0.68839280354E+03  0.50400001928E-02 0. -1.
       -1    1    3    3    0  502  0.12679815099E+03 -0.67295807210E+03 -0.85927829981E+03  0.10987763805E+04  0.50400001928E-02 0.  1.
</event>
<event>
 5   0  0.1354766E-03  0.1616949E+04  0.7818609E-02  0.8810203E-01
       -2   -1    0    0    0  501  0.00000000000E+00  0.00000000000E+00  0.15343218903E+04  0.15343218903E+04  0.25500000920E-02 0. -1.
        2   -1    0    0  501    0  0.00000000000E+00  0.00000000000E+00 -0.42600636401E+03  0.42600636402E+03  0.25500000920E-02 0.  1.
    10030    2    1    2    0    0  0.00000000000E+00  0.00000000000E+00  0.11083155263E+04  0.19603282543E+04  0.16169488424E+04 0.  0.
        3    1    3    3  502    0  0.66656480628E+03 -0.51484277211E+02  0.30038075239E+01  0.66855688227E+03  0.10100000352E+00 0. -1.
       -3    1    3    3    0  502 -0.66656480628E+03  0.51484277211E+02  0.11053117187E+04  0.12917713720E+04  0.10100000352E+00 0.  1.
</event>
<event>
 5   0  0.7633213E-04  0.1584401E+04  0.7818609E-02  0.8830189E-01
        1   -1    0    0  501    0  0.00000000000E+00  0.00000000000E+00  0.10075218697E+04  0.10075218698E+04  0.50400001928E-02 0.  1.
       -1   -1    0    0    0  501  0.00000000000E+00  0.00000000000E+00 -0.62289599900E+03  0.62289599902E+03  0.50400001928E-02 0. -1.
    10030    2    1    2    0    0  0.00000000000E+00  0.00000000000E+00  0.38462587075E+03  0.16304178688E+04  0.15844006332E+04 0.  0.
        1    1    3    3  502    0 -0.25134080504E+03 -0.16064601153E+03 -0.56289735698E+03  0.63705005754E+03  0.50400001928E-02 0. -1.
       -1    1    3    3    0  502  0.25134080504E+03  0.16064601153E+03  0.94752322772E+03  0.99336781123E+03  0.50400001928E-02 0.  1.
</event>
<event>
 5   0  0.1414751E-03  0.1593686E+04  0.7818609E-02  0.8824436E-01
       -2   -1    0    0    0  501  0.00000000000E+00  0.00000000000E+00  0.76390932364E+03  0.76390932364E+03  0.25500000920E-02 0. -1.
        2   -1    0    0  501    0  0.00000000000E+00  0.00000000000E+00 -0.83119652301E+03  0.83119652301E+03  0.25500000920E-02 0.  1.
    10030    2    1    2    0    0  0.00000000000E+00  0.00000000000E+00 -0.67287199371E+02  0.15951058467E+04  0.15936860089E+04 0.  0.
        2    1    3    3  502    0  0.44060919803E+03 -0.65413639496E+03 -0.14744575538E+03  0.80235350026E+03  0.25500000920E-02 0. -1.
       -2    1    3    3    0  502 -0.44060919803E+03  0.65413639496E+03  0.80158556005E+02  0.79275234639E+03  0.25500000920E-02 0.  1.
</event>
<event>
 5   0  0.7124495E-04  0.1612220E+04  0.7818609E-02  0.8813076E-01
       -1   -1    0    0    0  501  0.00000000000E+00  0.00000000000E+00  0.78184673089E+03  0.78184673090E+03  0.50400001928E-02 0. -1.
        1   -1    0    0  501    0  0.00000000000E+00  0.00000000000E+00 -0.83112665673E+03  0.83112665674E+03  0.50400001928E-02 0.  1.
    10030    2    1    2    0    0  0.00000000000E+00  0.00000000000E+00 -0.49279925842E+02  0.16129733876E+04  0.16122204062E+04 0.  0.
        2    1    3    3  502    0 -0.23008934798E+03 -0.14277384768E+03  0.73498283749E+03  0.78327852712E+03  0.25500000920E-02 0. -1.
       -2    1    3    3    0  502  0.23008934798E+03  0.14277384768E+03 -0.78426276333E+03  0.82969486053E+03  0.25500000920E-02 0.  1.
</event>
<event>
 5   0  0.1414796E-03  0.1603068E+04  0.7818609E-02  0.8818666E-01
       -2   -1    0    0    0  501  0.00000000000E+00  0.00000000000E+00  0.38790618496E+03  0.38790618497E+03  0.25500000920E-02 0. -1.
        2   -1    0    0  501    0  0.00000000000E+00  0.00000000000E+00 -0.16562166018E+04  0.16562166018E+04  0.25500000920E-02 0.  1.
    10030    2    1    2    0    0  0.00000000000E+00  0.00000000000E+00 -0.12683104169E+04  0.20441227868E+04  0.16030678881E+04 0.  0.
        4    1    3    3  502    0 -0.22430106543E+03  0.95913980830E+01 -0.16153043390E+04  0.16308318992E+04  0.12699999809E+01 0.  1.
       -4    1    3    3    0  502  0.22430106543E+03 -0.95913980830E+01  0.34699392215E+03  0.41329088761E+03  0.12699999809E+01 0. -1.
</event>
<event>
 5   0  0.1414796E-03  0.1602220E+04  0.7818609E-02  0.8819185E-01
        2   -1    0    0  501    0  0.00000000000E+00  0.00000000000E+00  0.10376400347E+04  0.10376400347E+04  0.25500000920E-02 0.  1.
       -2   -1    0    0    0  501  0.00000000000E+00  0.00000000000E+00 -0.61849721930E+03  0.61849721931E+03  0.25500000920E-02 0. -1.
    10030    2    1    2    0    0  0.00000000000E+00  0.00000000000E+00  0.41914281544E+03  0.16561372541E+04  0.16022203046E+04 0.  0.
        4    1    3    3  502    0  0.15864683185E+03 -0.20429267553E+01 -0.60209368216E+03  0.62264870176E+03  0.12699999809E+01 0. -1.
       -4    1    3    3    0  502 -0.15864683185E+03  0.20429267553E+01  0.10212364976E+04  0.10334885523E+04  0.12699999809E+01 0.  1.
</event>
<event>
 5   0  0.7633213E-04  0.1580063E+04  0.7818609E-02  0.8832891E-01
       -1   -1    0    0    0  501  0.00000000000E+00  0.00000000000E+00  0.11470466051E+04  0.11470466051E+04  0.50400001928E-02 0. -1.
        1   -1    0    0  501    0  0.00000000000E+00  0.00000000000E+00 -0.54413604287E+03  0.54413604289E+03  0.50400001928E-02 0.  1.
    10030    2    1    2    0    0  0.00000000000E+00  0.00000000000E+00  0.60291056218E+03  0.16911826480E+04  0.15800625313E+04 0.  0.
        1    1    3    3  502    0  0.39311014481E+03  0.68460631250E+03  0.33406093714E+03  0.85721531648E+03  0.50400001928E-02 0.  1.
       -1    1    3    3    0  502 -0.39311014481E+03 -0.68460631250E+03  0.26884962505E+03  0.83396733148E+03  0.50400001928E-02 0. -1.
</event>
<event>
 5   0  0.7499834E-04  0.1618362E+04  0.7818609E-02  0.8809346E-01
        1   -1    0    0  501    0  0.00000000000E+00  0.00000000000E+00  0.99514176314E+03  0.99514176316E+03  0.50400001928E-02 0. -1.
       -1   -1    0    0    0  501  0.00000000000E+00  0.00000000000E+00 -0.65797079735E+03  0.65797079737E+03  0.50400001928E-02 0.  1.
    10030    2    1    2    0    0  0.00000000000E+00  0.00000000000E+00  0.33717096580E+03  0.16531125605E+04  0.16183624061E+04 0.  0.
        3    1    3    3  502    0 -0.54715016479E+02 -0.42405669939E+02 -0.65494065511E+03  0.65858882908E+03  0.10100000352E+00 0.  1.
       -3    1    3    3    0  502  0.54715016479E+02  0.42405669939E+02  0.99211162090E+03  0.99452373144E+03  0.10100000352E+00 0. -1.
</event>
<event>
 5   0  0.1354766E-03  0.1616096E+04  0.7818609E-02  0.8810720E-01
        2   -1    0    0  501    0  0.00000000000E+00  0.00000000000E+00  0.11669715066E+04  0.11669715066E+04  0.25500000920E-02 0.  1.
       -2   -1    0    0    0  501  0.00000000000E+00  0.00000000000E+00 -0.55951796721E+03  0.55951796722E+03  0.25500000920E-02 0. -1.
    10030    2    1    2    0    0  0.00000000000E+00  0.00000000000E+00  0.60745353943E+03  0.17264894739E+04  0.16160959442E+04 0.  0.
        3    1    3    3  502    0  0.11338104823E+03 -0.92340779276E+02  0.11527193753E+04  0.11619569915E+04  0.10100000352E+00 0.  1.
       -3    1    3    3    0  502 -0.11338104823E+03  0.92340779276E+02 -0.54526583591E+03  0.56453248235E+03  0.10100000352E+00 0. -1.
</event>
<event>
 5   0  0.7302027E-04  0.1619747E+04  0.7818609E-02  0.8808508E-01
        1   -1    0    0  501    0  0.00000000000E+00  0.00000000000E+00  0.98605864276E+03  0.98605864277E+03  0.50400001928E-02 0. -1.
       -1   -1    0    0    0  501  0.00000000000E+00  0.00000000000E+00 -0.66516816633E+03  0.66516816635E+03  0.50400001928E-02 0.  1.
    10030    2    1    2    0    0  0.00000000000E+00  0.00000000000E+00  0.32089047642E+03  0.16512268091E+04  0.16197466707E+04 0.  0.
        5    1    3    3  502    0 -0.50446081725E+03 -0.49670474596E+03  0.56137811942E+03  0.90352852958E+03  0.46999998093E+01 0.  1.
       -5    1    3    3    0  502  0.50446081725E+03  0.49670474596E+03 -0.24048764299E+03  0.74769827954E+03  0.46999998093E+01 0. -1.
</event>
<event>
 5   0  0.7601145E-04  0.1569257E+04  0.7818609E-02  0.8839660E-01
        1   -1    0    0  501    0  0.00000000000E+00  0.00000000000E+00  0.33899214790E+03  0.33899214794E+03  0.50400001928E-02 0.  1.
       -1   -1    0    0    0  501  0.00000000000E+00  0.00000000000E+00 -0.18160950021E+04  0.18160950021E+04  0.50400001928E-02 0. -1.
    10030    2    1    2    0    0  0.00000000000E+00  0.00000000000E+00 -0.14771028542E+04  0.21550871500E+04  0.15692570797E+04 0.  0.
        4    1    3    3  502    0  0.43926203056E+03  0.37983017802E+03 -0.13915970553E+02  0.58087637476E+03  0.12699999809E+01 0.  1.
       -4    1    3    3    0  502 -0.43926203056E+03 -0.37983017802E+03 -0.14631868836E+04  0.15742107752E+04  0.12699999809E+01 0. -1.
</event>
<event>
 5   0  0.1414796E-03  0.1656559E+04  0.7818609E-02  0.8786535E-01
        2   -1    0    0  501    0  0.00000000000E+00  0.00000000000E+00  0.79876312365E+03  0.79876312365E+03  0.25500000920E-02 0.  1.
       -2   -1    0    0    0  501  0.00000000000E+00  0.00000000000E+00 -0.85888709917E+03  0.85888709917E+03  0.25500000920E-02 0. -1.
    10030    2    1    2    0    0  0.00000000000E+00  0.00000000000E+00 -0.60123975524E+02  0.16576502228E+04  0.16565594975E+04 0.  0.
        4    1    3    3  502    0 -0.41118947028E+02 -0.64767153969E+03 -0.54506243175E+03  0.84750448880E+03  0.12699999809E+01 0. -1.
       -4    1    3    3    0  502  0.41118947028E+02  0.64767153969E+03  0.48493845622E+03  0.81014573402E+03  0.12699999809E+01 0.  1.
</event>
<event>
 5   0  0.1375777E-03  0.1401261E+04  0.7818609E-02  0.8952906E-01
       -2   -1    0    0    0  501  0.00000000000E+00  0.00000000000E+00  0.63884478645E+03  0.63884478646E+03  0.25500000920E-02 0.  1.
        2   -1    0    0  501    0  0.00000000000E+00  0.00000000000E+00 -0.76839222992E+03  0.76839222993E+03  0.25500000920E-02 0. -1.
    10030    2    1    2    0    0  0.00000000000E+00  0.00000000000E+00 -0.12954744347E+03  0.14072370164E+04  0.14012613890E+04 0.  0.
        1    1    3    3  502    0 -0.26860398361E+03 -0.42744305210E+03  0.42312489725E+03  0.65870353081E+03  0.50400001928E-02 0.  1.
       -1    1    3    3    0  502  0.26860398361E+03  0.42744305210E+03 -0.55267234072E+03  0.74853348557E+03  0.50400001928E-02 0. -1.
</event>
<event>
 5   0  0.7124495E-04  0.1538100E+04  0.7818609E-02  0.8859505E-01
        1   -1    0    0  501    0  0.00000000000E+00  0.00000000000E+00  0.73797117338E+03  0.73797117340E+03  0.50400001928E-02 0.  1.
       -1   -1    0    0    0  501  0.00000000000E+00  0.00000000000E+00 -0.80143719830E+03  0.80143719832E+03  0.50400001928E-02 0. -1.
    10030    2    1    2    0    0  0.00000000000E+00  0.00000000000E+00 -0.63466024917E+02  0.15394083717E+04  0.15380995412E+04 0.  0.
        2    1    3    3  502    0 -0.53312224173E+03  0.26653535431E+03  0.45466111384E+03  0.74965135108E+03  0.25500000920E-02 0.  1.
       -2    1    3    3    0  502  0.53312224173E+03 -0.26653535431E+03 -0.51812713876E+03  0.78975702064E+03  0.25500000920E-02 0. -1.
</event>
<event>
 5   0  0.1414751E-03  0.1524267E+04  0.7818609E-02  0.8868474E-01
        2   -1    0    0  501    0  0.00000000000E+00  0.00000000000E+00  0.10809627496E+04  0.10809627496E+04  0.25500000920E-02 0.  1.
       -2   -1    0    0    0  501  0.00000000000E+00  0.00000000000E+00 -0.53734307328E+03  0.53734307329E+03  0.25500000920E-02 0. -1.
    10030    2    1    2    0    0  0.00000000000E+00  0.00000000000E+00  0.54361967632E+03  0.16183058229E+04  0.15242674909E+04 0.  0.
        2    1    3    3  502    0  0.68656837663E+02  0.75887739952E+03  0.25539036477E+03  0.80363729834E+03  0.25500000920E-02 0.  1.
       -2    1    3    3    0  502 -0.68656837663E+02 -0.75887739952E+03  0.28822931154E+03  0.81466852455E+03  0.25500000920E-02 0. -1.
</event>
<event>
 5   0  0.1375777E-03  0.1615271E+04  0.7818609E-02  0.8811221E-01
       -2   -1    0    0    0  501  0.00000000000E+00  0.00000000000E+00  0.54041593419E+03  0.54041593419E+03  0.25500000920E-02 0. -1.
        2   -1    0    0  501    0  0.00000000000E+00  0.00000000000E+00 -0.12069875284E+04  0.12069875284E+04  0.25500000920E-02 0.  1.
    10030    2    1    2    0    0  0.00000000000E+00  0.00000000000E+00 -0.66657159418E+03  0.17474034626E+04  0.16152712375E+04 0.  0.
        1    1    3    3  502    0  0.11725117581E+01  0.32548727411E+03 -0.11328917756E+04  0.11787226628E+04  0.50400001928E-02 0.  1.
       -1    1    3    3    0  502 -0.11725117581E+01 -0.32548727411E+03  0.46632018146E+03  0.56868079979E+03  0.50400001928E-02 0. -1.
</event>
<event>
 5   0  0.1354766E-03  0.1578712E+04  0.7818609E-02  0.8833734E-01
        2   -1    0    0  501    0  0.00000000000E+00  0.00000000000E+00  0.22109788643E+04  0.22109788643E+04  0.25500000920E-02 0.  1.
       -2   -1    0    0    0  501  0.00000000000E+00  0.00000000000E+00 -0.28181310626E+03  0.28181310627E+03  0.25500000920E-02 0. -1.
    10030    2    1    2    0    0  0.00000000000E+00  0.00000000000E+00  0.19291657580E+04  0.24927919706E+04  0.15787119074E+04 0.  0.
        3    1    3    3  502    0  0.44084669931E+03  0.60314820097E+03  0.56217153774E+03  0.93497080845E+03  0.10100000352E+00 0. -1.
       -3    1    3    3    0  502 -0.44084669931E+03 -0.60314820097E+03  0.13669942203E+04  0.15578211621E+04  0.10100000352E+00 0.  1.
</event>
<event>
 5   0  0.1414751E-03  0.1594510E+04  0.7818609E-02  0.8823928E-01
        2   -1    0    0  501    0  0.00000000000E+00  0.00000000000E+00  0.21057472525E+04  0.21057472525E+04  0.25500000920E-02 0.  1.
       -2   -1    0    0    0  501  0.00000000000E+00  0.00000000000E+00 -0.30184782067E+03  0.30184782068E+03  0.25500000920E-02 0. -1.
    10030    2    1    2    0    0  0.00000000000E+00  0.00000000000E+00  0.18038994319E+04  0.24075950732E+04  0.15945096037E+04 0.  0.
        2    1    3    3  502    0  0.34337219528E+03  0.66569587685E+03  0.48965426772E+03  0.89488366107E+03  0.25500000920E-02 0.  1.
       -2    1    3    3    0  502 -0.34337219528E+03 -0.66569587685E+03  0.13142451641E+04  0.15127114121E+04  0.25500000920E-02 0. -1.
</event>
<event>
 5   0  0.7302027E-04  0.1604979E+04  0.7818609E-02  0.8817495E-01
       -1   -1    0    0    0  501  0.00000000000E+00  0.00000000000E+00  0.67904450884E+03  0.67904450886E+03  0.50400001928E-02 0. -1.
        1   -1    0    0  501    0  0.00000000000E+00  0.00000000000E+00 -0.94837611780E+03  0.94837611781E+03  0.50400001928E-02 0.  1.
    10030    2    1    2    0    0  0.00000000000E+00  0.00000000000E+00 -0.26933160895E+03  0.16274206267E+04  0.16049792461E+04 0.  0.
        5    1    3    3  502    0 -0.43468979427E+03 -0.67452604004E+03 -0.13992574385E+03  0.81458081228E+03  0.46999998093E+01 0.  1.
       -5    1    3    3    0  502  0.43468979427E+03  0.67452604004E+03 -0.12940586510E+03  0.81283981439E+03  0.46999998093E+01 0. -1.
</event>
<event>
 5   0  0.1414796E-03  0.1584479E+04  0.7818609E-02  0.8830140E-01
       -2   -1    0    0    0  501  0.00000000000E+00  0.00000000000E+00  0.62980511318E+03  0.62980511318E+03  0.25500000920E-02 0. -1.
        2   -1    0    0  501    0  0.00000000000E+00  0.00000000000E+00 -0.99656762266E+03  0.99656762266E+03  0.25500000920E-02 0.  1.
    10030    2    1    2    0    0  0.00000000000E+00  0.00000000000E+00 -0.36676250948E+03  0.16263727358E+04  0.15844789483E+04 0.  0.
        4    1    3    3  502    0  0.51055580373E+03 -0.80403217416E+02 -0.79968128450E+03  0.95216788214E+03  0.12699999809E+01 0.  1.
       -4    1    3    3    0  502 -0.51055580373E+03  0.80403217416E+02  0.43291877502E+03  0.67420485371E+03  0.12699999809E+01 0. -1.
</event>
<event>
 5   0  0.7499834E-04  0.1637722E+04  0.7818609E-02  0.8797704E-01
       -1   -1    0    0    0  501  0.00000000000E+00  0.00000000000E+00  0.68265721682E+03  0.68265721684E+03  0.50400001928E-02 0.  1.
        1   -1    0    0  501    0  0.00000000000E+00  0.00000000000E+00 -0.98223962352E+03  0.98223962353E+03  0.50400001928E-02 0. -1.
    10030    2    1    2    0    0  0.00000000000E+00  0.00000000000E+00 -0.29958240671E+03  0.16648968404E+04  0.16377215486E+04 0.  0.
        3    1    3    3  502    0  0.35826705576E+03 -0.73027279994E+03 -0.24558489740E+03  0.84968558751E+03  0.10100000352E+00 0.  1.
       -3    1    3    3    0  502 -0.35826705576E+03  0.73027279994E+03 -0.53997509303E+02  0.81521125286E+03  0.10100000352E+00 0. -1.
</event>
<event>
 5   0  0.7499834E-04  0.1575363E+04  0.7818609E-02  0.8835828E-01
        1   -1    0    0  501    0  0.00000000000E+00  0.00000000000E+00  0.29661022170E+03  0.29661022174E+03  0.50400001928E-02 0. -1.
       -1   -1    0    0    0  501  0.00000000000E+00  0.00000000000E+00 -0.20917756957E+04  0.20917756957E+04  0.50400001928E-02 0.  1.
    10030    2    1    2    0    0  0.00000000000E+00  0.00000000000E+00 -0.17951654740E+04  0.23883859174E+04  0.15753628825E+04 0.  0.
        3    1    3    3  502    0 -0.57648894491E+03  0.50984996144E+03 -0.11519761994E+04  0.13854009026E+04  0.10100000352E+00 0.  1.
       -3    1    3    3    0  502  0.57648894491E+03 -0.50984996144E+03 -0.64318927459E+03  0.10029850148E+04  0.10100000352E+00 0. -1.
</event>
<event>
 5   0  0.1354766E-03  0.1565728E+04  0.7818609E-02  0.8841884E-01
        2   -1    0    0  501    0  0.00000000000E+00  0.00000000000E+00  0.14099135583E+04  0.14099135583E+04  0.25500000920E-02 0.  1.
       -2   -1    0    0    0  501  0.00000000000E+00  0.00000000000E+00 -0.43469066587E+03  0.43469066587E+03  0.25500000920E-02 0. -1.
    10030    2    1    2    0    0  0.00000000000E+00  0.00000000000E+00  0.97522289241E+03  0.18446042242E+04  0.15657282823E+04 0.  0.
        3    1    3    3  502    0 -0.59973703649E+03  0.19776999726E+03  0.10327082070E+04  0.12104890482E+04  0.10100000352E+00 0.  1.
       -3    1    3    3    0  502  0.59973703649E+03 -0.19776999726E+03 -0.57485314632E+02  0.63411517594E+03  0.10100000352E+00 0. -1.
</event>
<event>
 5   0  0.5095750E-04  0.1636119E+04  0.7818609E-02  0.8798661E-01
        3   -1    0    0  501    0  0.00000000000E+00  0.00000000000E+00  0.77439100009E+03  0.77439100667E+03  0.10100000352E+00 0.  1.
       -3   -1    0    0    0  501  0.00000000000E+00  0.00000000000E+00 -0.86419039098E+03  0.86419039688E+03  0.10100000352E+00 0. -1.
    10030    2    1    2    0    0  0.00000000000E+00  0.00000000000E+00 -0.89799390889E+02  0.16385814036E+04  0.16361189093E+04 0.  0.
        3    1    3    3  502    0 -0.17483635216E+03  0.63781567647E+03  0.43732752275E+03  0.79286314049E+03  0.10100000352E+00 0.  1.
       -3    1    3    3    0  502  0.17483635216E+03 -0.63781567647E+03 -0.52712691364E+03  0.84571826306E+03  0.10100000352E+00 0. -1.
</event>
<event>
 5   0  0.7499834E-04  0.1607438E+04  0.7818609E-02  0.8815991E-01
       -1   -1    0    0    0  501  0.00000000000E+00  0.00000000000E+00  0.38182060277E+03  0.38182060281E+03  0.50400001928E-02 0.  1.
        1   -1    0    0  501    0  0.00000000000E+00  0.00000000000E+00 -0.16918007653E+04  0.16918007653E+04  0.50400001928E-02 0. -1.
    10030    2    1    2    0    0  0.00000000000E+00  0.00000000000E+00 -0.13099801625E+04  0.20736213681E+04  0.16074381954E+04 0.  0.
        3    1    3    3  502    0 -0.26590381798E+03 -0.64064577871E+03 -0.13124901296E+03  0.70594487590E+03  0.10100000352E+00 0.  1.
       -3    1    3    3    0  502  0.26590381798E+03  0.64064577871E+03 -0.11787311495E+04  0.13676764922E+04  0.10100000352E+00 0. -1.
</event>
<event>
 5   0  0.7601145E-04  0.1608157E+04  0.7818609E-02  0.8815553E-01
        1   -1    0    0  501    0  0.00000000000E+00  0.00000000000E+00  0.14186463899E+04  0.14186463899E+04  0.50400001928E-02 0.  1.
       -1   -1    0    0    0  501  0.00000000000E+00  0.00000000000E+00 -0.45574582087E+03  0.45574582090E+03  0.50400001928E-02 0. -1.
    10030    2    1    2    0    0  0.00000000000E+00  0.00000000000E+00  0.96290056904E+03  0.18743922108E+04  0.16081569121E+04 0.  0.
        4    1    3    3  502    0  0.73239901672E+03 -0.18816924663E+03  0.80006347278E+03  0.11008719991E+04  0.12699999809E+01 0. -1.
       -4    1    3    3    0  502 -0.73239901672E+03  0.18816924663E+03  0.16283709626E+03  0.77352021169E+03  0.12699999809E+01 0.  1.
</event>
<event>
 5   0  0.7302027E-04  0.1601645E+04  0.7818609E-02  0.8819538E-01
        1   -1    0    0  501    0  0.00000000000E+00  0.00000000000E+00  0.77630140259E+03  0.77630140260E+03  0.50400001928E-02 0. -1.
       -1   -1    0    0    0  501  0.00000000000E+00  0.00000000000E+00 -0.82611788945E+03  0.82611788946E+03  0.50400001928E-02 0.  1.
    10030    2    1    2    0    0  0.00000000000E+00  0.00000000000E+00 -0.49816486860E+02  0.16024192921E+04  0.16016447500E+04 0.  0.
        5    1    3    3  502    0 -0.32711860082E+03  0.70079912951E+03 -0.23277875413E+03  0.80767198621E+03  0.46999998093E+01 0. -1.
       -5    1    3    3    0  502  0.32711860082E+03 -0.70079912951E+03  0.18296226727E+03  0.79474730586E+03  0.46999998093E+01 0.  1.
</event>
<event>
 5   0  0.7601145E-04  0.1329753E+04  0.7818609E-02  0.9006298E-01
        1   -1    0    0  501    0  0.00000000000E+00  0.00000000000E+00  0.22043187626E+04  0.22043187626E+04  0.50400001928E-02 0.  1.
       -1   -1    0    0    0  501  0.00000000000E+00  0.00000000000E+00 -0.20054317696E+03  0.20054317702E+03  0.50400001928E-02 0. -1.
    10030    2    1    2    0    0  0.00000000000E+00  0.00000000000E+00  0.20037755856E+04  0.24048619396E+04  0.13297534926E+04 0.  0.
        4    1    3    3  502    0 -0.61153625086E+03  0.25494582054E+03  0.90143014508E+03  0.11187277939E+04  0.12699999809E+01 0.  1.
       -4    1    3    3    0  502  0.61153625086E+03 -0.25494582054E+03  0.11023454405E+04  0.12861341457E+04  0.12699999809E+01 0. -1.
</event>
<event>
 5   0  0.1354766E-03  0.1644138E+04  0.7818609E-02  0.8793882E-01
       -2   -1    0    0    0  501  0.00000000000E+00  0.00000000000E+00  0.76088983862E+03  0.76088983862E+03  0.25500000920E-02 0.  1.
        2   -1    0    0  501    0  0.00000000000E+00  0.00000000000E+00 -0.88816673369E+03  0.88816673369E+03  0.25500000920E-02 0. -1.
    10030    2    1    2    0    0  0.00000000000E+00  0.00000000000E+00 -0.12727689507E+03  0.16490565723E+04  0.16441375157E+04 0.  0.
        3    1    3    3  502    0  0.68517490493E+03 -0.33866905455E+03 -0.36725794463E+03  0.84796213768E+03  0.10100000352E+00 0. -1.
       -3    1    3    3    0  502 -0.68517490493E+03  0.33866905455E+03  0.23998104956E+03  0.80109443463E+03  0.10100000352E+00 0.  1.
</event>
<event>
 5   0  0.7633213E-04  0.1584755E+04  0.7818609E-02  0.8829968E-01
        1   -1    0    0  501    0  0.00000000000E+00  0.00000000000E+00  0.14102147044E+04  0.14102147044E+04  0.50400001928E-02 0.  1.
       -1   -1    0    0    0  501  0.00000000000E+00  0.00000000000E+00 -0.44522471695E+03  0.44522471698E+03  0.50400001928E-02 0. -1.
    10030    2    1    2    0    0  0.00000000000E+00  0.00000000000E+00  0.96498998745E+03  0.18554394214E+04  0.15847554293E+04 0.  0.
        1    1    3    3  502    0  0.59292344364E+03  0.23373247146E+03 -0.68745721578E+02  0.64102656146E+03  0.50400001928E-02 0. -1.
       -1    1    3    3    0  502 -0.59292344364E+03 -0.23373247146E+03  0.10337357090E+04  0.12144128599E+04  0.50400001928E-02 0.  1.
</event>
<event>
 5   0  0.1354766E-03  0.1622745E+04  0.7818609E-02  0.8806696E-01
       -2   -1    0    0    0  501  0.00000000000E+00  0.00000000000E+00  0.54630869773E+03  0.54630869773E+03  0.25500000920E-02 0.  1.
        2   -1    0    0  501    0  0.00000000000E+00  0.00000000000E+00 -0.12050425841E+04  0.12050425841E+04  0.25500000920E-02 0. -1.
    10030    2    1    2    0    0  0.00000000000E+00  0.00000000000E+00 -0.65873388637E+03  0.17513512818E+04  0.16227448904E+04 0.  0.
        3    1    3    3  502    0 -0.26480159583E+03  0.69781394260E+02  0.49492749419E+03  0.56563465492E+03  0.10100000352E+00 0.  1.
       -3    1    3    3    0  502  0.26480159583E+03 -0.69781394260E+02 -0.11536613806E+04  0.11857166269E+04  0.10100000352E+00 0. -1.
</event>
<event>
 5   0  0.1414796E-03  0.1569669E+04  0.7818609E-02  0.8839401E-01
       -2   -1    0    0    0  501  0.00000000000E+00  0.00000000000E+00  0.35271248386E+03  0.35271248387E+03  0.25500000920E-02 0. -1.
        2   -1    0    0  501    0  0.00000000000E+00  0.00000000000E+00 -0.17463665713E+04  0.17463665713E+04  0.25500000920E-02 0.  1.
    10030    2    1    2    0    0  0.00000000000E+00  0.00000000000E+00 -0.13936540875E+04  0.20990790552E+04  0.15696691258E+04 0.  0.
        4    1    3    3  502    0 -0.71022378345E+03  0.27670886355E+03 -0.94692983648E+03  0.12155917678E+04  0.12699999809E+01 0.  1.
       -4    1    3    3    0  502  0.71022378345E+03 -0.27670886355E+03 -0.44672425101E+03  0.88348728745E+03  0.12699999809E+01 0. -1.
</event>
<event>
 5   0  0.7601145E-04  0.1678522E+04  0.7818609E-02  0.8773709E-01
        1   -1    0    0  501    0  0.00000000000E+00  0.00000000000E+00  0.15933977933E+04  0.15933977933E+04  0.50400001928E-02 0.  1.
       -1   -1    0    0    0  501  0.00000000000E+00  0.00000000000E+00 -0.44204870736E+03  0.44204870739E+03  0.50400001928E-02 0. -1.
    10030    2    1    2    0    0  0.00000000000E+00  0.00000000000E+00  0.11513490859E+04  0.20354465007E+04  0.16785224870E+04 0.  0.
        4    1    3    3  502    0 -0.36005225332E+03 -0.69119544633E+03  0.19805966018E+03  0.80412561957E+03  0.12699999809E+01 0. -1.
       -4    1    3    3    0  502  0.36005225332E+03  0.69119544633E+03  0.95328942576E+03  0.12313208811E+04  0.12699999809E+01 0.  1.
</event>
<event>
 5   0  0.7633213E-04  0.1605343E+04  0.7818609E-02  0.8817273E-01
       -1   -1    0    0    0  501  0.00000000000E+00  0.00000000000E+00  0.61246890122E+03  0.61246890124E+03  0.50400001928E-02 0.  1.
        1   -1    0    0  501    0  0.00000000000E+00  0.00000000000E+00 -0.10519411345E+04  0.10519411345E+04  0.50400001928E-02 0. -1.
    10030    2    1    2    0    0  0.00000000000E+00  0.00000000000E+00 -0.43947223327E+03  0.16644100357E+04  0.16053426187E+04 0.  0.
        1    1    3    3  502    0 -0.21118234321E+03 -0.52503361220E+03  0.37043843569E+03  0.67637483002E+03  0.50400001928E-02 0.  1.
       -1    1    3    3    0  502  0.21118234321E+03  0.52503361220E+03 -0.80991066896E+03  0.98803520572E+03  0.50400001928E-02 0. -1.
</event>
<event>
 5   0  0.1414751E-03  0.1592064E+04  0.7818609E-02  0.8825438E-01
        2   -1    0    0  501    0  0.00000000000E+00  0.00000000000E+00  0.92317072667E+03  0.92317072667E+03  0.25500000920E-02 0.  1.
       -2   -1    0    0    0  501  0.00000000000E+00  0.00000000000E+00 -0.68640308369E+03  0.68640308369E+03  0.25500000920E-02 0. -1.
    10030    2    1    2    0    0  0.00000000000E+00  0.00000000000E+00  0.23676764298E+03  0.16095738104E+04  0.15920643625E+04 0.  0.
        2    1    3    3  502    0  0.59480630481E+03 -0.56646941900E+02  0.65015703638E+03  0.88301052554E+03  0.25500000920E-02 0.  1.
       -2    1    3    3    0  502 -0.59480630481E+03  0.56646941900E+02 -0.41338939340E+03  0.72656328482E+03  0.25500000920E-02 0. -1.
</event>
<event>
 5   0  0.1354766E-03  0.1613170E+04  0.7818609E-02  0.8812498E-01
        2   -1    0    0  501    0  0.00000000000E+00  0.00000000000E+00  0.95980250124E+03  0.95980250124E+03  0.25500000920E-02 0. -1.
       -2   -1    0    0    0  501  0.00000000000E+00  0.00000000000E+00 -0.67782658559E+03  0.67782658559E+03  0.25500000920E-02 0.  1.
    10030    2    1    2    0    0  0.00000000000E+00  0.00000000000E+00  0.28197591565E+03  0.16376290868E+04  0.16131703596E+04 0.  0.
        3    1    3    3  502    0  0.17718989891E+03  0.11390631073E+03  0.93138699847E+03  0.95490976486E+03  0.10100000352E+00 0. -1.
       -3    1    3    3    0  502 -0.17718989891E+03 -0.11390631073E+03 -0.64941108282E+03  0.68271932197E+03  0.10100000352E+00 0.  1.
</event>
<event>
 5   0  0.7601145E-04  0.1494898E+04  0.7818609E-02  0.8887853E-01
       -1   -1    0    0    0  501  0.00000000000E+00  0.00000000000E+00  0.12308422662E+04  0.12308422662E+04  0.50400001928E-02 0. -1.
        1   -1    0    0  501    0  0.00000000000E+00  0.00000000000E+00 -0.45390082922E+03  0.45390082925E+03  0.50400001928E-02 0.  1.
    10030    2    1    2    0    0  0.00000000000E+00  0.00000000000E+00  0.77694143702E+03  0.16847430955E+04  0.14948984251E+04 0.  0.
        4    1    3    3  502    0 -0.66715416971E+03  0.17445123370E+03  0.71344964474E+03  0.99223985385E+03  0.12699999809E+01 0.  1.
       -4    1    3    3    0  502  0.66715416971E+03 -0.17445123370E+03  0.63491792281E+02  0.69250324164E+03  0.12699999809E+01 0. -1.
</event>
<event>
 5   0  0.7124495E-04  0.1634726E+04  0.7818609E-02  0.8799494E-01
        1   -1    0    0  501    0  0.00000000000E+00  0.00000000000E+00  0.85971309532E+03  0.85971309533E+03  0.50400001928E-02 0.  1.
       -1   -1    0    0    0  501  0.00000000000E+00  0.00000000000E+00 -0.77709898057E+03  0.77709898059E+03  0.50400001928E-02 0. -1.
    10030    2    1    2    0    0  0.00000000000E+00  0.00000000000E+00  0.82614114743E+02  0.16368120759E+04  0.16347258730E+04 0.  0.
        2    1    3    3  502    0 -0.34037375839E+02 -0.80335146611E+03  0.18829374881E+03  0.82582483427E+03  0.25500000920E-02 0.  1.
       -2    1    3    3    0  502  0.34037375839E+02  0.80335146611E+03 -0.10567963407E+03  0.81098724165E+03  0.25500000920E-02 0. -1.
</event>
<event>
 5   0  0.7633213E-04  0.1670666E+04  0.7818609E-02  0.8778274E-01
       -1   -1    0    0    0  501  0.00000000000E+00  0.00000000000E+00  0.82903755152E+03  0.82903755153E+03  0.50400001928E-02 0. -1.
        1   -1    0    0  501    0  0.00000000000E+00  0.00000000000E+00 -0.84167617194E+03  0.84167617196E+03  0.50400001928E-02 0.  1.
    10030    2    1    2    0    0  0.00000000000E+00  0.00000000000E+00 -0.12638620424E+02  0.16707137235E+04  0.16706659185E+04 0.  0.
        1    1    3    3  502    0  0.50101804651E+03 -0.25863350865E+03  0.61003490438E+03  0.83069426345E+03  0.50400001928E-02 0. -1.
       -1    1    3    3    0  502 -0.50101804651E+03  0.25863350865E+03 -0.62267352481E+03  0.84001946004E+03  0.50400001928E-02 0.  1.
</event>
<event>
 5   0  0.1414751E-03  0.1403837E+04  0.7818609E-02  0.8951046E-01
       -2   -1    0    0    0  501  0.00000000000E+00  0.00000000000E+00  0.33316286216E+03  0.33316286217E+03  0.25500000920E-02 0. -1.
        2   -1    0    0  501    0  0.00000000000E+00  0.00000000000E+00 -0.14788252435E+04  0.14788252435E+04  0.25500000920E-02 0.  1.
    10030    2    1    2    0    0  0.00000000000E+00  0.00000000000E+00 -0.11456623814E+04  0.18119881057E+04  0.14038370999E+04 0.  0.
        2    1    3    3  502    0  0.71564267094E+02 -0.63670396467E+03 -0.20282257777E+03  0.67204938882E+03  0.25500000920E-02 0.  1.
       -2    1    3    3    0  502 -0.71564267094E+02  0.63670396467E+03 -0.94283980359E+03  0.11399387169E+04  0.25500000920E-02 0. -1.
</event>
<event>
 5   0  0.7302027E-04  0.1620233E+04  0.7818609E-02  0.8808214E-01
       -1   -1    0    0    0  501  0.00000000000E+00  0.00000000000E+00  0.70912356069E+03  0.70912356071E+03  0.50400001928E-02 0. -1.
        1   -1    0    0  501    0  0.00000000000E+00  0.00000000000E+00 -0.92549225550E+03  0.92549225551E+03  0.50400001928E-02 0.  1.
    10030    2    1    2    0    0  0.00000000000E+00  0.00000000000E+00 -0.21636869481E+03  0.16346158162E+04  0.16202325310E+04 0.  0.
        5    1    3    3  502    0 -0.37631891770E+03 -0.39172644982E+03 -0.71451937985E+03  0.89756647302E+03  0.46999998093E+01 0.  1.
       -5    1    3    3    0  502  0.37631891770E+03  0.39172644982E+03  0.49815068505E+03  0.73704934320E+03  0.46999998093E+01 0. -1.
</event>
<event>
 5   0  0.7499834E-04  0.1602897E+04  0.7818609E-02  0.8818770E-01
        1   -1    0    0  501    0  0.00000000000E+00  0.00000000000E+00  0.12071476620E+04  0.12071476620E+04  0.50400001928E-02 0. -1.
       -1   -1    0    0    0  501  0.00000000000E+00  0.00000000000E+00 -0.53209717141E+03  0.53209717143E+03  0.50400001928E-02 0.  1.
    10030    2    1    2    0    0  0.00000000000E+00  0.00000000000E+00  0.67505049059E+03  0.17392448334E+04  0.16028971975E+04 0.  0.
        3    1    3    3  502    0  0.21552541469E+03  0.43532895319E+03 -0.35416095156E+03  0.60115928977E+03  0.10100000352E+00 0.  1.
       -3    1    3    3    0  502 -0.21552541469E+03 -0.43532895319E+03  0.10292114422E+04  0.11380855437E+04  0.10100000352E+00 0. -1.
</event>
<event>
 5   0  0.1354766E-03  0.1446741E+04  0.7818609E-02  0.8920663E-01
        2   -1    0    0  501    0  0.00000000000E+00  0.00000000000E+00  0.10253620887E+04  0.10253620887E+04  0.25500000920E-02 0.  1.
       -2   -1    0    0    0  501  0.00000000000E+00  0.00000000000E+00 -0.51032212182E+03  0.51032212183E+03  0.25500000920E-02 0. -1.
    10030    2    1    2    0    0  0.00000000000E+00  0.00000000000E+00  0.51503996685E+03  0.15356842105E+04  0.14467411057E+04 0.  0.
        3    1    3    3  502    0  0.14943273700E+03  0.48188927020E+03 -0.29272881306E+03  0.58329887692E+03  0.10100000352E+00 0. -1.
       -3    1    3    3    0  502 -0.14943273700E+03 -0.48188927020E+03  0.80776877991E+03  0.95238533358E+03  0.10100000352E+00 0.  1.
</event>
<event>
 5   0  0.1354766E-03  0.1587775E+04  0.7818609E-02  0.8828094E-01
        2   -1    0    0  501    0  0.00000000000E+00  0.00000000000E+00  0.97045144994E+03  0.97045144994E+03  0.25500000920E-02 0.  1.
       -2   -1    0    0    0  501  0.00000000000E+00  0.00000000000E+00 -0.64944720280E+03  0.64944720280E+03  0.25500000920E-02 0. -1.
    10030    2    1    2    0    0  0.00000000000E+00  0.00000000000E+00  0.32100424714E+03  0.16198986527E+04  0.15877745175E+04 0.  0.
        3    1    3    3  502    0  0.61523313510E+03 -0.49867612364E+03  0.21700569674E+03  0.82114625338E+03  0.10100000352E+00 0.  1.
       -3    1    3    3    0  502 -0.61523313510E+03  0.49867612364E+03  0.10399855040E+03  0.79875239937E+03  0.10100000352E+00 0. -1.
</event>
<event>
 5   0  0.7633213E-04  0.1568318E+04  0.7818609E-02  0.8840252E-01
        1   -1    0    0  501    0  0.00000000000E+00  0.00000000000E+00  0.15649924052E+04  0.15649924053E+04  0.50400001928E-02 0. -1.
       -1   -1    0    0    0  501  0.00000000000E+00  0.00000000000E+00 -0.39291252697E+03  0.39291252700E+03  0.50400001928E-02 0.  1.
    10030    2    1    2    0    0  0.00000000000E+00  0.00000000000E+00  0.11720798783E+04  0.19579049323E+04  0.15683177238E+04 0.  0.
        1    1    3    3  502    0 -0.49908975489E+03 -0.60397803578E+03  0.62600994459E+03  0.10028801034E+04  0.50400001928E-02 0. -1.
       -1    1    3    3    0  502  0.49908975489E+03  0.60397803578E+03  0.54606993369E+03  0.95502482881E+03  0.50400001928E-02 0.  1.
</event>
<event>
 5   0  0.1375777E-03  0.1765074E+04  0.7818609E-02  0.8725096E-01
        2   -1    0    0  501    0  0.00000000000E+00  0.00000000000E+00  0.11054590529E+04  0.11054590529E+04  0.25500000920E-02 0.  1.
       -2   -1    0    0    0  501  0.00000000000E+00  0.00000000000E+00 -0.70456840445E+03  0.70456840446E+03  0.25500000920E-02 0. -1.
    10030    2    1    2    0    0  0.00000000000E+00  0.00000000000E+00  0.40089064843E+03  0.18100274573E+04  0.17650739600E+04 0.  0.
        1    1    3    3  502    0  0.81588242598E+03  0.96596642847E+02  0.53095247505E+03  0.97821550551E+03  0.50400001928E-02 0.  1.
       -1    1    3    3    0  502 -0.81588242598E+03 -0.96596642847E+02 -0.13006182663E+03  0.83181195183E+03  0.50400001928E-02 0. -1.
</event>
<event>
 5   0  0.7124495E-04  0.1616380E+04  0.7818609E-02  0.8810548E-01
       -1   -1    0    0    0  501  0.00000000000E+00  0.00000000000E+00  0.52650828961E+03  0.52650828964E+03  0.50400001928E-02 0. -1.
        1   -1    0    0  501    0  0.00000000000E+00  0.00000000000E+00 -0.12405709693E+04  0.12405709693E+04  0.50400001928E-02 0.  1.
    10030    2    1    2    0    0  0.00000000000E+00  0.00000000000E+00 -0.71406267969E+03  0.17670792589E+04  0.16163797811E+04 0.  0.
        2    1    3    3  502    0 -0.46883266828E+03  0.40962962531E+03 -0.92041267232E+03  0.11111975469E+04  0.25500000920E-02 0.  1.
       -2    1    3    3    0  502  0.46883266828E+03 -0.40962962531E+03  0.20634999264E+03  0.65588171208E+03  0.25500000920E-02 0. -1.
</event>
<event>
 5   0  0.7633213E-04  0.1624480E+04  0.7818609E-02  0.8805649E-01
        1   -1    0    0  501    0  0.00000000000E+00  0.00000000000E+00  0.12099143681E+04  0.12099143681E+04  0.50400001928E-02 0. -1.
       -1   -1    0    0    0  501  0.00000000000E+00  0.00000000000E+00 -0.54527309331E+03  0.54527309334E+03  0.50400001928E-02 0.  1.
    10030    2    1    2    0    0  0.00000000000E+00  0.00000000000E+00  0.66464127475E+03  0.17551874614E+04  0.16244799170E+04 0.  0.
        1    1    3    3  502    0  0.18840912691E+02 -0.80908641129E+03  0.40684856780E+03  0.90581541060E+03  0.50400001928E-02 0. -1.
       -1    1    3    3    0  502 -0.18840912691E+02  0.80908641129E+03  0.25779270695E+03  0.84937205082E+03  0.50400001928E-02 0.  1.
</event>
<event>
 5   0  0.5095750E-04  0.1497686E+04  0.7818609E-02  0.8885993E-01
        4   -1    0    0  501    0  0.00000000000E+00  0.00000000000E+00  0.98577247400E+03  0.98577329209E+03  0.12699999809E+01 0.  1.
       -4   -1    0    0    0  501  0.00000000000E+00  0.00000000000E+00 -0.56885720989E+03  0.56885862756E+03  0.12699999809E+01 0. -1.
    10030    2    1    2    0    0  0.00000000000E+00  0.00000000000E+00  0.41691526411E+03  0.15546319196E+04  0.14976855705E+04 0.  0.
        1    1    3    3  502    0  0.64361399404E+03  0.23854223301E+03 -0.10229831729E+03  0.69397861350E+03  0.50400001928E-02 0. -1.
       -1    1    3    3    0  502 -0.64361399404E+03 -0.23854223301E+03  0.51921358140E+03  0.86065330615E+03  0.50400001928E-02 0.  1.
</event>
<event>
 5   0  0.1354766E-03  0.1579749E+04  0.7818609E-02  0.8833086E-01
       -2   -1    0    0    0  501  0.00000000000E+00  0.00000000000E+00  0.12367312799E+04  0.12367312799E+04  0.25500000920E-02 0.  1.
        2   -1    0    0  501    0  0.00000000000E+00  0.00000000000E+00 -0.50447660239E+03  0.50447660240E+03  0.25500000920E-02 0. -1.
    10030    2    1    2    0    0  0.00000000000E+00  0.00000000000E+00  0.73225467749E+03  0.17412078823E+04  0.15797493398E+04 0.  0.
        3    1    3    3  502    0 -0.41030314969E+03 -0.39251338591E+03 -0.23906916977E+03  0.61609212858E+03  0.10100000352E+00 0. -1.
       -3    1    3    3    0  502  0.41030314969E+03  0.39251338591E+03  0.97132384726E+03  0.11251157537E+04  0.10100000352E+00 0.  1.
</event>
<event>
 5   0  0.7124495E-04  0.1235300E+04  0.7818609E-02  0.9082507E-01
       -1   -1    0    0    0  501  0.00000000000E+00  0.00000000000E+00  0.32387396812E+03  0.32387396816E+03  0.50400001928E-02 0. -1.
        1   -1    0    0  501    0  0.00000000000E+00  0.00000000000E+00 -0.11779014999E+04  0.11779014999E+04  0.50400001928E-02 0.  1.
    10030    2    1    2    0    0  0.00000000000E+00  0.00000000000E+00 -0.85402753174E+03  0.15017754680E+04  0.12353001787E+04 0.  0.
        2    1    3    3  502    0  0.50517524104E+03  0.30912715958E+03 -0.21389885469E+03  0.62969385021E+03  0.25500000920E-02 0. -1.
       -2    1    3    3    0  502 -0.50517524104E+03 -0.30912715958E+03 -0.64012867705E+03  0.87208161782E+03  0.25500000920E-02 0.  1.
</event>
<event>
 5   0  0.7124495E-04  0.1643066E+04  0.7818609E-02  0.8794519E-01
       -1   -1    0    0    0  501  0.00000000000E+00  0.00000000000E+00  0.45324611197E+03  0.45324611199E+03  0.50400001928E-02 0.  1.
        1   -1    0    0  501    0  0.00000000000E+00  0.00000000000E+00 -0.14890737143E+04  0.14890737143E+04  0.50400001928E-02 0. -1.
    10030    2    1    2    0    0  0.00000000000E+00  0.00000000000E+00 -0.10358276024E+04  0.19423198263E+04  0.16430664886E+04 0.  0.
        2    1    3    3  502    0 -0.42172271034E+03  0.55193045980E+03  0.66268651017E+00  0.69460615894E+03  0.25500000920E-02 0.  1.
       -2    1    3    3    0  502  0.42172271034E+03 -0.55193045980E+03 -0.10364902889E+04  0.12477136674E+04  0.25500000920E-02 0. -1.
</event>
<event>
 5   0  0.1414751E-03  0.1626283E+04  0.7818609E-02  0.8804562E-01
        2   -1    0    0  501    0  0.00000000000E+00  0.00000000000E+00  0.17572427406E+04  0.17572427406E+04  0.25500000920E-02 0. -1.
       -2   -1    0    0    0  501  0.00000000000E+00  0.00000000000E+00 -0.37627063581E+03  0.37627063582E+03  0.25500000920E-02 0.  1.
    10030    2    1    2    0    0  0.00000000000E+00  0.00000000000E+00  0.13809721048E+04  0.21335133764E+04  0.16262826855E+04 0.  0.
        2    1    3    3  502    0  0.18185745953E+03 -0.34693644014E+03 -0.24433686431E+03  0.46166820592E+03  0.25500000920E-02 0.  1.
       -2    1    3    3    0  502 -0.18185745953E+03  0.34693644014E+03  0.16253089691E+04  0.16718451705E+04  0.25500000920E-02 0. -1.
</event>
<event>
 5   0  0.7499834E-04  0.1071240E+04  0.7818609E-02  0.9233686E-01
        1   -1    0    0  501    0  0.00000000000E+00  0.00000000000E+00  0.10205938132E+04  0.10205938132E+04  0.50400001928E-02 0. -1.
       -1   -1    0    0    0  501  0.00000000000E+00  0.00000000000E+00 -0.28109966511E+03  0.28109966516E+03  0.50400001928E-02 0.  1.
    10030    2    1    2    0    0  0.00000000000E+00  0.00000000000E+00  0.73949414805E+03  0.13016934783E+04  0.10712396168E+04 0.  0.
        3    1    3    3  502    0 -0.15133533540E+03  0.97282501107E+02 -0.24328757707E+03  0.30258077288E+03  0.10100000352E+00 0.  1.
       -3    1    3    3    0  502  0.15133533540E+03 -0.97282501107E+02  0.98278172512E+03  0.99911270545E+03  0.10100000352E+00 0. -1.
</event>
<event>
 5   0  0.1339162E-03  0.1638597E+04  0.7818609E-02  0.8797181E-01
       -2   -1    0    0    0  501  0.00000000000E+00  0.00000000000E+00  0.68934847466E+03  0.68934847466E+03  0.25500000920E-02 0. -1.
        2   -1    0    0  501    0  0.00000000000E+00  0.00000000000E+00 -0.97374600895E+03  0.97374600896E+03  0.25500000920E-02 0.  1.
    10030    2    1    2    0    0  0.00000000000E+00  0.00000000000E+00 -0.28439753429E+03  0.16630944836E+04  0.16385973587E+04 0.  0.
        5    1    3    3  502    0  0.68515025073E+03 -0.27642287654E+03 -0.50159394868E+03  0.89300562825E+03  0.46999998093E+01 0.  1.
       -5    1    3    3    0  502 -0.68515025073E+03  0.27642287654E+03  0.21719641438E+03  0.77008885537E+03  0.46999998093E+01 0. -1.
</event>
<event>
 5   0  0.7499834E-04  0.1586635E+04  0.7818609E-02  0.8828801E-01
        1   -1    0    0  501    0  0.00000000000E+00  0.00000000000E+00  0.53970028111E+03  0.53970028113E+03  0.50400001928E-02 0. -1.
       -1   -1    0    0    0  501  0.00000000000E+00  0.00000000000E+00 -0.11661148388E+04  0.11661148388E+04  0.50400001928E-02 0.  1.
    10030    2    1    2    0    0  0.00000000000E+00  0.00000000000E+00 -0.62641455769E+03  0.17058151199E+04  0.15866348116E+04 0.  0.
        3    1    3    3  502    0  0.27434340288E+03 -0.59667439607E+02  0.48450207223E+03  0.55997033337E+03  0.10100000352E+00 0. -1.
       -3    1    3    3    0  502 -0.27434340288E+03  0.59667439607E+02 -0.11109166299E+04  0.11458447866E+04  0.10100000352E+00 0.  1.
</event>
<event>
 5   0  0.1414751E-03  0.1608482E+04  0.7818609E-02  0.8815354E-01
       -2   -1    0    0    0  501  0.00000000000E+00  0.00000000000E+00  0.59472895900E+03  0.59472895900E+03  0.25500000920E-02 0. -1.
        2   -1    0    0  501    0  0.00000000000E+00  0.00000000000E+00 -0.10875600814E+04  0.10875600814E+04  0.25500000920E-02 0.  1.
    10030    2    1    2    0    0  0.00000000000E+00  0.00000000000E+00 -0.49283112236E+03  0.16822890404E+04  0.16084818619E+04 0.  0.
        2    1    3    3  502    0  0.60544152656E+03  0.40425971872E+03  0.11105438968E+03  0.73642273168E+03  0.25500000920E-02 0. -1.
       -2    1    3    3    0  502 -0.60544152656E+03 -0.40425971872E+03 -0.60388551204E+03  0.94586630869E+03  0.25500000920E-02 0.  1.
</event>
<event>
 5   0  0.1414751E-03  0.1715991E+04  0.7818609E-02  0.8752296E-01
        2   -1    0    0  501    0  0.00000000000E+00  0.00000000000E+00  0.46758340343E+03  0.46758340344E+03  0.25500000920E-02 0. -1.
       -2   -1    0    0    0  501  0.00000000000E+00  0.00000000000E+00 -0.15743849340E+04  0.15743849340E+04  0.25500000920E-02 0.  1.
    10030    2    1    2    0    0  0.00000000000E+00  0.00000000000E+00 -0.11068015305E+04  0.20419683374E+04  0.17159909857E+04 0.  0.
        2    1    3    3  502    0  0.80725210349E+03 -0.60562655186E+02 -0.89172018842E+03  0.12043623575E+04  0.25500000920E-02 0.  1.
       -2    1    3    3    0  502 -0.80725210349E+03  0.60562655186E+02 -0.21508134211E+03  0.83760597987E+03  0.25500000920E-02 0. -1.
</event>
<event>
 5   0  0.7633213E-04  0.1609738E+04  0.7818609E-02  0.8814588E-01
        1   -1    0    0  501    0  0.00000000000E+00  0.00000000000E+00  0.17509723940E+04  0.17509723940E+04  0.50400001928E-02 0.  1.
       -1   -1    0    0    0  501  0.00000000000E+00  0.00000000000E+00 -0.36997377540E+03  0.36997377544E+03  0.50400001928E-02 0. -1.
    10030    2    1    2    0    0  0.00000000000E+00  0.00000000000E+00  0.13809986186E+04  0.21209461694E+04  0.16097377020E+04 0.  0.
        1    1    3    3  502    0 -0.35434596327E+03  0.80629166252E+02  0.16367253206E+04  0.16765834007E+04  0.50400001928E-02 0.  1.
       -1    1    3    3    0  502  0.35434596327E+03 -0.80629166252E+02 -0.25572670202E+03  0.44436276880E+03  0.50400001928E-02 0. -1.
</event>
<event>
 5   0  0.1354766E-03  0.1549400E+04  0.7818609E-02  0.8852251E-01
        2   -1    0    0  501    0  0.00000000000E+00  0.00000000000E+00  0.88099516115E+03  0.88099516115E+03  0.25500000920E-02 0. -1.
       -2   -1    0    0    0  501  0.00000000000E+00  0.00000000000E+00 -0.68122985679E+03  0.68122985679E+03  0.25500000920E-02 0.  1.
    10030    2    1    2    0    0  0.00000000000E+00  0.00000000000E+00  0.19976530436E+03  0.15622250179E+04  0.15494001516E+04 0.  0.
        3    1    3    3  502    0 -0.17594716208E+03  0.16507476872E+03  0.84215084763E+03  0.87602804948E+03  0.10100000352E+00 0. -1.
       -3    1    3    3    0  502  0.17594716208E+03 -0.16507476872E+03 -0.64238554327E+03  0.68619696846E+03  0.10100000352E+00 0.  1.
</event>
<event>
 5   0  0.1414751E-03  0.1445166E+04  0.7818609E-02  0.8921759E-01
        2   -1    0    0  501    0  0.00000000000E+00  0.00000000000E+00  0.12617806961E+04  0.12617806961E+04  0.25500000920E-02 0.  1.
       -2   -1    0    0    0  501  0.00000000000E+00  0.00000000000E+00 -0.41380119267E+03  0.41380119268E+03  0.25500000920E-02 0. -1.
    10030    2    1    2    0    0  0.00000000000E+00  0.00000000000E+00  0.84797950347E+03  0.16755818888E+04  0.14451662284E+04 0.  0.
        2    1    3    3  502    0 -0.29844332141E+03  0.56524414860E+03  0.33279509741E+02  0.64006006702E+03  0.25500000920E-02 0. -1.
       -2    1    3    3    0  502  0.29844332141E+03 -0.56524414860E+03  0.81469999373E+03  0.10355218218E+04  0.25500000920E-02 0.  1.
</event>
<event>
 5   0  0.7499834E-04  0.1600822E+04  0.7818609E-02  0.8820043E-01
       -1   -1    0    0    0  501  0.00000000000E+00  0.00000000000E+00  0.71563989661E+03  0.71563989662E+03  0.50400001928E-02 0. -1.
        1   -1    0    0  501    0  0.00000000000E+00  0.00000000000E+00 -0.89522421141E+03  0.89522421142E+03  0.50400001928E-02 0.  1.
    10030    2    1    2    0    0  0.00000000000E+00  0.00000000000E+00 -0.17958431480E+03  0.16108641080E+04  0.16008224912E+04 0.  0.
        3    1    3    3  502    0  0.75109266995E+03  0.11290767020E+03  0.16431874166E+03  0.77710295322E+03  0.10100000352E+00 0. -1.
       -3    1    3    3    0  502 -0.75109266995E+03 -0.11290767020E+03 -0.34390305646E+03  0.83376115482E+03  0.10100000352E+00 0.  1.
</event>
<event>
 5   0  0.7499834E-04  0.1103076E+04  0.7818609E-02  0.9202199E-01
       -1   -1    0    0    0  501  0.00000000000E+00  0.00000000000E+00  0.84325324784E+03  0.84325324786E+03  0.50400001928E-02 0. -1.
        1   -1    0    0  501    0  0.00000000000E+00  0.00000000000E+00 -0.36073902193E+03  0.36073902197E+03  0.50400001928E-02 0.  1.
    10030    2    1    2    0    0  0.00000000000E+00  0.00000000000E+00  0.48251422591E+03  0.12039922698E+04  0.11030763381E+04 0.  0.
        3    1    3    3  502    0 -0.42763975152E+02 -0.19081464784E+03  0.80414577230E+03  0.82758046178E+03  0.10100000352E+00 0. -1.
       -3    1    3    3    0  502  0.42763975152E+02  0.19081464784E+03 -0.32163154639E+03  0.37641180805E+03  0.10100000352E+00 0.  1.
</event>
<event>
 5   0  0.7601145E-04  0.1515282E+04  0.7818609E-02  0.8874354E-01
       -1   -1    0    0    0  501  0.00000000000E+00  0.00000000000E+00  0.14931415491E+04  0.14931415491E+04  0.50400001928E-02 0.  1.
        1   -1    0    0  501    0  0.00000000000E+00  0.00000000000E+00 -0.38443757336E+03  0.38443757339E+03  0.50400001928E-02 0. -1.
    10030    2    1    2    0    0  0.00000000000E+00  0.00000000000E+00  0.11087039758E+04  0.18775791225E+04  0.15152817743E+04 0.  0.
        4    1    3    3  502    0 -0.47704719215E+03  0.58443876237E+03  0.46783319710E+03  0.88770051464E+03  0.12699999809E+01 0. -1.
       -4    1    3    3    0  502  0.47704719215E+03 -0.58443876237E+03  0.64087077866E+03  0.98987860788E+03  0.12699999809E+01 0.  1.
</event>
<event>
 5   0  0.1354766E-03  0.1553856E+04  0.7818609E-02  0.8849409E-01
        2   -1    0    0  501    0  0.00000000000E+00  0.00000000000E+00  0.16642738047E+04  0.16642738047E+04  0.25500000920E-02 0.  1.
       -2   -1    0    0    0  501  0.00000000000E+00  0.00000000000E+00 -0.36269089298E+03  0.36269089299E+03  0.25500000920E-02 0. -1.
    10030    2    1    2    0    0  0.00000000000E+00  0.00000000000E+00  0.13015829117E+04  0.20269646977E+04  0.15538557879E+04 0.  0.
        3    1    3    3  502    0  0.50775056254E+03  0.41353353080E+03  0.10540841781E+03  0.66327336717E+03  0.10100000352E+00 0. -1.
       -3    1    3    3    0  502 -0.50775056254E+03 -0.41353353080E+03  0.11961744939E+04  0.13636913305E+04  0.10100000352E+00 0.  1.
</event>
<event>
 5   0  0.1414751E-03  0.1524409E+04  0.7818609E-02  0.8868381E-01
       -2   -1    0    0    0  501  0.00000000000E+00  0.00000000000E+00  0.58221470896E+03  0.58221470896E+03  0.25500000920E-02 0.  1.
        2   -1    0    0  501    0  0.00000000000E+00  0.00000000000E+00 -0.99783818989E+03  0.99783818989E+03  0.25500000920E-02 0. -1.
    10030    2    1    2    0    0  0.00000000000E+00  0.00000000000E+00 -0.41562348093E+03  0.15800528989E+04  0.15244094874E+04 0.  0.
        2    1    3    3  502    0  0.70189516765E+02  0.58741178531E+03 -0.70595499729E+03  0.92106005884E+03  0.25500000920E-02 0. -1.
       -2    1    3    3    0  502 -0.70189516765E+02 -0.58741178531E+03  0.29033151637E+03  0.65899284001E+03  0.25500000920E-02 0.  1.
</event>
<event>
 5   0  0.1414796E-03  0.1552297E+04  0.7818609E-02  0.8850402E-01
        2   -1    0    0  501    0  0.00000000000E+00  0.00000000000E+00  0.78011742318E+03  0.78011742318E+03  0.25500000920E-02 0.  1.
       -2   -1    0    0    0  501  0.00000000000E+00  0.00000000000E+00 -0.77220020675E+03  0.77220020675E+03  0.25500000920E-02 0. -1.
    10030    2    1    2    0    0  0.00000000000E+00  0.00000000000E+00  0.79172164276E+01  0.15523176299E+04  0.15522974399E+04 0.  0.
        4    1    3    3  502    0 -0.32239391954E+01 -0.45654032928E+02 -0.77084856400E+03  0.77220710048E+03  0.12699999809E+01 0. -1.
       -4    1    3    3    0  502  0.32239391954E+01  0.45654032928E+02  0.77876578043E+03  0.78011052946E+03  0.12699999809E+01 0.  1.
</event>
<event>
 5   0  0.7124495E-04  0.1624782E+04  0.7818609E-02  0.8805466E-01
        1   -1    0    0  501    0  0.00000000000E+00  0.00000000000E+00  0.15543975823E+04  0.15543975823E+04  0.50400001928E-02 0. -1.
       -1   -1    0    0    0  501  0.00000000000E+00  0.00000000000E+00 -0.42458841760E+03  0.42458841763E+03  0.50400001928E-02 0.  1.
    10030    2    1    2    0    0  0.00000000000E+00  0.00000000000E+00  0.11298091647E+04  0.19789859999E+04  0.16247820898E+04 0.  0.
        2    1    3    3  502    0  0.65180126102E+03  0.16025531355E+03  0.11223347075E+04  0.13077315646E+04  0.25500000920E-02 0. -1.
       -2    1    3    3    0  502 -0.65180126102E+03 -0.16025531355E+03  0.74744571578E+01  0.67125443529E+03  0.25500000920E-02 0.  1.
</event>
<event>
 5   0  0.5095750E-04  0.1669264E+04  0.7818609E-02  0.8779091E-01
       -3   -1    0    0    0  501  0.00000000000E+00  0.00000000000E+00  0.12566175783E+04  0.12566175824E+04  0.10100000352E+00 0.  1.
        3   -1    0    0  501    0  0.00000000000E+00  0.00000000000E+00 -0.55435382409E+03  0.55435383329E+03  0.10100000352E+00 0. -1.
    10030    2    1    2    0    0  0.00000000000E+00  0.00000000000E+00  0.70226375426E+03  0.18109714157E+04  0.16692642355E+04 0.  0.
        5    1    3    3  502    0  0.14809624358E+02  0.74110144364E+03  0.76728095998E+03  0.10668612076E+04  0.46999998093E+01 0.  1.
       -5    1    3    3    0  502 -0.14809624358E+02 -0.74110144364E+03 -0.65017205722E+02  0.74411020809E+03  0.46999998093E+01 0. -1.
</event>
<event>
 5   0  0.1354766E-03  0.1610142E+04  0.7818609E-02  0.8814342E-01
        2   -1    0    0  501    0  0.00000000000E+00  0.00000000000E+00  0.55212534897E+03  0.55212534898E+03  0.25500000920E-02 0.  1.
       -2   -1    0    0    0  501  0.00000000000E+00  0.00000000000E+00 -0.11738984943E+04  0.11738984943E+04  0.25500000920E-02 0. -1.
    10030    2    1    2    0    0  0.00000000000E+00  0.00000000000E+00 -0.62177314532E+03  0.17260238433E+04  0.16101417525E+04 0.  0.
        3    1    3    3  502    0  0.70802467066E+03  0.68719857866E+02  0.93230170514E+02  0.71743517340E+03  0.10100000352E+00 0.  1.
       -3    1    3    3    0  502 -0.70802467066E+03 -0.68719857866E+02 -0.71500331583E+03  0.10085886699E+04  0.10100000352E+00 0. -1.
</event>
<event>
 5   0  0.1414751E-03  0.1680071E+04  0.7818609E-02  0.8772813E-01
       -2   -1    0    0    0  501  0.00000000000E+00  0.00000000000E+00  0.27495660847E+03  0.27495660848E+03  0.25500000920E-02 0.  1.
        2   -1    0    0  501    0  0.00000000000E+00  0.00000000000E+00 -0.25664393915E+04  0.25664393915E+04  0.25500000920E-02 0. -1.
    10030    2    1    2    0    0  0.00000000000E+00  0.00000000000E+00 -0.22914827830E+04  0.28413959999E+04  0.16800707972E+04 0.  0.
        2    1    3    3  502    0  0.24680814277E+03 -0.10254140465E+02 -0.25036258833E+04  0.25157825761E+04  0.25500000920E-02 0. -1.
       -2    1    3    3    0  502 -0.24680814277E+03  0.10254140465E+02  0.21214310033E+03  0.32561342380E+03  0.25500000920E-02 0.  1.
</event>
<event>
 5   0  0.7633213E-04  0.1651991E+04  0.7818609E-02  0.8789230E-01
       -1   -1    0    0    0  501  0.00000000000E+00  0.00000000000E+00  0.44076011082E+03  0.44076011085E+03  0.50400001928E-02 0.  1.
        1   -1    0    0  501    0  0.00000000000E+00  0.00000000000E+00 -0.15479362479E+04  0.15479362479E+04  0.50400001928E-02 0. -1.
    10030    2    1    2    0    0  0.00000000000E+00  0.00000000000E+00 -0.11071761371E+04  0.19886963588E+04  0.16519909833E+04 0.  0.
        1    1    3    3  502    0  0.55447593795E+03  0.58900922409E+03 -0.75464051235E+03  0.11062810379E+04  0.50400001928E-02 0.  1.
       -1    1    3    3    0  502 -0.55447593795E+03 -0.58900922409E+03 -0.35253562474E+03  0.88241532091E+03  0.50400001928E-02 0. -1.
</event>
<event>
 5   0  0.7302027E-04  0.1529930E+04  0.7818609E-02  0.8864790E-01
        1   -1    0    0  501    0  0.00000000000E+00  0.00000000000E+00  0.12500579322E+04  0.12500579322E+04  0.50400001928E-02 0. -1.
       -1   -1    0    0    0  501  0.00000000000E+00  0.00000000000E+00 -0.46811521572E+03  0.46811521575E+03  0.50400001928E-02 0.  1.
    10030    2    1    2    0    0  0.00000000000E+00  0.00000000000E+00  0.78194271647E+03  0.17181731479E+04  0.15299295913E+04 0.  0.
        5    1    3    3  502    0  0.76135493418E+03  0.45026186397E+02  0.45703398433E+03  0.88915175650E+03  0.46999998093E+01 0.  1.
       -5    1    3    3    0  502 -0.76135493418E+03 -0.45026186397E+02  0.32490873214E+03  0.82902139145E+03  0.46999998093E+01 0. -1.
</event>
<event>
 5   0  0.7601145E-04  0.1541514E+04  0.7818609E-02  0.8857307E-01
       -1   -1    0    0    0  501  0.00000000000E+00  0.00000000000E+00  0.85992879187E+03  0.85992879188E+03  0.50400001928E-02 0. -1.
        1   -1    0    0  501    0  0.00000000000E+00  0.00000000000E+00 -0.69083160369E+03  0.69083160371E+03  0.50400001928E-02 0.  1.
    10030    2    1    2    0    0  0.00000000000E+00  0.00000000000E+00  0.16909718818E+03  0.15507603956E+04  0.15415135243E+04 0.  0.
        4    1    3    3  502    0  0.31058916451E+03 -0.66289901229E+03 -0.15806948792E+03  0.74892476626E+03  0.12699999809E+01 0.  1.
       -4    1    3    3    0  502 -0.31058916451E+03  0.66289901229E+03  0.32716667610E+03  0.80183562933E+03  0.12699999809E+01 0. -1.
</event>
<event>
 5   0  0.7499834E-04  0.1234502E+04  0.7818609E-02  0.9083182E-01
        1   -1    0    0  501    0  0.00000000000E+00  0.00000000000E+00  0.87530220071E+03  0.87530220072E+03  0.50400001928E-02 0. -1.
       -1   -1    0    0    0  501  0.00000000000E+00  0.00000000000E+00 -0.43527679351E+03  0.43527679354E+03  0.50400001928E-02 0.  1.
    10030    2    1    2    0    0  0.00000000000E+00  0.00000000000E+00  0.44002540720E+03  0.13105789943E+04  0.12345019000E+04 0.  0.
        3    1    3    3  502    0  0.48832753739E+03 -0.34590099589E+03  0.38062177535E+03  0.70921381036E+03  0.10100000352E+00 0. -1.
       -3    1    3    3    0  502 -0.48832753739E+03  0.34590099589E+03  0.59403631856E+02  0.60136518390E+03  0.10100000352E+00 0.  1.
</event>
<event>
 5   0  0.1354766E-03  0.1549051E+04  0.7818609E-02  0.8852474E-01
       -2   -1    0    0    0  501  0.00000000000E+00  0.00000000000E+00  0.41896639746E+03  0.41896639747E+03  0.25500000920E-02 0. -1.
        2   -1    0    0  501    0  0.00000000000E+00  0.00000000000E+00 -0.14318324663E+04  0.14318324663E+04  0.25500000920E-02 0.  1.
    10030    2    1    2    0    0  0.00000000000E+00  0.00000000000E+00 -0.10128660688E+04  0.18507988637E+04  0.15490509226E+04 0.  0.
        3    1    3    3  502    0  0.41691051416E+02  0.52930414026E+03  0.16731784963E+03  0.55668329387E+03  0.10100000352E+00 0. -1.
       -3    1    3    3    0  502 -0.41691051416E+02 -0.52930414026E+03 -0.11801839184E+04  0.12941155699E+04  0.10100000352E+00 0.  1.
</event>
<event>
 5   0  0.7124495E-04  0.1619502E+04  0.7818609E-02  0.8808656E-01
        1   -1    0    0  501    0  0.00000000000E+00  0.00000000000E+00  0.11757881126E+04  0.11757881127E+04  0.50400001928E-02 0. -1.
       -1   -1    0    0    0  501  0.00000000000E+00  0.00000000000E+00 -0.55766575182E+03  0.55766575184E+03  0.50400001928E-02 0.  1.
    10030    2    1    2    0    0  0.00000000000E+00  0.00000000000E+00  0.61812236082E+03  0.17334538645E+04  0.16195020986E+04 0.  0.
        2    1    3    3  502    0 -0.69931891255E+03 -0.40322234694E+03  0.37727575456E+03  0.89105117559E+03  0.25500000920E-02 0.  1.
       -2    1    3    3    0  502  0.69931891255E+03  0.40322234694E+03  0.24084660626E+03  0.84240268891E+03  0.25500000920E-02 0. -1.
</event>
<event>
 5   0  0.1375777E-03  0.1649950E+04  0.7818609E-02  0.8790436E-01
       -2   -1    0    0    0  501  0.00000000000E+00  0.00000000000E+00  0.12305342710E+04  0.12305342710E+04  0.25500000920E-02 0.  1.
        2   -1    0    0  501    0  0.00000000000E+00  0.00000000000E+00 -0.55307990697E+03  0.55307990698E+03  0.25500000920E-02 0. -1.
    10030    2    1    2    0    0  0.00000000000E+00  0.00000000000E+00  0.67745436407E+03  0.17836141780E+04  0.16499500358E+04 0.  0.
        1    1    3    3  502    0 -0.71764699531E+03  0.62796980440E+02  0.77331930650E+03  0.10568743636E+04  0.50400001928E-02 0.  1.
       -1    1    3    3    0  502  0.71764699531E+03 -0.62796980440E+02 -0.95864942431E+02  0.72673981440E+03  0.50400001928E-02 0. -1.
</event>
<event>
 5   0  0.7124495E-04  0.1573408E+04  0.7818609E-02  0.8837053E-01
        1   -1    0    0  501    0  0.00000000000E+00  0.00000000000E+00  0.54740979934E+03  0.54740979936E+03  0.50400001928E-02 0.  1.
       -1   -1    0    0    0  501  0.00000000000E+00  0.00000000000E+00 -0.11306024537E+04  0.11306024537E+04  0.50400001928E-02 0. -1.
    10030    2    1    2    0    0  0.00000000000E+00  0.00000000000E+00 -0.58319265436E+03  0.16780122531E+04  0.15734075916E+04 0.  0.
        2    1    3    3  502    0 -0.32013682207E+03  0.33982486310E+03  0.38369397677E+03  0.60430918431E+03  0.25500000920E-02 0.  1.
       -2    1    3    3    0  502  0.32013682207E+03 -0.33982486310E+03 -0.96688663113E+03  0.10737030688E+04  0.25500000920E-02 0. -1.
</event>
<event>
 5   0  0.7499834E-04  0.1575431E+04  0.7818609E-02  0.8835786E-01
       -1   -1    0    0    0  501  0.00000000000E+00  0.00000000000E+00  0.84786683006E+03  0.84786683007E+03  0.50400001928E-02 0.  1.
        1   -1    0    0  501    0  0.00000000000E+00  0.00000000000E+00 -0.73183133924E+03  0.73183133926E+03  0.50400001928E-02 0. -1.
    10030    2    1    2    0    0  0.00000000000E+00  0.00000000000E+00  0.11603549082E+03  0.15796981693E+04  0.15754307573E+04 0.  0.
        3    1    3    3  502    0 -0.15022179880E+03 -0.55638194433E+03  0.59647144563E+03  0.82940077916E+03  0.10100000352E+00 0.  1.
       -3    1    3    3    0  502  0.15022179880E+03  0.55638194433E+03 -0.48043595481E+03  0.75029739017E+03  0.10100000352E+00 0. -1.
</event>
<event>
 5   0  0.1375777E-03  0.1489445E+04  0.7818609E-02  0.8891502E-01
        2   -1    0    0  501    0  0.00000000000E+00  0.00000000000E+00  0.13765376172E+04  0.13765376172E+04  0.25500000920E-02 0.  1.
       -2   -1    0    0    0  501  0.00000000000E+00  0.00000000000E+00 -0.40290327453E+03  0.40290327454E+03  0.25500000920E-02 0. -1.
    10030    2    1    2    0    0  0.00000000000E+00  0.00000000000E+00  0.97363434265E+03  0.17794408917E+04  0.14894448811E+04 0.  0.
        1    1    3    3  502    0 -0.65703187028E+03 -0.21500363820E+03  0.81767394037E+03  0.10707511923E+04  0.50400001928E-02 0.  1.
       -1    1    3    3    0  502  0.65703187028E+03  0.21500363820E+03  0.15596040229E+03  0.70868969945E+03  0.50400001928E-02 0. -1.
</event>
<event>
 5   0  0.7601145E-04  0.1648756E+04  0.7818609E-02  0.8791143E-01
       -1   -1    0    0    0  501  0.00000000000E+00  0.00000000000E+00  0.52281623428E+03  0.52281623430E+03  0.50400001928E-02 0. -1.
        1   -1    0    0  501    0  0.00000000000E+00  0.00000000000E+00 -0.12998813231E+04  0.12998813231E+04  0.50400001928E-02 0.  1.
    10030    2    1    2    0    0  0.00000000000E+00  0.00000000000E+00 -0.77706508886E+03  0.18226975575E+04  0.16487559655E+04 0.  0.
        4    1    3    3  502    0  0.32050867024E+02 -0.31809633944E+00 -0.12991911311E+04  0.12995870757E+04  0.12699999809E+01 0.  1.
       -4    1    3    3    0  502 -0.32050867024E+02  0.31809633944E+00  0.52212604223E+03  0.52311048177E+03  0.12699999809E+01 0. -1.
</event>
<event>
 5   0  0.1414751E-03  0.1589807E+04  0.7818609E-02  0.8826834E-01
       -2   -1    0    0    0  501  0.00000000000E+00  0.00000000000E+00  0.50047056370E+03  0.50047056371E+03  0.25500000920E-02 0. -1.
        2   -1    0    0  501    0  0.00000000000E+00  0.00000000000E+00 -0.12625553519E+04  0.12625553519E+04  0.25500000920E-02 0.  1.
    10030    2    1    2    0    0  0.00000000000E+00  0.00000000000E+00 -0.76208478823E+03  0.17630259156E+04  0.15898072697E+04 0.  0.
        2    1    3    3  502    0  0.56758837060E+03 -0.23070214928E+03  0.18058840619E+03  0.63874268104E+03  0.25500000920E-02 0. -1.
       -2    1    3    3    0  502 -0.56758837060E+03  0.23070214928E+03 -0.94267319443E+03  0.11242832346E+04  0.25500000920E-02 0.  1.
</event>
<event>
 5   0  0.7302027E-04  0.1607293E+04  0.7818609E-02  0.8816080E-01
        1   -1    0    0  501    0  0.00000000000E+00  0.00000000000E+00  0.17710771299E+04  0.17710771299E+04  0.50400001928E-02 0.  1.
       -1   -1    0    0    0  501  0.00000000000E+00  0.00000000000E+00 -0.36466395672E+03  0.36466395675E+03  0.50400001928E-02 0. -1.
    10030    2    1    2    0    0  0.00000000000E+00  0.00000000000E+00  0.14064131732E+04  0.21357410866E+04  0.16072933695E+04 0.  0.
        5    1    3    3  502    0 -0.19102269117E+02 -0.39305620555E+03  0.16342715113E+04  0.16809888578E+04  0.46999998093E+01 0.  1.
       -5    1    3    3    0  502  0.19102269117E+02  0.39305620555E+03 -0.22785833811E+03  0.45475222886E+03  0.46999998093E+01 0. -1.
</event>
<event>
 5   0  0.1354766E-03  0.1484062E+04  0.7818609E-02  0.8895121E-01
        2   -1    0    0  501    0  0.00000000000E+00  0.00000000000E+00  0.10530587069E+04  0.10530587069E+04  0.25500000920E-02 0.  1.
       -2   -1    0    0    0  501  0.00000000000E+00  0.00000000000E+00 -0.52286711126E+03  0.52286711127E+03  0.25500000920E-02 0. -1.
    10030    2    1    2    0    0  0.00000000000E+00  0.00000000000E+00  0.53019159560E+03  0.15759258181E+04  0.14840616753E+04 0.  0.
        3    1    3    3  502    0 -0.26801881999E+03  0.13427753681E+03 -0.45570330044E+03  0.54546315457E+03  0.10100000352E+00 0. -1.
       -3    1    3    3    0  502  0.26801881999E+03 -0.13427753681E+03  0.98589489604E+03  0.10304626636E+04  0.10100000352E+00 0.  1.
</event>
<event>
 5   0  0.7124495E-04  0.1347861E+04  0.7818609E-02  0.8992449E-01
        1   -1    0    0  501    0  0.00000000000E+00  0.00000000000E+00  0.12117218803E+04  0.12117218803E+04  0.50400001928E-02 0.  1.
       -1   -1    0    0    0  501  0.00000000000E+00  0.00000000000E+00 -0.37482398562E+03  0.37482398566E+03  0.50400001928E-02 0. -1.
    10030    2    1    2    0    0  0.00000000000E+00  0.00000000000E+00  0.83689789464E+03  0.15865458659E+04  0.13478611570E+04 0.  0.
        2    1    3    3  502    0  0.34238632365E+03 -0.51182682468E+03  0.96118431179E+02  0.62324461161E+03  0.25500000920E-02 0.  1.
       -2    1    3    3    0  502 -0.34238632365E+03  0.51182682468E+03  0.74077946346E+03  0.96330125432E+03  0.25500000920E-02 0. -1.
</event>
<event>
 5   0  0.1414751E-03  0.1623067E+04  0.7818609E-02  0.8806501E-01
        2   -1    0    0  501    0  0.00000000000E+00  0.00000000000E+00  0.11963863803E+04  0.11963863803E+04  0.25500000920E-02 0.  1.
       -2   -1    0    0    0  501  0.00000000000E+00  0.00000000000E+00 -0.55047981043E+03  0.55047981044E+03  0.25500000920E-02 0. -1.
    10030    2    1    2    0    0  0.00000000000E+00  0.00000000000E+00  0.64590656991E+03  0.17468661908E+04  0.16230669091E+04 0.  0.
        2    1    3    3  502    0 -0.53660389947E+03 -0.40454577395E+03 -0.16670510255E+03  0.69238112291E+03  0.25500000920E-02 0. -1.
       -2    1    3    3    0  502  0.53660389947E+03  0.40454577395E+03  0.81261167246E+03  0.10544850679E+04  0.25500000920E-02 0.  1.
</event>
<event>
 5   0  0.1375777E-03  0.1590647E+04  0.7818609E-02  0.8826315E-01
        2   -1    0    0  501    0  0.00000000000E+00  0.00000000000E+00  0.21656417571E+04  0.21656417571E+04  0.25500000920E-02 0.  1.
       -2   -1    0    0    0  501  0.00000000000E+00  0.00000000000E+00 -0.29207934393E+03  0.29207934394E+03  0.25500000920E-02 0. -1.
    10030    2    1    2    0    0  0.00000000000E+00  0.00000000000E+00  0.18735624132E+04  0.24577211010E+04  0.15906466907E+04 0.  0.
        1    1    3    3  502    0  0.16531372987E+03  0.39531281890E+02  0.21372495412E+04  0.21439978901E+04  0.50400001928E-02 0.  1.
       -1    1    3    3    0  502 -0.16531372987E+03 -0.39531281890E+02 -0.26368712804E+03  0.31372321090E+03  0.50400001928E-02 0. -1.
</event>
<event>
 5   0  0.7499834E-04  0.1571713E+04  0.7818609E-02  0.8838117E-01
       -1   -1    0    0    0  501  0.00000000000E+00  0.00000000000E+00  0.64387477616E+03  0.64387477618E+03  0.50400001928E-02 0.  1.
        1   -1    0    0  501    0  0.00000000000E+00  0.00000000000E+00 -0.95914678864E+03  0.95914678865E+03  0.50400001928E-02 0. -1.
    10030    2    1    2    0    0  0.00000000000E+00  0.00000000000E+00 -0.31527201249E+03  0.16030215648E+04  0.15717129813E+04 0.  0.
        3    1    3    3  502    0  0.46645461115E+03 -0.14718130339E+03  0.46970036345E+03  0.67813028391E+03  0.10100000352E+00 0.  1.
       -3    1    3    3    0  502 -0.46645461115E+03  0.14718130339E+03 -0.78497237594E+03  0.92489128092E+03  0.10100000352E+00 0. -1.
</event>
<event>
 5   0  0.7601145E-04  0.1131608E+04  0.7818609E-02  0.9174920E-01
        1   -1    0    0  501    0  0.00000000000E+00  0.00000000000E+00  0.15306803327E+04  0.15306803327E+04  0.50400001928E-02 0. -1.
       -1   -1    0    0    0  501  0.00000000000E+00  0.00000000000E+00 -0.20914519070E+03  0.20914519076E+03  0.50400001928E-02 0.  1.
    10030    2    1    2    0    0  0.00000000000E+00  0.00000000000E+00  0.13215351420E+04  0.17398255234E+04  0.11316084661E+04 0.  0.
        4    1    3    3  502    0  0.20265296326E+03  0.45305353763E+03  0.24307328077E+03  0.55264089986E+03  0.12699999809E+01 0.  1.
       -4    1    3    3    0  502 -0.20265296326E+03 -0.45305353763E+03  0.10784618612E+04  0.11871846236E+04  0.12699999809E+01 0. -1.
</event>
<event>
 5   0  0.1414751E-03  0.1608235E+04  0.7818609E-02  0.8815505E-01
        2   -1    0    0  501    0  0.00000000000E+00  0.00000000000E+00  0.59977500293E+03  0.59977500293E+03  0.25500000920E-02 0.  1.
       -2   -1    0    0    0  501  0.00000000000E+00  0.00000000000E+00 -0.10780795578E+04  0.10780795578E+04  0.25500000920E-02 0. -1.
    10030    2    1    2    0    0  0.00000000000E+00  0.00000000000E+00 -0.47830455490E+03  0.16778545608E+04  0.16082352688E+04 0.  0.
        2    1    3    3  502    0  0.22530017155E+03 -0.51155959795E+03  0.36393007532E+03  0.66700711337E+03  0.25500000920E-02 0.  1.
       -2    1    3    3    0  502 -0.22530017155E+03  0.51155959795E+03 -0.84223463022E+03  0.10108474474E+04  0.25500000920E-02 0. -1.
</event>
<event>
 5   0  0.1414796E-03  0.1632238E+04  0.7818609E-02  0.8800984E-01
       -2   -1    0    0    0  501  0.00000000000E+00  0.00000000000E+00  0.32479425168E+03  0.32479425169E+03  0.25500000920E-02 0.  1.
        2   -1    0    0  501    0  0.00000000000E+00  0.00000000000E+00 -0.20506833130E+04  0.20506833130E+04  0.25500000920E-02 0. -1.
    10030    2    1    2    0    0  0.00000000000E+00  0.00000000000E+00 -0.17258890614E+04  0.23754775647E+04  0.16322379142E+04 0.  0.
        4    1    3    3  502    0  0.31947050283E+03 -0.72996079730E+03 -0.60610772696E+03  0.10011355340E+04  0.12699999809E+01 0.  1.
       -4    1    3    3    0  502 -0.31947050283E+03  0.72996079730E+03 -0.11197813344E+04  0.13743420308E+04  0.12699999809E+01 0. -1.
</event>
<event>
 5   0  0.1354766E-03  0.1339225E+04  0.7818609E-02  0.8999025E-01
        2   -1    0    0  501    0  0.00000000000E+00  0.00000000000E+00  0.18746517171E+04  0.18746517171E+04  0.25500000920E-02 0.  1.
       -2   -1    0    0    0  501  0.00000000000E+00  0.00000000000E+00 -0.23918081517E+03  0.23918081518E+03  0.25500000920E-02 0. -1.
    10030    2    1    2    0    0  0.00000000000E+00  0.00000000000E+00  0.16354709020E+04  0.21138325323E+04  0.13392247397E+04 0.  0.
        3    1    3    3  502    0 -0.43134742810E+03  0.18895584381E+03  0.15691199097E+04  0.16382619497E+04  0.10100000352E+00 0.  1.
       -3    1    3    3    0  502  0.43134742810E+03 -0.18895584381E+03  0.66350992225E+02  0.47557058257E+03  0.10100000352E+00 0. -1.
</event>
<event>
 5   0  0.1339162E-03  0.1588955E+04  0.7818609E-02  0.8827362E-01
       -2   -1    0    0    0  501  0.00000000000E+00  0.00000000000E+00  0.52897097906E+03  0.52897097907E+03  0.25500000920E-02 0. -1.
        2   -1    0    0  501    0  0.00000000000E+00  0.00000000000E+00 -0.11932491590E+04  0.11932491590E+04  0.25500000920E-02 0.  1.
    10030    2    1    2    0    0  0.00000000000E+00  0.00000000000E+00 -0.66427817996E+03  0.17222201381E+04  0.15889545946E+04 0.  0.
        5    1    3    3  502    0  0.28232234214E+03  0.18112881222E+03 -0.11127200258E+04  0.11621882367E+04  0.46999998093E+01 0.  1.
       -5    1    3    3    0  502 -0.28232234214E+03 -0.18112881222E+03  0.44844184589E+03  0.56003190144E+03  0.46999998093E+01 0. -1.
</event>
<event>
 5   0  0.7601145E-04  0.1600962E+04  0.7818609E-02  0.8819957E-01
       -1   -1    0    0    0  501  0.00000000000E+00  0.00000000000E+00  0.14522882384E+04  0.14522882384E+04  0.50400001928E-02 0.  1.
        1   -1    0    0  501    0  0.00000000000E+00  0.00000000000E+00 -0.44121395440E+03  0.44121395443E+03  0.50400001928E-02 0. -1.
    10030    2    1    2    0    0  0.00000000000E+00  0.00000000000E+00  0.10110742840E+04  0.18935021928E+04  0.16009620066E+04 0.  0.
        4    1    3    3  502    0 -0.45065006200E+03 -0.23694529277E+03 -0.22502075357E+03  0.55665474271E+03  0.12699999809E+01 0. -1.
       -4    1    3    3    0  502  0.45065006200E+03  0.23694529277E+03  0.12360950376E+04  0.13368474501E+04  0.12699999809E+01 0.  1.
</event>
<event>
 5   0  0.7302027E-04  0.1651358E+04  0.7818609E-02  0.8789603E-01
       -1   -1    0    0    0  501  0.00000000000E+00  0.00000000000E+00  0.45071166131E+03  0.45071166134E+03  0.50400001928E-02 0. -1.
        1   -1    0    0  501    0  0.00000000000E+00  0.00000000000E+00 -0.15125991625E+04  0.15125991625E+04  0.50400001928E-02 0.  1.
    10030    2    1    2    0    0  0.00000000000E+00  0.00000000000E+00 -0.10618875012E+04  0.19633108239E+04  0.16513583275E+04 0.  0.
        5    1    3    3  502    0  0.46459538270E+03  0.25389307837E+03 -0.12842016372E+04  0.13890667730E+04  0.46999998093E+01 0.  1.
       -5    1    3    3    0  502 -0.46459538270E+03 -0.25389307837E+03  0.22231413601E+03  0.57424405085E+03  0.46999998093E+01 0. -1.
</event>
<event>
 5   0  0.7633213E-04  0.1516702E+04  0.7818609E-02  0.8873422E-01
        1   -1    0    0  501    0  0.00000000000E+00  0.00000000000E+00  0.44128365813E+03  0.44128365816E+03  0.50400001928E-02 0.  1.
       -1   -1    0    0    0  501  0.00000000000E+00  0.00000000000E+00 -0.13032345837E+04  0.13032345837E+04  0.50400001928E-02 0. -1.
    10030    2    1    2    0    0  0.00000000000E+00  0.00000000000E+00 -0.86195092558E+03  0.17445182419E+04  0.15167018488E+04 0.  0.
        1    1    3    3  502    0  0.54742657687E+03  0.11588661797E+03 -0.10197081104E+04  0.11631466785E+04  0.50400001928E-02 0. -1.
       -1    1    3    3    0  502 -0.54742657687E+03 -0.11588661797E+03  0.15775718484E+03  0.58137156336E+03  0.50400001928E-02 0.  1.
</event>
<event>
 5   0  0.1414796E-03  0.1563721E+04  0.7818609E-02  0.8843151E-01
        2   -1    0    0  501    0  0.00000000000E+00  0.00000000000E+00  0.50680004825E+03  0.50680004826E+03  0.25500000920E-02 0. -1.
       -2   -1    0    0    0  501  0.00000000000E+00  0.00000000000E+00 -0.12062069679E+04  0.12062069679E+04  0.25500000920E-02 0.  1.
    10030    2    1    2    0    0  0.00000000000E+00  0.00000000000E+00 -0.69940691969E+03  0.17130070162E+04  0.15637208825E+04 0.  0.
        4    1    3    3  502    0 -0.31896204515E+03 -0.70195426329E+03 -0.20759808185E+03  0.79848303080E+03  0.12699999809E+01 0. -1.
       -4    1    3    3    0  502  0.31896204515E+03  0.70195426329E+03 -0.49180883784E+03  0.91452398540E+03  0.12699999809E+01 0.  1.
</event>
<event>
 5   0  0.1414796E-03  0.1666663E+04  0.7818609E-02  0.8780609E-01
       -2   -1    0    0    0  501  0.00000000000E+00  0.00000000000E+00  0.49123256853E+03  0.49123256854E+03  0.25500000920E-02 0. -1.
        2   -1    0    0  501    0  0.00000000000E+00  0.00000000000E+00 -0.14136715048E+04  0.14136715048E+04  0.25500000920E-02 0.  1.
    10030    2    1    2    0    0  0.00000000000E+00  0.00000000000E+00 -0.92243893629E+03  0.19049040734E+04  0.16666631146E+04 0.  0.
        4    1    3    3  502    0 -0.58404693892E+03  0.57438078240E+03 -0.28632364865E+03  0.86775973330E+03  0.12699999809E+01 0. -1.
       -4    1    3    3    0  502  0.58404693892E+03 -0.57438078240E+03 -0.63611528764E+03  0.10371443401E+04  0.12699999809E+01 0.  1.
</event>
<event>
 5   0  0.5095750E-04  0.1592042E+04  0.7818609E-02  0.8825452E-01
        3   -1    0    0  501    0  0.00000000000E+00  0.00000000000E+00  0.12860072688E+04  0.12860072728E+04  0.10100000352E+00 0.  1.
       -3   -1    0    0    0  501  0.00000000000E+00  0.00000000000E+00 -0.49272590811E+03  0.49272591846E+03  0.10100000352E+00 0. -1.
    10030    2    1    2    0    0  0.00000000000E+00  0.00000000000E+00  0.79328136071E+03  0.17787331912E+04  0.15920415976E+04 0.  0.
        1    1    3    3  502    0 -0.17731564317E+03 -0.64002517807E+03 -0.93654394948E+02  0.67070426538E+03  0.50400001928E-02 0. -1.
       -1    1    3    3    0  502  0.17731564317E+03  0.64002517807E+03  0.88693575566E+03  0.11080289259E+04  0.50400001928E-02 0.  1.
</event>
<event>
 5   0  0.1414751E-03  0.1648817E+04  0.7818609E-02  0.8791106E-01
       -2   -1    0    0    0  501  0.00000000000E+00  0.00000000000E+00  0.15818306346E+04  0.15818306346E+04  0.25500000920E-02 0. -1.
        2   -1    0    0  501    0  0.00000000000E+00  0.00000000000E+00 -0.42966026022E+03  0.42966026023E+03  0.25500000920E-02 0.  1.
    10030    2    1    2    0    0  0.00000000000E+00  0.00000000000E+00  0.11521703744E+04  0.20114908948E+04  0.16488174697E+04 0.  0.
        2    1    3    3  502    0  0.49194379495E+02 -0.66803500851E+03 -0.10205295588E+02  0.66992164290E+03  0.25500000920E-02 0.  1.
       -2    1    3    3    0  502 -0.49194379495E+02  0.66803500851E+03  0.11623756700E+04  0.13415692519E+04  0.25500000920E-02 0. -1.
</event>
<event>
 5   0  0.7124495E-04  0.1570947E+04  0.7818609E-02  0.8838598E-01
        1   -1    0    0  501    0  0.00000000000E+00  0.00000000000E+00  0.84575862242E+03  0.84575862244E+03  0.50400001928E-02 0. -1.
       -1   -1    0    0    0  501  0.00000000000E+00  0.00000000000E+00 -0.72948575137E+03  0.72948575139E+03  0.50400001928E-02 0.  1.
    10030    2    1    2    0    0  0.00000000000E+00  0.00000000000E+00  0.11627287105E+03  0.15752443738E+04  0.15709473119E+04 0.  0.
        2    1    3    3  502    0 -0.11133338179E+03  0.65750426065E+03 -0.35804329149E+03  0.75690288232E+03  0.25500000920E-02 0.  1.
       -2    1    3    3    0  502  0.11133338179E+03 -0.65750426065E+03  0.47431616254E+03  0.81834149151E+03  0.25500000920E-02 0. -1.
</event>
<event>
 5   0  0.7499834E-04  0.1603646E+04  0.7818609E-02  0.8818311E-01
        1   -1    0    0  501    0  0.00000000000E+00  0.00000000000E+00  0.67414488079E+03  0.67414488081E+03  0.50400001928E-02 0. -1.
       -1   -1    0    0    0  501  0.00000000000E+00  0.00000000000E+00 -0.95368243020E+03  0.95368243021E+03  0.50400001928E-02 0.  1.
    10030    2    1    2    0    0  0.00000000000E+00  0.00000000000E+00 -0.27953754941E+03  0.16278273110E+04  0.16036460061E+04 0.  0.
        3    1    3    3  502    0 -0.58012004794E+03  0.40949390659E+03  0.23826547410E+03  0.74899597857E+03  0.10100000352E+00 0. -1.
       -3    1    3    3    0  502  0.58012004794E+03 -0.40949390659E+03 -0.51780302350E+03  0.87883133246E+03  0.10100000352E+00 0.  1.
</event>
<event>
 5   0  0.1339162E-03  0.1616728E+04  0.7818609E-02  0.8810337E-01
       -2   -1    0    0    0  501  0.00000000000E+00  0.00000000000E+00  0.31480943556E+03  0.31480943557E+03  0.25500000920E-02 0. -1.
        2   -1    0    0  501    0  0.00000000000E+00  0.00000000000E+00 -0.20757072363E+04  0.20757072363E+04  0.25500000920E-02 0.  1.
    10030    2    1    2    0    0  0.00000000000E+00  0.00000000000E+00 -0.17608978008E+04  0.23905166719E+04  0.16167278355E+04 0.  0.
        5    1    3    3  502    0  0.20571352713E+03 -0.54156820669E+03 -0.46877684339E+02  0.58123470735E+03  0.46999998093E+01 0. -1.
       -5    1    3    3    0  502 -0.20571352713E+03  0.54156820669E+03 -0.17140201164E+04  0.18092819646E+04  0.46999998093E+01 0.  1.
</event>
<event>
 5   0  0.1375777E-03  0.1584455E+04  0.7818609E-02  0.8830155E-01
        2   -1    0    0  501    0  0.00000000000E+00  0.00000000000E+00  0.13360619388E+04  0.13360619388E+04  0.25500000920E-02 0.  1.
       -2   -1    0    0    0  501  0.00000000000E+00  0.00000000000E+00 -0.46975720029E+03  0.46975720030E+03  0.25500000920E-02 0. -1.
    10030    2    1    2    0    0  0.00000000000E+00  0.00000000000E+00  0.86630473852E+03  0.18058191391E+04  0.15844553838E+04 0.  0.
        1    1    3    3  502    0  0.20221222507E+03  0.38012785119E+03 -0.32476549270E+03  0.53931400176E+03  0.50400001928E-02 0. -1.
       -1    1    3    3    0  502 -0.20221222507E+03 -0.38012785119E+03  0.11910702312E+04  0.12665051374E+04  0.50400001928E-02 0.  1.
</event>
<event>
 5   0  0.7601145E-04  0.1467147E+04  0.7818609E-02  0.8906598E-01
       -1   -1    0    0    0  501  0.00000000000E+00  0.00000000000E+00  0.33275518244E+03  0.33275518248E+03  0.50400001928E-02 0.  1.
        1   -1    0    0  501    0  0.00000000000E+00  0.00000000000E+00 -0.16171957571E+04  0.16171957571E+04  0.50400001928E-02 0. -1.
    10030    2    1    2    0    0  0.00000000000E+00  0.00000000000E+00 -0.12844405746E+04  0.19499509396E+04  0.14671472581E+04 0.  0.
        4    1    3    3  502    0 -0.25969926025E+03  0.60395829829E+02  0.26607227772E+03  0.37667948166E+03  0.12699999809E+01 0.  1.
       -4    1    3    3    0  502  0.25969926025E+03 -0.60395829829E+02 -0.15505128524E+04  0.15732714579E+04  0.12699999809E+01 0. -1.
</event>
<event>
 5   0  0.7601145E-04  0.1166653E+04  0.7818609E-02  0.9142556E-01
       -1   -1    0    0    0  501  0.00000000000E+00  0.00000000000E+00  0.42655888126E+03  0.42655888129E+03  0.50400001928E-02 0. -1.
        1   -1    0    0  501    0  0.00000000000E+00  0.00000000000E+00 -0.79770953379E+03  0.79770953381E+03  0.50400001928E-02 0.  1.
    10030    2    1    2    0    0  0.00000000000E+00  0.00000000000E+00 -0.37115065253E+03  0.12242684151E+04  0.11666534813E+04 0.  0.
        4    1    3    3  502    0 -0.92258979424E+02  0.20059615491E+03 -0.75216336878E+03  0.78390170486E+03  0.12699999809E+01 0.  1.
       -4    1    3    3    0  502  0.92258979424E+02 -0.20059615491E+03  0.38101271624E+03  0.44036671024E+03  0.12699999809E+01 0. -1.
</event>
<event>
 5   0  0.7302027E-04  0.1547826E+04  0.7818609E-02  0.8853258E-01
        1   -1    0    0  501    0  0.00000000000E+00  0.00000000000E+00  0.15162783411E+04  0.15162783411E+04  0.50400001928E-02 0. -1.
       -1   -1    0    0    0  501  0.00000000000E+00  0.00000000000E+00 -0.39500726673E+03  0.39500726676E+03  0.50400001928E-02 0.  1.
    10030    2    1    2    0    0  0.00000000000E+00  0.00000000000E+00  0.11212710743E+04  0.19112856078E+04  0.15478255239E+04 0.  0.
        5    1    3    3  502    0 -0.74491790457E+03  0.19843630858E+03  0.64474136145E+03  0.10049841622E+04  0.46999998093E+01 0.  1.
       -5    1    3    3    0  502  0.74491790457E+03 -0.19843630858E+03  0.47652971288E+03  0.90630144564E+03  0.46999998093E+01 0. -1.
</event>
<event>
 5   0  0.1414796E-03  0.1580776E+04  0.7818609E-02  0.8832446E-01
        2   -1    0    0  501    0  0.00000000000E+00  0.00000000000E+00  0.20545881637E+04  0.20545881637E+04  0.25500000920E-02 0.  1.
       -2   -1    0    0    0  501  0.00000000000E+00  0.00000000000E+00 -0.30405775314E+03  0.30405775316E+03  0.25500000920E-02 0. -1.
    10030    2    1    2    0    0  0.00000000000E+00  0.00000000000E+00  0.17505304106E+04  0.23586459169E+04  0.15807763418E+04 0.  0.
        4    1    3    3  502    0  0.25352491755E+02  0.64310427114E+03  0.15598132340E+04  0.16873780816E+04  0.12699999809E+01 0.  1.
       -4    1    3    3    0  502 -0.25352491755E+02 -0.64310427114E+03  0.19071717664E+03  0.67126783534E+03  0.12699999809E+01 0. -1.
</event>
<event>
 5   0  0.7302027E-04  0.1603852E+04  0.7818609E-02  0.8818185E-01
       -1   -1    0    0    0  501  0.00000000000E+00  0.00000000000E+00  0.31656505077E+03  0.31656505081E+03  0.50400001928E-02 0.  1.
        1   -1    0    0  501    0  0.00000000000E+00  0.00000000000E+00 -0.20314470114E+04  0.20314470114E+04  0.50400001928E-02 0. -1.
    10030    2    1    2    0    0  0.00000000000E+00  0.00000000000E+00 -0.17148819606E+04  0.23480120622E+04  0.16038517717E+04 0.  0.
        5    1    3    3  502    0  0.75672508584E+02 -0.72397958706E+03 -0.36490196888E+03  0.81427778303E+03  0.46999998093E+01 0.  1.
       -5    1    3    3    0  502 -0.75672508584E+02  0.72397958706E+03 -0.13499799918E+04  0.15337342792E+04  0.46999998093E+01 0. -1.
</event>
<event>
 5   0  0.1354766E-03  0.1645708E+04  0.7818609E-02  0.8792950E-01
       -2   -1    0    0    0  501  0.00000000000E+00  0.00000000000E+00  0.12570061534E+04  0.12570061534E+04  0.25500000920E-02 0.  1.
        2   -1    0    0  501    0  0.00000000000E+00  0.00000000000E+00 -0.53865178997E+03  0.53865178998E+03  0.25500000920E-02 0. -1.
    10030    2    1    2    0    0  0.00000000000E+00  0.00000000000E+00  0.71835436344E+03  0.17956579434E+04  0.16457078897E+04 0.  0.
        3    1    3    3  502    0 -0.15832491519E+03  0.59936452165E+03 -0.23122034108E+03  0.66163998135E+03  0.10100000352E+00 0. -1.
       -3    1    3    3    0  502  0.15832491519E+03 -0.59936452165E+03  0.94957470453E+03  0.11340179621E+04  0.10100000352E+00 0.  1.
</event>
<event>
 5   0  0.1354766E-03  0.1350775E+04  0.7818609E-02  0.8990241E-01
       -2   -1    0    0    0  501  0.00000000000E+00  0.00000000000E+00  0.59111386888E+03  0.59111386889E+03  0.25500000920E-02 0.  1.
        2   -1    0    0  501    0  0.00000000000E+00  0.00000000000E+00 -0.77167614525E+03  0.77167614526E+03  0.25500000920E-02 0. -1.
    10030    2    1    2    0    0  0.00000000000E+00  0.00000000000E+00 -0.18056227637E+03  0.13627900141E+04  0.13507752911E+04 0.  0.
        3    1    3    3  502    0  0.58468727389E+02 -0.45103698328E+03  0.41345494671E+03  0.61465271131E+03  0.10100000352E+00 0.  1.
       -3    1    3    3    0  502 -0.58468727389E+02  0.45103698328E+03 -0.59401722308E+03  0.74813730283E+03  0.10100000352E+00 0. -1.
</event>
<event>
 5   0  0.5095750E-04  0.1615892E+04  0.7818609E-02  0.8810844E-01
        3   -1    0    0  501    0  0.00000000000E+00  0.00000000000E+00  0.12871934856E+04  0.12871934896E+04  0.10100000352E+00 0.  1.
       -3   -1    0    0    0  501  0.00000000000E+00  0.00000000000E+00 -0.50713171254E+03  0.50713172260E+03  0.10100000352E+00 0. -1.
    10030    2    1    2    0    0  0.00000000000E+00  0.00000000000E+00  0.78006177305E+03  0.17943252122E+04  0.16158918891E+04 0.  0.
        3    1    3    3  502    0 -0.36977152269E+03  0.49382270053E+03 -0.18929214309E+03  0.64530873556E+03  0.10100000352E+00 0. -1.
       -3    1    3    3    0  502  0.36977152269E+03 -0.49382270053E+03  0.96935391614E+03  0.11490164766E+04  0.10100000352E+00 0.  1.
</event>
<event>
 5   0  0.7302027E-04  0.1589027E+04  0.7818609E-02  0.8827318E-01
       -1   -1    0    0    0  501  0.00000000000E+00  0.00000000000E+00  0.64169180562E+03  0.64169180564E+03  0.50400001928E-02 0. -1.
        1   -1    0    0  501    0  0.00000000000E+00  0.00000000000E+00 -0.98373050751E+03  0.98373050753E+03  0.50400001928E-02 0.  1.
    10030    2    1    2    0    0  0.00000000000E+00  0.00000000000E+00 -0.34203870190E+03  0.16254223132E+04  0.15890271308E+04 0.  0.
        5    1    3    3  502    0 -0.59576234813E+02  0.28196807688E+03  0.58632654535E+03  0.65334235429E+03  0.46999998093E+01 0. -1.
       -5    1    3    3    0  502  0.59576234813E+02 -0.28196807688E+03 -0.92836524725E+03  0.97207995887E+03  0.46999998093E+01 0.  1.
</event>
<event>
 5   0  0.1354766E-03  0.1578939E+04  0.7818609E-02  0.8833592E-01
       -2   -1    0    0    0  501  0.00000000000E+00  0.00000000000E+00  0.84226726403E+03  0.84226726404E+03  0.25500000920E-02 0. -1.
        2   -1    0    0  501    0  0.00000000000E+00  0.00000000000E+00 -0.73998129434E+03  0.73998129435E+03  0.25500000920E-02 0.  1.
    10030    2    1    2    0    0  0.00000000000E+00  0.00000000000E+00  0.10228596969E+03  0.15822485584E+04  0.15789389098E+04 0.  0.
        3    1    3    3  502    0 -0.63624028422E+03 -0.31756247361E+03  0.39481138765E+03  0.81334105142E+03  0.10100000352E+00 0. -1.
       -3    1    3    3    0  502  0.63624028422E+03  0.31756247361E+03 -0.29252541796E+03  0.76890750696E+03  0.10100000352E+00 0.  1.
</event>
<event>
 5   0  0.1414751E-03  0.1594409E+04  0.7818609E-02  0.8823990E-01
        2   -1    0    0  501    0  0.00000000000E+00  0.00000000000E+00  0.26660172788E+04  0.26660172788E+04  0.25500000920E-02 0.  1.
       -2   -1    0    0    0  501  0.00000000000E+00  0.00000000000E+00 -0.23838382034E+03  0.23838382035E+03  0.25500000920E-02 0. -1.
    10030    2    1    2    0    0  0.00000000000E+00  0.00000000000E+00  0.24276334585E+04  0.29044010992E+04  0.15944094631E+04 0.  0.
        2    1    3    3  502    0 -0.25479445099E+03 -0.36503283452E+03  0.24185179171E+04  0.24591458065E+04  0.25500000920E-02 0.  1.
       -2    1    3    3    0  502  0.25479445099E+03  0.36503283452E+03  0.91155414071E+01  0.44525529265E+03  0.25500000920E-02 0. -1.
</event>
<event>
 5   0  0.1375777E-03  0.1459248E+04  0.7818609E-02  0.8912014E-01
        2   -1    0    0  501    0  0.00000000000E+00  0.00000000000E+00  0.89054474462E+03  0.89054474462E+03  0.25500000920E-02 0.  1.
       -2   -1    0    0    0  501  0.00000000000E+00  0.00000000000E+00 -0.59778112840E+03  0.59778112840E+03  0.25500000920E-02 0. -1.
    10030    2    1    2    0    0  0.00000000000E+00  0.00000000000E+00  0.29276361622E+03  0.14883258730E+04  0.14592475353E+04 0.  0.
        1    1    3    3  502    0  0.65719678719E+03 -0.18674469113E+02 -0.17629975155E+03  0.68068932364E+03  0.50400001928E-02 0. -1.
       -1    1    3    3    0  502 -0.65719678719E+03  0.18674469113E+02  0.46906336777E+03  0.80763654939E+03  0.50400001928E-02 0.  1.
</event>
<event>
 5   0  0.7633213E-04  0.1608474E+04  0.7818609E-02  0.8815359E-01
        1   -1    0    0  501    0  0.00000000000E+00  0.00000000000E+00  0.66436445034E+03  0.66436445036E+03  0.50400001928E-02 0. -1.
       -1   -1    0    0    0  501  0.00000000000E+00  0.00000000000E+00 -0.97355721921E+03  0.97355721922E+03  0.50400001928E-02 0.  1.
    10030    2    1    2    0    0  0.00000000000E+00  0.00000000000E+00 -0.30919276887E+03  0.16379216696E+04  0.16084735706E+04 0.  0.
        1    1    3    3  502    0 -0.33112809130E+03 -0.62425945946E+03  0.23642745800E+03  0.74514671609E+03  0.50400001928E-02 0. -1.
       -1    1    3    3    0  502  0.33112809130E+03  0.62425945946E+03 -0.54562022687E+03  0.89277495349E+03  0.50400001928E-02 0.  1.
</event>
<event>
 5   0  0.1414796E-03  0.1585845E+04  0.7818609E-02  0.8829291E-01
       -2   -1    0    0    0  501  0.00000000000E+00  0.00000000000E+00  0.60483552065E+03  0.60483552066E+03  0.25500000920E-02 0. -1.
        2   -1    0    0  501    0  0.00000000000E+00  0.00000000000E+00 -0.10394991989E+04  0.10394991989E+04  0.25500000920E-02 0.  1.
    10030    2    1    2    0    0  0.00000000000E+00  0.00000000000E+00 -0.43466367825E+03  0.16443347196E+04  0.15858449346E+04 0.  0.
        4    1    3    3  502    0  0.71777034640E+03 -0.23784552357E+03  0.30132835898E+02  0.75675251169E+03  0.12699999809E+01 0. -1.
       -4    1    3    3    0  502 -0.71777034640E+03  0.23784552357E+03 -0.46479651414E+03  0.88758220786E+03  0.12699999809E+01 0.  1.
</event>
<event>
 5   0  0.1414796E-03  0.1162885E+04  0.7818609E-02  0.9145978E-01
       -2   -1    0    0    0  501  0.00000000000E+00  0.00000000000E+00  0.47417557908E+03  0.47417557909E+03  0.25500000920E-02 0.  1.
        2   -1    0    0  501    0  0.00000000000E+00  0.00000000000E+00 -0.71297551962E+03  0.71297551962E+03  0.25500000920E-02 0. -1.
    10030    2    1    2    0    0  0.00000000000E+00  0.00000000000E+00 -0.23879994054E+03  0.11871510987E+04  0.11628853424E+04 0.  0.
        4    1    3    3  502    0 -0.57067927488E+03 -0.12448166328E+02 -0.64375801400E+01  0.57085273667E+03  0.12699999809E+01 0.  1.
       -4    1    3    3    0  502  0.57067927488E+03  0.12448166328E+02 -0.23236236040E+03  0.61629836204E+03  0.12699999809E+01 0. -1.
</event>
<event>
 5   0  0.1339162E-03  0.1547700E+04  0.7818609E-02  0.8853338E-01
        2   -1    0    0  501    0  0.00000000000E+00  0.00000000000E+00  0.18278781695E+04  0.18278781695E+04  0.25500000920E-02 0. -1.
       -2   -1    0    0    0  501  0.00000000000E+00  0.00000000000E+00 -0.32761694886E+03  0.32761694887E+03  0.25500000920E-02 0.  1.
    10030    2    1    2    0    0  0.00000000000E+00  0.00000000000E+00  0.15002612206E+04  0.21554951184E+04  0.15477000598E+04 0.  0.
        5    1    3    3  502    0 -0.31136126133E+03 -0.44568701294E+03 -0.16794210940E+02  0.54395485482E+03  0.46999998093E+01 0.  1.
       -5    1    3    3    0  502  0.31136126133E+03  0.44568701294E+03  0.15170554316E+04  0.16115402635E+04  0.46999998093E+01 0. -1.
</event>
<event>
 5   0  0.7601145E-04  0.1534687E+04  0.7818609E-02  0.8861709E-01
       -1   -1    0    0    0  501  0.00000000000E+00  0.00000000000E+00  0.47109103370E+03  0.47109103373E+03  0.50400001928E-02 0. -1.
        1   -1    0    0  501    0  0.00000000000E+00  0.00000000000E+00 -0.12498984060E+04  0.12498984060E+04  0.50400001928E-02 0.  1.
    10030    2    1    2    0    0  0.00000000000E+00  0.00000000000E+00 -0.77880737226E+03  0.17209894397E+04  0.15346868503E+04 0.  0.
        4    1    3    3  502    0  0.68668699531E+03  0.34142680443E+03 -0.41913707467E+03  0.87395010875E+03  0.12699999809E+01 0. -1.
       -4    1    3    3    0  502 -0.68668699531E+03 -0.34142680443E+03 -0.35967029759E+03  0.84703933096E+03  0.12699999809E+01 0.  1.
</event>
<event>
 5   0  0.7124495E-04  0.1597523E+04  0.7818609E-02  0.8822071E-01
        1   -1    0    0  501    0  0.00000000000E+00  0.00000000000E+00  0.14350817574E+04  0.14350817574E+04  0.50400001928E-02 0.  1.
       -1   -1    0    0    0  501  0.00000000000E+00  0.00000000000E+00 -0.44458796148E+03  0.44458796151E+03  0.50400001928E-02 0. -1.
    10030    2    1    2    0    0  0.00000000000E+00  0.00000000000E+00  0.99049379588E+03  0.18796697189E+04  0.15975231743E+04 0.  0.
        2    1    3    3  502    0  0.55262271701E+03  0.41211390942E+03  0.96997908906E+03  0.11899954516E+04  0.25500000920E-02 0.  1.
       -2    1    3    3    0  502 -0.55262271701E+03 -0.41211390942E+03  0.20514706824E+02  0.68967426724E+03  0.25500000920E-02 0. -1.
</event>
<event>
 5   0  0.1354766E-03  0.1599997E+04  0.7818609E-02  0.8820550E-01
        2   -1    0    0  501    0  0.00000000000E+00  0.00000000000E+00  0.13787343992E+04  0.13787343992E+04  0.25500000920E-02 0. -1.
       -2   -1    0    0    0  501  0.00000000000E+00  0.00000000000E+00 -0.46419224544E+03  0.46419224545E+03  0.25500000920E-02 0.  1.
    10030    2    1    2    0    0  0.00000000000E+00  0.00000000000E+00  0.91454215374E+03  0.18429266446E+04  0.15999972708E+04 0.  0.
        3    1    3    3  502    0  0.52661128053E+03  0.59071228086E+02 -0.23304866634E+03  0.57889596807E+03  0.10100000352E+00 0.  1.
       -3    1    3    3    0  502 -0.52661128053E+03 -0.59071228086E+02  0.11475908201E+04  0.12640306766E+04  0.10100000352E+00 0. -1.
</event>
<event>
 5   0  0.1375777E-03  0.1115662E+04  0.7818609E-02  0.9190059E-01
       -2   -1    0    0    0  501  0.00000000000E+00  0.00000000000E+00  0.16489660057E+03  0.16489660059E+03  0.25500000920E-02 0.  1.
        2   -1    0    0  501    0  0.00000000000E+00  0.00000000000E+00 -0.18870952906E+04  0.18870952906E+04  0.25500000920E-02 0. -1.
    10030    2    1    2    0    0  0.00000000000E+00  0.00000000000E+00 -0.17221986900E+04  0.20519918912E+04  0.11156623116E+04 0.  0.
        1    1    3    3  502    0  0.54288276330E+03 -0.81584690862E+02 -0.10431566425E+04  0.11787932547E+04  0.50400001928E-02 0.  1.
       -1    1    3    3    0  502 -0.54288276330E+03  0.81584690862E+02 -0.67904204754E+03  0.87319863652E+03  0.50400001928E-02 0. -1.
</event>
<event>
 5   0  0.1414796E-03  0.1559775E+04  0.7818609E-02  0.8845648E-01
       -2   -1    0    0    0  501  0.00000000000E+00  0.00000000000E+00  0.10732207127E+04  0.10732207127E+04  0.25500000920E-02 0. -1.
        2   -1    0    0  501    0  0.00000000000E+00  0.00000000000E+00 -0.56672818139E+03  0.56672818140E+03  0.25500000920E-02 0.  1.
    10030    2    1    2    0    0  0.00000000000E+00  0.00000000000E+00  0.50649253134E+03  0.16399488941E+04  0.15597748847E+04 0.  0.
        4    1    3    3  502    0  0.49228980903E+03 -0.36634749591E+03 -0.25280765175E+03  0.66368144883E+03  0.12699999809E+01 0.  1.
       -4    1    3    3    0  502 -0.49228980903E+03  0.36634749591E+03  0.75930018309E+03  0.97626744531E+03  0.12699999809E+01 0. -1.
</event>
<event>
 5   0  0.7499834E-04  0.1598846E+04  0.7818609E-02  0.8821257E-01
       -1   -1    0    0    0  501  0.00000000000E+00  0.00000000000E+00  0.42641471357E+03  0.42641471360E+03  0.50400001928E-02 0.  1.
        1   -1    0    0  501    0  0.00000000000E+00  0.00000000000E+00 -0.14987213806E+04  0.14987213806E+04  0.50400001928E-02 0. -1.
    10030    2    1    2    0    0  0.00000000000E+00  0.00000000000E+00 -0.10723066671E+04  0.19251360942E+04  0.15988456439E+04 0.  0.
        3    1    3    3  502    0 -0.69073980711E+02  0.75555050960E+03 -0.23285678858E+03  0.79363094796E+03  0.10100000352E+00 0.  1.
       -3    1    3    3    0  502  0.69073980711E+02 -0.75555050960E+03 -0.83944987849E+03  0.11315051463E+04  0.10100000352E+00 0. -1.
</event>
<event>
 5   0  0.7633213E-04  0.1700965E+04  0.7818609E-02  0.8760814E-01
       -1   -1    0    0    0  501  0.00000000000E+00  0.00000000000E+00  0.58328852460E+03  0.58328852462E+03  0.50400001928E-02 0.  1.
        1   -1    0    0  501    0  0.00000000000E+00  0.00000000000E+00 -0.12400729594E+04  0.12400729594E+04  0.50400001928E-02 0. -1.
    10030    2    1    2    0    0  0.00000000000E+00  0.00000000000E+00 -0.65678443478E+03  0.18233614840E+04  0.17009648167E+04 0.  0.
        1    1    3    3  502    0  0.39854857552E+02  0.18933862442E+03  0.55938174401E+03  0.59189987323E+03  0.50400001928E-02 0.  1.
       -1    1    3    3    0  502 -0.39854857552E+02 -0.18933862442E+03 -0.12161661788E+04  0.12314616108E+04  0.50400001928E-02 0. -1.
</event>
<event>
 5   0  0.7124495E-04  0.1515271E+04  0.7818609E-02  0.8874361E-01
       -1   -1    0    0    0  501  0.00000000000E+00  0.00000000000E+00  0.44978674685E+03  0.44978674688E+03  0.50400001928E-02 0. -1.
        1   -1    0    0  501    0  0.00000000000E+00  0.00000000000E+00 -0.12761852822E+04  0.12761852822E+04  0.50400001928E-02 0.  1.
    10030    2    1    2    0    0  0.00000000000E+00  0.00000000000E+00 -0.82639853535E+03  0.17259720291E+04  0.15152705719E+04 0.  0.
        2    1    3    3  502    0  0.64622704056E+03  0.36033387447E+03 -0.59883797438E+03  0.95187016373E+03  0.25500000920E-02 0. -1.
       -2    1    3    3    0  502 -0.64622704056E+03 -0.36033387447E+03 -0.22756056097E+03  0.77410186536E+03  0.25500000920E-02 0.  1.
</event>
<event>
 5   0  0.1375777E-03  0.1469082E+04  0.7818609E-02  0.8905277E-01
       -2   -1    0    0    0  501  0.00000000000E+00  0.00000000000E+00  0.52980128654E+03  0.52980128655E+03  0.25500000920E-02 0. -1.
        2   -1    0    0  501    0  0.00000000000E+00  0.00000000000E+00 -0.10184019209E+04  0.10184019209E+04  0.25500000920E-02 0.  1.
    10030    2    1    2    0    0  0.00000000000E+00  0.00000000000E+00 -0.48860063440E+03  0.15482032075E+04  0.14690822277E+04 0.  0.
        1    1    3    3  502    0 -0.12090054289E+03 -0.26223039631E+03 -0.95607855728E+03  0.99873316243E+03  0.50400001928E-02 0.  1.
       -1    1    3    3    0  502  0.12090054289E+03  0.26223039631E+03  0.46747792288E+03  0.54947004507E+03  0.50400001928E-02 0. -1.
</event>
<event>
 5   0  0.1414796E-03  0.1597272E+04  0.7818609E-02  0.8822226E-01
       -2   -1    0    0    0  501  0.00000000000E+00  0.00000000000E+00  0.85828601300E+03  0.85828601300E+03  0.25500000920E-02 0. -1.
        2   -1    0    0  501    0  0.00000000000E+00  0.00000000000E+00 -0.74313168560E+03  0.74313168560E+03  0.25500000920E-02 0.  1.
    10030    2    1    2    0    0  0.00000000000E+00  0.00000000000E+00  0.11515432740E+03  0.16014176986E+04  0.15972720890E+04 0.  0.
        4    1    3    3  502    0  0.63121324310E+03  0.38858445641E+03 -0.24049882618E+03  0.77927487854E+03  0.12699999809E+01 0. -1.
       -4    1    3    3    0  502 -0.63121324310E+03 -0.38858445641E+03  0.35565315358E+03  0.82214282006E+03  0.12699999809E+01 0.  1.
</event>
<event>
 5   0  0.7302027E-04  0.1608750E+04  0.7818609E-02  0.8815191E-01
       -1   -1    0    0    0  501  0.00000000000E+00  0.00000000000E+00  0.19057192345E+04  0.19057192345E+04  0.50400001928E-02 0. -1.
        1   -1    0    0  501    0  0.00000000000E+00  0.00000000000E+00 -0.33951427339E+03  0.33951427343E+03  0.50400001928E-02 0.  1.
    10030    2    1    2    0    0  0.00000000000E+00  0.00000000000E+00  0.15662049611E+04  0.22452335079E+04  0.16087496775E+04 0.  0.
        5    1    3    3  502    0  0.45121494200E+03 -0.33816249866E+03  0.15836786612E+04  0.16810737614E+04  0.46999998093E+01 0. -1.
       -5    1    3    3    0  502 -0.45121494200E+03  0.33816249866E+03 -0.17473700097E+02  0.56415974651E+03  0.46999998093E+01 0.  1.
</event>
<event>
 5   0  0.1375777E-03  0.1615486E+04  0.7818609E-02  0.8811091E-01
        2   -1    0    0  501    0  0.00000000000E+00  0.00000000000E+00  0.56828927711E+03  0.56828927711E+03  0.25500000920E-02 0.  1.
       -2   -1    0    0    0  501  0.00000000000E+00  0.00000000000E+00 -0.11480921187E+04  0.11480921187E+04  0.25500000920E-02 0. -1.
    10030    2    1    2    0    0  0.00000000000E+00  0.00000000000E+00 -0.57980284155E+03  0.17163813958E+04  0.16154856114E+04 0.  0.
        1    1    3    3  502    0 -0.76504037556E+03  0.23818233462E+03 -0.39841156310E+03  0.89484600597E+03  0.50400001928E-02 0. -1.
       -1    1    3    3    0  502  0.76504037556E+03 -0.23818233462E+03 -0.18139127845E+03  0.82153538980E+03  0.50400001928E-02 0.  1.
</event>
<event>
 5   0  0.7499834E-04  0.1305026E+04  0.7818609E-02  0.9025589E-01
        1   -1    0    0  501    0  0.00000000000E+00  0.00000000000E+00  0.64786187390E+03  0.64786187391E+03  0.50400001928E-02 0. -1.
       -1   -1    0    0    0  501  0.00000000000E+00  0.00000000000E+00 -0.65719733463E+03  0.65719733464E+03  0.50400001928E-02 0.  1.
    10030    2    1    2    0    0  0.00000000000E+00  0.00000000000E+00 -0.93354607299E+01  0.13050592086E+04  0.13050258185E+04 0.  0.
        3    1    3    3  502    0 -0.53616937728E+03 -0.26045151668E+03 -0.27011847625E+03  0.65442844917E+03  0.10100000352E+00 0.  1.
       -3    1    3    3    0  502  0.53616937728E+03  0.26045151668E+03  0.26078301552E+03  0.65063075939E+03  0.10100000352E+00 0. -1.
</event>
<event>
 5   0  0.5095750E-04  0.1592044E+04  0.7818609E-02  0.8825451E-01
        3   -1    0    0  501    0  0.00000000000E+00  0.00000000000E+00  0.54289409055E+03  0.54289409995E+03  0.10100000352E+00 0. -1.
       -3   -1    0    0    0  501  0.00000000000E+00  0.00000000000E+00 -0.11671716975E+04  0.11671717019E+04  0.10100000352E+00 0.  1.
    10030    2    1    2    0    0  0.00000000000E+00  0.00000000000E+00 -0.62427760696E+03  0.17100658018E+04  0.15920435032E+04 0.  0.
        4    1    3    3  502    0  0.17131929374E+02 -0.44651232213E+02 -0.11656260489E+04  0.11666074465E+04  0.12699999809E+01 0.  1.
       -4    1    3    3    0  502 -0.17131929374E+02  0.44651232213E+02  0.54134844190E+03  0.54345835534E+03  0.12699999809E+01 0. -1.
</event>
<event>
 5   0  0.7302027E-04  0.1558870E+04  0.7818609E-02  0.8846222E-01
       -1   -1    0    0    0  501  0.00000000000E+00  0.00000000000E+00  0.72217639713E+03  0.72217639715E+03  0.50400001928E-02 0. -1.
        1   -1    0    0  501    0  0.00000000000E+00  0.00000000000E+00 -0.84123384560E+03  0.84123384561E+03  0.50400001928E-02 0.  1.
    10030    2    1    2    0    0  0.00000000000E+00  0.00000000000E+00 -0.11905744846E+03  0.15634102428E+04  0.15588703959E+04 0.  0.
        5    1    3    3  502    0  0.41154667622E+03 -0.27448874779E+03  0.54453957797E+03  0.73570386797E+03  0.46999998093E+01 0. -1.
       -5    1    3    3    0  502 -0.41154667622E+03  0.27448874779E+03 -0.66359702644E+03  0.82770637479E+03  0.46999998093E+01 0.  1.
</event>
<event>
 5   0  0.5095750E-04  0.1622941E+04  0.7818609E-02  0.8806577E-01
       -4   -1    0    0    0  501  0.00000000000E+00  0.00000000000E+00  0.11397173339E+04  0.11397180415E+04  0.12699999809E+01 0.  1.
        4   -1    0    0  501    0  0.00000000000E+00  0.00000000000E+00 -0.57775937881E+03  0.57776077463E+03  0.12699999809E+01 0. -1.
    10030    2    1    2    0    0  0.00000000000E+00  0.00000000000E+00  0.56195795510E+03  0.17174788161E+04  0.16229407693E+04 0.  0.
        2    1    3    3  502    0 -0.34748256114E+03 -0.21170925744E+03 -0.46200013794E+03  0.61563712319E+03  0.25500000920E-02 0. -1.
       -2    1    3    3    0  502  0.34748256114E+03  0.21170925744E+03  0.10239580930E+04  0.11018416929E+04  0.25500000920E-02 0.  1.
</event>
<event>
 5   0  0.1339162E-03  0.1626756E+04  0.7818609E-02  0.8804277E-01
       -2   -1    0    0    0  501  0.00000000000E+00  0.00000000000E+00  0.52372841891E+03  0.52372841891E+03  0.25500000920E-02 0.  1.
        2   -1    0    0  501    0  0.00000000000E+00  0.00000000000E+00 -0.12632194786E+04  0.12632194786E+04  0.25500000920E-02 0. -1.
    10030    2    1    2    0    0  0.00000000000E+00  0.00000000000E+00 -0.73949105973E+03  0.17869478976E+04  0.16267562083E+04 0.  0.
        5    1    3    3  502    0  0.57427946456E+03 -0.10572383224E+03  0.25221475531E+03  0.63608867693E+03  0.46999998093E+01 0.  1.
       -5    1    3    3    0  502 -0.57427946456E+03  0.10572383224E+03 -0.99170581504E+03  0.11508592206E+04  0.46999998093E+01 0. -1.
</event>
<event>
 5   0  0.1414796E-03  0.1603582E+04  0.7818609E-02  0.8818350E-01
        2   -1    0    0  501    0  0.00000000000E+00  0.00000000000E+00  0.13704350115E+04  0.13704350115E+04  0.25500000920E-02 0. -1.
       -2   -1    0    0    0  501  0.00000000000E+00  0.00000000000E+00 -0.46909847188E+03  0.46909847189E+03  0.25500000920E-02 0.  1.
    10030    2    1    2    0    0  0.00000000000E+00  0.00000000000E+00  0.90133653963E+03  0.18395334834E+04  0.16035822021E+04 0.  0.
        4    1    3    3  502    0  0.21321625795E+03 -0.44991051480E+03 -0.27028599141E+03  0.56651281895E+03  0.12699999809E+01 0.  1.
       -4    1    3    3    0  502 -0.21321625795E+03  0.44991051480E+03  0.11716225310E+04  0.12730206645E+04  0.12699999809E+01 0. -1.
</event>
<event>
 5   0  0.7633213E-04  0.1606759E+04  0.7818609E-02  0.8816407E-01
        1   -1    0    0  501    0  0.00000000000E+00  0.00000000000E+00  0.13802276072E+04  0.13802276072E+04  0.50400001928E-02 0.  1.
       -1   -1    0    0    0  501  0.00000000000E+00  0.00000000000E+00 -0.46761730960E+03  0.46761730963E+03  0.50400001928E-02 0. -1.
    10030    2    1    2    0    0  0.00000000000E+00  0.00000000000E+00  0.91261029757E+03  0.18478449168E+04  0.16067586257E+04 0.  0.
        1    1    3    3  502    0 -0.76287808991E+03  0.24501877970E+03  0.52337494645E+03  0.95704676848E+03  0.50400001928E-02 0.  1.
       -1    1    3    3    0  502  0.76287808991E+03 -0.24501877970E+03  0.38923535113E+03  0.89079814833E+03  0.50400001928E-02 0. -1.
</event>
<event>
 5   0  0.1339162E-03  0.8768953E+03  0.7818609E-02  0.9454933E-01
       -2   -1    0    0    0  501  0.00000000000E+00  0.00000000000E+00  0.13152536297E+03  0.13152536300E+03  0.25500000920E-02 0.  1.
        2   -1    0    0  501    0  0.00000000000E+00  0.00000000000E+00 -0.14615913184E+04  0.14615913184E+04  0.25500000920E-02 0. -1.
    10030    2    1    2    0    0  0.00000000000E+00  0.00000000000E+00 -0.13300659554E+04  0.15931166814E+04  0.87689527013E+03 0.  0.
        5    1    3    3  502    0 -0.20421455692E+03  0.17390349249E+03 -0.12950834117E+04  0.13225767059E+04  0.46999998093E+01 0. -1.
       -5    1    3    3    0  502  0.20421455692E+03 -0.17390349249E+03 -0.34982543780E+02  0.27053997547E+03  0.46999998093E+01 0.  1.
</event>
<event>
 5   0  0.7302027E-04  0.1561423E+04  0.7818609E-02  0.8844604E-01
       -1   -1    0    0    0  501  0.00000000000E+00  0.00000000000E+00  0.81095425881E+03  0.81095425883E+03  0.50400001928E-02 0. -1.
        1   -1    0    0  501    0  0.00000000000E+00  0.00000000000E+00 -0.75159664564E+03  0.75159664565E+03  0.50400001928E-02 0.  1.
    10030    2    1    2    0    0  0.00000000000E+00  0.00000000000E+00  0.59357613173E+02  0.15625509045E+04  0.15614230698E+04 0.  0.
        5    1    3    3  502    0  0.71459697653E+03  0.31433731633E+03  0.24051275060E+02  0.78106167563E+03  0.46999998093E+01 0.  1.
       -5    1    3    3    0  502 -0.71459697653E+03 -0.31433731633E+03  0.35306338113E+02  0.78148922885E+03  0.46999998093E+01 0. -1.
</event>
<event>
 5   0  0.1354766E-03  0.1609578E+04  0.7818609E-02  0.8814686E-01
       -2   -1    0    0    0  501  0.00000000000E+00  0.00000000000E+00  0.42003186463E+03  0.42003186464E+03  0.25500000920E-02 0.  1.
        2   -1    0    0  501    0  0.00000000000E+00  0.00000000000E+00 -0.15419905532E+04  0.15419905532E+04  0.25500000920E-02 0. -1.
    10030    2    1    2    0    0  0.00000000000E+00  0.00000000000E+00 -0.11219586885E+04  0.19620224178E+04  0.16095777922E+04 0.  0.
        3    1    3    3  502    0  0.36991403151E+03  0.28816508626E+03  0.23631242724E+03  0.52508959342E+03  0.10100000352E+00 0.  1.
       -3    1    3    3    0  502 -0.36991403151E+03 -0.28816508626E+03 -0.13582711158E+04  0.14369328244E+04  0.10100000352E+00 0. -1.
</event>
<event>
 5   0  0.1339162E-03  0.1592048E+04  0.7818609E-02  0.8825448E-01
       -2   -1    0    0    0  501  0.00000000000E+00  0.00000000000E+00  0.88112390510E+03  0.88112390511E+03  0.25500000920E-02 0. -1.
        2   -1    0    0  501    0  0.00000000000E+00  0.00000000000E+00 -0.71914295332E+03  0.71914295333E+03  0.25500000920E-02 0.  1.
    10030    2    1    2    0    0  0.00000000000E+00  0.00000000000E+00  0.16198095178E+03  0.16002668584E+04  0.15920477975E+04 0.  0.
        5    1    3    3  502    0 -0.79229681377E+03 -0.18138582059E+02  0.15599950353E+03  0.80772593395E+03  0.46999998093E+01 0.  1.
       -5    1    3    3    0  502  0.79229681377E+03  0.18138582059E+02  0.59814482483E+01  0.79254092449E+03  0.46999998093E+01 0. -1.
</event>
<event>
 5   0  0.7601145E-04  0.1616066E+04  0.7818609E-02  0.8810739E-01
       -1   -1    0    0    0  501  0.00000000000E+00  0.00000000000E+00  0.46776462715E+03  0.46776462718E+03  0.50400001928E-02 0.  1.
        1   -1    0    0  501    0  0.00000000000E+00  0.00000000000E+00 -0.13958239002E+04  0.13958239002E+04  0.50400001928E-02 0. -1.
    10030    2    1    2    0    0  0.00000000000E+00  0.00000000000E+00 -0.92805927301E+03  0.18635885274E+04  0.16160656500E+04 0.  0.
        4    1    3    3  502    0 -0.73544194969E+03 -0.20357618365E+03 -0.77042705636E+03  0.10843788941E+04  0.12699999809E+01 0.  1.
       -4    1    3    3    0  502  0.73544194969E+03  0.20357618365E+03 -0.15763221665E+03  0.77920963325E+03  0.12699999809E+01 0. -1.
</event>
<event>
 5   0  0.1354766E-03  0.1581083E+04  0.7818609E-02  0.8832254E-01
       -2   -1    0    0    0  501  0.00000000000E+00  0.00000000000E+00  0.37429909664E+03  0.37429909665E+03  0.25500000920E-02 0. -1.
        2   -1    0    0  501    0  0.00000000000E+00  0.00000000000E+00 -0.16696702654E+04  0.16696702654E+04  0.25500000920E-02 0.  1.
    10030    2    1    2    0    0  0.00000000000E+00  0.00000000000E+00 -0.12953711687E+04  0.20439693620E+04  0.15810832641E+04 0.  0.
        3    1    3    3  502    0  0.18626716957E+03 -0.54299471396E+03 -0.13503332934E+04  0.14672895867E+04  0.10100000352E+00 0.  1.
       -3    1    3    3    0  502 -0.18626716957E+03  0.54299471396E+03  0.54962124717E+02  0.57667977526E+03  0.10100000352E+00 0. -1.
</event>
<event>
 5   0  0.1414751E-03  0.1623372E+04  0.7818609E-02  0.8806317E-01
        2   -1    0    0  501    0  0.00000000000E+00  0.00000000000E+00  0.10878248978E+04  0.10878248978E+04  0.25500000920E-02 0. -1.
       -2   -1    0    0    0  501  0.00000000000E+00  0.00000000000E+00 -0.60564356017E+03  0.60564356017E+03  0.25500000920E-02 0.  1.
    10030    2    1    2    0    0  0.00000000000E+00  0.00000000000E+00  0.48218133767E+03  0.16934684580E+04  0.16233719771E+04 0.  0.
        2    1    3    3  502    0 -0.10346712188E+03 -0.19779100075E+03 -0.57299546721E+03  0.61493945290E+03  0.25500000920E-02 0.  1.
       -2    1    3    3    0  502  0.10346712188E+03  0.19779100075E+03  0.10551768049E+04  0.10785290051E+04  0.25500000920E-02 0. -1.
</event>
<event>
 5   0  0.1414796E-03  0.1565480E+04  0.7818609E-02  0.8842040E-01
        2   -1    0    0  501    0  0.00000000000E+00  0.00000000000E+00  0.23015944798E+04  0.23015944798E+04  0.25500000920E-02 0.  1.
       -2   -1    0    0    0  501  0.00000000000E+00  0.00000000000E+00 -0.26619879323E+03  0.26619879324E+03  0.25500000920E-02 0. -1.
    10030    2    1    2    0    0  0.00000000000E+00  0.00000000000E+00  0.20353956865E+04  0.25677932730E+04  0.15654797003E+04 0.  0.
        4    1    3    3  502    0  0.42874537435E+02 -0.65065715820E+03  0.17279266909E+04  0.18468690331E+04  0.12699999809E+01 0.  1.
       -4    1    3    3    0  502 -0.42874537435E+02  0.65065715820E+03  0.30746899564E+03  0.72092423989E+03  0.12699999809E+01 0. -1.
</event>
<event>
 5   0  0.1339162E-03  0.1582398E+04  0.7818609E-02  0.8831435E-01
        2   -1    0    0  501    0  0.00000000000E+00  0.00000000000E+00  0.13471368892E+04  0.13471368892E+04  0.25500000920E-02 0. -1.
       -2   -1    0    0    0  501  0.00000000000E+00  0.00000000000E+00 -0.46468589154E+03  0.46468589155E+03  0.25500000920E-02 0.  1.
    10030    2    1    2    0    0  0.00000000000E+00  0.00000000000E+00  0.88245099764E+03  0.18118227807E+04  0.15823975561E+04 0.  0.
        5    1    3    3  502    0 -0.92872443124E+02  0.68519210429E+03  0.88150181611E+03  0.11203486298E+04  0.46999998093E+01 0. -1.
       -5    1    3    3    0  502  0.92872443124E+02 -0.68519210429E+03  0.94918153321E+00  0.69147415094E+03  0.46999998093E+01 0.  1.
</event>
<event>
 5   0  0.1375777E-03  0.1778496E+04  0.7818609E-02  0.8717819E-01
        2   -1    0    0  501    0  0.00000000000E+00  0.00000000000E+00  0.17655252233E+04  0.17655252233E+04  0.25500000920E-02 0. -1.
       -2   -1    0    0    0  501  0.00000000000E+00  0.00000000000E+00 -0.44789043030E+03  0.44789043030E+03  0.25500000920E-02 0.  1.
    10030    2    1    2    0    0  0.00000000000E+00  0.00000000000E+00  0.13176347930E+04  0.22134156536E+04  0.17784958273E+04 0.  0.
        1    1    3    3  502    0 -0.44606183430E+03 -0.50733683385E+03  0.13785037696E+04  0.15351333707E+04  0.50400001928E-02 0. -1.
       -1    1    3    3    0  502  0.44606183430E+03  0.50733683385E+03 -0.60868976575E+02  0.67828228293E+03  0.50400001928E-02 0.  1.
</event>
<event>
 5   0  0.1375777E-03  0.1603420E+04  0.7818609E-02  0.8818450E-01
       -2   -1    0    0    0  501  0.00000000000E+00  0.00000000000E+00  0.34514372755E+03  0.34514372756E+03  0.25500000920E-02 0.  1.
        2   -1    0    0  501    0  0.00000000000E+00  0.00000000000E+00 -0.18622363361E+04  0.18622363361E+04  0.25500000920E-02 0. -1.
    10030    2    1    2    0    0  0.00000000000E+00  0.00000000000E+00 -0.15170926085E+04  0.22073800636E+04  0.16034203324E+04 0.  0.
        1    1    3    3  502    0  0.53233068862E+03 -0.32730218916E+03 -0.67139419268E+02  0.62849851768E+03  0.50400001928E-02 0.  1.
       -1    1    3    3    0  502 -0.53233068862E+03  0.32730218916E+03 -0.14499531892E+04  0.15788815459E+04  0.50400001928E-02 0. -1.
</event>
<event>
 5   0  0.7633213E-04  0.1634532E+04  0.7818609E-02  0.8799610E-01
        1   -1    0    0  501    0  0.00000000000E+00  0.00000000000E+00  0.68090414446E+03  0.68090414448E+03  0.50400001928E-02 0. -1.
       -1   -1    0    0    0  501  0.00000000000E+00  0.00000000000E+00 -0.98093696738E+03  0.98093696739E+03  0.50400001928E-02 0.  1.
    10030    2    1    2    0    0  0.00000000000E+00  0.00000000000E+00 -0.30003282292E+03  0.16618411119E+04  0.16345324060E+04 0.  0.
        1    1    3    3  502    0  0.10611570744E+02 -0.76282870645E+03 -0.44800673770E+03  0.88472045181E+03  0.50400001928E-02 0.  1.
       -1    1    3    3    0  502 -0.10611570744E+02  0.76282870645E+03  0.14797391478E+03  0.77712066006E+03  0.50400001928E-02 0. -1.
</event>
<event>
 5   0  0.7124495E-04  0.1549743E+04  0.7818609E-02  0.8852032E-01
       -1   -1    0    0    0  501  0.00000000000E+00  0.00000000000E+00  0.47243381416E+03  0.47243381419E+03  0.50400001928E-02 0. -1.
        1   -1    0    0  501    0  0.00000000000E+00  0.00000000000E+00 -0.12709205349E+04  0.12709205349E+04  0.50400001928E-02 0.  1.
    10030    2    1    2    0    0  0.00000000000E+00  0.00000000000E+00 -0.79848672074E+03  0.17433543491E+04  0.15497429927E+04 0.  0.
        2    1    3    3  502    0 -0.10906562254E+03  0.60756826036E+03  0.12766576909E+03  0.63034359648E+03  0.25500000920E-02 0. -1.
       -2    1    3    3    0  502  0.10906562254E+03 -0.60756826036E+03 -0.92615248983E+03  0.11130107526E+04  0.25500000920E-02 0.  1.
</event>
<event>
 5   0  0.1375777E-03  0.1466501E+04  0.7818609E-02  0.8907040E-01
        2   -1    0    0  501    0  0.00000000000E+00  0.00000000000E+00  0.18995603801E+04  0.18995603801E+04  0.25500000920E-02 0.  1.
       -2   -1    0    0    0  501  0.00000000000E+00  0.00000000000E+00 -0.28304238978E+03  0.28304238979E+03  0.25500000920E-02 0. -1.
    10030    2    1    2    0    0  0.00000000000E+00  0.00000000000E+00  0.16165179903E+04  0.21826027699E+04  0.14665007460E+04 0.  0.
        1    1    3    3  502    0 -0.22836667591E+02 -0.23276002730E+03 -0.22604168627E+03  0.32525926221E+03  0.50400001928E-02 0. -1.
       -1    1    3    3    0  502  0.22836667591E+02  0.23276002730E+03  0.18425596766E+04  0.18573435077E+04  0.50400001928E-02 0.  1.
</event>
<event>
 5   0  0.7302027E-04  0.1588129E+04  0.7818609E-02  0.8827874E-01
        1   -1    0    0  501    0  0.00000000000E+00  0.00000000000E+00  0.16362399165E+04  0.16362399165E+04  0.50400001928E-02 0.  1.
       -1   -1    0    0    0  501  0.00000000000E+00  0.00000000000E+00 -0.38535815448E+03  0.38535815451E+03  0.50400001928E-02 0. -1.
    10030    2    1    2    0    0  0.00000000000E+00  0.00000000000E+00  0.12508817621E+04  0.20215980711E+04  0.15881289552E+04 0.  0.
        5    1    3    3  502    0  0.62107618405E+03  0.19015496662E+03  0.12068593995E+04  0.13705569079E+04  0.46999998093E+01 0.  1.
       -5    1    3    3    0  502 -0.62107618405E+03 -0.19015496662E+03  0.44022362606E+02  0.65104116316E+03  0.46999998093E+01 0. -1.
</event>
<event>
 5   0  0.1339162E-03  0.1604940E+04  0.7818609E-02  0.8817519E-01
        2   -1    0    0  501    0  0.00000000000E+00  0.00000000000E+00  0.47775491740E+03  0.47775491740E+03  0.25500000920E-02 0. -1.
       -2   -1    0    0    0  501  0.00000000000E+00  0.00000000000E+00 -0.13478837084E+04  0.13478837085E+04  0.25500000920E-02 0.  1.
    10030    2    1    2    0    0  0.00000000000E+00  0.00000000000E+00 -0.87012879105E+03  0.18256386259E+04  0.16049399612E+04 0.  0.
        5    1    3    3  502    0 -0.12858951563E+03  0.46692428543E+02  0.46437652348E+03  0.48413127555E+03  0.46999998093E+01 0. -1.
       -5    1    3    3    0  502  0.12858951563E+03 -0.46692428543E+02 -0.13345053145E+04  0.13415073503E+04  0.46999998093E+01 0.  1.
</event>
<event>
 5   0  0.7499834E-04  0.1611507E+04  0.7818609E-02  0.8813510E-01
        1   -1    0    0  501    0  0.00000000000E+00  0.00000000000E+00  0.14838297693E+04  0.14838297694E+04  0.50400001928E-02 0.  1.
       -1   -1    0    0    0  501  0.00000000000E+00  0.00000000000E+00 -0.43754241879E+03  0.43754241882E+03  0.50400001928E-02 0. -1.
    10030    2    1    2    0    0  0.00000000000E+00  0.00000000000E+00  0.10462873506E+04  0.19213721882E+04  0.16115067066E+04 0.  0.
        3    1    3    3  502    0  0.47134892888E+03  0.51901022413E+03  0.99661222996E+03  0.12185144121E+04  0.10100000352E+00 0.  1.
       -3    1    3    3    0  502 -0.47134892888E+03 -0.51901022413E+03  0.49675120595E+02  0.70285777602E+03  0.10100000352E+00 0. -1.
</event>
<event>
 5   0  0.1414751E-03  0.1552163E+04  0.7818609E-02  0.8850487E-01
       -2   -1    0    0    0  501  0.00000000000E+00  0.00000000000E+00  0.76406715032E+03  0.76406715032E+03  0.25500000920E-02 0. -1.
        2   -1    0    0  501    0  0.00000000000E+00  0.00000000000E+00 -0.78828472759E+03  0.78828472759E+03  0.25500000920E-02 0.  1.
    10030    2    1    2    0    0  0.00000000000E+00  0.00000000000E+00 -0.24217577268E+02  0.15523518779E+04  0.15521629624E+04 0.  0.
        2    1    3    3  502    0  0.50446107819E+03 -0.64879532138E+02 -0.59836451806E+03  0.78532186369E+03  0.25500000920E-02 0.  1.
       -2    1    3    3    0  502 -0.50446107819E+03  0.64879532138E+02  0.57414694079E+03  0.76703001423E+03  0.25500000920E-02 0. -1.
</event>
<event>
 5   0  0.7601145E-04  0.1547650E+04  0.7818609E-02  0.8853370E-01
       -1   -1    0    0    0  501  0.00000000000E+00  0.00000000000E+00  0.89403783256E+03  0.89403783257E+03  0.50400001928E-02 0. -1.
        1   -1    0    0  501    0  0.00000000000E+00  0.00000000000E+00 -0.66977568349E+03  0.66977568351E+03  0.50400001928E-02 0.  1.
    10030    2    1    2    0    0  0.00000000000E+00  0.00000000000E+00  0.22426214906E+03  0.15638135161E+04  0.15476495733E+04 0.  0.
        4    1    3    3  502    0  0.45706375912E+02  0.57438984813E+03 -0.40978111856E+03  0.70706078131E+03  0.12699999809E+01 0.  1.
       -4    1    3    3    0  502 -0.45706375912E+02 -0.57438984813E+03  0.63404326763E+03  0.85675273478E+03  0.12699999809E+01 0. -1.
</event>
<event>
 5   0  0.7302027E-04  0.1566863E+04  0.7818609E-02  0.8841168E-01
       -1   -1    0    0    0  501  0.00000000000E+00  0.00000000000E+00  0.56243617006E+03  0.56243617009E+03  0.50400001928E-02 0.  1.
        1   -1    0    0  501    0  0.00000000000E+00  0.00000000000E+00 -0.10912610412E+04  0.10912610412E+04  0.50400001928E-02 0. -1.
    10030    2    1    2    0    0  0.00000000000E+00  0.00000000000E+00 -0.52882487109E+03  0.16536972112E+04  0.15668627005E+04 0.  0.
        5    1    3    3  502    0  0.11334347211E+03 -0.43529007821E+03  0.41255363896E+03  0.61036611134E+03  0.46999998093E+01 0.  1.
       -5    1    3    3    0  502 -0.11334347211E+03  0.43529007821E+03 -0.94137851005E+03  0.10433310999E+04  0.46999998093E+01 0. -1.
</event>
<event>
 5   0  0.7633213E-04  0.1587485E+04  0.7818609E-02  0.8828274E-01
        1   -1    0    0  501    0  0.00000000000E+00  0.00000000000E+00  0.45904973959E+03  0.45904973962E+03  0.50400001928E-02 0. -1.
       -1   -1    0    0    0  501  0.00000000000E+00  0.00000000000E+00 -0.13724593124E+04  0.13724593124E+04  0.50400001928E-02 0.  1.
    10030    2    1    2    0    0  0.00000000000E+00  0.00000000000E+00 -0.91340957281E+03  0.18315090520E+04  0.15874849165E+04 0.  0.
        1    1    3    3  502    0  0.53268830201E+02 -0.31261476839E+03  0.38278741566E+03  0.49708325993E+03  0.50400001928E-02 0. -1.
       -1    1    3    3    0  502 -0.53268830201E+02  0.31261476839E+03 -0.12961969885E+04  0.13344257921E+04  0.50400001928E-02 0.  1.
</event>
<event>
 5   0  0.7124495E-04  0.1606590E+04  0.7818609E-02  0.8816510E-01
        1   -1    0    0  501    0  0.00000000000E+00  0.00000000000E+00  0.85345702619E+03  0.85345702620E+03  0.50400001928E-02 0. -1.
       -1   -1    0    0    0  501  0.00000000000E+00  0.00000000000E+00 -0.75608136890E+03  0.75608136892E+03  0.50400001928E-02 0.  1.
    10030    2    1    2    0    0  0.00000000000E+00  0.00000000000E+00  0.97375657282E+02  0.16095383951E+04  0.16065901241E+04 0.  0.
        2    1    3    3  502    0 -0.19305407653E+03  0.33300278217E+03 -0.65767500323E+03  0.76203486749E+03  0.25500000920E-02 0.  1.
       -2    1    3    3    0  502  0.19305407653E+03 -0.33300278217E+03  0.75505066051E+03  0.84750352763E+03  0.25500000920E-02 0. -1.
</event>
<event>
 5   0  0.1354766E-03  0.1517733E+04  0.7818609E-02  0.8872746E-01
       -2   -1    0    0    0  501  0.00000000000E+00  0.00000000000E+00  0.69146590205E+03  0.69146590206E+03  0.25500000920E-02 0.  1.
        2   -1    0    0  501    0  0.00000000000E+00  0.00000000000E+00 -0.83283645845E+03  0.83283645846E+03  0.25500000920E-02 0. -1.
    10030    2    1    2    0    0  0.00000000000E+00  0.00000000000E+00 -0.14137055640E+03  0.15243023605E+04  0.15177325364E+04 0.  0.
        3    1    3    3  502    0 -0.23970606717E+03  0.74951840112E+02 -0.78988648108E+03  0.82885308721E+03  0.10100000352E+00 0. -1.
       -3    1    3    3    0  502  0.23970606717E+03 -0.74951840112E+02  0.64851592468E+03  0.69544927330E+03  0.10100000352E+00 0.  1.
</event>
<event>
 5   0  0.1375777E-03  0.1552026E+04  0.7818609E-02  0.8850575E-01
       -2   -1    0    0    0  501  0.00000000000E+00  0.00000000000E+00  0.54779161892E+03  0.54779161893E+03  0.25500000920E-02 0.  1.
        2   -1    0    0  501    0  0.00000000000E+00  0.00000000000E+00 -0.10993164878E+04  0.10993164878E+04  0.25500000920E-02 0. -1.
    10030    2    1    2    0    0  0.00000000000E+00  0.00000000000E+00 -0.55152486888E+03  0.16471081067E+04  0.15520262350E+04 0.  0.
        1    1    3    3  502    0  0.63624691457E+03  0.24179633458E+03  0.11979232432E+03  0.69110477115E+03  0.50400001928E-02 0.  1.
       -1    1    3    3    0  502 -0.63624691457E+03 -0.24179633458E+03 -0.67131719320E+03  0.95600333558E+03  0.50400001928E-02 0. -1.
</event>
<event>
 5   0  0.7124495E-04  0.1491678E+04  0.7818609E-02  0.8890006E-01
        1   -1    0    0  501    0  0.00000000000E+00  0.00000000000E+00  0.10881383989E+04  0.10881383989E+04  0.50400001928E-02 0. -1.
       -1   -1    0    0    0  501  0.00000000000E+00  0.00000000000E+00 -0.51121758358E+03  0.51121758361E+03  0.50400001928E-02 0.  1.
    10030    2    1    2    0    0  0.00000000000E+00  0.00000000000E+00  0.57692081528E+03  0.15993559825E+04  0.14916775562E+04 0.  0.
        2    1    3    3  502    0  0.29457678712E+03 -0.26228716606E+02  0.10225846549E+04  0.10644918062E+04  0.25500000920E-02 0. -1.
       -2    1    3    3    0  502 -0.29457678712E+03  0.26228716606E+02 -0.44566383962E+03  0.53486417625E+03  0.25500000920E-02 0.  1.
</event>
<event>
 5   0  0.7601145E-04  0.1623344E+04  0.7818609E-02  0.8806334E-01
       -1   -1    0    0    0  501  0.00000000000E+00  0.00000000000E+00  0.91806985615E+03  0.91806985616E+03  0.50400001928E-02 0. -1.
        1   -1    0    0  501    0  0.00000000000E+00  0.00000000000E+00 -0.71760480384E+03  0.71760480386E+03  0.50400001928E-02 0.  1.
    10030    2    1    2    0    0  0.00000000000E+00  0.00000000000E+00  0.20046505231E+03  0.16356746600E+04  0.16233438811E+04 0.  0.
        4    1    3    3  502    0  0.15261836473E+02  0.56915540744E+03  0.68310644819E+03  0.88927320545E+03  0.12699999809E+01 0. -1.
       -4    1    3    3    0  502 -0.15261836473E+02 -0.56915540744E+03 -0.48264139588E+03  0.74640145457E+03  0.12699999809E+01 0.  1.
</event>
<event>
 5   0  0.7499834E-04  0.1280658E+04  0.7818609E-02  0.9045046E-01
       -1   -1    0    0    0  501  0.00000000000E+00  0.00000000000E+00  0.79300543718E+03  0.79300543719E+03  0.50400001928E-02 0. -1.
        1   -1    0    0  501    0  0.00000000000E+00  0.00000000000E+00 -0.51704679828E+03  0.51704679830E+03  0.50400001928E-02 0.  1.
    10030    2    1    2    0    0  0.00000000000E+00  0.00000000000E+00  0.27595863890E+03  0.13100522355E+04  0.12806575223E+04 0.  0.
        3    1    3    3  502    0 -0.21176026536E+03  0.16127979328E+03 -0.45776870975E+03  0.52953355279E+03  0.10100000352E+00 0.  1.
       -3    1    3    3    0  502  0.21176026536E+03 -0.16127979328E+03  0.73372734864E+03  0.78051868271E+03  0.10100000352E+00 0. -1.
</event>
<event>
 5   0  0.7601145E-04  0.1634003E+04  0.7818609E-02  0.8799926E-01
       -1   -1    0    0    0  501  0.00000000000E+00  0.00000000000E+00  0.60084529320E+03  0.60084529322E+03  0.50400001928E-02 0.  1.
        1   -1    0    0  501    0  0.00000000000E+00  0.00000000000E+00 -0.11109213367E+04  0.11109213367E+04  0.50400001928E-02 0. -1.
    10030    2    1    2    0    0  0.00000000000E+00  0.00000000000E+00 -0.51007604351E+03  0.17117666299E+04  0.16340034961E+04 0.  0.
        4    1    3    3  502    0  0.16970980441E+03  0.73153606717E+03 -0.59213405424E+03  0.95633194361E+03  0.12699999809E+01 0. -1.
       -4    1    3    3    0  502 -0.16970980441E+03 -0.73153606717E+03  0.82058010726E+02  0.75543468633E+03  0.12699999809E+01 0.  1.
</event>
<event>
 5   0  0.1414751E-03  0.1621906E+04  0.7818609E-02  0.8807202E-01
       -2   -1    0    0    0  501  0.00000000000E+00  0.00000000000E+00  0.25124149531E+03  0.25124149533E+03  0.25500000920E-02 0.  1.
        2   -1    0    0  501    0  0.00000000000E+00  0.00000000000E+00 -0.26175786810E+04  0.26175786810E+04  0.25500000920E-02 0. -1.
    10030    2    1    2    0    0  0.00000000000E+00  0.00000000000E+00 -0.23663371856E+04  0.28688201763E+04  0.16219055237E+04 0.  0.
        2    1    3    3  502    0  0.22679342308E+03  0.29007475320E+03  0.94859440805E+02  0.38023273493E+03  0.25500000920E-02 0.  1.
       -2    1    3    3    0  502 -0.22679342308E+03 -0.29007475320E+03 -0.24611966264E+04  0.24885874414E+04  0.25500000920E-02 0. -1.
</event>
<event>
 5   0  0.1375777E-03  0.1609243E+04  0.7818609E-02  0.8814890E-01
        2   -1    0    0  501    0  0.00000000000E+00  0.00000000000E+00  0.14249515846E+04  0.14249515846E+04  0.25500000920E-02 0. -1.
       -2   -1    0    0    0  501  0.00000000000E+00  0.00000000000E+00 -0.45434225809E+03  0.45434225810E+03  0.25500000920E-02 0.  1.
    10030    2    1    2    0    0  0.00000000000E+00  0.00000000000E+00  0.97060932650E+03  0.18792938427E+04  0.16092429532E+04 0.  0.
        1    1    3    3  502    0 -0.77374849786E+03 -0.21586026206E+03  0.53924356340E+03  0.96750504463E+03  0.50400001928E-02 0.  1.
       -1    1    3    3    0  502  0.77374849786E+03  0.21586026206E+03  0.43136576310E+03  0.91178879807E+03  0.50400001928E-02 0. -1.
</event>
<event>
 5   0  0.7633213E-04  0.1605179E+04  0.7818609E-02  0.8817373E-01
       -1   -1    0    0    0  501  0.00000000000E+00  0.00000000000E+00  0.55733240169E+03  0.55733240171E+03  0.50400001928E-02 0. -1.
        1   -1    0    0  501    0  0.00000000000E+00  0.00000000000E+00 -0.11557736241E+04  0.11557736241E+04  0.50400001928E-02 0.  1.
    10030    2    1    2    0    0  0.00000000000E+00  0.00000000000E+00 -0.59844122237E+03  0.17131060258E+04  0.16051792295E+04 0.  0.
        1    1    3    3  502    0 -0.34782283929E+03  0.56545138721E+03  0.18214224729E+03  0.68839799324E+03  0.50400001928E-02 0. -1.
       -1    1    3    3    0  502  0.34782283929E+03 -0.56545138721E+03 -0.78058346966E+03  0.10247080325E+04  0.50400001928E-02 0.  1.
</event>
<event>
 5   0  0.1414751E-03  0.1622784E+04  0.7818609E-02  0.8806672E-01
        2   -1    0    0  501    0  0.00000000000E+00  0.00000000000E+00  0.67575255175E+03  0.67575255175E+03  0.25500000920E-02 0. -1.
       -2   -1    0    0    0  501  0.00000000000E+00  0.00000000000E+00 -0.97425793644E+03  0.97425793644E+03  0.25500000920E-02 0.  1.
    10030    2    1    2    0    0  0.00000000000E+00  0.00000000000E+00 -0.29850538469E+03  0.16500104882E+04  0.16227843808E+04 0.  0.
        2    1    3    3  502    0  0.34318650820E+03  0.49641873259E+03  0.40220143146E+03  0.72524101439E+03  0.25500000920E-02 0. -1.
       -2    1    3    3    0  502 -0.34318650820E+03 -0.49641873259E+03 -0.70070681615E+03  0.92476947381E+03  0.25500000920E-02 0.  1.
</event>
<event>
 5   0  0.7499834E-04  0.1601073E+04  0.7818609E-02  0.8819889E-01
        1   -1    0    0  501    0  0.00000000000E+00  0.00000000000E+00  0.11898684772E+04  0.11898684772E+04  0.50400001928E-02 0. -1.
       -1   -1    0    0    0  501  0.00000000000E+00  0.00000000000E+00 -0.53859651299E+03  0.53859651302E+03  0.50400001928E-02 0.  1.
    10030    2    1    2    0    0  0.00000000000E+00  0.00000000000E+00  0.65127196419E+03  0.17284649902E+04  0.16010734059E+04 0.  0.
        3    1    3    3  502    0 -0.20332909054E+03  0.77162659381E+03  0.25643684595E+03  0.83815880685E+03  0.10100000352E+00 0.  1.
       -3    1    3    3    0  502  0.20332909054E+03 -0.77162659381E+03  0.39483511824E+03  0.89030618336E+03  0.10100000352E+00 0. -1.
</event>
<event>
 5   0  0.1375777E-03  0.1654380E+04  0.7818609E-02  0.8787819E-01
        2   -1    0    0  501    0  0.00000000000E+00  0.00000000000E+00  0.70161111282E+03  0.70161111283E+03  0.25500000920E-02 0.  1.
       -2   -1    0    0    0  501  0.00000000000E+00  0.00000000000E+00 -0.97524592138E+03  0.97524592138E+03  0.25500000920E-02 0. -1.
    10030    2    1    2    0    0  0.00000000000E+00  0.00000000000E+00 -0.27363480855E+03  0.16768570342E+04  0.16543800968E+04 0.  0.
        1    1    3    3  502    0  0.51123430372E+03 -0.57341087854E+03  0.17407915827E+03  0.78769543752E+03  0.50400001928E-02 0.  1.
       -1    1    3    3    0  502 -0.51123430372E+03  0.57341087854E+03 -0.44771396682E+03  0.88916159669E+03  0.50400001928E-02 0. -1.
</event>
<event>
 5   0  0.7499834E-04  0.1188772E+04  0.7818609E-02  0.9122742E-01
        1   -1    0    0  501    0  0.00000000000E+00  0.00000000000E+00  0.91421056753E+03  0.91421056754E+03  0.50400001928E-02 0.  1.
       -1   -1    0    0    0  501  0.00000000000E+00  0.00000000000E+00 -0.38644775936E+03  0.38644775939E+03  0.50400001928E-02 0. -1.
    10030    2    1    2    0    0  0.00000000000E+00  0.00000000000E+00  0.52776280817E+03  0.13006583269E+04  0.11887718460E+04 0.  0.
        3    1    3    3  502    0  0.20294675232E+03 -0.26743939128E+03  0.80053932823E+03  0.86808665381E+03  0.10100000352E+00 0.  1.
       -3    1    3    3    0  502 -0.20294675232E+03  0.26743939128E+03 -0.27277652006E+03  0.43257167312E+03  0.10100000352E+00 0. -1.
</event>
<event>
 5   0  0.1339162E-03  0.1831466E+04  0.7818609E-02  0.8689743E-01
       -2   -1    0    0    0  501  0.00000000000E+00  0.00000000000E+00  0.82296242371E+03  0.82296242372E+03  0.25500000920E-02 0.  1.
        2   -1    0    0  501    0  0.00000000000E+00  0.00000000000E+00 -0.10189617633E+04  0.10189617633E+04  0.25500000920E-02 0. -1.
    10030    2    1    2    0    0  0.00000000000E+00  0.00000000000E+00 -0.19599933956E+03  0.18419241870E+04  0.18314663441E+04 0.  0.
        5    1    3    3  502    0 -0.71181341654E+03 -0.10901997150E+03  0.47089938890E+03  0.86042548696E+03  0.46999998093E+01 0.  1.
       -5    1    3    3    0  502  0.71181341654E+03  0.10901997150E+03 -0.66689872846E+03  0.98149870003E+03  0.46999998093E+01 0. -1.
</event>
<event>
 5   0  0.1375777E-03  0.1566840E+04  0.7818609E-02  0.8841183E-01
        2   -1    0    0  501    0  0.00000000000E+00  0.00000000000E+00  0.18396816086E+04  0.18396816086E+04  0.25500000920E-02 0.  1.
       -2   -1    0    0    0  501  0.00000000000E+00  0.00000000000E+00 -0.33361572904E+03  0.33361572905E+03  0.25500000920E-02 0. -1.
    10030    2    1    2    0    0  0.00000000000E+00  0.00000000000E+00  0.15060658795E+04  0.21732973376E+04  0.15668397762E+04 0.  0.
        1    1    3    3  502    0 -0.41156441167E+02  0.78160701074E+03  0.79993414413E+03  0.11191505738E+04  0.50400001928E-02 0.  1.
       -1    1    3    3    0  502  0.41156441167E+02 -0.78160701074E+03  0.70613173541E+03  0.10541467638E+04  0.50400001928E-02 0. -1.
</event>
<event>
 5   0  0.7124495E-04  0.1613748E+04  0.7818609E-02  0.8812147E-01
        1   -1    0    0  501    0  0.00000000000E+00  0.00000000000E+00  0.13574914294E+04  0.13574914294E+04  0.50400001928E-02 0.  1.
       -1   -1    0    0    0  501  0.00000000000E+00  0.00000000000E+00 -0.47959442808E+03  0.47959442811E+03  0.50400001928E-02 0. -1.
    10030    2    1    2    0    0  0.00000000000E+00  0.00000000000E+00  0.87789700131E+03  0.18370858575E+04  0.16137475958E+04 0.  0.
        2    1    3    3  502    0  0.11408422333E+03 -0.15848243495E+03  0.13301859266E+04  0.13444428182E+04  0.25500000920E-02 0.  1.
       -2    1    3    3    0  502 -0.11408422333E+03  0.15848243495E+03 -0.45228892528E+03  0.49264303927E+03  0.25500000920E-02 0. -1.
</event>
<event>
 5   0  0.1414751E-03  0.1577599E+04  0.7818609E-02  0.8834429E-01
       -2   -1    0    0    0  501  0.00000000000E+00  0.00000000000E+00  0.36656550316E+03  0.36656550317E+03  0.25500000920E-02 0. -1.
        2   -1    0    0  501    0  0.00000000000E+00  0.00000000000E+00 -0.16973910483E+04  0.16973910483E+04  0.25500000920E-02 0.  1.
    10030    2    1    2    0    0  0.00000000000E+00  0.00000000000E+00 -0.13308255452E+04  0.20639565515E+04  0.15775994469E+04 0.  0.
        2    1    3    3  502    0 -0.29543168842E+03  0.69263656296E+03 -0.35809086279E+03  0.83381913920E+03  0.25500000920E-02 0.  1.
       -2    1    3    3    0  502  0.29543168842E+03 -0.69263656296E+03 -0.97273468238E+03  0.12301374123E+04  0.25500000920E-02 0. -1.
</event>
<event>
 5   0  0.1375777E-03  0.1592901E+04  0.7818609E-02  0.8824921E-01
        2   -1    0    0  501    0  0.00000000000E+00  0.00000000000E+00  0.40047225267E+03  0.40047225268E+03  0.25500000920E-02 0.  1.
       -2   -1    0    0    0  501  0.00000000000E+00  0.00000000000E+00 -0.15839635063E+04  0.15839635063E+04  0.25500000920E-02 0. -1.
    10030    2    1    2    0    0  0.00000000000E+00  0.00000000000E+00 -0.11834912536E+04  0.19844357590E+04  0.15929010434E+04 0.  0.
        1    1    3    3  502    0  0.32285674348E+03 -0.50983449486E+03  0.55789583604E+02  0.60603644002E+03  0.50400001928E-02 0.  1.
       -1    1    3    3    0  502 -0.32285674348E+03  0.50983449486E+03 -0.12392808372E+04  0.13783993189E+04  0.50400001928E-02 0. -1.
</event>
<event>
 5   0  0.7124495E-04  0.1620822E+04  0.7818609E-02  0.8807858E-01
       -1   -1    0    0    0  501  0.00000000000E+00  0.00000000000E+00  0.51320273729E+03  0.51320273732E+03  0.50400001928E-02 0.  1.
        1   -1    0    0  501    0  0.00000000000E+00  0.00000000000E+00 -0.12797395540E+04  0.12797395541E+04  0.50400001928E-02 0. -1.
    10030    2    1    2    0    0  0.00000000000E+00  0.00000000000E+00 -0.76653681676E+03  0.17929422914E+04  0.16208218189E+04 0.  0.
        2    1    3    3  502    0  0.74594380314E+03 -0.14203829891E+03 -0.70079294682E+02  0.76257336916E+03  0.25500000920E-02 0.  1.
       -2    1    3    3    0  502 -0.74594380314E+03  0.14203829891E+03 -0.69645752208E+03  0.10303689222E+04  0.25500000920E-02 0. -1.
</event>
<event>
 5   0  0.7601145E-04  0.1613023E+04  0.7818609E-02  0.8812587E-01
        1   -1    0    0  501    0  0.00000000000E+00  0.00000000000E+00  0.50894635082E+03  0.50894635084E+03  0.50400001928E-02 0.  1.
       -1   -1    0    0    0  501  0.00000000000E+00  0.00000000000E+00 -0.12780538889E+04  0.12780538889E+04  0.50400001928E-02 0. -1.
    10030    2    1    2    0    0  0.00000000000E+00  0.00000000000E+00 -0.76910753810E+03  0.17870002398E+04  0.16130230785E+04 0.  0.
        4    1    3    3  502    0 -0.47094323431E+03  0.16969143218E+02 -0.11096581566E+04  0.12055780021E+04  0.12699999809E+01 0. -1.
       -4    1    3    3    0  502  0.47094323431E+03 -0.16969143218E+02  0.34055061851E+03  0.58142223765E+03  0.12699999809E+01 0.  1.
</event>
<event>
 5   0  0.1339162E-03  0.1501575E+04  0.7818609E-02  0.8883406E-01
        2   -1    0    0  501    0  0.00000000000E+00  0.00000000000E+00  0.79530039308E+03  0.79530039309E+03  0.25500000920E-02 0.  1.
       -2   -1    0    0    0  501  0.00000000000E+00  0.00000000000E+00 -0.70876582105E+03  0.70876582105E+03  0.25500000920E-02 0. -1.
    10030    2    1    2    0    0  0.00000000000E+00  0.00000000000E+00  0.86534572039E+02  0.15040662141E+04  0.15015748214E+04 0.  0.
        5    1    3    3  502    0 -0.38996530922E+02  0.73745656238E+02 -0.70409431810E+03  0.70903459014E+03  0.46999998093E+01 0. -1.
       -5    1    3    3    0  502  0.38996530922E+02 -0.73745656238E+02  0.79062889014E+03  0.79503162400E+03  0.46999998093E+01 0.  1.
</event>
<event>
 5   0  0.7302027E-04  0.1674926E+04  0.7818609E-02  0.8775795E-01
        1   -1    0    0  501    0  0.00000000000E+00  0.00000000000E+00  0.93878264222E+03  0.93878264224E+03  0.50400001928E-02 0.  1.
       -1   -1    0    0    0  501  0.00000000000E+00  0.00000000000E+00 -0.74707880587E+03  0.74707880589E+03  0.50400001928E-02 0. -1.
    10030    2    1    2    0    0  0.00000000000E+00  0.00000000000E+00  0.19170383635E+03  0.16858614481E+04  0.16749264048E+04 0.  0.
        5    1    3    3  502    0  0.10577069977E+03 -0.77452397447E+03 -0.20652192182E+03  0.80854698203E+03  0.46999998093E+01 0.  1.
       -5    1    3    3    0  502 -0.10577069977E+03  0.77452397447E+03  0.39822575818E+03  0.87731446610E+03  0.46999998093E+01 0. -1.
</event>
<event>
 5   0  0.7499834E-04  0.1285742E+04  0.7818609E-02  0.9040949E-01
        1   -1    0    0  501    0  0.00000000000E+00  0.00000000000E+00  0.75163262139E+03  0.75163262141E+03  0.50400001928E-02 0.  1.
       -1   -1    0    0    0  501  0.00000000000E+00  0.00000000000E+00 -0.54984719027E+03  0.54984719029E+03  0.50400001928E-02 0. -1.
    10030    2    1    2    0    0  0.00000000000E+00  0.00000000000E+00  0.20178543112E+03  0.13014798117E+04  0.12857419415E+04 0.  0.
        3    1    3    3  502    0  0.37511553775E+02 -0.13397409049E+03 -0.53442570079E+03  0.55223818543E+03  0.10100000352E+00 0. -1.
       -3    1    3    3    0  502 -0.37511553775E+02  0.13397409049E+03  0.73621113190E+03  0.74924162627E+03  0.10100000352E+00 0.  1.
</event>
<event>
 5   0  0.1354766E-03  0.1419478E+04  0.7818609E-02  0.8939839E-01
        2   -1    0    0  501    0  0.00000000000E+00  0.00000000000E+00  0.73933785811E+03  0.73933785811E+03  0.25500000920E-02 0. -1.
       -2   -1    0    0    0  501  0.00000000000E+00  0.00000000000E+00 -0.68132511078E+03  0.68132511078E+03  0.25500000920E-02 0.  1.
    10030    2    1    2    0    0  0.00000000000E+00  0.00000000000E+00  0.58012747327E+02  0.14206629689E+04  0.14194779999E+04 0.  0.
        3    1    3    3  502    0 -0.30032146486E+03 -0.62332025591E+03 -0.12926581312E+03  0.70386844249E+03  0.10100000352E+00 0.  1.
       -3    1    3    3    0  502  0.30032146486E+03  0.62332025591E+03  0.18727856044E+03  0.71679452641E+03  0.10100000352E+00 0. -1.
</event>
<event>
 5   0  0.1339162E-03  0.1614079E+04  0.7818609E-02  0.8811945E-01
       -2   -1    0    0    0  501  0.00000000000E+00  0.00000000000E+00  0.39853155256E+03  0.39853155257E+03  0.25500000920E-02 0.  1.
        2   -1    0    0  501    0  0.00000000000E+00  0.00000000000E+00 -0.16342821885E+04  0.16342821885E+04  0.25500000920E-02 0. -1.
    10030    2    1    2    0    0  0.00000000000E+00  0.00000000000E+00 -0.12357506360E+04  0.20328137411E+04  0.16140793263E+04 0.  0.
        5    1    3    3  502    0  0.30258544380E+03 -0.10708290359E+02 -0.15600223199E+04  0.15891394988E+04  0.46999998093E+01 0. -1.
       -5    1    3    3    0  502 -0.30258544380E+03  0.10708290359E+02  0.32427168389E+03  0.44367424227E+03  0.46999998093E+01 0.  1.
</event>
<event>
 5   0  0.7302027E-04  0.1569902E+04  0.7818609E-02  0.8839255E-01
        1   -1    0    0  501    0  0.00000000000E+00  0.00000000000E+00  0.71358425272E+03  0.71358425274E+03  0.50400001928E-02 0.  1.
       -1   -1    0    0    0  501  0.00000000000E+00  0.00000000000E+00 -0.86345547653E+03  0.86345547654E+03  0.50400001928E-02 0. -1.
    10030    2    1    2    0    0  0.00000000000E+00  0.00000000000E+00 -0.14987122381E+03  0.15770397293E+04  0.15699022021E+04 0.  0.
        5    1    3    3  502    0 -0.16598638291E+02  0.39804643535E+03  0.60445994529E+03  0.72395469122E+03  0.46999998093E+01 0.  1.
       -5    1    3    3    0  502  0.16598638291E+02 -0.39804643535E+03 -0.75433116910E+03  0.85308503806E+03  0.46999998093E+01 0. -1.
</event>
<event>
 5   0  0.7124495E-04  0.1416085E+04  0.7818609E-02  0.8942257E-01
        1   -1    0    0  501    0  0.00000000000E+00  0.00000000000E+00  0.24776114394E+04  0.24776114394E+04  0.50400001928E-02 0. -1.
       -1   -1    0    0    0  501  0.00000000000E+00  0.00000000000E+00 -0.20234186574E+03  0.20234186580E+03  0.50400001928E-02 0.  1.
    10030    2    1    2    0    0  0.00000000000E+00  0.00000000000E+00  0.22752695736E+04  0.26799533052E+04  0.14160854795E+04 0.  0.
        2    1    3    3  502    0  0.18816093900E+03 -0.67352105585E+03  0.13474333750E+04  0.15180948099E+04  0.25500000920E-02 0. -1.
       -2    1    3    3    0  502 -0.18816093900E+03  0.67352105585E+03  0.92783619859E+03  0.11618584953E+04  0.25500000920E-02 0.  1.
</event>
<event>
 5   0  0.1375777E-03  0.1678588E+04  0.7818609E-02  0.8773671E-01
       -2   -1    0    0    0  501  0.00000000000E+00  0.00000000000E+00  0.39239229159E+03  0.39239229160E+03  0.25500000920E-02 0. -1.
        2   -1    0    0  501    0  0.00000000000E+00  0.00000000000E+00 -0.17951791041E+04  0.17951791041E+04  0.25500000920E-02 0.  1.
    10030    2    1    2    0    0  0.00000000000E+00  0.00000000000E+00 -0.14027868125E+04  0.21875713957E+04  0.16785880286E+04 0.  0.
        1    1    3    3  502    0  0.40198772448E+03 -0.71374124543E+03 -0.46324335093E+03  0.94107125037E+03  0.50400001928E-02 0. -1.
       -1    1    3    3    0  502 -0.40198772448E+03  0.71374124543E+03 -0.93954346156E+03  0.12465001453E+04  0.50400001928E-02 0.  1.
</event>
<event>
 5   0  0.1339162E-03  0.1626878E+04  0.7818609E-02  0.8804204E-01
       -2   -1    0    0    0  501  0.00000000000E+00  0.00000000000E+00  0.82160207036E+03  0.82160207036E+03  0.25500000920E-02 0. -1.
        2   -1    0    0  501    0  0.00000000000E+00  0.00000000000E+00 -0.80535715463E+03  0.80535715464E+03  0.25500000920E-02 0.  1.
    10030    2    1    2    0    0  0.00000000000E+00  0.00000000000E+00  0.16244915723E+02  0.16269592250E+04  0.16268781216E+04 0.  0.
        5    1    3    3  502    0  0.29753258777E+03  0.12722879334E+03  0.75444929011E+03  0.82093156108E+03  0.46999998093E+01 0. -1.
       -5    1    3    3    0  502 -0.29753258777E+03 -0.12722879334E+03 -0.73820437438E+03  0.80602766392E+03  0.46999998093E+01 0.  1.
</event>
<event>
 5   0  0.7633213E-04  0.1357916E+04  0.7818609E-02  0.8984857E-01
        1   -1    0    0  501    0  0.00000000000E+00  0.00000000000E+00  0.10101034805E+04  0.10101034805E+04  0.50400001928E-02 0. -1.
       -1   -1    0    0    0  501  0.00000000000E+00  0.00000000000E+00 -0.45637318584E+03  0.45637318587E+03  0.50400001928E-02 0.  1.
    10030    2    1    2    0    0  0.00000000000E+00  0.00000000000E+00  0.55373029463E+03  0.14664766664E+04  0.13579162617E+04 0.  0.
        1    1    3    3  502    0 -0.54431518175E+03  0.39513501974E+03  0.37686049339E+03  0.77099580571E+03  0.50400001928E-02 0. -1.
       -1    1    3    3    0  502  0.54431518175E+03 -0.39513501974E+03  0.17686980124E+03  0.69548086065E+03  0.50400001928E-02 0.  1.
</event>
<event>
 5   0  0.1414751E-03  0.1616607E+04  0.7818609E-02  0.8810410E-01
       -2   -1    0    0    0  501  0.00000000000E+00  0.00000000000E+00  0.39439802126E+03  0.39439802127E+03  0.25500000920E-02 0. -1.
        2   -1    0    0  501    0  0.00000000000E+00  0.00000000000E+00 -0.16565866720E+04  0.16565866720E+04  0.25500000920E-02 0.  1.
    10030    2    1    2    0    0  0.00000000000E+00  0.00000000000E+00 -0.12621886508E+04  0.20509846933E+04  0.16166069473E+04 0.  0.
        2    1    3    3  502    0 -0.20607196344E+03  0.49198893637E+03  0.13940892615E+03  0.55131988566E+03  0.25500000920E-02 0. -1.
       -2    1    3    3    0  502  0.20607196344E+03 -0.49198893637E+03 -0.14015975769E+04  0.14996648076E+04  0.25500000920E-02 0.  1.
</event>
<event>
 5   0  0.7124495E-04  0.1591982E+04  0.7818609E-02  0.8825489E-01
        1   -1    0    0  501    0  0.00000000000E+00  0.00000000000E+00  0.55266029899E+03  0.55266029901E+03  0.50400001928E-02 0.  1.
       -1   -1    0    0    0  501  0.00000000000E+00  0.00000000000E+00 -0.11464583583E+04  0.11464583583E+04  0.50400001928E-02 0. -1.
    10030    2    1    2    0    0  0.00000000000E+00  0.00000000000E+00 -0.59379805929E+03  0.16991186573E+04  0.15919824360E+04 0.  0.
        2    1    3    3  502    0 -0.10824969596E+03  0.45930876945E+03  0.38727061272E+03  0.61045972009E+03  0.25500000920E-02 0.  1.
       -2    1    3    3    0  502  0.10824969596E+03 -0.45930876945E+03 -0.98106867201E+03  0.10886589372E+04  0.25500000920E-02 0. -1.
</event>
<event>
 5   0  0.1375777E-03  0.1606658E+04  0.7818609E-02  0.8816468E-01
       -2   -1    0    0    0  501  0.00000000000E+00  0.00000000000E+00  0.70547168713E+03  0.70547168714E+03  0.25500000920E-02 0.  1.
        2   -1    0    0  501    0  0.00000000000E+00  0.00000000000E+00 -0.91476049997E+03  0.91476049998E+03  0.25500000920E-02 0. -1.
    10030    2    1    2    0    0  0.00000000000E+00  0.00000000000E+00 -0.20928881284E+03  0.16202321871E+04  0.16066581880E+04 0.  0.
        1    1    3    3  502    0 -0.65647721130E+03 -0.25671640590E+03 -0.49322045745E+03  0.86030928257E+03  0.50400001928E-02 0. -1.
       -1    1    3    3    0  502  0.65647721130E+03  0.25671640590E+03  0.28393164461E+03  0.75992290454E+03  0.50400001928E-02 0.  1.
</event>
<event>
 5   0  0.7499834E-04  0.1263254E+04  0.7818609E-02  0.9059224E-01
       -1   -1    0    0    0  501  0.00000000000E+00  0.00000000000E+00  0.17310103560E+04  0.17310103560E+04  0.50400001928E-02 0.  1.
        1   -1    0    0  501    0  0.00000000000E+00  0.00000000000E+00 -0.23047381611E+03  0.23047381616E+03  0.50400001928E-02 0. -1.
    10030    2    1    2    0    0  0.00000000000E+00  0.00000000000E+00  0.15005365399E+04  0.19614841722E+04  0.12632538344E+04 0.  0.
        3    1    3    3  502    0  0.11095079376E+03 -0.16636848545E+02 -0.21487871641E+03  0.24240407656E+03  0.10100000352E+00 0. -1.
       -3    1    3    3    0  502 -0.11095079376E+03  0.16636848545E+02  0.17154152563E+04  0.17190800956E+04  0.10100000352E+00 0.  1.
</event>
<event>
 5   0  0.7499834E-04  0.1535892E+04  0.7818609E-02  0.8860930E-01
        1   -1    0    0  501    0  0.00000000000E+00  0.00000000000E+00  0.16810752370E+04  0.16810752370E+04  0.50400001928E-02 0.  1.
       -1   -1    0    0    0  501  0.00000000000E+00  0.00000000000E+00 -0.35081190390E+03  0.35081190394E+03  0.50400001928E-02 0. -1.
    10030    2    1    2    0    0  0.00000000000E+00  0.00000000000E+00  0.13302633331E+04  0.20318871409E+04  0.15358921896E+04 0.  0.
        3    1    3    3  502    0 -0.65166637644E+03  0.38278652528E+02  0.12002374216E+04  0.13662738378E+04  0.10100000352E+00 0.  1.
       -3    1    3    3    0  502  0.65166637644E+03 -0.38278652528E+02  0.13002591145E+03  0.66561330311E+03  0.10100000352E+00 0. -1.
</event>
<event>
 5   0  0.1414796E-03  0.1591328E+04  0.7818609E-02  0.8825893E-01
        2   -1    0    0  501    0  0.00000000000E+00  0.00000000000E+00  0.28588722850E+04  0.28588722850E+04  0.25500000920E-02 0.  1.
       -2   -1    0    0    0  501  0.00000000000E+00  0.00000000000E+00 -0.22144448101E+03  0.22144448102E+03  0.25500000920E-02 0. -1.
    10030    2    1    2    0    0  0.00000000000E+00  0.00000000000E+00  0.26374278040E+04  0.30803167660E+04  0.15913283627E+04 0.  0.
        4    1    3    3  502    0 -0.28160762092E+03 -0.56458971318E+03  0.38032295111E+03  0.73668959299E+03  0.12699999809E+01 0. -1.
       -4    1    3    3    0  502  0.28160762092E+03  0.56458971318E+03  0.22571048529E+04  0.23436271730E+04  0.12699999809E+01 0.  1.
</event>
<event>
 5   0  0.1375777E-03  0.1518519E+04  0.7818609E-02  0.8872230E-01
       -2   -1    0    0    0  501  0.00000000000E+00  0.00000000000E+00  0.62932333432E+03  0.62932333433E+03  0.25500000920E-02 0. -1.
        2   -1    0    0  501    0  0.00000000000E+00  0.00000000000E+00 -0.91602365523E+03  0.91602365524E+03  0.25500000920E-02 0.  1.
    10030    2    1    2    0    0  0.00000000000E+00  0.00000000000E+00 -0.28670032091E+03  0.15453469896E+04  0.15185190957E+04 0.  0.
        1    1    3    3  502    0  0.47697255609E+02 -0.67045636672E+03 -0.50270094121E+03  0.83934200668E+03  0.50400001928E-02 0.  1.
       -1    1    3    3    0  502 -0.47697255609E+02  0.67045636672E+03  0.21600062030E+03  0.70600498288E+03  0.50400001928E-02 0. -1.
</event>
<event>
 5   0  0.5095750E-04  0.1419552E+04  0.7818609E-02  0.8939786E-01
       -4   -1    0    0    0  501  0.00000000000E+00  0.00000000000E+00  0.53242884460E+03  0.53243035926E+03  0.12699999809E+01 0. -1.
        4   -1    0    0  501    0  0.00000000000E+00  0.00000000000E+00 -0.94619292415E+03  0.94619377646E+03  0.12699999809E+01 0.  1.
    10030    2    1    2    0    0  0.00000000000E+00  0.00000000000E+00 -0.41376407955E+03  0.14786241357E+04  0.14195522608E+04 0.  0.
        1    1    3    3  502    0  0.31203765599E+03  0.17879251312E+03 -0.84426742511E+03  0.91767191666E+03  0.50400001928E-02 0.  1.
       -1    1    3    3    0  502 -0.31203765599E+03 -0.17879251312E+03  0.43050334556E+03  0.56095221906E+03  0.50400001928E-02 0. -1.
</event>
<event>
 5   0  0.7601145E-04  0.1565292E+04  0.7818609E-02  0.8842159E-01
       -1   -1    0    0    0  501  0.00000000000E+00  0.00000000000E+00  0.65203466426E+03  0.65203466428E+03  0.50400001928E-02 0. -1.
        1   -1    0    0  501    0  0.00000000000E+00  0.00000000000E+00 -0.93942030222E+03  0.93942030223E+03  0.50400001928E-02 0.  1.
    10030    2    1    2    0    0  0.00000000000E+00  0.00000000000E+00 -0.28738563796E+03  0.15914549665E+04  0.15652917957E+04 0.  0.
        4    1    3    3  502    0  0.92576737308E+02 -0.72594925188E+03 -0.42574677465E+03  0.84666091065E+03  0.12699999809E+01 0.  1.
       -4    1    3    3    0  502 -0.92576737308E+02  0.72594925188E+03  0.13836113669E+03  0.74479405586E+03  0.12699999809E+01 0. -1.
</event>
<event>
 5   0  0.7302027E-04  0.1552414E+04  0.7818609E-02  0.8850327E-01
        1   -1    0    0  501    0  0.00000000000E+00  0.00000000000E+00  0.93127548550E+03  0.93127548552E+03  0.50400001928E-02 0.  1.
       -1   -1    0    0    0  501  0.00000000000E+00  0.00000000000E+00 -0.64695911829E+03  0.64695911831E+03  0.50400001928E-02 0. -1.
    10030    2    1    2    0    0  0.00000000000E+00  0.00000000000E+00  0.28431636722E+03  0.15782346038E+04  0.15524138198E+04 0.  0.
        5    1    3    3  502    0 -0.77840136030E+02  0.23321441894E+03  0.89062841400E+03  0.92395298246E+03  0.46999998093E+01 0.  1.
       -5    1    3    3    0  502  0.77840136030E+02 -0.23321441894E+03 -0.60631204678E+03  0.65428162136E+03  0.46999998093E+01 0. -1.
</event>
<event>
 5   0  0.1414751E-03  0.1625761E+04  0.7818609E-02  0.8804876E-01
       -2   -1    0    0    0  501  0.00000000000E+00  0.00000000000E+00  0.95256811679E+03  0.95256811680E+03  0.25500000920E-02 0.  1.
        2   -1    0    0  501    0  0.00000000000E+00  0.00000000000E+00 -0.69367752285E+03  0.69367752285E+03  0.25500000920E-02 0. -1.
    10030    2    1    2    0    0  0.00000000000E+00  0.00000000000E+00  0.25889059394E+03  0.16462456397E+04  0.16257614728E+04 0.  0.
        2    1    3    3  502    0 -0.78994729098E+02  0.14235884504E+03  0.93588985060E+03  0.94994527235E+03  0.25500000920E-02 0.  1.
       -2    1    3    3    0  502  0.78994729098E+02 -0.14235884504E+03 -0.67699925666E+03  0.69630036730E+03  0.25500000920E-02 0. -1.
</event>
<event>
 5   0  0.7601145E-04  0.1607845E+04  0.7818609E-02  0.8815743E-01
        1   -1    0    0  501    0  0.00000000000E+00  0.00000000000E+00  0.13639676249E+04  0.13639676249E+04  0.50400001928E-02 0.  1.
       -1   -1    0    0    0  501  0.00000000000E+00  0.00000000000E+00 -0.47383191403E+03  0.47383191406E+03  0.50400001928E-02 0. -1.
    10030    2    1    2    0    0  0.00000000000E+00  0.00000000000E+00  0.89013571087E+03  0.18377995390E+04  0.16078450055E+04 0.  0.
        4    1    3    3  502    0 -0.16045302075E+03 -0.29711347327E+03 -0.38884220499E+03  0.51499656421E+03  0.12699999809E+01 0. -1.
       -4    1    3    3    0  502  0.16045302075E+03  0.29711347327E+03  0.12789779159E+04  0.13228029748E+04  0.12699999809E+01 0.  1.
</event>
<event>
 5   0  0.1339162E-03  0.1108766E+04  0.7818609E-02  0.9196690E-01
       -2   -1    0    0    0  501  0.00000000000E+00  0.00000000000E+00  0.40699477603E+03  0.40699477604E+03  0.25500000920E-02 0.  1.
        2   -1    0    0  501    0  0.00000000000E+00  0.00000000000E+00 -0.75514568261E+03  0.75514568261E+03  0.25500000920E-02 0. -1.
    10030    2    1    2    0    0  0.00000000000E+00  0.00000000000E+00 -0.34815090658E+03  0.11621404587E+04  0.11087657065E+04 0.  0.
        5    1    3    3  502    0  0.15897407287E+03 -0.50359854525E+03 -0.35081668270E+03  0.63401789051E+03  0.46999998093E+01 0.  1.
       -5    1    3    3    0  502 -0.15897407287E+03  0.50359854525E+03  0.26657761225E+01  0.52812256815E+03  0.46999998093E+01 0. -1.
</event>
<event>
 5   0  0.7302027E-04  0.1553346E+04  0.7818609E-02  0.8849733E-01
       -1   -1    0    0    0  501  0.00000000000E+00  0.00000000000E+00  0.56782902065E+03  0.56782902067E+03  0.50400001928E-02 0.  1.
        1   -1    0    0  501    0  0.00000000000E+00  0.00000000000E+00 -0.10623285882E+04  0.10623285882E+04  0.50400001928E-02 0. -1.
    10030    2    1    2    0    0  0.00000000000E+00  0.00000000000E+00 -0.49449956754E+03  0.16301576089E+04  0.15533460682E+04 0.  0.
        5    1    3    3  502    0 -0.14313016885E+03 -0.23262381686E+03  0.51575009730E+03  0.58362688275E+03  0.46999998093E+01 0.  1.
       -5    1    3    3    0  502  0.14313016885E+03  0.23262381686E+03 -0.10102496648E+04  0.10465307261E+04  0.46999998093E+01 0. -1.
</event>
<event>
 5   0  0.7633213E-04  0.1604587E+04  0.7818609E-02  0.8817735E-01
       -1   -1    0    0    0  501  0.00000000000E+00  0.00000000000E+00  0.67170488391E+03  0.67170488393E+03  0.50400001928E-02 0. -1.
        1   -1    0    0  501    0  0.00000000000E+00  0.00000000000E+00 -0.95827016591E+03  0.95827016592E+03  0.50400001928E-02 0.  1.
    10030    2    1    2    0    0  0.00000000000E+00  0.00000000000E+00 -0.28656528200E+03  0.16299750499E+04  0.16045868634E+04 0.  0.
        1    1    3    3  502    0  0.60146051971E+03  0.33002252123E+03 -0.56580258538E+03  0.88927059265E+03  0.50400001928E-02 0.  1.
       -1    1    3    3    0  502 -0.60146051971E+03 -0.33002252123E+03  0.27923730339E+03  0.74070445720E+03  0.50400001928E-02 0. -1.
</event>
<event>
 5   0  0.1414751E-03  0.1564133E+04  0.7818609E-02  0.8842891E-01
       -2   -1    0    0    0  501  0.00000000000E+00  0.00000000000E+00  0.31244618599E+03  0.31244618600E+03  0.25500000920E-02 0. -1.
        2   -1    0    0  501    0  0.00000000000E+00  0.00000000000E+00 -0.19575454921E+04  0.19575454921E+04  0.25500000920E-02 0.  1.
    10030    2    1    2    0    0  0.00000000000E+00  0.00000000000E+00 -0.16450993061E+04  0.22699916781E+04  0.15641325045E+04 0.  0.
        2    1    3    3  502    0 -0.21858373029E+03 -0.52232294944E+03 -0.39629004432E+02  0.56760071235E+03  0.25500000920E-02 0. -1.
       -2    1    3    3    0  502  0.21858373029E+03  0.52232294944E+03 -0.16054703017E+04  0.17023909657E+04  0.25500000920E-02 0.  1.
</event>
<event>
 5   0  0.7302027E-04  0.1576901E+04  0.7818609E-02  0.8834865E-01
        1   -1    0    0  501    0  0.00000000000E+00  0.00000000000E+00  0.75561238463E+03  0.75561238465E+03  0.50400001928E-02 0. -1.
       -1   -1    0    0    0  501  0.00000000000E+00  0.00000000000E+00 -0.82271615388E+03  0.82271615389E+03  0.50400001928E-02 0.  1.
    10030    2    1    2    0    0  0.00000000000E+00  0.00000000000E+00 -0.67103769243E+02  0.15783285385E+04  0.15769014109E+04 0.  0.
        5    1    3    3  502    0 -0.11611230190E+03 -0.41435555134E+02 -0.81299503124E+03  0.82230285339E+03  0.46999998093E+01 0.  1.
       -5    1    3    3    0  502  0.11611230190E+03  0.41435555134E+02  0.74589126200E+03  0.75602568515E+03  0.46999998093E+01 0. -1.
</event>
<event>
 5   0  0.1375777E-03  0.1586060E+04  0.7818609E-02  0.8829158E-01
       -2   -1    0    0    0  501  0.00000000000E+00  0.00000000000E+00  0.46308647014E+03  0.46308647014E+03  0.25500000920E-02 0. -1.
        2   -1    0    0  501    0  0.00000000000E+00  0.00000000000E+00 -0.13580539897E+04  0.13580539897E+04  0.25500000920E-02 0.  1.
    10030    2    1    2    0    0  0.00000000000E+00  0.00000000000E+00 -0.89496751954E+03  0.18211404598E+04  0.15860598076E+04 0.  0.
        1    1    3    3  502    0  0.45335554752E+01  0.31721363510E+03 -0.12820180871E+04  0.13206874797E+04  0.50400001928E-02 0.  1.
       -1    1    3    3    0  502 -0.45335554752E+01 -0.31721363510E+03  0.38705056756E+03  0.50045298010E+03  0.50400001928E-02 0. -1.
</event>
<event>
 5   0  0.7633213E-04  0.1561588E+04  0.7818609E-02  0.8844500E-01
       -1   -1    0    0    0  501  0.00000000000E+00  0.00000000000E+00  0.93877813596E+03  0.93877813598E+03  0.50400001928E-02 0. -1.
        1   -1    0    0  501    0  0.00000000000E+00  0.00000000000E+00 -0.64939651924E+03  0.64939651926E+03  0.50400001928E-02 0.  1.
    10030    2    1    2    0    0  0.00000000000E+00  0.00000000000E+00  0.28938161673E+03  0.15881746552E+04  0.15615879788E+04 0.  0.
        1    1    3    3  502    0 -0.43802793392E+03 -0.64704359172E+02 -0.50936338774E+03  0.67491198373E+03  0.50400001928E-02 0.  1.
       -1    1    3    3    0  502  0.43802793392E+03  0.64704359172E+02  0.79874500446E+03  0.91326267151E+03  0.50400001928E-02 0. -1.
</event>
<event>
 5   0  0.7124495E-04  0.1731575E+04  0.7818609E-02  0.8743558E-01
       -1   -1    0    0    0  501  0.00000000000E+00  0.00000000000E+00  0.76190301181E+03  0.76190301182E+03  0.50400001928E-02 0. -1.
        1   -1    0    0  501    0  0.00000000000E+00  0.00000000000E+00 -0.98383629858E+03  0.98383629860E+03  0.50400001928E-02 0.  1.
    10030    2    1    2    0    0  0.00000000000E+00  0.00000000000E+00 -0.22193328678E+03  0.17457393104E+04  0.17315748197E+04 0.  0.
        2    1    3    3  502    0  0.81850566680E+03  0.20538183814E+03  0.84148414362E+02  0.84806496312E+03  0.25500000920E-02 0. -1.
       -2    1    3    3    0  502 -0.81850566680E+03 -0.20538183814E+03 -0.30608170114E+03  0.89767434730E+03  0.25500000920E-02 0.  1.
</event>
<event>
 5   0  0.1414796E-03  0.1564175E+04  0.7818609E-02  0.8842864E-01
       -2   -1    0    0    0  501  0.00000000000E+00  0.00000000000E+00  0.10561289394E+04  0.10561289394E+04  0.25500000920E-02 0. -1.
        2   -1    0    0  501    0  0.00000000000E+00  0.00000000000E+00 -0.57915393277E+03  0.57915393277E+03  0.25500000920E-02 0.  1.
    10030    2    1    2    0    0  0.00000000000E+00  0.00000000000E+00  0.47697500659E+03  0.16352828721E+04  0.15641754745E+04 0.  0.
        4    1    3    3  502    0 -0.64091210803E+03 -0.43756597559E+03  0.13697930012E+03  0.78803379038E+03  0.12699999809E+01 0.  1.
       -4    1    3    3    0  502  0.64091210803E+03  0.43756597559E+03  0.33999570647E+03  0.84724908175E+03  0.12699999809E+01 0. -1.
</event>
<event>
 5   0  0.1414751E-03  0.1536952E+04  0.7818609E-02  0.8860245E-01
       -2   -1    0    0    0  501  0.00000000000E+00  0.00000000000E+00  0.15439546888E+04  0.15439546888E+04  0.25500000920E-02 0.  1.
        2   -1    0    0  501    0  0.00000000000E+00  0.00000000000E+00 -0.38249539493E+03  0.38249539494E+03  0.25500000920E-02 0. -1.
    10030    2    1    2    0    0  0.00000000000E+00  0.00000000000E+00  0.11614592939E+04  0.19264500838E+04  0.15369522549E+04 0.  0.
        2    1    3    3  502    0  0.71576635017E+03  0.25675787545E+03  0.71979447564E+03  0.10470674103E+04  0.25500000920E-02 0.  1.
       -2    1    3    3    0  502 -0.71576635017E+03 -0.25675787545E+03  0.44166481827E+03  0.87938267343E+03  0.25500000920E-02 0. -1.
</event>
<event>
 5   0  0.1414796E-03  0.1565384E+04  0.7818609E-02  0.8842101E-01
        2   -1    0    0  501    0  0.00000000000E+00  0.00000000000E+00  0.80916171752E+03  0.80916171752E+03  0.25500000920E-02 0.  1.
       -2   -1    0    0    0  501  0.00000000000E+00  0.00000000000E+00 -0.75708780868E+03  0.75708780868E+03  0.25500000920E-02 0. -1.
    10030    2    1    2    0    0  0.00000000000E+00  0.00000000000E+00  0.52073908836E+02  0.15662495262E+04  0.15653836227E+04 0.  0.
        4    1    3    3  502    0  0.46066537645E+03 -0.31516513693E+03  0.57503273661E+03  0.80137751009E+03  0.12699999809E+01 0.  1.
       -4    1    3    3    0  502 -0.46066537645E+03  0.31516513693E+03 -0.52295882777E+03  0.76487201612E+03  0.12699999809E+01 0. -1.
</event>
<event>
 5   0  0.7124495E-04  0.1582731E+04  0.7818609E-02  0.8831228E-01
       -1   -1    0    0    0  501  0.00000000000E+00  0.00000000000E+00  0.51962964205E+03  0.51962964207E+03  0.50400001928E-02 0.  1.
        1   -1    0    0  501    0  0.00000000000E+00  0.00000000000E+00 -0.12052036230E+04  0.12052036230E+04  0.50400001928E-02 0. -1.
    10030    2    1    2    0    0  0.00000000000E+00  0.00000000000E+00 -0.68557398095E+03  0.17248332651E+04  0.15827312182E+04 0.  0.
        2    1    3    3  502    0  0.67868694019E+03 -0.16040762131E+03  0.64845622035E+02  0.70039383383E+03  0.25500000920E-02 0.  1.
       -2    1    3    3    0  502 -0.67868694019E+03  0.16040762131E+03 -0.75041960299E+03  0.10244394313E+04  0.25500000920E-02 0. -1.
</event>
<event>
 5   0  0.1375777E-03  0.1609152E+04  0.7818609E-02  0.8814945E-01
        2   -1    0    0  501    0  0.00000000000E+00  0.00000000000E+00  0.19316064773E+04  0.19316064773E+04  0.25500000920E-02 0.  1.
       -2   -1    0    0    0  501  0.00000000000E+00  0.00000000000E+00 -0.33513159476E+03  0.33513159477E+03  0.25500000920E-02 0. -1.
    10030    2    1    2    0    0  0.00000000000E+00  0.00000000000E+00  0.15964748826E+04  0.22667380721E+04  0.16091517756E+04 0.  0.
        1    1    3    3  502    0 -0.33818401065E+03 -0.48685201196E+03  0.15645621121E+04  0.16730953078E+04  0.50400001928E-02 0.  1.
       -1    1    3    3    0  502  0.33818401065E+03  0.48685201196E+03  0.31912770510E+02  0.59364276426E+03  0.50400001928E-02 0. -1.
</event>
<event>
 5   0  0.7601145E-04  0.1601834E+04  0.7818609E-02  0.8819422E-01
       -1   -1    0    0    0  501  0.00000000000E+00  0.00000000000E+00  0.16554727498E+04  0.16554727498E+04  0.50400001928E-02 0.  1.
        1   -1    0    0  501    0  0.00000000000E+00  0.00000000000E+00 -0.38748339267E+03  0.38748339270E+03  0.50400001928E-02 0. -1.
    10030    2    1    2    0    0  0.00000000000E+00  0.00000000000E+00  0.12679893571E+04  0.20429561425E+04  0.16018341957E+04 0.  0.
        4    1    3    3  502    0  0.66463666029E+03  0.44212726807E+03  0.71712177215E+03  0.10730720667E+04  0.12699999809E+01 0.  1.
       -4    1    3    3    0  502 -0.66463666029E+03 -0.44212726807E+03  0.55086758495E+03  0.96988407576E+03  0.12699999809E+01 0. -1.
</event>
<event>
 5   0  0.7124495E-04  0.1643771E+04  0.7818609E-02  0.8794100E-01
       -1   -1    0    0    0  501  0.00000000000E+00  0.00000000000E+00  0.10301366715E+04  0.10301366715E+04  0.50400001928E-02 0.  1.
        1   -1    0    0  501    0  0.00000000000E+00  0.00000000000E+00 -0.65573403668E+03  0.65573403670E+03  0.50400001928E-02 0. -1.
    10030    2    1    2    0    0  0.00000000000E+00  0.00000000000E+00  0.37440263481E+03  0.16858707082E+04  0.16437708818E+04 0.  0.
        2    1    3    3  502    0 -0.79345815319E+02  0.56446321546E+03 -0.42006234193E+03  0.70807263126E+03  0.25500000920E-02 0. -1.
       -2    1    3    3    0  502  0.79345815319E+02 -0.56446321546E+03  0.79446497674E+03  0.97779807695E+03  0.25500000920E-02 0.  1.
</event>
<event>
 5   0  0.7633213E-04  0.1598424E+04  0.7818609E-02  0.8821517E-01
       -1   -1    0    0    0  501  0.00000000000E+00  0.00000000000E+00  0.27542719386E+03  0.27542719391E+03  0.50400001928E-02 0. -1.
        1   -1    0    0  501    0  0.00000000000E+00  0.00000000000E+00 -0.23190866671E+04  0.23190866671E+04  0.50400001928E-02 0.  1.
    10030    2    1    2    0    0  0.00000000000E+00  0.00000000000E+00 -0.20436594733E+04  0.25945138611E+04  0.15984236399E+04 0.  0.
        1    1    3    3  502    0  0.56626615547E+03  0.48271322026E+03 -0.54840316758E+03  0.92434595584E+03  0.50400001928E-02 0. -1.
       -1    1    3    3    0  502 -0.56626615547E+03 -0.48271322026E+03 -0.14952563057E+04  0.16701679052E+04  0.50400001928E-02 0.  1.
</event>
<event>
 5   0  0.1375777E-03  0.1612631E+04  0.7818609E-02  0.8812826E-01
       -2   -1    0    0    0  501  0.00000000000E+00  0.00000000000E+00  0.53983437934E+03  0.53983437934E+03  0.25500000920E-02 0. -1.
        2   -1    0    0  501    0  0.00000000000E+00  0.00000000000E+00 -0.12043409269E+04  0.12043409269E+04  0.25500000920E-02 0.  1.
    10030    2    1    2    0    0  0.00000000000E+00  0.00000000000E+00 -0.66450654758E+03  0.17441753063E+04  0.16126309396E+04 0.  0.
        1    1    3    3  502    0 -0.48710127399E+03 -0.22104979384E+03  0.32029729697E+03  0.62347495615E+03  0.50400001928E-02 0. -1.
       -1    1    3    3    0  502  0.48710127399E+03  0.22104979384E+03 -0.98480384456E+03  0.11207003501E+04  0.50400001928E-02 0.  1.
</event>
<event>
 5   0  0.7499834E-04  0.1669640E+04  0.7818609E-02  0.8778872E-01
        1   -1    0    0  501    0  0.00000000000E+00  0.00000000000E+00  0.80048884280E+03  0.80048884282E+03  0.50400001928E-02 0. -1.
       -1   -1    0    0    0  501  0.00000000000E+00  0.00000000000E+00 -0.87062320752E+03  0.87062320754E+03  0.50400001928E-02 0.  1.
    10030    2    1    2    0    0  0.00000000000E+00  0.00000000000E+00 -0.70134364719E+02  0.16711120504E+04  0.16696396784E+04 0.  0.
        3    1    3    3  502    0 -0.37950083856E+03  0.61439890078E+03  0.38413059656E+03  0.81796284828E+03  0.10100000352E+00 0.  1.
       -3    1    3    3    0  502  0.37950083856E+03 -0.61439890078E+03 -0.45426496128E+03  0.85314920208E+03  0.10100000352E+00 0. -1.
</event>
<event>
 5   0  0.7302027E-04  0.1600399E+04  0.7818609E-02  0.8820303E-01
        1   -1    0    0  501    0  0.00000000000E+00  0.00000000000E+00  0.22620561068E+04  0.22620561069E+04  0.50400001928E-02 0.  1.
       -1   -1    0    0    0  501  0.00000000000E+00  0.00000000000E+00 -0.28306941303E+03  0.28306941308E+03  0.50400001928E-02 0. -1.
    10030    2    1    2    0    0  0.00000000000E+00  0.00000000000E+00  0.19789866938E+04  0.25451255199E+04  0.16003985684E+04 0.  0.
        5    1    3    3  502    0  0.23856308478E+03  0.53306363766E+03  0.18594185006E+04  0.19489813846E+04  0.46999998093E+01 0.  1.
       -5    1    3    3    0  502 -0.23856308478E+03 -0.53306363766E+03  0.11956819319E+03  0.59614413529E+03  0.46999998093E+01 0. -1.
</event>
<event>
 5   0  0.7499834E-04  0.1615057E+04  0.7818609E-02  0.8811351E-01
        1   -1    0    0  501    0  0.00000000000E+00  0.00000000000E+00  0.65763777204E+03  0.65763777206E+03  0.50400001928E-02 0.  1.
       -1   -1    0    0    0  501  0.00000000000E+00  0.00000000000E+00 -0.99158253406E+03  0.99158253407E+03  0.50400001928E-02 0. -1.
    10030    2    1    2    0    0  0.00000000000E+00  0.00000000000E+00 -0.33394476202E+03  0.16492203061E+04  0.16150568145E+04 0.  0.
        3    1    3    3  502    0  0.67835181695E+03 -0.26483189264E+03 -0.52336067107E+03  0.89677395209E+03  0.10100000352E+00 0. -1.
       -3    1    3    3    0  502 -0.67835181695E+03  0.26483189264E+03  0.18941590906E+03  0.75244635405E+03  0.10100000352E+00 0.  1.
</event>
<event>
 5   0  0.1414751E-03  0.1598939E+04  0.7818609E-02  0.8821200E-01
       -2   -1    0    0    0  501  0.00000000000E+00  0.00000000000E+00  0.82364748718E+03  0.82364748718E+03  0.25500000920E-02 0. -1.
        2   -1    0    0  501    0  0.00000000000E+00  0.00000000000E+00 -0.77600081939E+03  0.77600081939E+03  0.25500000920E-02 0.  1.
    10030    2    1    2    0    0  0.00000000000E+00  0.00000000000E+00  0.47646667789E+02  0.15996483066E+04  0.15989385541E+04 0.  0.
        2    1    3    3  502    0  0.18262797277E+03 -0.14067206831E+03  0.78967572204E+03  0.82263561388E+03  0.25500000920E-02 0. -1.
       -2    1    3    3    0  502 -0.18262797277E+03  0.14067206831E+03 -0.74202905425E+03  0.77701269269E+03  0.25500000920E-02 0.  1.
</event>
<event>
 5   0  0.1414751E-03  0.1602336E+04  0.7818609E-02  0.8819114E-01
       -2   -1    0    0    0  501  0.00000000000E+00  0.00000000000E+00  0.91611071582E+03  0.91611071583E+03  0.25500000920E-02 0.  1.
        2   -1    0    0  501    0  0.00000000000E+00  0.00000000000E+00 -0.70064680409E+03  0.70064680409E+03  0.25500000920E-02 0. -1.
    10030    2    1    2    0    0  0.00000000000E+00  0.00000000000E+00  0.21546391174E+03  0.16167575199E+04  0.16023358515E+04 0.  0.
        2    1    3    3  502    0  0.16677219776E+03 -0.31642162995E+03  0.83107647808E+03  0.90477827465E+03  0.25500000920E-02 0.  1.
       -2    1    3    3    0  502 -0.16677219776E+03  0.31642162995E+03 -0.61561256635E+03  0.71197924527E+03  0.25500000920E-02 0. -1.
</event>
<event>
 5   0  0.1414796E-03  0.1156636E+04  0.7818609E-02  0.9151684E-01
       -2   -1    0    0    0  501  0.00000000000E+00  0.00000000000E+00  0.42868171261E+03  0.42868171262E+03  0.25500000920E-02 0. -1.
        2   -1    0    0  501    0  0.00000000000E+00  0.00000000000E+00 -0.78018595954E+03  0.78018595954E+03  0.25500000920E-02 0.  1.
    10030    2    1    2    0    0  0.00000000000E+00  0.00000000000E+00 -0.35150424692E+03  0.12088676722E+04  0.11566355576E+04 0.  0.
        4    1    3    3  502    0  0.18147795560E+03 -0.32414346954E+03  0.28748620537E+03  0.46973733979E+03  0.12699999809E+01 0. -1.
       -4    1    3    3    0  502 -0.18147795560E+03  0.32414346954E+03 -0.63899045229E+03  0.73913033237E+03  0.12699999809E+01 0.  1.
</event>
<event>
 5   0  0.5095750E-04  0.1830835E+04  0.7818609E-02  0.8690072E-01
       -3   -1    0    0    0  501  0.00000000000E+00  0.00000000000E+00  0.12369915918E+04  0.12369915959E+04  0.10100000352E+00 0.  1.
        3   -1    0    0  501    0  0.00000000000E+00  0.00000000000E+00 -0.67744095116E+03  0.67744095868E+03  0.10100000352E+00 0. -1.
    10030    2    1    2    0    0  0.00000000000E+00  0.00000000000E+00  0.55955064065E+03  0.19144325546E+04  0.18308345329E+04 0.  0.
        3    1    3    3  502    0  0.65492659130E+02  0.53925927211E+03  0.10502359662E+04  0.11824066330E+04  0.10100000352E+00 0.  1.
       -3    1    3    3    0  502 -0.65492659130E+02 -0.53925927211E+03 -0.49068532554E+03  0.73202592158E+03  0.10100000352E+00 0. -1.
</event>
<event>
 5   0  0.7499834E-04  0.1587124E+04  0.7818609E-02  0.8828498E-01
        1   -1    0    0  501    0  0.00000000000E+00  0.00000000000E+00  0.73892895013E+03  0.73892895015E+03  0.50400001928E-02 0.  1.
       -1   -1    0    0    0  501  0.00000000000E+00  0.00000000000E+00 -0.85223413075E+03  0.85223413077E+03  0.50400001928E-02 0. -1.
    10030    2    1    2    0    0  0.00000000000E+00  0.00000000000E+00 -0.11330518062E+03  0.15911630809E+04  0.15871237778E+04 0.  0.
        3    1    3    3  502    0 -0.14066950439E+03  0.39826919432E+03 -0.73017649989E+03  0.84354252519E+03  0.10100000352E+00 0. -1.
       -3    1    3    3    0  502  0.14066950439E+03 -0.39826919432E+03  0.61687131927E+03  0.74762055573E+03  0.10100000352E+00 0.  1.
</event>
<event>
 5   0  0.7601145E-04  0.1598517E+04  0.7818609E-02  0.8821460E-01
        1   -1    0    0  501    0  0.00000000000E+00  0.00000000000E+00  0.12000964190E+04  0.12000964190E+04  0.50400001928E-02 0.  1.
       -1   -1    0    0    0  501  0.00000000000E+00  0.00000000000E+00 -0.53230238109E+03  0.53230238111E+03  0.50400001928E-02 0. -1.
    10030    2    1    2    0    0  0.00000000000E+00  0.00000000000E+00  0.66779403794E+03  0.17323988002E+04  0.15985170395E+04 0.  0.
        4    1    3    3  502    0  0.24484254896E+02 -0.34244970285E+03  0.11161099572E+04  0.11677218535E+04  0.12699999809E+01 0.  1.
       -4    1    3    3    0  502 -0.24484254896E+02  0.34244970285E+03 -0.44831591925E+03  0.56467694665E+03  0.12699999809E+01 0. -1.
</event>
<event>
 5   0  0.1339162E-03  0.1524165E+04  0.7818609E-02  0.8868541E-01
        2   -1    0    0  501    0  0.00000000000E+00  0.00000000000E+00  0.15754275062E+04  0.15754275062E+04  0.25500000920E-02 0. -1.
       -2   -1    0    0    0  501  0.00000000000E+00  0.00000000000E+00 -0.36864241290E+03  0.36864241291E+03  0.25500000920E-02 0.  1.
    10030    2    1    2    0    0  0.00000000000E+00  0.00000000000E+00  0.12067850933E+04  0.19440699191E+04  0.15241645544E+04 0.  0.
        5    1    3    3  502    0  0.35990489013E+03  0.48637083332E+03  0.11943480287E+04  0.13388716970E+04  0.46999998093E+01 0.  1.
       -5    1    3    3    0  502 -0.35990489013E+03 -0.48637083332E+03  0.12437064614E+02  0.60519822209E+03  0.46999998093E+01 0. -1.
</event>
<event>
 5   0  0.7302027E-04  0.1477400E+04  0.7818609E-02  0.8899622E-01
        1   -1    0    0  501    0  0.00000000000E+00  0.00000000000E+00  0.67730492608E+03  0.67730492610E+03  0.50400001928E-02 0.  1.
       -1   -1    0    0    0  501  0.00000000000E+00  0.00000000000E+00 -0.80566001288E+03  0.80566001290E+03  0.50400001928E-02 0. -1.
    10030    2    1    2    0    0  0.00000000000E+00  0.00000000000E+00 -0.12835508681E+03  0.14829649390E+04  0.14773997367E+04 0.  0.
        5    1    3    3  502    0  0.30413931313E+03 -0.67301266079E+03 -0.78676403452E+02  0.74273738955E+03  0.46999998093E+01 0.  1.
       -5    1    3    3    0  502 -0.30413931313E+03  0.67301266079E+03 -0.49678683353E+02  0.74022754944E+03  0.46999998093E+01 0. -1.
</event>
<event>
 5   0  0.7124495E-04  0.1600777E+04  0.7818609E-02  0.8820071E-01
        1   -1    0    0  501    0  0.00000000000E+00  0.00000000000E+00  0.16067209964E+04  0.16067209964E+04  0.50400001928E-02 0.  1.
       -1   -1    0    0    0  501  0.00000000000E+00  0.00000000000E+00 -0.39871388168E+03  0.39871388171E+03  0.50400001928E-02 0. -1.
    10030    2    1    2    0    0  0.00000000000E+00  0.00000000000E+00  0.12080071147E+04  0.20054348781E+04  0.16007772678E+04 0.  0.
        2    1    3    3  502    0 -0.54754827284E+03  0.15739101011E+03  0.13082899814E+04  0.14269561019E+04  0.25500000920E-02 0.  1.
       -2    1    3    3    0  502  0.54754827284E+03 -0.15739101011E+03 -0.10028286674E+03  0.57847877621E+03  0.25500000920E-02 0. -1.
</event>
<event>
 5   0  0.1339162E-03  0.1584313E+04  0.7818609E-02  0.8830244E-01
        2   -1    0    0  501    0  0.00000000000E+00  0.00000000000E+00  0.73636060729E+03  0.73636060730E+03  0.25500000920E-02 0. -1.
       -2   -1    0    0    0  501  0.00000000000E+00  0.00000000000E+00 -0.85218000987E+03  0.85218000988E+03  0.25500000920E-02 0.  1.
    10030    2    1    2    0    0  0.00000000000E+00  0.00000000000E+00 -0.11581940258E+03  0.15885406172E+04  0.15843128348E+04 0.  0.
        5    1    3    3  502    0  0.45475586581E+03  0.41698896789E+02  0.59107946350E+03  0.74695295545E+03  0.46999998093E+01 0. -1.
       -5    1    3    3    0  502 -0.45475586581E+03 -0.41698896789E+02 -0.70689886609E+03  0.84158766172E+03  0.46999998093E+01 0.  1.
</event>
<event>
 5   0  0.7499834E-04  0.1595902E+04  0.7818609E-02  0.8823070E-01
        1   -1    0    0  501    0  0.00000000000E+00  0.00000000000E+00  0.19295602679E+04  0.19295602679E+04  0.50400001928E-02 0.  1.
       -1   -1    0    0    0  501  0.00000000000E+00  0.00000000000E+00 -0.32998474259E+03  0.32998474263E+03  0.50400001928E-02 0. -1.
    10030    2    1    2    0    0  0.00000000000E+00  0.00000000000E+00  0.15995755253E+04  0.22595450106E+04  0.15959015614E+04 0.  0.
        3    1    3    3  502    0 -0.67758714269E+02  0.42552311669E+03 -0.15111062658E+03  0.45661318188E+03  0.10100000352E+00 0. -1.
       -3    1    3    3    0  502  0.67758714269E+02 -0.42552311669E+03  0.17506861519E+04  0.18029318287E+04  0.10100000352E+00 0.  1.
</event>
<event>
 5   0  0.7499834E-04  0.1607245E+04  0.7818609E-02  0.8816109E-01
        1   -1    0    0  501    0  0.00000000000E+00  0.00000000000E+00  0.72836841565E+03  0.72836841567E+03  0.50400001928E-02 0.  1.
       -1   -1    0    0    0  501  0.00000000000E+00  0.00000000000E+00 -0.88665178689E+03  0.88665178690E+03  0.50400001928E-02 0. -1.
    10030    2    1    2    0    0  0.00000000000E+00  0.00000000000E+00 -0.15828337124E+03  0.16150202026E+04  0.16072450433E+04 0.  0.
        3    1    3    3  502    0  0.78365850312E+03  0.16628058180E+02 -0.25723339192E+03  0.82496434465E+03  0.10100000352E+00 0.  1.
       -3    1    3    3    0  502 -0.78365850312E+03 -0.16628058180E+02  0.98950020682E+02  0.79005585791E+03  0.10100000352E+00 0. -1.
</event>
<event>
 5   0  0.7499834E-04  0.1409104E+04  0.7818609E-02  0.8947255E-01
        1   -1    0    0  501    0  0.00000000000E+00  0.00000000000E+00  0.73920940109E+03  0.73920940111E+03  0.50400001928E-02 0.  1.
       -1   -1    0    0    0  501  0.00000000000E+00  0.00000000000E+00 -0.67151926857E+03  0.67151926858E+03  0.50400001928E-02 0. -1.
    10030    2    1    2    0    0  0.00000000000E+00  0.00000000000E+00  0.67690132523E+02  0.14107286697E+04  0.14091037667E+04 0.  0.
        3    1    3    3  502    0 -0.56326270052E+03 -0.11454455895E+03 -0.37406559090E+03  0.68579180681E+03  0.10100000352E+00 0.  1.
       -3    1    3    3    0  502  0.56326270052E+03  0.11454455895E+03  0.44175572343E+03  0.72493686288E+03  0.10100000352E+00 0. -1.
</event>
<event>
 5   0  0.5095750E-04  0.1593026E+04  0.7818609E-02  0.8824844E-01
       -4   -1    0    0    0  501  0.00000000000E+00  0.00000000000E+00  0.39189362645E+03  0.39189568427E+03  0.12699999809E+01 0. -1.
        4   -1    0    0  501    0  0.00000000000E+00  0.00000000000E+00 -0.16188846519E+04  0.16188851500E+04  0.12699999809E+01 0.  1.
    10030    2    1    2    0    0  0.00000000000E+00  0.00000000000E+00 -0.12269910254E+04  0.20107808343E+04  0.15930262355E+04 0.  0.
        3    1    3    3  502    0  0.62620138406E+03 -0.10393015119E+03 -0.12208196993E+04  0.13759834295E+04  0.10100000352E+00 0.  1.
       -3    1    3    3    0  502 -0.62620138406E+03  0.10393015119E+03 -0.61713261116E+01  0.63479740484E+03  0.10100000352E+00 0. -1.
</event>
<event>
 5   0  0.7601145E-04  0.1575787E+04  0.7818609E-02  0.8835562E-01
       -1   -1    0    0    0  501  0.00000000000E+00  0.00000000000E+00  0.73027841388E+03  0.73027841389E+03  0.50400001928E-02 0. -1.
        1   -1    0    0  501    0  0.00000000000E+00  0.00000000000E+00 -0.85005462545E+03  0.85005462546E+03  0.50400001928E-02 0.  1.
    10030    2    1    2    0    0  0.00000000000E+00  0.00000000000E+00 -0.11977621157E+03  0.15803330394E+04  0.15757874776E+04 0.  0.
        4    1    3    3  502    0  0.55543611600E+03  0.34535097991E+03 -0.50047114626E+03  0.82355908071E+03  0.12699999809E+01 0.  1.
       -4    1    3    3    0  502 -0.55543611600E+03 -0.34535097991E+03  0.38069493469E+03  0.75677395864E+03  0.12699999809E+01 0. -1.
</event>
<event>
 5   0  0.7601145E-04  0.1878620E+04  0.7818609E-02  0.8665572E-01
        1   -1    0    0  501    0  0.00000000000E+00  0.00000000000E+00  0.14118736796E+04  0.14118736796E+04  0.50400001928E-02 0.  1.
       -1   -1    0    0    0  501  0.00000000000E+00  0.00000000000E+00 -0.62491657023E+03  0.62491657025E+03  0.50400001928E-02 0. -1.
    10030    2    1    2    0    0  0.00000000000E+00  0.00000000000E+00  0.78695710940E+03  0.20367902499E+04  0.18786199802E+04 0.  0.
        4    1    3    3  502    0 -0.49072970404E+02  0.85097662501E+03 -0.34376512662E+02  0.85308424570E+03  0.12699999809E+01 0. -1.
       -4    1    3    3    0  502  0.49072970404E+02 -0.85097662501E+03  0.82133362206E+03  0.11837060042E+04  0.12699999809E+01 0.  1.
</event>
<event>
 5   0  0.1354766E-03  0.1607633E+04  0.7818609E-02  0.8815873E-01
        2   -1    0    0  501    0  0.00000000000E+00  0.00000000000E+00  0.11381868246E+04  0.11381868246E+04  0.25500000920E-02 0. -1.
       -2   -1    0    0    0  501  0.00000000000E+00  0.00000000000E+00 -0.56767541794E+03  0.56767541795E+03  0.25500000920E-02 0.  1.
    10030    2    1    2    0    0  0.00000000000E+00  0.00000000000E+00  0.57051140665E+03  0.17058622425E+04  0.16076326463E+04 0.  0.
        3    1    3    3  502    0 -0.74071411508E+03  0.48730860789E+02 -0.41950333206E+02  0.74349979000E+03  0.10100000352E+00 0.  1.
       -3    1    3    3    0  502  0.74071411508E+03 -0.48730860789E+02  0.61246173985E+03  0.96236245254E+03  0.10100000352E+00 0. -1.
</event>
<event>
 5   0  0.1414796E-03  0.1600184E+04  0.7818609E-02  0.8820435E-01
        2   -1    0    0  501    0  0.00000000000E+00  0.00000000000E+00  0.49298541762E+03  0.49298541762E+03  0.25500000920E-02 0. -1.
       -2   -1    0    0    0  501  0.00000000000E+00  0.00000000000E+00 -0.12985112449E+04  0.12985112449E+04  0.25500000920E-02 0.  1.
    10030    2    1    2    0    0  0.00000000000E+00  0.00000000000E+00 -0.80552582724E+03  0.17914966625E+04  0.16001838748E+04 0.  0.
        4    1    3    3  502    0  0.63495119428E+03 -0.41984853847E+03 -0.67861424818E+03  0.10197817046E+04  0.12699999809E+01 0.  1.
       -4    1    3    3    0  502 -0.63495119428E+03  0.41984853847E+03 -0.12691157906E+03  0.77171495785E+03  0.12699999809E+01 0. -1.
</event>
<event>
 5   0  0.1414796E-03  0.1530957E+04  0.7818609E-02  0.8864124E-01
       -2   -1    0    0    0  501  0.00000000000E+00  0.00000000000E+00  0.37309469656E+03  0.37309469657E+03  0.25500000920E-02 0.  1.
        2   -1    0    0  501    0  0.00000000000E+00  0.00000000000E+00 -0.15705334629E+04  0.15705334629E+04  0.25500000920E-02 0. -1.
    10030    2    1    2    0    0  0.00000000000E+00  0.00000000000E+00 -0.11974387663E+04  0.19436281595E+04  0.15309574857E+04 0.  0.
        4    1    3    3  502    0  0.27325241674E+03  0.70536920670E+03 -0.44988660218E+03  0.88012054216E+03  0.12699999809E+01 0.  1.
       -4    1    3    3    0  502 -0.27325241674E+03 -0.70536920670E+03 -0.74755216415E+03  0.10635076173E+04  0.12699999809E+01 0. -1.
</event>
<event>
 5   0  0.7302027E-04  0.1575940E+04  0.7818609E-02  0.8835467E-01
       -1   -1    0    0    0  501  0.00000000000E+00  0.00000000000E+00  0.30721795645E+03  0.30721795649E+03  0.50400001928E-02 0. -1.
        1   -1    0    0  501    0  0.00000000000E+00  0.00000000000E+00 -0.20210310325E+04  0.20210310325E+04  0.50400001928E-02 0.  1.
    10030    2    1    2    0    0  0.00000000000E+00  0.00000000000E+00 -0.17138130761E+04  0.23282489890E+04  0.15759403844E+04 0.  0.
        5    1    3    3  502    0 -0.39353825526E+03 -0.55487178387E+03 -0.14443727251E+04  0.15965555781E+04  0.46999998093E+01 0.  1.
       -5    1    3    3    0  502  0.39353825526E+03  0.55487178387E+03 -0.26944035099E+03  0.73169341095E+03  0.46999998093E+01 0. -1.
</event>
<event>
 5   0  0.7499834E-04  0.1599959E+04  0.7818609E-02  0.8820573E-01
       -1   -1    0    0    0  501  0.00000000000E+00  0.00000000000E+00  0.14359571527E+04  0.14359571527E+04  0.50400001928E-02 0.  1.
        1   -1    0    0  501    0  0.00000000000E+00  0.00000000000E+00 -0.44567275693E+03  0.44567275696E+03  0.50400001928E-02 0. -1.
    10030    2    1    2    0    0  0.00000000000E+00  0.00000000000E+00  0.99028439578E+03  0.18816299097E+04  0.15999587284E+04 0.  0.
        3    1    3    3  502    0  0.16527242988E+02  0.24928218028E+03  0.13889024896E+04  0.14111927193E+04  0.10100000352E+00 0.  1.
       -3    1    3    3    0  502 -0.16527242988E+02 -0.24928218028E+03 -0.39861809382E+03  0.47043719038E+03  0.10100000352E+00 0. -1.
</event>
<event>
 5   0  0.1414796E-03  0.1623783E+04  0.7818609E-02  0.8806069E-01
       -2   -1    0    0    0  501  0.00000000000E+00  0.00000000000E+00  0.69268056724E+03  0.69268056725E+03  0.25500000920E-02 0.  1.
        2   -1    0    0  501    0  0.00000000000E+00  0.00000000000E+00 -0.95161825344E+03  0.95161825345E+03  0.25500000920E-02 0. -1.
    10030    2    1    2    0    0  0.00000000000E+00  0.00000000000E+00 -0.25893768620E+03  0.16442988207E+04  0.16237825859E+04 0.  0.
        4    1    3    3  502    0 -0.19536669266E+03  0.68388299075E+03 -0.52595355779E+03  0.88458625780E+03  0.12699999809E+01 0. -1.
       -4    1    3    3    0  502  0.19536669266E+03 -0.68388299075E+03  0.26701587159E+03  0.75971256289E+03  0.12699999809E+01 0.  1.
</event>
<event>
 5   0  0.1339162E-03  0.1644508E+04  0.7818609E-02  0.8793662E-01
        2   -1    0    0  501    0  0.00000000000E+00  0.00000000000E+00  0.82734225446E+03  0.82734225446E+03  0.25500000920E-02 0. -1.
       -2   -1    0    0    0  501  0.00000000000E+00  0.00000000000E+00 -0.81719748207E+03  0.81719748208E+03  0.25500000920E-02 0.  1.
    10030    2    1    2    0    0  0.00000000000E+00  0.00000000000E+00  0.10144772384E+02  0.16445397365E+04  0.16445084459E+04 0.  0.
        5    1    3    3  502    0  0.71262916067E+03  0.19759665919E+03  0.36451650331E+03  0.82448719307E+03  0.46999998093E+01 0.  1.
       -5    1    3    3    0  502 -0.71262916067E+03 -0.19759665919E+03 -0.35437173093E+03  0.82005254346E+03  0.46999998093E+01 0. -1.
</event>
<event>
 5   0  0.7302027E-04  0.1591055E+04  0.7818609E-02  0.8826062E-01
       -1   -1    0    0    0  501  0.00000000000E+00  0.00000000000E+00  0.45707940983E+03  0.45707940985E+03  0.50400001928E-02 0.  1.
        1   -1    0    0  501    0  0.00000000000E+00  0.00000000000E+00 -0.13845820176E+04  0.13845820176E+04  0.50400001928E-02 0. -1.
    10030    2    1    2    0    0  0.00000000000E+00  0.00000000000E+00 -0.92750260779E+03  0.18416614275E+04  0.15910549098E+04 0.  0.
        5    1    3    3  502    0  0.14923024786E+03 -0.70826387031E+03 -0.84578993104E+03  0.11132340609E+04  0.46999998093E+01 0. -1.
       -5    1    3    3    0  502 -0.14923024786E+03  0.70826387031E+03 -0.81712676745E+02  0.72842736659E+03  0.46999998093E+01 0.  1.
</event>
<event>
 5   0  0.7499834E-04  0.1578585E+04  0.7818609E-02  0.8833813E-01
       -1   -1    0    0    0  501  0.00000000000E+00  0.00000000000E+00  0.44934154694E+03  0.44934154697E+03  0.50400001928E-02 0.  1.
        1   -1    0    0  501    0  0.00000000000E+00  0.00000000000E+00 -0.13864339326E+04  0.13864339326E+04  0.50400001928E-02 0. -1.
    10030    2    1    2    0    0  0.00000000000E+00  0.00000000000E+00 -0.93709238563E+03  0.18357754796E+04  0.15785846420E+04 0.  0.
        3    1    3    3  502    0  0.22304663537E+03  0.71701374013E+03 -0.18577637323E+03  0.77354468270E+03  0.10100000352E+00 0. -1.
       -3    1    3    3    0  502 -0.22304663537E+03 -0.71701374013E+03 -0.75131601241E+03  0.10622307969E+04  0.10100000352E+00 0.  1.
</event>
<event>
 5   0  0.1414751E-03  0.1646792E+04  0.7818609E-02  0.8792307E-01
       -2   -1    0    0    0  501  0.00000000000E+00  0.00000000000E+00  0.54080317177E+03  0.54080317177E+03  0.25500000920E-02 0.  1.
        2   -1    0    0  501    0  0.00000000000E+00  0.00000000000E+00 -0.12536557577E+04  0.12536557577E+04  0.25500000920E-02 0. -1.
    10030    2    1    2    0    0  0.00000000000E+00  0.00000000000E+00 -0.71285258594E+03  0.17944589295E+04  0.16467920453E+04 0.  0.
        2    1    3    3  502    0  0.43643339143E+03  0.55144519961E+03 -0.82309889227E+03  0.10826161369E+04  0.25500000920E-02 0. -1.
       -2    1    3    3    0  502 -0.43643339143E+03 -0.55144519961E+03  0.11024630634E+03  0.71184279261E+03  0.25500000920E-02 0.  1.
</event>
<event>
 5   0  0.1339162E-03  0.1703879E+04  0.7818609E-02  0.8759155E-01
       -2   -1    0    0    0  501  0.00000000000E+00  0.00000000000E+00  0.74455721209E+03  0.74455721209E+03  0.25500000920E-02 0. -1.
        2   -1    0    0  501    0  0.00000000000E+00  0.00000000000E+00 -0.97480902572E+03  0.97480902572E+03  0.25500000920E-02 0.  1.
    10030    2    1    2    0    0  0.00000000000E+00  0.00000000000E+00 -0.23025181363E+03  0.17193662378E+04  0.17038792099E+04 0.  0.
        5    1    3    3  502    0 -0.51677056549E+03 -0.28854720993E+03  0.50319776954E+03  0.77687926667E+03  0.46999998093E+01 0. -1.
       -5    1    3    3    0  502  0.51677056549E+03  0.28854720993E+03 -0.73344958317E+03  0.94248697114E+03  0.46999998093E+01 0.  1.
</event>
<event>
 5   0  0.1375777E-03  0.1338662E+04  0.7818609E-02  0.8999455E-01
       -2   -1    0    0    0  501  0.00000000000E+00  0.00000000000E+00  0.26681209426E+03  0.26681209427E+03  0.25500000920E-02 0. -1.
        2   -1    0    0  501    0  0.00000000000E+00  0.00000000000E+00 -0.16790992608E+04  0.16790992608E+04  0.25500000920E-02 0.  1.
    10030    2    1    2    0    0  0.00000000000E+00  0.00000000000E+00 -0.14122871666E+04  0.19459113551E+04  0.13386620040E+04 0.  0.
        1    1    3    3  502    0 -0.91556378778E+02 -0.64315323006E+03 -0.47186490991E+03  0.80292287367E+03  0.50400001928E-02 0. -1.
       -1    1    3    3    0  502  0.91556378778E+02  0.64315323006E+03 -0.94042225666E+03  0.11429884814E+04  0.50400001928E-02 0.  1.
</event>
<event>
 5   0  0.1414796E-03  0.1520206E+04  0.7818609E-02  0.8871126E-01
        2   -1    0    0  501    0  0.00000000000E+00  0.00000000000E+00  0.17416279552E+04  0.17416279552E+04  0.25500000920E-02 0. -1.
       -2   -1    0    0    0  501  0.00000000000E+00  0.00000000000E+00 -0.33173354168E+03  0.33173354169E+03  0.25500000920E-02 0.  1.
    10030    2    1    2    0    0  0.00000000000E+00  0.00000000000E+00  0.14098944135E+04  0.20733614969E+04  0.15202057885E+04 0.  0.
        4    1    3    3  502    0  0.64544608481E+03  0.33865674277E+02  0.12505071781E+04  0.14076637907E+04  0.12699999809E+01 0. -1.
       -4    1    3    3    0  502 -0.64544608481E+03 -0.33865674277E+02  0.15938723543E+03  0.66569770618E+03  0.12699999809E+01 0.  1.
</event>
<event>
 5   0  0.1339162E-03  0.1620878E+04  0.7818609E-02  0.8807824E-01
       -2   -1    0    0    0  501  0.00000000000E+00  0.00000000000E+00  0.66154708016E+03  0.66154708016E+03  0.25500000920E-02 0.  1.
        2   -1    0    0  501    0  0.00000000000E+00  0.00000000000E+00 -0.99284149679E+03  0.99284149680E+03  0.25500000920E-02 0. -1.
    10030    2    1    2    0    0  0.00000000000E+00  0.00000000000E+00 -0.33129441664E+03  0.16543885770E+04  0.16208780254E+04 0.  0.
        5    1    3    3  502    0  0.70868364248E+03  0.32718380081E+03 -0.38811571769E+03  0.87174402489E+03  0.46999998093E+01 0. -1.
       -5    1    3    3    0  502 -0.70868364248E+03 -0.32718380081E+03  0.56821301051E+02  0.78264455206E+03  0.46999998093E+01 0.  1.
</event>
<event>
 5   0  0.1354766E-03  0.1604101E+04  0.7818609E-02  0.8818032E-01
        2   -1    0    0  501    0  0.00000000000E+00  0.00000000000E+00  0.11532164999E+04  0.11532164999E+04  0.25500000920E-02 0.  1.
       -2   -1    0    0    0  501  0.00000000000E+00  0.00000000000E+00 -0.55781829241E+03  0.55781829242E+03  0.25500000920E-02 0. -1.
    10030    2    1    2    0    0  0.00000000000E+00  0.00000000000E+00  0.59539820748E+03  0.17110347923E+04  0.16041013170E+04 0.  0.
        3    1    3    3  502    0 -0.90983555045E+02  0.28283439986E+03 -0.49695514495E+03  0.57899717731E+03  0.10100000352E+00 0. -1.
       -3    1    3    3    0  502  0.90983555045E+02 -0.28283439986E+03  0.10923533524E+04  0.11320376150E+04  0.10100000352E+00 0.  1.
</event>
<event>
 5   0  0.7601145E-04  0.1534549E+04  0.7818609E-02  0.8861798E-01
       -1   -1    0    0    0  501  0.00000000000E+00  0.00000000000E+00  0.40756117737E+03  0.40756117740E+03  0.50400001928E-02 0.  1.
        1   -1    0    0  501    0  0.00000000000E+00  0.00000000000E+00 -0.14444701391E+04  0.14444701391E+04  0.50400001928E-02 0. -1.
    10030    2    1    2    0    0  0.00000000000E+00  0.00000000000E+00 -0.10369089618E+04  0.18520313165E+04  0.15345487293E+04 0.  0.
        4    1    3    3  502    0  0.76022034837E+03 -0.98755605799E+02 -0.47989647519E+03  0.90442793386E+03  0.12699999809E+01 0.  1.
       -4    1    3    3    0  502 -0.76022034837E+03  0.98755605799E+02 -0.55701248657E+03  0.94760338267E+03  0.12699999809E+01 0. -1.
</event>
<event>
 5   0  0.1339162E-03  0.1602363E+04  0.7818609E-02  0.8819098E-01
       -2   -1    0    0    0  501  0.00000000000E+00  0.00000000000E+00  0.56326683024E+03  0.56326683025E+03  0.25500000920E-02 0.  1.
        2   -1    0    0  501    0  0.00000000000E+00  0.00000000000E+00 -0.11395875371E+04  0.11395875371E+04  0.25500000920E-02 0. -1.
    10030    2    1    2    0    0  0.00000000000E+00  0.00000000000E+00 -0.57632070686E+03  0.17028543673E+04  0.16023630797E+04 0.  0.
        5    1    3    3  502    0 -0.39718250330E+03  0.36291377305E+03  0.34271031152E+03  0.63791284297E+03  0.46999998093E+01 0.  1.
       -5    1    3    3    0  502  0.39718250330E+03 -0.36291377305E+03 -0.91903101838E+03  0.10649415244E+04  0.46999998093E+01 0. -1.
</event>
<event>
 5   0  0.7302027E-04  0.1295806E+04  0.7818609E-02  0.9032898E-01
        1   -1    0    0  501    0  0.00000000000E+00  0.00000000000E+00  0.52306152344E+03  0.52306152346E+03  0.50400001928E-02 0.  1.
       -1   -1    0    0    0  501  0.00000000000E+00  0.00000000000E+00 -0.80254073639E+03  0.80254073641E+03  0.50400001928E-02 0. -1.
    10030    2    1    2    0    0  0.00000000000E+00  0.00000000000E+00 -0.27947921295E+03  0.13256022599E+04  0.12958058191E+04 0.  0.
        5    1    3    3  502    0 -0.30591339975E+03 -0.49446035728E+03  0.15263293988E+03  0.60115967713E+03  0.46999998093E+01 0.  1.
       -5    1    3    3    0  502  0.30591339975E+03  0.49446035728E+03 -0.43211215283E+03  0.72444258274E+03  0.46999998093E+01 0. -1.
</event>
<event>
 5   0  0.7302027E-04  0.1666395E+04  0.7818609E-02  0.8780766E-01
       -1   -1    0    0    0  501  0.00000000000E+00  0.00000000000E+00  0.38443486590E+03  0.38443486593E+03  0.50400001928E-02 0.  1.
        1   -1    0    0  501    0  0.00000000000E+00  0.00000000000E+00 -0.18058137072E+04  0.18058137072E+04  0.50400001928E-02 0. -1.
    10030    2    1    2    0    0  0.00000000000E+00  0.00000000000E+00 -0.14213788413E+04  0.21902485731E+04  0.16663946116E+04 0.  0.
        5    1    3    3  502    0 -0.27459493003E+02 -0.78101844664E+03 -0.33099565471E+03  0.84871906494E+03  0.46999998093E+01 0.  1.
       -5    1    3    3    0  502  0.27459493003E+02  0.78101844664E+03 -0.10903831865E+04  0.13415295082E+04  0.46999998093E+01 0. -1.
</event>
<event>
 5   0  0.7302027E-04  0.1600578E+04  0.7818609E-02  0.8820193E-01
       -1   -1    0    0    0  501  0.00000000000E+00  0.00000000000E+00  0.10083750247E+04  0.10083750247E+04  0.50400001928E-02 0.  1.
        1   -1    0    0  501    0  0.00000000000E+00  0.00000000000E+00 -0.63514342085E+03  0.63514342087E+03  0.50400001928E-02 0. -1.
    10030    2    1    2    0    0  0.00000000000E+00  0.00000000000E+00  0.37323160382E+03  0.16435184455E+04  0.16005783488E+04 0.  0.
        5    1    3    3  502    0  0.28090948665E+03 -0.21049581322E+03  0.92509141588E+03  0.98946189659E+03  0.46999998093E+01 0.  1.
       -5    1    3    3    0  502 -0.28090948665E+03  0.21049581322E+03 -0.55185981206E+03  0.65405654896E+03  0.46999998093E+01 0. -1.
</event>
<event>
 5   0  0.7633213E-04  0.1574990E+04  0.7818609E-02  0.8836062E-01
        1   -1    0    0  501    0  0.00000000000E+00  0.00000000000E+00  0.12134636931E+04  0.12134636931E+04  0.50400001928E-02 0. -1.
       -1   -1    0    0    0  501  0.00000000000E+00  0.00000000000E+00 -0.51105642447E+03  0.51105642450E+03  0.50400001928E-02 0.  1.
    10030    2    1    2    0    0  0.00000000000E+00  0.00000000000E+00  0.70240726864E+03  0.17245201176E+04  0.15749900524E+04 0.  0.
        1    1    3    3  502    0 -0.49937038831E+03  0.50258146034E+03  0.72762989268E+03  0.10155807057E+04  0.50400001928E-02 0. -1.
       -1    1    3    3    0  502  0.49937038831E+03 -0.50258146034E+03 -0.25222624046E+02  0.70893941193E+03  0.50400001928E-02 0.  1.
</event>
<event>
 5   0  0.1354766E-03  0.1617423E+04  0.7818609E-02  0.8809915E-01
        2   -1    0    0  501    0  0.00000000000E+00  0.00000000000E+00  0.83387408774E+03  0.83387408775E+03  0.25500000920E-02 0. -1.
       -2   -1    0    0    0  501  0.00000000000E+00  0.00000000000E+00 -0.78430858957E+03  0.78430858957E+03  0.25500000920E-02 0.  1.
    10030    2    1    2    0    0  0.00000000000E+00  0.00000000000E+00  0.49565498173E+02  0.16181826773E+04  0.16174233950E+04 0.  0.
        3    1    3    3  502    0 -0.63209869128E+03  0.50169263822E+03 -0.27875985290E+02  0.80747838331E+03  0.10100000352E+00 0.  1.
       -3    1    3    3    0  502  0.63209869128E+03 -0.50169263822E+03  0.77441483462E+02  0.81070429401E+03  0.10100000352E+00 0. -1.
</event>
<event>
 5   0  0.5095750E-04  0.1558929E+04  0.7818609E-02  0.8846185E-01
       -4   -1    0    0    0  501  0.00000000000E+00  0.00000000000E+00  0.32798589557E+03  0.32798835435E+03  0.12699999809E+01 0.  1.
        4   -1    0    0  501    0  0.00000000000E+00  0.00000000000E+00 -0.18524016676E+04  0.18524021029E+04  0.12699999809E+01 0. -1.
    10030    2    1    2    0    0  0.00000000000E+00  0.00000000000E+00 -0.15244157720E+04  0.21803904573E+04  0.15589288311E+04 0.  0.
        4    1    3    3  502    0 -0.61484065586E+03 -0.99275050590E+02 -0.14177518971E+04  0.15485175564E+04  0.12699999809E+01 0. -1.
       -4    1    3    3    0  502  0.61484065586E+03  0.99275050590E+02 -0.10666387489E+03  0.63187290089E+03  0.12699999809E+01 0.  1.
</event>
<event>
 5   0  0.7601145E-04  0.1643634E+04  0.7818609E-02  0.8794182E-01
        1   -1    0    0  501    0  0.00000000000E+00  0.00000000000E+00  0.71421905814E+03  0.71421905816E+03  0.50400001928E-02 0.  1.
       -1   -1    0    0    0  501  0.00000000000E+00  0.00000000000E+00 -0.94562419500E+03  0.94562419501E+03  0.50400001928E-02 0. -1.
    10030    2    1    2    0    0  0.00000000000E+00  0.00000000000E+00 -0.23140513685E+03  0.16598432532E+04  0.16436335625E+04 0.  0.
        4    1    3    3  502    0  0.55565631624E+03  0.52110719758E+03 -0.42708508865E+03  0.87333266228E+03  0.12699999809E+01 0.  1.
       -4    1    3    3    0  502 -0.55565631624E+03 -0.52110719758E+03  0.19567995180E+03  0.78651059089E+03  0.12699999809E+01 0. -1.
</event>
<event>
 5   0  0.1414796E-03  0.1559907E+04  0.7818609E-02  0.8845564E-01
       -2   -1    0    0    0  501  0.00000000000E+00  0.00000000000E+00  0.35131950312E+03  0.35131950313E+03  0.25500000920E-02 0.  1.
        2   -1    0    0  501    0  0.00000000000E+00  0.00000000000E+00 -0.17315509097E+04  0.17315509097E+04  0.25500000920E-02 0. -1.
    10030    2    1    2    0    0  0.00000000000E+00  0.00000000000E+00 -0.13802314066E+04  0.20828704129E+04  0.15599071835E+04 0.  0.
        4    1    3    3  502    0  0.67473022243E+03 -0.10106524207E+03 -0.11947828555E+04  0.13758570932E+04  0.12699999809E+01 0. -1.
       -4    1    3    3    0  502 -0.67473022243E+03  0.10106524207E+03 -0.18544855116E+03  0.70701331971E+03  0.12699999809E+01 0.  1.
</event>
<event>
 5   0  0.1414751E-03  0.1588039E+04  0.7818609E-02  0.8827930E-01
       -2   -1    0    0    0  501  0.00000000000E+00  0.00000000000E+00  0.70795822594E+03  0.70795822594E+03  0.25500000920E-02 0. -1.
        2   -1    0    0  501    0  0.00000000000E+00  0.00000000000E+00 -0.89054230632E+03  0.89054230632E+03  0.25500000920E-02 0.  1.
    10030    2    1    2    0    0  0.00000000000E+00  0.00000000000E+00 -0.18258408038E+03  0.15985005323E+04  0.15880387291E+04 0.  0.
        2    1    3    3  502    0  0.42586814265E+03  0.57778435622E+03  0.25045649834E+03  0.76021503194E+03  0.25500000920E-02 0. -1.
       -2    1    3    3    0  502 -0.42586814265E+03 -0.57778435622E+03 -0.43304057872E+03  0.83828550032E+03  0.25500000920E-02 0.  1.
</event>
<event>
 5   0  0.7633213E-04  0.1579261E+04  0.7818609E-02  0.8833391E-01
       -1   -1    0    0    0  501  0.00000000000E+00  0.00000000000E+00  0.34076608163E+03  0.34076608167E+03  0.50400001928E-02 0. -1.
        1   -1    0    0  501    0  0.00000000000E+00  0.00000000000E+00 -0.18297477501E+04  0.18297477501E+04  0.50400001928E-02 0.  1.
    10030    2    1    2    0    0  0.00000000000E+00  0.00000000000E+00 -0.14889816684E+04  0.21705138317E+04  0.15792605500E+04 0.  0.
        1    1    3    3  502    0  0.42582482779E+03 -0.52543495117E+03 -0.13046392726E+04  0.14695211137E+04  0.50400001928E-02 0.  1.
       -1    1    3    3    0  502 -0.42582482779E+03  0.52543495117E+03 -0.18434239584E+03  0.70099271808E+03  0.50400001928E-02 0. -1.
</event>
<event>
 5   0  0.1339162E-03  0.1608234E+04  0.7818609E-02  0.8815505E-01
        2   -1    0    0  501    0  0.00000000000E+00  0.00000000000E+00  0.28645746057E+04  0.28645746057E+04  0.25500000920E-02 0.  1.
       -2   -1    0    0    0  501  0.00000000000E+00  0.00000000000E+00 -0.22572436468E+03  0.22572436470E+03  0.25500000920E-02 0. -1.
    10030    2    1    2    0    0  0.00000000000E+00  0.00000000000E+00  0.26388502410E+04  0.30902989704E+04  0.16082341658E+04 0.  0.
        5    1    3    3  502    0 -0.31104143899E+03 -0.12939671330E+03  0.27224076327E+04  0.27431762055E+04  0.46999998093E+01 0.  1.
       -5    1    3    3    0  502  0.31104143899E+03  0.12939671330E+03 -0.83557391667E+02  0.34712276485E+03  0.46999998093E+01 0. -1.
</event>
<event>
 5   0  0.7499834E-04  0.1447610E+04  0.7818609E-02  0.8920059E-01
       -1   -1    0    0    0  501  0.00000000000E+00  0.00000000000E+00  0.12076011497E+04  0.12076011497E+04  0.50400001928E-02 0. -1.
        1   -1    0    0  501    0  0.00000000000E+00  0.00000000000E+00 -0.43382987707E+03  0.43382987710E+03  0.50400001928E-02 0.  1.
    10030    2    1    2    0    0  0.00000000000E+00  0.00000000000E+00  0.77377127259E+03  0.16414310268E+04  0.14476096965E+04 0.  0.
        3    1    3    3  502    0  0.20950051350E+03  0.50545322076E+03 -0.15039191537E+03  0.56744265080E+03  0.10100000352E+00 0.  1.
       -3    1    3    3    0  502 -0.20950051350E+03 -0.50545322076E+03  0.92416318797E+03  0.10739883760E+04  0.10100000352E+00 0. -1.
</event>
<event>
 5   0  0.1414796E-03  0.1501934E+04  0.7818609E-02  0.8883168E-01
        2   -1    0    0  501    0  0.00000000000E+00  0.00000000000E+00  0.14755878105E+04  0.14755878105E+04  0.25500000920E-02 0. -1.
       -2   -1    0    0    0  501  0.00000000000E+00  0.00000000000E+00 -0.38218788722E+03  0.38218788723E+03  0.25500000920E-02 0.  1.
    10030    2    1    2    0    0  0.00000000000E+00  0.00000000000E+00  0.10933999233E+04  0.18577756977E+04  0.15019344696E+04 0.  0.
        4    1    3    3  502    0  0.84762521038E+02 -0.37819469043E+03  0.13423151010E+04  0.13971497243E+04  0.12699999809E+01 0. -1.
       -4    1    3    3    0  502 -0.84762521038E+02  0.37819469043E+03 -0.24891517769E+03  0.46062597346E+03  0.12699999809E+01 0.  1.
</event>
<event>
 5   0  0.5095750E-04  0.1333345E+04  0.7818609E-02  0.9003532E-01
       -4   -1    0    0    0  501  0.00000000000E+00  0.00000000000E+00  0.28315417584E+03  0.28315702392E+03  0.12699999809E+01 0.  1.
        4   -1    0    0  501    0  0.00000000000E+00  0.00000000000E+00 -0.15696360141E+04  0.15696365279E+04  0.12699999809E+01 0. -1.
    10030    2    1    2    0    0  0.00000000000E+00  0.00000000000E+00 -0.12864818382E+04  0.18527935518E+04  0.13333448262E+04 0.  0.
        4    1    3    3  502    0  0.25721673718E+03 -0.32335100098E+03 -0.13702654423E+04  0.14312041486E+04  0.12699999809E+01 0. -1.
       -4    1    3    3    0  502 -0.25721673718E+03  0.32335100098E+03  0.83783604009E+02  0.42158940324E+03  0.12699999809E+01 0.  1.
</event>
<event>
 5   0  0.7633213E-04  0.1559873E+04  0.7818609E-02  0.8845586E-01
        1   -1    0    0  501    0  0.00000000000E+00  0.00000000000E+00  0.16564348469E+04  0.16564348469E+04  0.50400001928E-02 0.  1.
       -1   -1    0    0    0  501  0.00000000000E+00  0.00000000000E+00 -0.36723498421E+03  0.36723498425E+03  0.50400001928E-02 0. -1.
    10030    2    1    2    0    0  0.00000000000E+00  0.00000000000E+00  0.12891998627E+04  0.20236698312E+04  0.15598728473E+04 0.  0.
        1    1    3    3  502    0 -0.64205636294E+03  0.41124831273E+03  0.85753315377E+03  0.11474862342E+04  0.50400001928E-02 0.  1.
       -1    1    3    3    0  502  0.64205636294E+03 -0.41124831273E+03  0.43166670894E+03  0.87618359694E+03  0.50400001928E-02 0. -1.
</event>
<event>
 5   0  0.7633213E-04  0.1623856E+04  0.7818609E-02  0.8806025E-01
       -1   -1    0    0    0  501  0.00000000000E+00  0.00000000000E+00  0.79168629306E+03  0.79168629308E+03  0.50400001928E-02 0.  1.
        1   -1    0    0  501    0  0.00000000000E+00  0.00000000000E+00 -0.83268753914E+03  0.83268753916E+03  0.50400001928E-02 0. -1.
    10030    2    1    2    0    0  0.00000000000E+00  0.00000000000E+00 -0.41001246082E+02  0.16243738322E+04  0.16238562882E+04 0.  0.
        1    1    3    3  502    0 -0.31537096407E+03  0.24746327245E+03 -0.72679250448E+03  0.83001461480E+03  0.50400001928E-02 0. -1.
       -1    1    3    3    0  502  0.31537096407E+03 -0.24746327245E+03  0.68579125840E+03  0.79435921743E+03  0.50400001928E-02 0.  1.
</event>
<event>
 5   0  0.7499834E-04  0.1575597E+04  0.7818609E-02  0.8835681E-01
       -1   -1    0    0    0  501  0.00000000000E+00  0.00000000000E+00  0.52179916030E+03  0.52179916032E+03  0.50400001928E-02 0.  1.
        1   -1    0    0  501    0  0.00000000000E+00  0.00000000000E+00 -0.11893978112E+04  0.11893978112E+04  0.50400001928E-02 0. -1.
    10030    2    1    2    0    0  0.00000000000E+00  0.00000000000E+00 -0.66759865092E+03  0.17111969716E+04  0.15755973841E+04 0.  0.
        3    1    3    3  502    0 -0.36714121190E+03  0.18602242537E+03  0.39574824885E+03  0.57097609310E+03  0.10100000352E+00 0.  1.
       -3    1    3    3    0  502  0.36714121190E+03 -0.18602242537E+03 -0.10633468998E+04  0.11402208785E+04  0.10100000352E+00 0. -1.
</event>
<event>
 5   0  0.1414796E-03  0.1599495E+04  0.7818609E-02  0.8820859E-01
        2   -1    0    0  501    0  0.00000000000E+00  0.00000000000E+00  0.95341458831E+03  0.95341458831E+03  0.25500000920E-02 0.  1.
       -2   -1    0    0    0  501  0.00000000000E+00  0.00000000000E+00 -0.67084740507E+03  0.67084740507E+03  0.25500000920E-02 0. -1.
    10030    2    1    2    0    0  0.00000000000E+00  0.00000000000E+00  0.28256718324E+03  0.16242619934E+04  0.15994945483E+04 0.  0.
        4    1    3    3  502    0 -0.71523914315E+03  0.59087776232E+02 -0.21707699427E+03  0.74978825780E+03  0.12699999809E+01 0.  1.
       -4    1    3    3    0  502  0.71523914315E+03 -0.59087776232E+02  0.49964417751E+03  0.87447373558E+03  0.12699999809E+01 0. -1.
</event>
<event>
 5   0  0.1375777E-03  0.1582689E+04  0.7818609E-02  0.8831254E-01
        2   -1    0    0  501    0  0.00000000000E+00  0.00000000000E+00  0.12285800423E+04  0.12285800423E+04  0.25500000920E-02 0.  1.
       -2   -1    0    0    0  501  0.00000000000E+00  0.00000000000E+00 -0.50971521182E+03  0.50971521183E+03  0.25500000920E-02 0. -1.
    10030    2    1    2    0    0  0.00000000000E+00  0.00000000000E+00  0.71886483049E+03  0.17382952541E+04  0.15826887711E+04 0.  0.
        1    1    3    3  502    0  0.13510440809E+03 -0.26553874302E+03  0.11646288986E+04  0.12021333107E+04  0.50400001928E-02 0.  1.
       -1    1    3    3    0  502 -0.13510440809E+03  0.26553874302E+03 -0.44576406814E+03  0.53616194345E+03  0.50400001928E-02 0. -1.
</event>
<event>
 5   0  0.5095750E-04  0.1615541E+04  0.7818609E-02  0.8811057E-01
       -4   -1    0    0    0  501  0.00000000000E+00  0.00000000000E+00  0.75918289026E+03  0.75918395252E+03  0.12699999809E+01 0. -1.
        4   -1    0    0  501    0  0.00000000000E+00  0.00000000000E+00 -0.85946576799E+03  0.85946670630E+03  0.12699999809E+01 0.  1.
    10030    2    1    2    0    0  0.00000000000E+00  0.00000000000E+00 -0.10028287773E+03  0.16186506588E+04  0.16155411786E+04 0.  0.
        1    1    3    3  502    0  0.51326532293E+03 -0.58839669094E+03 -0.25752138508E+03  0.82217347405E+03  0.50400001928E-02 0.  1.
       -1    1    3    3    0  502 -0.51326532293E+03  0.58839669094E+03  0.15723850735E+03  0.79647718477E+03  0.50400001928E-02 0. -1.
</event>
<event>
 5   0  0.7124495E-04  0.1604929E+04  0.7818609E-02  0.8817526E-01
       -1   -1    0    0    0  501  0.00000000000E+00  0.00000000000E+00  0.45372533090E+03  0.45372533093E+03  0.50400001928E-02 0.  1.
        1   -1    0    0  501    0  0.00000000000E+00  0.00000000000E+00 -0.14192493888E+04  0.14192493888E+04  0.50400001928E-02 0. -1.
    10030    2    1    2    0    0  0.00000000000E+00  0.00000000000E+00 -0.96552405789E+03  0.18729747197E+04  0.16049291556E+04 0.  0.
        2    1    3    3  502    0  0.19881314620E+03  0.30424813462E+03  0.35216758467E+03  0.50607865221E+03  0.25500000920E-02 0.  1.
       -2    1    3    3    0  502 -0.19881314620E+03 -0.30424813462E+03 -0.13176916426E+04  0.13668960675E+04  0.25500000920E-02 0. -1.
</event>
<event>
 5   0  0.5095750E-04  0.1606063E+04  0.7818609E-02  0.8816832E-01
        3   -1    0    0  501    0  0.00000000000E+00  0.00000000000E+00  0.68858247000E+03  0.68858247741E+03  0.10100000352E+00 0. -1.
       -3   -1    0    0    0  501  0.00000000000E+00  0.00000000000E+00 -0.93650251181E+03  0.93650251725E+03  0.10100000352E+00 0.  1.
    10030    2    1    2    0    0  0.00000000000E+00  0.00000000000E+00 -0.24792004180E+03  0.16250849947E+04  0.16060625432E+04 0.  0.
        4    1    3    3  502    0  0.74541606746E+03  0.96518227308E+02  0.16204794217E+03  0.76890963727E+03  0.12699999809E+01 0. -1.
       -4    1    3    3    0  502 -0.74541606746E+03 -0.96518227308E+02 -0.40996798397E+03  0.85617535739E+03  0.12699999809E+01 0.  1.
</event>
<event>
 5   0  0.1414796E-03  0.1616671E+04  0.7818609E-02  0.8810371E-01
       -2   -1    0    0    0  501  0.00000000000E+00  0.00000000000E+00  0.63864757218E+03  0.63864757219E+03  0.25500000920E-02 0. -1.
        2   -1    0    0  501    0  0.00000000000E+00  0.00000000000E+00 -0.10231090754E+04  0.10231090754E+04  0.25500000920E-02 0.  1.
    10030    2    1    2    0    0  0.00000000000E+00  0.00000000000E+00 -0.38446150323E+03  0.16617566476E+04  0.16166708101E+04 0.  0.
        4    1    3    3  502    0 -0.21345594056E+03 -0.54802445050E+03  0.37777028469E+03  0.69900374663E+03  0.12699999809E+01 0. -1.
       -4    1    3    3    0  502  0.21345594056E+03  0.54802445050E+03 -0.76223178792E+03  0.96275290097E+03  0.12699999809E+01 0.  1.
</event>
<event>
 5   0  0.7499834E-04  0.2289359E+04  0.7818609E-02  0.8482128E-01
        1   -1    0    0  501    0  0.00000000000E+00  0.00000000000E+00  0.74385932965E+03  0.74385932966E+03  0.50400001928E-02 0.  1.
       -1   -1    0    0    0  501  0.00000000000E+00  0.00000000000E+00 -0.17614774941E+04  0.17614774942E+04  0.50400001928E-02 0. -1.
    10030    2    1    2    0    0  0.00000000000E+00  0.00000000000E+00 -0.10176181645E+04  0.25053368238E+04  0.22893592711E+04 0.  0.
        3    1    3    3  502    0  0.23060211458E+03  0.72070521113E+03 -0.14487304186E+04  0.16344458304E+04  0.10100000352E+00 0. -1.
       -3    1    3    3    0  502 -0.23060211458E+03 -0.72070521113E+03  0.43111225408E+03  0.87089099342E+03  0.10100000352E+00 0.  1.
</event>
<event>
 5   0  0.1414796E-03  0.1775205E+04  0.7818609E-02  0.8719598E-01
       -2   -1    0    0    0  501  0.00000000000E+00  0.00000000000E+00  0.72247578694E+03  0.72247578694E+03  0.25500000920E-02 0. -1.
        2   -1    0    0  501    0  0.00000000000E+00  0.00000000000E+00 -0.10904695615E+04  0.10904695615E+04  0.25500000920E-02 0.  1.
    10030    2    1    2    0    0  0.00000000000E+00  0.00000000000E+00 -0.36799377455E+03  0.18129453484E+04  0.17752046131E+04 0.  0.
        4    1    3    3  502    0 -0.50765922558E+03  0.79813713953E+02  0.55509346725E+03  0.75645124664E+03  0.12699999809E+01 0. -1.
       -4    1    3    3    0  502  0.50765922558E+03 -0.79813713953E+02 -0.92308724180E+03  0.10564941018E+04  0.12699999809E+01 0.  1.
</event>
<event>
 5   0  0.7499834E-04  0.1598650E+04  0.7818609E-02  0.8821378E-01
       -1   -1    0    0    0  501  0.00000000000E+00  0.00000000000E+00  0.12628106340E+04  0.12628106340E+04  0.50400001928E-02 0. -1.
        1   -1    0    0  501    0  0.00000000000E+00  0.00000000000E+00 -0.50595116788E+03  0.50595116791E+03  0.50400001928E-02 0.  1.
    10030    2    1    2    0    0  0.00000000000E+00  0.00000000000E+00  0.75685946615E+03  0.17687618020E+04  0.15986500745E+04 0.  0.
        3    1    3    3  502    0  0.68700990528E+02 -0.12664271106E+03  0.12483254588E+04  0.12566123760E+04  0.10100000352E+00 0. -1.
       -3    1    3    3    0  502 -0.68700990528E+02  0.12664271106E+03 -0.49146599263E+03  0.51214942592E+03  0.10100000352E+00 0.  1.
</event>
<event>
 5   0  0.7499834E-04  0.1571016E+04  0.7818609E-02  0.8838555E-01
        1   -1    0    0  501    0  0.00000000000E+00  0.00000000000E+00  0.13138928796E+04  0.13138928796E+04  0.50400001928E-02 0.  1.
       -1   -1    0    0    0  501  0.00000000000E+00  0.00000000000E+00 -0.46961425235E+03  0.46961425238E+03  0.50400001928E-02 0. -1.
    10030    2    1    2    0    0  0.00000000000E+00  0.00000000000E+00  0.84427862724E+03  0.17835071320E+04  0.15710160055E+04 0.  0.
        3    1    3    3  502    0  0.23498156116E+03  0.35480367849E+02 -0.42782462009E+03  0.48939667586E+03  0.10100000352E+00 0. -1.
       -3    1    3    3    0  502 -0.23498156116E+03 -0.35480367849E+02  0.12721032473E+04  0.12941104561E+04  0.10100000352E+00 0.  1.
</event>
<event>
 5   0  0.1375777E-03  0.1603119E+04  0.7818609E-02  0.8818634E-01
       -2   -1    0    0    0  501  0.00000000000E+00  0.00000000000E+00  0.75205441048E+03  0.75205441048E+03  0.25500000920E-02 0.  1.
        2   -1    0    0  501    0  0.00000000000E+00  0.00000000000E+00 -0.85432345460E+03  0.85432345460E+03  0.25500000920E-02 0. -1.
    10030    2    1    2    0    0  0.00000000000E+00  0.00000000000E+00 -0.10226904412E+03  0.16063778651E+04  0.16031191122E+04 0.  0.
        1    1    3    3  502    0 -0.26287633100E+03 -0.73368651320E+03 -0.23885956790E+03  0.81514033041E+03  0.50400001928E-02 0. -1.
       -1    1    3    3    0  502  0.26287633100E+03  0.73368651320E+03  0.13659052378E+03  0.79123753467E+03  0.50400001928E-02 0.  1.
</event>
<event>
 5   0  0.1375777E-03  0.9288640E+03  0.7818609E-02  0.9390202E-01
        2   -1    0    0  501    0  0.00000000000E+00  0.00000000000E+00  0.15997408021E+04  0.15997408021E+04  0.25500000920E-02 0.  1.
       -2   -1    0    0    0  501  0.00000000000E+00  0.00000000000E+00 -0.13483251548E+03  0.13483251550E+03  0.25500000920E-02 0. -1.
    10030    2    1    2    0    0  0.00000000000E+00  0.00000000000E+00  0.14649082866E+04  0.17345733176E+04  0.92886398677E+03 0.  0.
        1    1    3    3  502    0 -0.64344300355E+02 -0.54707211106E+02  0.15852797248E+04  0.15875279127E+04  0.50400001928E-02 0.  1.
       -1    1    3    3    0  502  0.64344300355E+02  0.54707211106E+02 -0.12037143817E+03  0.14704540485E+03  0.50400001928E-02 0. -1.
</event>
<event>
 5   0  0.1414796E-03  0.1635028E+04  0.7818609E-02  0.8799313E-01
       -2   -1    0    0    0  501  0.00000000000E+00  0.00000000000E+00  0.58753043043E+03  0.58753043043E+03  0.25500000920E-02 0.  1.
        2   -1    0    0  501    0  0.00000000000E+00  0.00000000000E+00 -0.11375225415E+04  0.11375225415E+04  0.25500000920E-02 0. -1.
    10030    2    1    2    0    0  0.00000000000E+00  0.00000000000E+00 -0.54999211107E+03  0.17250529719E+04  0.16350279612E+04 0.  0.
        4    1    3    3  502    0 -0.59563381885E+03 -0.55488581339E+03 -0.35429829769E+03  0.88781011974E+03  0.12699999809E+01 0. -1.
       -4    1    3    3    0  502  0.59563381885E+03  0.55488581339E+03 -0.19569381338E+03  0.83724285220E+03  0.12699999809E+01 0.  1.
</event>
<event>
 5   0  0.1414796E-03  0.1562140E+04  0.7818609E-02  0.8844151E-01
       -2   -1    0    0    0  501  0.00000000000E+00  0.00000000000E+00  0.28869826085E+03  0.28869826086E+03  0.25500000920E-02 0.  1.
        2   -1    0    0  501    0  0.00000000000E+00  0.00000000000E+00 -0.21131759073E+04  0.21131759073E+04  0.25500000920E-02 0. -1.
    10030    2    1    2    0    0  0.00000000000E+00  0.00000000000E+00 -0.18244776465E+04  0.24018741682E+04  0.15621398264E+04 0.  0.
        4    1    3    3  502    0 -0.19803486516E+03  0.25067194014E+03  0.18365465884E+03  0.36848999445E+03  0.12699999809E+01 0.  1.
       -4    1    3    3    0  502  0.19803486516E+03 -0.25067194014E+03 -0.20081323053E+04  0.20333841737E+04  0.12699999809E+01 0. -1.
</event>
<event>
 5   0  0.7633213E-04  0.1593576E+04  0.7818609E-02  0.8824504E-01
       -1   -1    0    0    0  501  0.00000000000E+00  0.00000000000E+00  0.39232149702E+03  0.39232149706E+03  0.50400001928E-02 0. -1.
        1   -1    0    0  501    0  0.00000000000E+00  0.00000000000E+00 -0.16182414120E+04  0.16182414120E+04  0.50400001928E-02 0.  1.
    10030    2    1    2    0    0  0.00000000000E+00  0.00000000000E+00 -0.12259199149E+04  0.20105629090E+04  0.15935757193E+04 0.  0.
        1    1    3    3  502    0  0.57460570059E+03  0.21775295410E+03 -0.12529163287E+04  0.13954882253E+04  0.50400001928E-02 0.  1.
       -1    1    3    3    0  502 -0.57460570059E+03 -0.21775295410E+03  0.26996413781E+02  0.61507468372E+03  0.50400001928E-02 0. -1.
</event>
<event>
 5   0  0.7499834E-04  0.1594655E+04  0.7818609E-02  0.8823838E-01
       -1   -1    0    0    0  501  0.00000000000E+00  0.00000000000E+00  0.72918826952E+03  0.72918826954E+03  0.50400001928E-02 0. -1.
        1   -1    0    0  501    0  0.00000000000E+00  0.00000000000E+00 -0.87183441927E+03  0.87183441929E+03  0.50400001928E-02 0.  1.
    10030    2    1    2    0    0  0.00000000000E+00  0.00000000000E+00 -0.14264614975E+03  0.16010226888E+04  0.15946553628E+04 0.  0.
        3    1    3    3  502    0 -0.29549125718E+03  0.18823914904E+03 -0.79041078257E+03  0.86457982611E+03  0.10100000352E+00 0.  1.
       -3    1    3    3    0  502  0.29549125718E+03 -0.18823914904E+03  0.64776463283E+03  0.73644286272E+03  0.10100000352E+00 0. -1.
</event>
<event>
 5   0  0.1414751E-03  0.1603385E+04  0.7818609E-02  0.8818471E-01
       -2   -1    0    0    0  501  0.00000000000E+00  0.00000000000E+00  0.67318182664E+03  0.67318182665E+03  0.25500000920E-02 0.  1.
        2   -1    0    0  501    0  0.00000000000E+00  0.00000000000E+00 -0.95473645231E+03  0.95473645231E+03  0.25500000920E-02 0. -1.
    10030    2    1    2    0    0  0.00000000000E+00  0.00000000000E+00 -0.28155462567E+03  0.16279182790E+04  0.16033854545E+04 0.  0.
        2    1    3    3  502    0  0.32721306808E+03 -0.56687851064E+03 -0.61077662784E+03  0.89524729928E+03  0.25500000920E-02 0. -1.
       -2    1    3    3    0  502 -0.32721306808E+03  0.56687851064E+03  0.32922200217E+03  0.73267097968E+03  0.25500000920E-02 0.  1.
</event>
<event>
 5   0  0.7124495E-04  0.1574999E+04  0.7818609E-02  0.8836056E-01
       -1   -1    0    0    0  501  0.00000000000E+00  0.00000000000E+00  0.31136860277E+03  0.31136860281E+03  0.50400001928E-02 0. -1.
        1   -1    0    0  501    0  0.00000000000E+00  0.00000000000E+00 -0.19917092341E+04  0.19917092341E+04  0.50400001928E-02 0.  1.
    10030    2    1    2    0    0  0.00000000000E+00  0.00000000000E+00 -0.16803406313E+04  0.23030778369E+04  0.15749993288E+04 0.  0.
        2    1    3    3  502    0  0.69013771377E+03 -0.24940859583E+03 -0.12580349493E+04  0.14564156843E+04  0.25500000920E-02 0.  1.
       -2    1    3    3    0  502 -0.69013771377E+03  0.24940859583E+03 -0.42230568195E+03  0.84666215260E+03  0.25500000920E-02 0. -1.
</event>
<event>
 5   0  0.7601145E-04  0.1592499E+04  0.7818609E-02  0.8825170E-01
        1   -1    0    0  501    0  0.00000000000E+00  0.00000000000E+00  0.61654739855E+03  0.61654739857E+03  0.50400001928E-02 0. -1.
       -1   -1    0    0    0  501  0.00000000000E+00  0.00000000000E+00 -0.10283281053E+04  0.10283281053E+04  0.50400001928E-02 0.  1.
    10030    2    1    2    0    0  0.00000000000E+00  0.00000000000E+00 -0.41178070671E+03  0.16448755038E+04  0.15924986885E+04 0.  0.
        4    1    3    3  502    0 -0.45278333176E+03 -0.49832156400E+03  0.23314764970E+03  0.71252829145E+03  0.12699999809E+01 0. -1.
       -4    1    3    3    0  502  0.45278333176E+03  0.49832156400E+03 -0.64492835641E+03  0.93234721239E+03  0.12699999809E+01 0.  1.
</event>
<event>
 5   0  0.7601145E-04  0.1607509E+04  0.7818609E-02  0.8815948E-01
        1   -1    0    0  501    0  0.00000000000E+00  0.00000000000E+00  0.54351840984E+03  0.54351840986E+03  0.50400001928E-02 0. -1.
       -1   -1    0    0    0  501  0.00000000000E+00  0.00000000000E+00 -0.11885913139E+04  0.11885913139E+04  0.50400001928E-02 0.  1.
    10030    2    1    2    0    0  0.00000000000E+00  0.00000000000E+00 -0.64507290405E+03  0.17321097238E+04  0.16075089560E+04 0.  0.
        4    1    3    3  502    0  0.77226409914E+02 -0.46202619290E+03  0.38122597204E+03  0.60395941583E+03  0.12699999809E+01 0. -1.
       -4    1    3    3    0  502 -0.77226409914E+02  0.46202619290E+03 -0.10262988761E+04  0.11281503079E+04  0.12699999809E+01 0.  1.
</event>
<event>
 5   0  0.1414751E-03  0.1353294E+04  0.7818609E-02  0.8988338E-01
       -2   -1    0    0    0  501  0.00000000000E+00  0.00000000000E+00  0.43822780868E+03  0.43822780869E+03  0.25500000920E-02 0.  1.
        2   -1    0    0  501    0  0.00000000000E+00  0.00000000000E+00 -0.10447787666E+04  0.10447787666E+04  0.25500000920E-02 0. -1.
    10030    2    1    2    0    0  0.00000000000E+00  0.00000000000E+00 -0.60655095787E+03  0.14830065752E+04  0.13532939214E+04 0.  0.
        2    1    3    3  502    0 -0.16029740232E+03 -0.22683035063E+03  0.37287689413E+03  0.46495638864E+03  0.25500000920E-02 0.  1.
       -2    1    3    3    0  502  0.16029740232E+03  0.22683035063E+03 -0.97942785201E+03  0.10180501866E+04  0.25500000920E-02 0. -1.
</event>
<event>
 5   0  0.7633213E-04  0.1820673E+04  0.7818609E-02  0.8695382E-01
        1   -1    0    0  501    0  0.00000000000E+00  0.00000000000E+00  0.18827419866E+04  0.18827419866E+04  0.50400001928E-02 0.  1.
       -1   -1    0    0    0  501  0.00000000000E+00  0.00000000000E+00 -0.44016275761E+03  0.44016275764E+03  0.50400001928E-02 0. -1.
    10030    2    1    2    0    0  0.00000000000E+00  0.00000000000E+00  0.14425792290E+04  0.23229047442E+04  0.18206733971E+04 0.  0.
        1    1    3    3  502    0  0.48662802360E+03  0.41286267244E+03 -0.10698172430E+03  0.64707612304E+03  0.50400001928E-02 0. -1.
       -1    1    3    3    0  502 -0.48662802360E+03 -0.41286267244E+03  0.15495609533E+04  0.16758286212E+04  0.50400001928E-02 0.  1.
</event>
<event>
 5   0  0.1414751E-03  0.1600276E+04  0.7818609E-02  0.8820378E-01
       -2   -1    0    0    0  501  0.00000000000E+00  0.00000000000E+00  0.39038604239E+03  0.39038604240E+03  0.25500000920E-02 0.  1.
        2   -1    0    0  501    0  0.00000000000E+00  0.00000000000E+00 -0.16399685499E+04  0.16399685499E+04  0.25500000920E-02 0. -1.
    10030    2    1    2    0    0  0.00000000000E+00  0.00000000000E+00 -0.12495825075E+04  0.20303545923E+04  0.16002760160E+04 0.  0.
        2    1    3    3  502    0 -0.70271589969E+03 -0.34909080897E+01 -0.11102429973E+04  0.13139487567E+04  0.25500000920E-02 0. -1.
       -2    1    3    3    0  502  0.70271589969E+03  0.34909080897E+01 -0.13933951013E+03  0.71640583554E+03  0.25500000920E-02 0.  1.
</event>
<event>
 5   0  0.1414751E-03  0.1592363E+04  0.7818609E-02  0.8825254E-01
        2   -1    0    0  501    0  0.00000000000E+00  0.00000000000E+00  0.14271258892E+04  0.14271258892E+04  0.25500000920E-02 0. -1.
       -2   -1    0    0    0  501  0.00000000000E+00  0.00000000000E+00 -0.44418272228E+03  0.44418272229E+03  0.25500000920E-02 0.  1.
    10030    2    1    2    0    0  0.00000000000E+00  0.00000000000E+00  0.98294316693E+03  0.18713086115E+04  0.15923626001E+04 0.  0.
        2    1    3    3  502    0  0.70253805152E+02 -0.39647439295E+03  0.12986543580E+04  0.13596435867E+04  0.25500000920E-02 0. -1.
       -2    1    3    3    0  502 -0.70253805152E+02  0.39647439295E+03 -0.31571119107E+03  0.51166502477E+03  0.25500000920E-02 0.  1.
</event>
<event>
 5   0  0.1414751E-03  0.1562620E+04  0.7818609E-02  0.8843847E-01
        2   -1    0    0  501    0  0.00000000000E+00  0.00000000000E+00  0.86219871648E+03  0.86219871648E+03  0.25500000920E-02 0.  1.
       -2   -1    0    0    0  501  0.00000000000E+00  0.00000000000E+00 -0.70800996938E+03  0.70800996938E+03  0.25500000920E-02 0. -1.
    10030    2    1    2    0    0  0.00000000000E+00  0.00000000000E+00  0.15418874710E+03  0.15702086859E+04  0.15626199626E+04 0.  0.
        2    1    3    3  502    0  0.35795670599E+03 -0.34509941332E+03 -0.52850873287E+03  0.72563633396E+03  0.25500000920E-02 0. -1.
       -2    1    3    3    0  502 -0.35795670599E+03  0.34509941332E+03  0.68269747997E+03  0.84457235191E+03  0.25500000920E-02 0.  1.
</event>
<event>
 5   0  0.1375777E-03  0.1588586E+04  0.7818609E-02  0.8827591E-01
       -2   -1    0    0    0  501  0.00000000000E+00  0.00000000000E+00  0.50465202317E+03  0.50465202317E+03  0.25500000920E-02 0. -1.
        2   -1    0    0  501    0  0.00000000000E+00  0.00000000000E+00 -0.12501704562E+04  0.12501704562E+04  0.25500000920E-02 0.  1.
    10030    2    1    2    0    0  0.00000000000E+00  0.00000000000E+00 -0.74551843301E+03  0.17548224794E+04  0.15885855973E+04 0.  0.
        1    1    3    3  502    0 -0.17389874068E+03 -0.53837786159E+03  0.24308341556E+03  0.61577677839E+03  0.50400001928E-02 0. -1.
       -1    1    3    3    0  502  0.17389874068E+03  0.53837786159E+03 -0.98860184857E+03  0.11390457010E+04  0.50400001928E-02 0.  1.
</event>
<event>
 5   0  0.7124495E-04  0.1602570E+04  0.7818609E-02  0.8818971E-01
        1   -1    0    0  501    0  0.00000000000E+00  0.00000000000E+00  0.11117207857E+04  0.11117207857E+04  0.50400001928E-02 0.  1.
       -1   -1    0    0    0  501  0.00000000000E+00  0.00000000000E+00 -0.57753521976E+03  0.57753521979E+03  0.50400001928E-02 0. -1.
    10030    2    1    2    0    0  0.00000000000E+00  0.00000000000E+00  0.53418556597E+03  0.16892560055E+04  0.16025703209E+04 0.  0.
        2    1    3    3  502    0 -0.25240259984E+03  0.75447227474E+03  0.16641504043E+03  0.81279114873E+03  0.25500000920E-02 0. -1.
       -2    1    3    3    0  502  0.25240259984E+03 -0.75447227474E+03  0.36777052554E+03  0.87646485681E+03  0.25500000920E-02 0.  1.
</event>
<event>
 5   0  0.1414796E-03  0.1582261E+04  0.7818609E-02  0.8831520E-01
       -2   -1    0    0    0  501  0.00000000000E+00  0.00000000000E+00  0.30065521289E+03  0.30065521290E+03  0.25500000920E-02 0. -1.
        2   -1    0    0  501    0  0.00000000000E+00  0.00000000000E+00 -0.20817458394E+04  0.20817458394E+04  0.25500000920E-02 0.  1.
    10030    2    1    2    0    0  0.00000000000E+00  0.00000000000E+00 -0.17810906265E+04  0.23824010523E+04  0.15822613419E+04 0.  0.
        4    1    3    3  502    0  0.78490616606E+03  0.98985283911E+02 -0.89538927317E+03  0.11948218860E+04  0.12699999809E+01 0.  1.
       -4    1    3    3    0  502 -0.78490616606E+03 -0.98985283911E+02 -0.88570135336E+03  0.11875791663E+04  0.12699999809E+01 0. -1.
</event>
<event>
 5   0  0.1339162E-03  0.1606256E+04  0.7818609E-02  0.8816714E-01
       -2   -1    0    0    0  501  0.00000000000E+00  0.00000000000E+00  0.49173156587E+03  0.49173156588E+03  0.25500000920E-02 0. -1.
        2   -1    0    0  501    0  0.00000000000E+00  0.00000000000E+00 -0.13117204104E+04  0.13117204104E+04  0.25500000920E-02 0.  1.
    10030    2    1    2    0    0  0.00000000000E+00  0.00000000000E+00 -0.81998884456E+03  0.18034519763E+04  0.16062556850E+04 0.  0.
        5    1    3    3  502    0  0.10078485902E+03 -0.38588218190E+03  0.37267177877E+03  0.54586535959E+03  0.46999998093E+01 0. -1.
       -5    1    3    3    0  502 -0.10078485902E+03  0.38588218190E+03 -0.11926606233E+04  0.12575866167E+04  0.46999998093E+01 0.  1.
</event>
<event>
 5   0  0.7302027E-04  0.1607971E+04  0.7818609E-02  0.8815666E-01
        1   -1    0    0  501    0  0.00000000000E+00  0.00000000000E+00  0.15349922783E+04  0.15349922783E+04  0.50400001928E-02 0. -1.
       -1   -1    0    0    0  501  0.00000000000E+00  0.00000000000E+00 -0.42110483783E+03  0.42110483786E+03  0.50400001928E-02 0.  1.
    10030    2    1    2    0    0  0.00000000000E+00  0.00000000000E+00  0.11138874405E+04  0.19560971162E+04  0.16079709879E+04 0.  0.
        5    1    3    3  502    0  0.65249288430E+03  0.32852955223E+03  0.96531826025E+03  0.12105949216E+04  0.46999998093E+01 0. -1.
       -5    1    3    3    0  502 -0.65249288430E+03 -0.32852955223E+03  0.14856918024E+03  0.74550219454E+03  0.46999998093E+01 0.  1.
</event>
<event>
 5   0  0.1339162E-03  0.1606963E+04  0.7818609E-02  0.8816282E-01
        2   -1    0    0  501    0  0.00000000000E+00  0.00000000000E+00  0.16097971694E+04  0.16097971694E+04  0.25500000920E-02 0.  1.
       -2   -1    0    0    0  501  0.00000000000E+00  0.00000000000E+00 -0.40103358430E+03  0.40103358431E+03  0.25500000920E-02 0. -1.
    10030    2    1    2    0    0  0.00000000000E+00  0.00000000000E+00  0.12087635851E+04  0.20108307537E+04  0.16069632589E+04 0.  0.
        5    1    3    3  502    0  0.45279452040E+03  0.39652988937E+03  0.12704124872E+04  0.14057840547E+04  0.46999998093E+01 0.  1.
       -5    1    3    3    0  502 -0.45279452040E+03 -0.39652988937E+03 -0.61648902083E+02  0.60504669902E+03  0.46999998093E+01 0. -1.
</event>
<event>
 5   0  0.7302027E-04  0.1605301E+04  0.7818609E-02  0.8817298E-01
        1   -1    0    0  501    0  0.00000000000E+00  0.00000000000E+00  0.13952220053E+04  0.13952220053E+04  0.50400001928E-02 0. -1.
       -1   -1    0    0    0  501  0.00000000000E+00  0.00000000000E+00 -0.46175265334E+03  0.46175265337E+03  0.50400001928E-02 0.  1.
    10030    2    1    2    0    0  0.00000000000E+00  0.00000000000E+00  0.93346935199E+03  0.18569746587E+04  0.16053005488E+04 0.  0.
        5    1    3    3  502    0 -0.49245379098E+03  0.63164557847E+03  0.40619975350E+03  0.89805746075E+03  0.46999998093E+01 0. -1.
       -5    1    3    3    0  502  0.49245379098E+03 -0.63164557847E+03  0.52726959849E+03  0.95891719796E+03  0.46999998093E+01 0.  1.
</event>
<event>
 5   0  0.1339162E-03  0.1611497E+04  0.7818609E-02  0.8813516E-01
       -2   -1    0    0    0  501  0.00000000000E+00  0.00000000000E+00  0.36794303360E+03  0.36794303361E+03  0.25500000920E-02 0. -1.
        2   -1    0    0  501    0  0.00000000000E+00  0.00000000000E+00 -0.17644869128E+04  0.17644869128E+04  0.25500000920E-02 0.  1.
    10030    2    1    2    0    0  0.00000000000E+00  0.00000000000E+00 -0.13965438792E+04  0.21324299464E+04  0.16114970276E+04 0.  0.
        5    1    3    3  502    0  0.36105172614E+02 -0.37418839734E+03  0.24476619666E+03  0.44861243989E+03  0.46999998093E+01 0. -1.
       -5    1    3    3    0  502 -0.36105172614E+02  0.37418839734E+03 -0.16413100759E+04  0.16838175066E+04  0.46999998093E+01 0.  1.
</event>
<event>
 5   0  0.1414751E-03  0.1585568E+04  0.7818609E-02  0.8829463E-01
       -2   -1    0    0    0  501  0.00000000000E+00  0.00000000000E+00  0.72512111908E+03  0.72512111909E+03  0.25500000920E-02 0. -1.
        2   -1    0    0  501    0  0.00000000000E+00  0.00000000000E+00 -0.86676083143E+03  0.86676083143E+03  0.25500000920E-02 0.  1.
    10030    2    1    2    0    0  0.00000000000E+00  0.00000000000E+00 -0.14163971235E+03  0.15918819505E+04  0.15855681431E+04 0.  0.
        2    1    3    3  502    0  0.14098890920E+03  0.21986720246E+03  0.68068409517E+03  0.72907495956E+03  0.25500000920E-02 0. -1.
       -2    1    3    3    0  502 -0.14098890920E+03 -0.21986720246E+03 -0.82232380752E+03  0.86280699096E+03  0.25500000920E-02 0.  1.
</event>
<event>
 5   0  0.7633213E-04  0.1566532E+04  0.7818609E-02  0.8841377E-01
        1   -1    0    0  501    0  0.00000000000E+00  0.00000000000E+00  0.11100500178E+04  0.11100500178E+04  0.50400001928E-02 0. -1.
       -1   -1    0    0    0  501  0.00000000000E+00  0.00000000000E+00 -0.55268275707E+03  0.55268275709E+03  0.50400001928E-02 0.  1.
    10030    2    1    2    0    0  0.00000000000E+00  0.00000000000E+00  0.55736726071E+03  0.16627327749E+04  0.15665318437E+04 0.  0.
        1    1    3    3  502    0 -0.72528001011E+03 -0.19516234875E+03  0.51456055609E+03  0.91043506158E+03  0.50400001928E-02 0. -1.
       -1    1    3    3    0  502  0.72528001011E+03  0.19516234875E+03  0.42806704614E+02  0.75229771329E+03  0.50400001928E-02 0.  1.
</event>
<event>
 5   0  0.7499834E-04  0.1801066E+04  0.7818609E-02  0.8705733E-01
       -1   -1    0    0    0  501  0.00000000000E+00  0.00000000000E+00  0.53602344732E+03  0.53602344734E+03  0.50400001928E-02 0. -1.
        1   -1    0    0  501    0  0.00000000000E+00  0.00000000000E+00 -0.15129180520E+04  0.15129180520E+04  0.50400001928E-02 0.  1.
    10030    2    1    2    0    0  0.00000000000E+00  0.00000000000E+00 -0.97689460470E+03  0.20489414994E+04  0.18010658509E+04 0.  0.
        3    1    3    3  502    0  0.25673268636E+03 -0.83559259235E+03 -0.73464015012E+03  0.11418506089E+04  0.10100000352E+00 0.  1.
       -3    1    3    3    0  502 -0.25673268636E+03  0.83559259235E+03 -0.24225445458E+03  0.90709089048E+03  0.10100000352E+00 0. -1.
</event>
<event>
 5   0  0.1414796E-03  0.1497188E+04  0.7818609E-02  0.8886325E-01
       -2   -1    0    0    0  501  0.00000000000E+00  0.00000000000E+00  0.43559601013E+03  0.43559601014E+03  0.25500000920E-02 0. -1.
        2   -1    0    0  501    0  0.00000000000E+00  0.00000000000E+00 -0.12864972293E+04  0.12864972293E+04  0.25500000920E-02 0.  1.
    10030    2    1    2    0    0  0.00000000000E+00  0.00000000000E+00 -0.85090121920E+03  0.17220932395E+04  0.14971881113E+04 0.  0.
        4    1    3    3  502    0 -0.21729670639E+03 -0.35960498147E+03 -0.11380829097E+04  0.12131644256E+04  0.12699999809E+01 0.  1.
       -4    1    3    3    0  502  0.21729670639E+03  0.35960498147E+03  0.28718169051E+03  0.50892881386E+03  0.12699999809E+01 0. -1.
</event>
<event>
 5   0  0.1414796E-03  0.1593832E+04  0.7818609E-02  0.8824346E-01
        2   -1    0    0  501    0  0.00000000000E+00  0.00000000000E+00  0.85503042766E+03  0.85503042766E+03  0.25500000920E-02 0.  1.
       -2   -1    0    0    0  501  0.00000000000E+00  0.00000000000E+00 -0.74275132812E+03  0.74275132812E+03  0.25500000920E-02 0. -1.
    10030    2    1    2    0    0  0.00000000000E+00  0.00000000000E+00  0.11227909954E+03  0.15977817558E+04  0.15938318427E+04 0.  0.
        4    1    3    3  502    0  0.66019458083E+03  0.44097989441E+03 -0.12974917111E+02  0.79403407559E+03  0.12699999809E+01 0. -1.
       -4    1    3    3    0  502 -0.66019458083E+03 -0.44097989441E+03  0.12525401665E+03  0.80374768019E+03  0.12699999809E+01 0.  1.
</event>
<event>
 5   0  0.1375777E-03  0.1605433E+04  0.7818609E-02  0.8817217E-01
        2   -1    0    0  501    0  0.00000000000E+00  0.00000000000E+00  0.18215454335E+04  0.18215454335E+04  0.25500000920E-02 0.  1.
       -2   -1    0    0    0  501  0.00000000000E+00  0.00000000000E+00 -0.35374023031E+03  0.35374023032E+03  0.25500000920E-02 0. -1.
    10030    2    1    2    0    0  0.00000000000E+00  0.00000000000E+00  0.14678052031E+04  0.21752856638E+04  0.16054331517E+04 0.  0.
        1    1    3    3  502    0  0.40001314675E+03  0.55869303907E+03  0.12961760090E+04  0.14670448786E+04  0.50400001928E-02 0.  1.
       -1    1    3    3    0  502 -0.40001314675E+03 -0.55869303907E+03  0.17162919414E+03  0.70824078517E+03  0.50400001928E-02 0. -1.
</event>
<event>
 5   0  0.1339162E-03  0.1611508E+04  0.7818609E-02  0.8813509E-01
        2   -1    0    0  501    0  0.00000000000E+00  0.00000000000E+00  0.19459562431E+04  0.19459562431E+04  0.25500000920E-02 0.  1.
       -2   -1    0    0    0  501  0.00000000000E+00  0.00000000000E+00 -0.33363529657E+03  0.33363529658E+03  0.25500000920E-02 0. -1.
    10030    2    1    2    0    0  0.00000000000E+00  0.00000000000E+00  0.16123209466E+04  0.22795915397E+04  0.16115082231E+04 0.  0.
        5    1    3    3  502    0  0.43263025341E+03 -0.11766164511E+03 -0.14086697823E+03  0.46997744037E+03  0.46999998093E+01 0. -1.
       -5    1    3    3    0  502 -0.43263025341E+03  0.11766164511E+03  0.17531879248E+04  0.18096140993E+04  0.46999998093E+01 0.  1.
</event>
<event>
 5   0  0.7499834E-04  0.1535389E+04  0.7818609E-02  0.8861255E-01
        1   -1    0    0  501    0  0.00000000000E+00  0.00000000000E+00  0.68800424166E+03  0.68800424168E+03  0.50400001928E-02 0.  1.
       -1   -1    0    0    0  501  0.00000000000E+00  0.00000000000E+00 -0.85661546974E+03  0.85661546975E+03  0.50400001928E-02 0. -1.
    10030    2    1    2    0    0  0.00000000000E+00  0.00000000000E+00 -0.16861122808E+03  0.15446197114E+04  0.15353893014E+04 0.  0.
        3    1    3    3  502    0  0.65765283662E+03 -0.92511615145E+02  0.30309306645E+03  0.73002128023E+03  0.10100000352E+00 0.  1.
       -3    1    3    3    0  502 -0.65765283662E+03  0.92511615145E+02 -0.47170429453E+03  0.81459843121E+03  0.10100000352E+00 0. -1.
</event>
<event>
 5   0  0.7633213E-04  0.1814033E+04  0.7818609E-02  0.8698872E-01
        1   -1    0    0  501    0  0.00000000000E+00  0.00000000000E+00  0.11990166019E+04  0.11990166019E+04  0.50400001928E-02 0. -1.
       -1   -1    0    0    0  501  0.00000000000E+00  0.00000000000E+00 -0.68612824920E+03  0.68612824922E+03  0.50400001928E-02 0.  1.
    10030    2    1    2    0    0  0.00000000000E+00  0.00000000000E+00  0.51288835273E+03  0.18851448512E+04  0.18140332542E+04 0.  0.
        1    1    3    3  502    0 -0.71896554992E+03 -0.10233893574E+03  0.82115630911E+03  0.10962127548E+04  0.50400001928E-02 0. -1.
       -1    1    3    3    0  502  0.71896554992E+03  0.10233893574E+03 -0.30826795638E+03  0.78893209638E+03  0.50400001928E-02 0.  1.
</event>
<event>
 5   0  0.1414751E-03  0.1644816E+04  0.7818609E-02  0.8793479E-01
       -2   -1    0    0    0  501  0.00000000000E+00  0.00000000000E+00  0.45311313790E+03  0.45311313790E+03  0.25500000920E-02 0. -1.
        2   -1    0    0  501    0  0.00000000000E+00  0.00000000000E+00 -0.14926852106E+04  0.14926852106E+04  0.25500000920E-02 0.  1.
    10030    2    1    2    0    0  0.00000000000E+00  0.00000000000E+00 -0.10395720727E+04  0.19457983485E+04  0.16448164392E+04 0.  0.
        2    1    3    3  502    0 -0.63178485097E+03 -0.21408323627E+03 -0.10888163071E+04  0.12769121664E+04  0.25500000920E-02 0.  1.
       -2    1    3    3    0  502  0.63178485097E+03  0.21408323627E+03  0.49244234449E+02  0.66888618210E+03  0.25500000920E-02 0. -1.
</event>
<event>
 5   0  0.7302027E-04  0.1588194E+04  0.7818609E-02  0.8827834E-01
       -1   -1    0    0    0  501  0.00000000000E+00  0.00000000000E+00  0.63856153335E+03  0.63856153337E+03  0.50400001928E-02 0. -1.
        1   -1    0    0  501    0  0.00000000000E+00  0.00000000000E+00 -0.98751634296E+03  0.98751634298E+03  0.50400001928E-02 0.  1.
    10030    2    1    2    0    0  0.00000000000E+00  0.00000000000E+00 -0.34895480962E+03  0.16260778763E+04  0.15881938801E+04 0.  0.
        5    1    3    3  502    0 -0.61453488820E+03  0.42709376287E+03 -0.44634020164E+03  0.87138044315E+03  0.46999998093E+01 0.  1.
       -5    1    3    3    0  502  0.61453488820E+03 -0.42709376287E+03  0.97385392022E+02  0.75469743320E+03  0.46999998093E+01 0. -1.
</event>
<event>
 5   0  0.7499834E-04  0.1676304E+04  0.7818609E-02  0.8774995E-01
        1   -1    0    0  501    0  0.00000000000E+00  0.00000000000E+00  0.66239265277E+03  0.66239265279E+03  0.50400001928E-02 0. -1.
       -1   -1    0    0    0  501  0.00000000000E+00  0.00000000000E+00 -0.10605476928E+04  0.10605476929E+04  0.50400001928E-02 0.  1.
    10030    2    1    2    0    0  0.00000000000E+00  0.00000000000E+00 -0.39815504007E+03  0.17229403456E+04  0.16763042679E+04 0.  0.
        3    1    3    3  502    0  0.63050061798E+03 -0.43017253232E+03  0.15685067318E+03  0.77921857056E+03  0.10100000352E+00 0. -1.
       -3    1    3    3    0  502 -0.63050061798E+03  0.43017253232E+03 -0.55500571324E+03  0.94372177508E+03  0.10100000352E+00 0.  1.
</event>
<event>
 5   0  0.7124495E-04  0.1553869E+04  0.7818609E-02  0.8849400E-01
        1   -1    0    0  501    0  0.00000000000E+00  0.00000000000E+00  0.24662126854E+04  0.24662126854E+04  0.50400001928E-02 0.  1.
       -1   -1    0    0    0  501  0.00000000000E+00  0.00000000000E+00 -0.24475869177E+03  0.24475869182E+03  0.50400001928E-02 0. -1.
    10030    2    1    2    0    0  0.00000000000E+00  0.00000000000E+00  0.22214539936E+04  0.27109713772E+04  0.15538687082E+04 0.  0.
        2    1    3    3  502    0 -0.58545078595E+03  0.50623953699E+03  0.99245120919E+03  0.12585668414E+04  0.25500000920E-02 0. -1.
       -2    1    3    3    0  502  0.58545078595E+03 -0.50623953699E+03  0.12290027845E+04  0.14524045359E+04  0.25500000920E-02 0.  1.
</event>
<event>
 5   0  0.1414751E-03  0.1568006E+04  0.7818609E-02  0.8840448E-01
       -2   -1    0    0    0  501  0.00000000000E+00  0.00000000000E+00  0.57357654895E+03  0.57357654895E+03  0.25500000920E-02 0. -1.
        2   -1    0    0  501    0  0.00000000000E+00  0.00000000000E+00 -0.10716274425E+04  0.10716274425E+04  0.25500000920E-02 0.  1.
    10030    2    1    2    0    0  0.00000000000E+00  0.00000000000E+00 -0.49805089354E+03  0.16452039914E+04  0.15680055743E+04 0.  0.
        2    1    3    3  502    0 -0.17221280875E+03  0.18922960376E+03  0.52853748501E+03  0.58721117794E+03  0.25500000920E-02 0. -1.
       -2    1    3    3    0  502  0.17221280875E+03 -0.18922960376E+03 -0.10265883785E+04  0.10579928135E+04  0.25500000920E-02 0.  1.
</event>
<event>
 5   0  0.1354766E-03  0.1600222E+04  0.7818609E-02  0.8820412E-01
       -2   -1    0    0    0  501  0.00000000000E+00  0.00000000000E+00  0.49844149385E+03  0.49844149385E+03  0.25500000920E-02 0. -1.
        2   -1    0    0  501    0  0.00000000000E+00  0.00000000000E+00 -0.12843581794E+04  0.12843581794E+04  0.25500000920E-02 0.  1.
    10030    2    1    2    0    0  0.00000000000E+00  0.00000000000E+00 -0.78591668550E+03  0.17827996732E+04  0.16002217466E+04 0.  0.
        3    1    3    3  502    0  0.27961433689E+03 -0.21002698237E+03  0.40878938788E+03  0.53796308847E+03  0.10100000352E+00 0. -1.
       -3    1    3    3    0  502 -0.27961433689E+03  0.21002698237E+03 -0.11947060734E+04  0.12448365847E+04  0.10100000352E+00 0.  1.
</event>
<event>
 5   0  0.7302027E-04  0.1595405E+04  0.7818609E-02  0.8823376E-01
       -1   -1    0    0    0  501  0.00000000000E+00  0.00000000000E+00  0.37928788845E+03  0.37928788848E+03  0.50400001928E-02 0. -1.
        1   -1    0    0  501    0  0.00000000000E+00  0.00000000000E+00 -0.16776945992E+04  0.16776945992E+04  0.50400001928E-02 0.  1.
    10030    2    1    2    0    0  0.00000000000E+00  0.00000000000E+00 -0.12984067108E+04  0.20569824877E+04  0.15954049543E+04 0.  0.
        5    1    3    3  502    0  0.23669376281E+03  0.58570905776E+03 -0.12771789074E+04  0.14248814299E+04  0.46999998093E+01 0.  1.
       -5    1    3    3    0  502 -0.23669376281E+03 -0.58570905776E+03 -0.21227803390E+02  0.63210105785E+03  0.46999998093E+01 0. -1.
</event>
<event>
 5   0  0.7633213E-04  0.1577831E+04  0.7818609E-02  0.8834284E-01
        1   -1    0    0  501    0  0.00000000000E+00  0.00000000000E+00  0.87494246979E+03  0.87494246980E+03  0.50400001928E-02 0.  1.
       -1   -1    0    0    0  501  0.00000000000E+00  0.00000000000E+00 -0.71134730447E+03  0.71134730448E+03  0.50400001928E-02 0. -1.
    10030    2    1    2    0    0  0.00000000000E+00  0.00000000000E+00  0.16359516532E+03  0.15862897743E+04  0.15778313820E+04 0.  0.
        1    1    3    3  502    0  0.60793588864E+03 -0.42589825437E+03  0.35046150854E+03  0.82085238427E+03  0.50400001928E-02 0.  1.
       -1    1    3    3    0  502 -0.60793588864E+03  0.42589825437E+03 -0.18686634322E+03  0.76543739001E+03  0.50400001928E-02 0. -1.
</event>
<event>
 5   0  0.7302027E-04  0.1599959E+04  0.7818609E-02  0.8820573E-01
       -1   -1    0    0    0  501  0.00000000000E+00  0.00000000000E+00  0.97524128084E+03  0.97524128085E+03  0.50400001928E-02 0. -1.
        1   -1    0    0  501    0  0.00000000000E+00  0.00000000000E+00 -0.65621438710E+03  0.65621438712E+03  0.50400001928E-02 0.  1.
    10030    2    1    2    0    0  0.00000000000E+00  0.00000000000E+00  0.31902689374E+03  0.16314556680E+04  0.15999591987E+04 0.  0.
        5    1    3    3  502    0  0.33301178272E+03  0.16095235628E+03  0.88280265248E+03  0.95716514857E+03  0.46999998093E+01 0. -1.
       -5    1    3    3    0  502 -0.33301178272E+03 -0.16095235628E+03 -0.56377575873E+03  0.67429051940E+03  0.46999998093E+01 0.  1.
</event>
<event>
 5   0  0.1339162E-03  0.1514787E+04  0.7818609E-02  0.8874679E-01
        2   -1    0    0  501    0  0.00000000000E+00  0.00000000000E+00  0.84849733430E+03  0.84849733431E+03  0.25500000920E-02 0.  1.
       -2   -1    0    0    0  501  0.00000000000E+00  0.00000000000E+00 -0.67607155010E+03  0.67607155010E+03  0.25500000920E-02 0. -1.
    10030    2    1    2    0    0  0.00000000000E+00  0.00000000000E+00  0.17242578421E+03  0.15245688844E+04  0.15147869924E+04 0.  0.
        5    1    3    3  502    0  0.21230193054E+03 -0.58239573288E+03  0.52418494025E+03  0.81181823148E+03  0.46999998093E+01 0.  1.
       -5    1    3    3    0  502 -0.21230193054E+03  0.58239573288E+03 -0.35175915604E+03  0.71275065292E+03  0.46999998093E+01 0. -1.
</event>
<event>
 5   0  0.5095750E-04  0.1621515E+04  0.7818609E-02  0.8807438E-01
       -3   -1    0    0    0  501  0.00000000000E+00  0.00000000000E+00  0.97311893877E+03  0.97311894401E+03  0.10100000352E+00 0.  1.
        3   -1    0    0  501    0  0.00000000000E+00  0.00000000000E+00 -0.67548561686E+03  0.67548562441E+03  0.10100000352E+00 0. -1.
    10030    2    1    2    0    0  0.00000000000E+00  0.00000000000E+00  0.29763332191E+03  0.16486045684E+04  0.16215151645E+04 0.  0.
        3    1    3    3  502    0  0.43976695342E+03  0.64618699789E+03 -0.70130116451E+02  0.78477439625E+03  0.10100000352E+00 0. -1.
       -3    1    3    3    0  502 -0.43976695342E+03 -0.64618699789E+03  0.36776343836E+03  0.86383017218E+03  0.10100000352E+00 0.  1.
</event>
<event>
 5   0  0.1414751E-03  0.9944803E+03  0.7818609E-02  0.9314620E-01
       -2   -1    0    0    0  501  0.00000000000E+00  0.00000000000E+00  0.63130788285E+03  0.63130788285E+03  0.25500000920E-02 0.  1.
        2   -1    0    0  501    0  0.00000000000E+00  0.00000000000E+00 -0.39164371188E+03  0.39164371188E+03  0.25500000920E-02 0. -1.
    10030    2    1    2    0    0  0.00000000000E+00  0.00000000000E+00  0.23966417097E+03  0.10229515947E+04  0.99448029157E+03 0.  0.
        2    1    3    3  502    0 -0.21867889006E+03  0.37657086717E+03  0.36674959608E+03  0.56932533862E+03  0.25500000920E-02 0.  1.
       -2    1    3    3    0  502  0.21867889006E+03 -0.37657086717E+03 -0.12708542511E+03  0.45362625612E+03  0.25500000920E-02 0. -1.
</event>
<event>
 5   0  0.1414751E-03  0.1651640E+04  0.7818609E-02  0.8789437E-01
       -2   -1    0    0    0  501  0.00000000000E+00  0.00000000000E+00  0.47647518912E+03  0.47647518912E+03  0.25500000920E-02 0. -1.
        2   -1    0    0  501    0  0.00000000000E+00  0.00000000000E+00 -0.14312998651E+04  0.14312998651E+04  0.25500000920E-02 0.  1.
    10030    2    1    2    0    0  0.00000000000E+00  0.00000000000E+00 -0.95482467598E+03  0.19077750542E+04  0.16516402440E+04 0.  0.
        2    1    3    3  502    0  0.75515712580E+03 -0.23467521697E+03 -0.75232147319E+03  0.10914771373E+04  0.25500000920E-02 0. -1.
       -2    1    3    3    0  502 -0.75515712580E+03  0.23467521697E+03 -0.20250320279E+03  0.81629791697E+03  0.25500000920E-02 0.  1.
</event>
<event>
 5   0  0.1339162E-03  0.1616742E+04  0.7818609E-02  0.8810328E-01
       -2   -1    0    0    0  501  0.00000000000E+00  0.00000000000E+00  0.91587153641E+03  0.91587153642E+03  0.25500000920E-02 0. -1.
        2   -1    0    0  501    0  0.00000000000E+00  0.00000000000E+00 -0.71348807086E+03  0.71348807087E+03  0.25500000920E-02 0.  1.
    10030    2    1    2    0    0  0.00000000000E+00  0.00000000000E+00  0.20238346555E+03  0.16293596073E+04  0.16167416809E+04 0.  0.
        5    1    3    3  502    0 -0.19493632620E+03 -0.24444291226E+03  0.85245497334E+03  0.90799453753E+03  0.46999998093E+01 0. -1.
       -5    1    3    3    0  502  0.19493632620E+03  0.24444291226E+03 -0.65007150778E+03  0.72136506975E+03  0.46999998093E+01 0.  1.
</event>
<event>
 5   0  0.1375777E-03  0.1626671E+04  0.7818609E-02  0.8804329E-01
        2   -1    0    0  501    0  0.00000000000E+00  0.00000000000E+00  0.10133776674E+04  0.10133776674E+04  0.25500000920E-02 0.  1.
       -2   -1    0    0    0  501  0.00000000000E+00  0.00000000000E+00 -0.65278175280E+03  0.65278175280E+03  0.25500000920E-02 0. -1.
    10030    2    1    2    0    0  0.00000000000E+00  0.00000000000E+00  0.36059591463E+03  0.16661594202E+04  0.16266707718E+04 0.  0.
        1    1    3    3  502    0 -0.32813686245E+03 -0.71221507642E+03 -0.40789855523E+02  0.78523113025E+03  0.50400001928E-02 0. -1.
       -1    1    3    3    0  502  0.32813686245E+03  0.71221507642E+03  0.40138577015E+03  0.88092828997E+03  0.50400001928E-02 0.  1.
</event>
<event>
 5   0  0.1414751E-03  0.1365478E+04  0.7818609E-02  0.8979194E-01
        2   -1    0    0  501    0  0.00000000000E+00  0.00000000000E+00  0.47702452037E+03  0.47702452038E+03  0.25500000920E-02 0. -1.
       -2   -1    0    0    0  501  0.00000000000E+00  0.00000000000E+00 -0.97716659329E+03  0.97716659330E+03  0.25500000920E-02 0.  1.
    10030    2    1    2    0    0  0.00000000000E+00  0.00000000000E+00 -0.50014207292E+03  0.14541911137E+04  0.13654778292E+04 0.  0.
        2    1    3    3  502    0  0.30565798628E+03  0.61040680157E+03 -0.26119766587E+03  0.73092235473E+03  0.25500000920E-02 0.  1.
       -2    1    3    3    0  502 -0.30565798628E+03 -0.61040680157E+03 -0.23894440705E+03  0.72326875894E+03  0.25500000920E-02 0. -1.
</event>
<event>
 5   0  0.1375777E-03  0.1556616E+04  0.7818609E-02  0.8847653E-01
       -2   -1    0    0    0  501  0.00000000000E+00  0.00000000000E+00  0.80262785054E+03  0.80262785054E+03  0.25500000920E-02 0. -1.
        2   -1    0    0  501    0  0.00000000000E+00  0.00000000000E+00 -0.75472465305E+03  0.75472465305E+03  0.25500000920E-02 0.  1.
    10030    2    1    2    0    0  0.00000000000E+00  0.00000000000E+00  0.47903197488E+02  0.15573525036E+04  0.15566155929E+04 0.  0.
        1    1    3    3  502    0  0.50645765981E+03 -0.56606512331E+03  0.19383758336E+03  0.78390183936E+03  0.50400001928E-02 0. -1.
       -1    1    3    3    0  502 -0.50645765981E+03  0.56606512331E+03 -0.14593438587E+03  0.77345066423E+03  0.50400001928E-02 0.  1.
</event>
<event>
 5   0  0.7601145E-04  0.1633228E+04  0.7818609E-02  0.8800391E-01
       -1   -1    0    0    0  501  0.00000000000E+00  0.00000000000E+00  0.76310018852E+03  0.76310018854E+03  0.50400001928E-02 0. -1.
        1   -1    0    0  501    0  0.00000000000E+00  0.00000000000E+00 -0.87388095402E+03  0.87388095403E+03  0.50400001928E-02 0.  1.
    10030    2    1    2    0    0  0.00000000000E+00  0.00000000000E+00 -0.11078076550E+03  0.16369811426E+04  0.16332283622E+04 0.  0.
        4    1    3    3  502    0  0.17314029010E+03 -0.59536750567E+03  0.47725999990E+03  0.78244408571E+03  0.12699999809E+01 0.  1.
       -4    1    3    3    0  502 -0.17314029010E+03  0.59536750567E+03 -0.58804076540E+03  0.85453705685E+03  0.12699999809E+01 0. -1.
</event>
<event>
 5   0  0.7601145E-04  0.1561809E+04  0.7818609E-02  0.8844360E-01
       -1   -1    0    0    0  501  0.00000000000E+00  0.00000000000E+00  0.37938236496E+03  0.37938236499E+03  0.50400001928E-02 0. -1.
        1   -1    0    0  501    0  0.00000000000E+00  0.00000000000E+00 -0.16073796715E+04  0.16073796715E+04  0.50400001928E-02 0.  1.
    10030    2    1    2    0    0  0.00000000000E+00  0.00000000000E+00 -0.12279973066E+04  0.19867620365E+04  0.15618085686E+04 0.  0.
        4    1    3    3  502    0 -0.33349359834E+03 -0.20475524536E+03  0.24564400873E+03  0.46204467593E+03  0.12699999809E+01 0. -1.
       -4    1    3    3    0  502  0.33349359834E+03  0.20475524536E+03 -0.14736413153E+04  0.15247173606E+04  0.12699999809E+01 0.  1.
</event>
<event>
 5   0  0.7601145E-04  0.2069009E+04  0.7818609E-02  0.8575020E-01
       -1   -1    0    0    0  501  0.00000000000E+00  0.00000000000E+00  0.12909703311E+04  0.12909703311E+04  0.50400001928E-02 0.  1.
        1   -1    0    0  501    0  0.00000000000E+00  0.00000000000E+00 -0.82898822192E+03  0.82898822194E+03  0.50400001928E-02 0. -1.
    10030    2    1    2    0    0  0.00000000000E+00  0.00000000000E+00  0.46198210917E+03  0.21199585530E+04  0.20690086509E+04 0.  0.
        4    1    3    3  502    0 -0.86978683186E+02 -0.55408049531E+03 -0.65968305074E+03  0.86588326404E+03  0.12699999809E+01 0.  1.
       -4    1    3    3    0  502  0.86978683186E+02  0.55408049531E+03  0.11216651599E+04  0.12540752890E+04  0.12699999809E+01 0. -1.
</event>
<event>
 5   0  0.1414796E-03  0.1509882E+04  0.7818609E-02  0.8877908E-01
        2   -1    0    0  501    0  0.00000000000E+00  0.00000000000E+00  0.17094247919E+04  0.17094247919E+04  0.25500000920E-02 0.  1.
       -2   -1    0    0    0  501  0.00000000000E+00  0.00000000000E+00 -0.33340802665E+03  0.33340802666E+03  0.25500000920E-02 0. -1.
    10030    2    1    2    0    0  0.00000000000E+00  0.00000000000E+00  0.13760167653E+04  0.20428328186E+04  0.15098820439E+04 0.  0.
        4    1    3    3  502    0 -0.17316642775E+03  0.65901773039E+03  0.11277634923E+04  0.13176278261E+04  0.12699999809E+01 0.  1.
       -4    1    3    3    0  502  0.17316642775E+03 -0.65901773039E+03  0.24825327297E+03  0.72520499247E+03  0.12699999809E+01 0. -1.
</event>
<event>
 5   0  0.7302027E-04  0.1563346E+04  0.7818609E-02  0.8843388E-01
       -1   -1    0    0    0  501  0.00000000000E+00  0.00000000000E+00  0.42478925558E+03  0.42478925561E+03  0.50400001928E-02 0.  1.
        1   -1    0    0  501    0  0.00000000000E+00  0.00000000000E+00 -0.14383905375E+04  0.14383905375E+04  0.50400001928E-02 0. -1.
    10030    2    1    2    0    0  0.00000000000E+00  0.00000000000E+00 -0.10136012819E+04  0.18631797931E+04  0.15633462134E+04 0.  0.
        5    1    3    3  502    0  0.41949738716E+03  0.41534063882E+02 -0.12912912324E+04  0.13583660306E+04  0.46999998093E+01 0. -1.
       -5    1    3    3    0  502 -0.41949738716E+03 -0.41534063882E+02  0.27768995042E+03  0.50481376255E+03  0.46999998093E+01 0.  1.
</event>
<event>
 5   0  0.7124495E-04  0.1608201E+04  0.7818609E-02  0.8815526E-01
       -1   -1    0    0    0  501  0.00000000000E+00  0.00000000000E+00  0.13126651887E+04  0.13126651887E+04  0.50400001928E-02 0.  1.
        1   -1    0    0  501    0  0.00000000000E+00  0.00000000000E+00 -0.49256831635E+03  0.49256831638E+03  0.50400001928E-02 0. -1.
    10030    2    1    2    0    0  0.00000000000E+00  0.00000000000E+00  0.82009687239E+03  0.18052335051E+04  0.16082005870E+04 0.  0.
        2    1    3    3  502    0  0.61538048089E+03  0.24223758816E+03  0.92347614061E+03  0.11358610688E+04  0.25500000920E-02 0.  1.
       -2    1    3    3    0  502 -0.61538048089E+03 -0.24223758816E+03 -0.10337926822E+03  0.66937243630E+03  0.25500000920E-02 0. -1.
</event>
<event>
 5   0  0.7601145E-04  0.1628284E+04  0.7818609E-02  0.8803358E-01
        1   -1    0    0  501    0  0.00000000000E+00  0.00000000000E+00  0.10281682713E+04  0.10281682713E+04  0.50400001928E-02 0. -1.
       -1   -1    0    0    0  501  0.00000000000E+00  0.00000000000E+00 -0.64466781573E+03  0.64466781575E+03  0.50400001928E-02 0.  1.
    10030    2    1    2    0    0  0.00000000000E+00  0.00000000000E+00  0.38350045556E+03  0.16728360871E+04  0.16282837513E+04 0.  0.
        4    1    3    3  502    0  0.71083630884E+03 -0.36877890482E+03  0.40972043449E+02  0.80185189396E+03  0.12699999809E+01 0. -1.
       -4    1    3    3    0  502 -0.71083630884E+03  0.36877890482E+03  0.34252841211E+03  0.87098419309E+03  0.12699999809E+01 0.  1.
</event>
<event>
 5   0  0.7601145E-04  0.1472370E+04  0.7818609E-02  0.8903038E-01
       -1   -1    0    0    0  501  0.00000000000E+00  0.00000000000E+00  0.38027816300E+03  0.38027816303E+03  0.50400001928E-02 0.  1.
        1   -1    0    0  501    0  0.00000000000E+00  0.00000000000E+00 -0.14251884233E+04  0.14251884233E+04  0.50400001928E-02 0. -1.
    10030    2    1    2    0    0  0.00000000000E+00  0.00000000000E+00 -0.10449102603E+04  0.18054665864E+04  0.14723695672E+04 0.  0.
        4    1    3    3  502    0  0.34893962043E+03  0.39616879984E+02 -0.13158547375E+04  0.13619117662E+04  0.12699999809E+01 0. -1.
       -4    1    3    3    0  502 -0.34893962043E+03 -0.39616879984E+02  0.27094447715E+03  0.44355482016E+03  0.12699999809E+01 0.  1.
</event>
<event>
 5   0  0.1354766E-03  0.1595685E+04  0.7818609E-02  0.8823203E-01
        2   -1    0    0  501    0  0.00000000000E+00  0.00000000000E+00  0.15434315828E+04  0.15434315828E+04  0.25500000920E-02 0. -1.
       -2   -1    0    0    0  501  0.00000000000E+00  0.00000000000E+00 -0.41242678734E+03  0.41242678734E+03  0.25500000920E-02 0.  1.
    10030    2    1    2    0    0  0.00000000000E+00  0.00000000000E+00  0.11310047955E+04  0.19558583702E+04  0.15956848426E+04 0.  0.
        3    1    3    3  502    0 -0.26287246751E+03 -0.75158936677E+03  0.50343693179E+03  0.94203888715E+03  0.10100000352E+00 0. -1.
       -3    1    3    3    0  502  0.26287246751E+03  0.75158936677E+03  0.62756786372E+03  0.10138194830E+04  0.10100000352E+00 0.  1.
</event>
<event>
 5   0  0.7124495E-04  0.1501715E+04  0.7818609E-02  0.8883313E-01
       -1   -1    0    0    0  501  0.00000000000E+00  0.00000000000E+00  0.58616629930E+03  0.58616629932E+03  0.50400001928E-02 0. -1.
        1   -1    0    0  501    0  0.00000000000E+00  0.00000000000E+00 -0.96182092526E+03  0.96182092527E+03  0.50400001928E-02 0.  1.
    10030    2    1    2    0    0  0.00000000000E+00  0.00000000000E+00 -0.37565462596E+03  0.15479872246E+04  0.15017150361E+04 0.  0.
        2    1    3    3  502    0 -0.60158218746E+03 -0.81531544341E+02  0.26764561051E+03  0.66346265443E+03  0.25500000920E-02 0. -1.
       -2    1    3    3    0  502  0.60158218746E+03  0.81531544341E+02 -0.64330023647E+03  0.88452457017E+03  0.25500000920E-02 0.  1.
</event>
<event>
 5   0  0.1354766E-03  0.1586638E+04  0.7818609E-02  0.8828799E-01
       -2   -1    0    0    0  501  0.00000000000E+00  0.00000000000E+00  0.35922835411E+03  0.35922835412E+03  0.25500000920E-02 0.  1.
        2   -1    0    0  501    0  0.00000000000E+00  0.00000000000E+00 -0.17519638834E+04  0.17519638834E+04  0.25500000920E-02 0. -1.
    10030    2    1    2    0    0  0.00000000000E+00  0.00000000000E+00 -0.13927355293E+04  0.21111922375E+04  0.15866380839E+04 0.  0.
        3    1    3    3  502    0  0.72763648589E+03 -0.31047042316E+03 -0.61755409681E+03  0.10036034137E+04  0.10100000352E+00 0. -1.
       -3    1    3    3    0  502 -0.72763648589E+03  0.31047042316E+03 -0.77518143251E+03  0.11075888239E+04  0.10100000352E+00 0.  1.
</event>
<event>
 5   0  0.7302027E-04  0.1485574E+04  0.7818609E-02  0.8894103E-01
       -1   -1    0    0    0  501  0.00000000000E+00  0.00000000000E+00  0.56584066898E+03  0.56584066900E+03  0.50400001928E-02 0.  1.
        1   -1    0    0  501    0  0.00000000000E+00  0.00000000000E+00 -0.97506629778E+03  0.97506629780E+03  0.50400001928E-02 0. -1.
    10030    2    1    2    0    0  0.00000000000E+00  0.00000000000E+00 -0.40922562881E+03  0.15409069668E+04  0.14855735139E+04 0.  0.
        5    1    3    3  502    0 -0.11666373639E+03  0.52850231962E+02  0.55428539845E+03  0.56890945443E+03  0.46999998093E+01 0.  1.
       -5    1    3    3    0  502  0.11666373639E+03 -0.52850231962E+02 -0.96351102726E+03  0.97199751237E+03  0.46999998093E+01 0. -1.
</event>
<event>
 5   0  0.1354766E-03  0.1562037E+04  0.7818609E-02  0.8844216E-01
       -2   -1    0    0    0  501  0.00000000000E+00  0.00000000000E+00  0.17913077292E+03  0.17913077294E+03  0.25500000920E-02 0.  1.
        2   -1    0    0  501    0  0.00000000000E+00  0.00000000000E+00 -0.34052758593E+04  0.34052758593E+04  0.25500000920E-02 0. -1.
    10030    2    1    2    0    0  0.00000000000E+00  0.00000000000E+00 -0.32261450864E+04  0.35844066322E+04  0.15620367431E+04 0.  0.
        3    1    3    3  502    0  0.71514729716E+03  0.30135263364E+03 -0.14111829640E+04  0.16104926062E+04  0.10100000352E+00 0. -1.
       -3    1    3    3    0  502 -0.71514729716E+03 -0.30135263364E+03 -0.18149621224E+04  0.19739140260E+04  0.10100000352E+00 0.  1.
</event>
<event>
 5   0  0.7499834E-04  0.1667578E+04  0.7818609E-02  0.8780075E-01
       -1   -1    0    0    0  501  0.00000000000E+00  0.00000000000E+00  0.55507299616E+03  0.55507299618E+03  0.50400001928E-02 0.  1.
        1   -1    0    0  501    0  0.00000000000E+00  0.00000000000E+00 -0.12524547514E+04  0.12524547514E+04  0.50400001928E-02 0. -1.
    10030    2    1    2    0    0  0.00000000000E+00  0.00000000000E+00 -0.69738175523E+03  0.18075277476E+04  0.16675776581E+04 0.  0.
        3    1    3    3  502    0  0.43451570495E+03  0.61084710627E+03 -0.74438365560E+03  0.10564303678E+04  0.10100000352E+00 0.  1.
       -3    1    3    3    0  502 -0.43451570495E+03 -0.61084710627E+03  0.47001900370E+02  0.75109737979E+03  0.10100000352E+00 0. -1.
</event>
<event>
 5   0  0.7302027E-04  0.1635634E+04  0.7818609E-02  0.8798951E-01
        1   -1    0    0  501    0  0.00000000000E+00  0.00000000000E+00  0.14771062925E+04  0.14771062925E+04  0.50400001928E-02 0. -1.
       -1   -1    0    0    0  501  0.00000000000E+00  0.00000000000E+00 -0.45279390176E+03  0.45279390178E+03  0.50400001928E-02 0.  1.
    10030    2    1    2    0    0  0.00000000000E+00  0.00000000000E+00  0.10243123908E+04  0.19299001943E+04  0.16356340930E+04 0.  0.
        5    1    3    3  502    0 -0.32006104854E+03 -0.51501889386E+03  0.11596235025E+04  0.13085993632E+04  0.46999998093E+01 0. -1.
       -5    1    3    3    0  502  0.32006104854E+03  0.51501889386E+03 -0.13531111171E+03  0.62130083114E+03  0.46999998093E+01 0.  1.
</event>
<event>
 5   0  0.1339162E-03  0.1629103E+04  0.7818609E-02  0.8802866E-01
        2   -1    0    0  501    0  0.00000000000E+00  0.00000000000E+00  0.22206766838E+04  0.22206766838E+04  0.25500000920E-02 0. -1.
       -2   -1    0    0    0  501  0.00000000000E+00  0.00000000000E+00 -0.29878001928E+03  0.29878001929E+03  0.25500000920E-02 0.  1.
    10030    2    1    2    0    0  0.00000000000E+00  0.00000000000E+00  0.19218966645E+04  0.25194567031E+04  0.16291026026E+04 0.  0.
        5    1    3    3  502    0  0.34796341105E+03  0.67116158725E+03  0.49202735671E+03  0.90202517780E+03  0.46999998093E+01 0.  1.
       -5    1    3    3    0  502 -0.34796341105E+03 -0.67116158725E+03  0.14298693078E+04  0.16174315253E+04  0.46999998093E+01 0. -1.
</event>
<event>
 5   0  0.7499834E-04  0.1799489E+04  0.7818609E-02  0.8706572E-01
        1   -1    0    0  501    0  0.00000000000E+00  0.00000000000E+00  0.10201610513E+04  0.10201610514E+04  0.50400001928E-02 0.  1.
       -1   -1    0    0    0  501  0.00000000000E+00  0.00000000000E+00 -0.79354109475E+03  0.79354109476E+03  0.50400001928E-02 0. -1.
    10030    2    1    2    0    0  0.00000000000E+00  0.00000000000E+00  0.22661995660E+03  0.18137021461E+04  0.17994885024E+04 0.  0.
        3    1    3    3  502    0 -0.40573848369E+03  0.97411687646E+02  0.91674305456E+03  0.10072390939E+04  0.10100000352E+00 0.  1.
       -3    1    3    3    0  502  0.40573848369E+03 -0.97411687646E+02 -0.69012309796E+03  0.80646305220E+03  0.10100000352E+00 0. -1.
</event>
<event>
 5   0  0.7124495E-04  0.1277099E+04  0.7818609E-02  0.9047925E-01
        1   -1    0    0  501    0  0.00000000000E+00  0.00000000000E+00  0.11561900495E+04  0.11561900495E+04  0.50400001928E-02 0. -1.
       -1   -1    0    0    0  501  0.00000000000E+00  0.00000000000E+00 -0.35266326837E+03  0.35266326841E+03  0.50400001928E-02 0.  1.
    10030    2    1    2    0    0  0.00000000000E+00  0.00000000000E+00  0.80352678116E+03  0.15088533180E+04  0.12770994664E+04 0.  0.
        2    1    3    3  502    0 -0.49910303209E+03  0.34080207402E+03  0.15820916512E+03  0.62472396323E+03  0.25500000920E-02 0.  1.
       -2    1    3    3    0  502  0.49910303209E+03 -0.34080207402E+03  0.64531761604E+03  0.88412935472E+03  0.25500000920E-02 0. -1.
</event>
<event>
 5   0  0.1414751E-03  0.1596627E+04  0.7818609E-02  0.8822623E-01
        2   -1    0    0  501    0  0.00000000000E+00  0.00000000000E+00  0.15478272997E+04  0.15478272997E+04  0.25500000920E-02 0.  1.
       -2   -1    0    0    0  501  0.00000000000E+00  0.00000000000E+00 -0.41174112599E+03  0.41174112600E+03  0.25500000920E-02 0. -1.
    10030    2    1    2    0    0  0.00000000000E+00  0.00000000000E+00  0.11360861737E+04  0.19595684257E+04  0.15966266379E+04 0.  0.
        2    1    3    3  502    0 -0.23615382923E+03  0.57572074598E+03  0.11818016134E+04  0.13356189808E+04  0.25500000920E-02 0.  1.
       -2    1    3    3    0  502  0.23615382923E+03 -0.57572074598E+03 -0.45715439655E+02  0.62394944494E+03  0.25500000920E-02 0. -1.
</event>
<event>
 5   0  0.1414751E-03  0.1538570E+04  0.7818609E-02  0.8859202E-01
        2   -1    0    0  501    0  0.00000000000E+00  0.00000000000E+00  0.18463350589E+04  0.18463350589E+04  0.25500000920E-02 0.  1.
       -2   -1    0    0    0  501  0.00000000000E+00  0.00000000000E+00 -0.32052666093E+03  0.32052666094E+03  0.25500000920E-02 0. -1.
    10030    2    1    2    0    0  0.00000000000E+00  0.00000000000E+00  0.15258083980E+04  0.21668617198E+04  0.15385702602E+04 0.  0.
        2    1    3    3  502    0 -0.95105971268E+02 -0.30218893792E+02 -0.31137243653E+03  0.32697266178E+03  0.25500000920E-02 0. -1.
       -2    1    3    3    0  502  0.95105971268E+02  0.30218893792E+02  0.18371808345E+04  0.18398890581E+04  0.25500000920E-02 0.  1.
</event>
<event>
 5   0  0.1414796E-03  0.1610350E+04  0.7818609E-02  0.8814215E-01
        2   -1    0    0  501    0  0.00000000000E+00  0.00000000000E+00  0.17695122228E+04  0.17695122228E+04  0.25500000920E-02 0. -1.
       -2   -1    0    0    0  501  0.00000000000E+00  0.00000000000E+00 -0.36637606037E+03  0.36637606038E+03  0.25500000920E-02 0.  1.
    10030    2    1    2    0    0  0.00000000000E+00  0.00000000000E+00  0.14031361625E+04  0.21358882832E+04  0.16103501694E+04 0.  0.
        4    1    3    3  502    0 -0.15903719523E+03 -0.79072400355E+02 -0.34006873283E+03  0.38365822018E+03  0.12699999809E+01 0.  1.
       -4    1    3    3    0  502  0.15903719523E+03  0.79072400355E+02  0.17432048953E+04  0.17522300630E+04  0.12699999809E+01 0. -1.
</event>
<event>
 5   0  0.1375777E-03  0.1570307E+04  0.7818609E-02  0.8839000E-01
       -2   -1    0    0    0  501  0.00000000000E+00  0.00000000000E+00  0.85543900199E+03  0.85543900199E+03  0.25500000920E-02 0. -1.
        2   -1    0    0  501    0  0.00000000000E+00  0.00000000000E+00 -0.72064288141E+03  0.72064288142E+03  0.25500000920E-02 0.  1.
    10030    2    1    2    0    0  0.00000000000E+00  0.00000000000E+00  0.13479612058E+03  0.15760818834E+04  0.15703070111E+04 0.  0.
        1    1    3    3  502    0  0.60012048895E+03 -0.20439103110E+03 -0.39749616048E+03  0.74828035687E+03  0.50400001928E-02 0.  1.
       -1    1    3    3    0  502 -0.60012048895E+03  0.20439103110E+03  0.53229228106E+03  0.82780152654E+03  0.50400001928E-02 0. -1.
</event>
<event>
 5   0  0.5095750E-04  0.1492098E+04  0.7818609E-02  0.8889725E-01
       -4   -1    0    0    0  501  0.00000000000E+00  0.00000000000E+00  0.10232225447E+04  0.10232233329E+04  0.12699999809E+01 0.  1.
        4   -1    0    0  501    0  0.00000000000E+00  0.00000000000E+00 -0.54395495485E+03  0.54395643742E+03  0.12699999809E+01 0. -1.
    10030    2    1    2    0    0  0.00000000000E+00  0.00000000000E+00  0.47926758989E+03  0.15671797703E+04  0.14920975202E+04 0.  0.
        1    1    3    3  502    0 -0.15621048647E+03 -0.69237039181E+03 -0.17348379333E+01  0.70977565838E+03  0.50400001928E-02 0. -1.
       -1    1    3    3    0  502  0.15621048647E+03  0.69237039181E+03  0.48100242783E+03  0.85740411192E+03  0.50400001928E-02 0.  1.
</event>
<event>
 5   0  0.1414796E-03  0.1583027E+04  0.7818609E-02  0.8831043E-01
       -2   -1    0    0    0  501  0.00000000000E+00  0.00000000000E+00  0.21748361519E+04  0.21748361519E+04  0.25500000920E-02 0. -1.
        2   -1    0    0  501    0  0.00000000000E+00  0.00000000000E+00 -0.28806485563E+03  0.28806485564E+03  0.25500000920E-02 0.  1.
    10030    2    1    2    0    0  0.00000000000E+00  0.00000000000E+00  0.18867712963E+04  0.24629010076E+04  0.15830273051E+04 0.  0.
        4    1    3    3  502    0  0.28644308925E+03  0.51904765872E+03  0.12746059273E+03  0.60638925700E+03  0.12699999809E+01 0.  1.
       -4    1    3    3    0  502 -0.28644308925E+03 -0.51904765872E+03  0.17593107036E+04  0.18565117506E+04  0.12699999809E+01 0. -1.
</event>
<event>
 5   0  0.1354766E-03  0.1477202E+04  0.7818609E-02  0.8899757E-01
        2   -1    0    0  501    0  0.00000000000E+00  0.00000000000E+00  0.14313140886E+04  0.14313140886E+04  0.25500000920E-02 0.  1.
       -2   -1    0    0    0  501  0.00000000000E+00  0.00000000000E+00 -0.38114015194E+03  0.38114015195E+03  0.25500000920E-02 0. -1.
    10030    2    1    2    0    0  0.00000000000E+00  0.00000000000E+00  0.10501739366E+04  0.18124542405E+04  0.14772017726E+04 0.  0.
        3    1    3    3  502    0  0.52616915989E+03  0.75174453703E+02  0.11543419077E+04  0.12708306076E+04  0.10100000352E+00 0.  1.
       -3    1    3    3    0  502 -0.52616915989E+03 -0.75174453703E+02 -0.10416797104E+03  0.54162363289E+03  0.10100000352E+00 0. -1.
</event>
<event>
 5   0  0.5095750E-04  0.1637324E+04  0.7818609E-02  0.8797941E-01
       -3   -1    0    0    0  501  0.00000000000E+00  0.00000000000E+00  0.76876445355E+03  0.76876446019E+03  0.10100000352E+00 0. -1.
        3   -1    0    0  501    0  0.00000000000E+00  0.00000000000E+00 -0.87179797756E+03  0.87179798341E+03  0.10100000352E+00 0.  1.
    10030    2    1    2    0    0  0.00000000000E+00  0.00000000000E+00 -0.10303352400E+03  0.16405624436E+04  0.16373237995E+04 0.  0.
        5    1    3    3  502    0  0.20456345773E+03  0.45918721657E+03 -0.69892646648E+03  0.86094099893E+03  0.46999998093E+01 0.  1.
       -5    1    3    3    0  502 -0.20456345773E+03 -0.45918721657E+03  0.59589294247E+03  0.77962144467E+03  0.46999998093E+01 0. -1.
</event>
<event>
 5   0  0.5095750E-04  0.1570029E+04  0.7818609E-02  0.8839175E-01
       -3   -1    0    0    0  501  0.00000000000E+00  0.00000000000E+00  0.30544064271E+03  0.30544065941E+03  0.10100000352E+00 0. -1.
        3   -1    0    0  501    0  0.00000000000E+00  0.00000000000E+00 -0.20175686020E+04  0.20175686046E+04  0.10100000352E+00 0.  1.
    10030    2    1    2    0    0  0.00000000000E+00  0.00000000000E+00 -0.17121279593E+04  0.23230092640E+04  0.15700286276E+04 0.  0.
        5    1    3    3  502    0  0.66845698434E+02  0.35796736135E+02  0.29998846379E+03  0.30945907988E+03  0.46999998093E+01 0. -1.
       -5    1    3    3    0  502 -0.66845698434E+02 -0.35796736135E+02 -0.20121164231E+04  0.20135501841E+04  0.46999998093E+01 0.  1.
</event>
<event>
 5   0  0.7499834E-04  0.1692372E+04  0.7818609E-02  0.8765727E-01
       -1   -1    0    0    0  501  0.00000000000E+00  0.00000000000E+00  0.73974375593E+03  0.73974375595E+03  0.50400001928E-02 0.  1.
        1   -1    0    0  501    0  0.00000000000E+00  0.00000000000E+00 -0.96794432520E+03  0.96794432521E+03  0.50400001928E-02 0. -1.
    10030    2    1    2    0    0  0.00000000000E+00  0.00000000000E+00 -0.22820056926E+03  0.17076880812E+04  0.16923720285E+04 0.  0.
        3    1    3    3  502    0  0.75490282607E+03  0.37808629703E+03 -0.56990942911E+02  0.84621244530E+03  0.10100000352E+00 0.  1.
       -3    1    3    3    0  502 -0.75490282607E+03 -0.37808629703E+03 -0.17120962635E+03  0.86147563585E+03  0.10100000352E+00 0. -1.
</event>
<event>
 5   0  0.1339162E-03  0.1572801E+04  0.7818609E-02  0.8837434E-01
        2   -1    0    0  501    0  0.00000000000E+00  0.00000000000E+00  0.61769334979E+03  0.61769334979E+03  0.25500000920E-02 0. -1.
       -2   -1    0    0    0  501  0.00000000000E+00  0.00000000000E+00 -0.10011860450E+04  0.10011860450E+04  0.25500000920E-02 0.  1.
    10030    2    1    2    0    0  0.00000000000E+00  0.00000000000E+00 -0.38349269518E+03  0.16188793948E+04  0.15728012740E+04 0.  0.
        5    1    3    3  502    0 -0.12180138181E+03  0.92504975370E+02  0.60222199414E+03  0.62135832440E+03  0.46999998093E+01 0. -1.
       -5    1    3    3    0  502  0.12180138181E+03 -0.92504975370E+02 -0.98571468932E+03  0.99752107036E+03  0.46999998093E+01 0.  1.
</event>
<event>
 5   0  0.7601145E-04  0.1613754E+04  0.7818609E-02  0.8812143E-01
        1   -1    0    0  501    0  0.00000000000E+00  0.00000000000E+00  0.15462251786E+04  0.15462251786E+04  0.50400001928E-02 0.  1.
       -1   -1    0    0    0  501  0.00000000000E+00  0.00000000000E+00 -0.42105801980E+03  0.42105801983E+03  0.50400001928E-02 0. -1.
    10030    2    1    2    0    0  0.00000000000E+00  0.00000000000E+00  0.11251671588E+04  0.19672831985E+04  0.16137540233E+04 0.  0.
        4    1    3    3  502    0 -0.35577693156E+03 -0.66742769008E+03  0.90525346679E+03  0.11796280764E+04  0.12699999809E+01 0.  1.
       -4    1    3    3    0  502  0.35577693156E+03  0.66742769008E+03  0.21991369203E+03  0.78765512209E+03  0.12699999809E+01 0. -1.
</event>
<event>
 5   0  0.1375777E-03  0.1577860E+04  0.7818609E-02  0.8834266E-01
        2   -1    0    0  501    0  0.00000000000E+00  0.00000000000E+00  0.23453276501E+04  0.23453276501E+04  0.25500000920E-02 0. -1.
       -2   -1    0    0    0  501  0.00000000000E+00  0.00000000000E+00 -0.26538314424E+03  0.26538314425E+03  0.25500000920E-02 0.  1.
    10030    2    1    2    0    0  0.00000000000E+00  0.00000000000E+00  0.20799445059E+04  0.26107107944E+04  0.15778598494E+04 0.  0.
        1    1    3    3  502    0 -0.58158495510E+03  0.51148776976E+03  0.79151022522E+03  0.11074065357E+04  0.50400001928E-02 0.  1.
       -1    1    3    3    0  502  0.58158495510E+03 -0.51148776976E+03  0.12884342807E+04  0.15033042587E+04  0.50400001928E-02 0. -1.
</event>
<event>
 5   0  0.1414751E-03  0.1724759E+04  0.7818609E-02  0.8747368E-01
        2   -1    0    0  501    0  0.00000000000E+00  0.00000000000E+00  0.16234112088E+04  0.16234112088E+04  0.25500000920E-02 0.  1.
       -2   -1    0    0    0  501  0.00000000000E+00  0.00000000000E+00 -0.45810819738E+03  0.45810819739E+03  0.25500000920E-02 0. -1.
    10030    2    1    2    0    0  0.00000000000E+00  0.00000000000E+00  0.11653030115E+04  0.20815194062E+04  0.17247585135E+04 0.  0.
        2    1    3    3  502    0 -0.16684051649E+03  0.51023997131E+03  0.13971769409E+04  0.14967578263E+04  0.25500000920E-02 0.  1.
       -2    1    3    3    0  502  0.16684051649E+03 -0.51023997131E+03 -0.23187392943E+03  0.58476157998E+03  0.25500000920E-02 0. -1.
</event>
<event>
 5   0  0.7302027E-04  0.1615785E+04  0.7818609E-02  0.8810909E-01
        1   -1    0    0  501    0  0.00000000000E+00  0.00000000000E+00  0.49381484692E+03  0.49381484695E+03  0.50400001928E-02 0. -1.
       -1   -1    0    0    0  501  0.00000000000E+00  0.00000000000E+00 -0.13217314991E+04  0.13217314991E+04  0.50400001928E-02 0.  1.
    10030    2    1    2    0    0  0.00000000000E+00  0.00000000000E+00 -0.82791665217E+03  0.18155463460E+04  0.16157854287E+04 0.  0.
        5    1    3    3  502    0  0.43034470479E+03  0.20233907358E+03 -0.11477941229E+04  0.12424134192E+04  0.46999998093E+01 0.  1.
       -5    1    3    3    0  502 -0.43034470479E+03 -0.20233907358E+03  0.31987747069E+03  0.57313292689E+03  0.46999998093E+01 0. -1.
</event>
<event>
 5   0  0.1414796E-03  0.1549113E+04  0.7818609E-02  0.8852434E-01
       -2   -1    0    0    0  501  0.00000000000E+00  0.00000000000E+00  0.45506061392E+03  0.45506061393E+03  0.25500000920E-02 0.  1.
        2   -1    0    0  501    0  0.00000000000E+00  0.00000000000E+00 -0.13183689705E+04  0.13183689705E+04  0.25500000920E-02 0. -1.
    10030    2    1    2    0    0  0.00000000000E+00  0.00000000000E+00 -0.86330835654E+03  0.17734295844E+04  0.15491130276E+04 0.  0.
        4    1    3    3  502    0 -0.41360622381E+03  0.47097934779E+03  0.89255850805E+02  0.63313495735E+03  0.12699999809E+01 0.  1.
       -4    1    3    3    0  502  0.41360622381E+03 -0.47097934779E+03 -0.95256420734E+03  0.11402946270E+04  0.12699999809E+01 0. -1.
</event>
<event>
 5   0  0.1339162E-03  0.1597880E+04  0.7818609E-02  0.8821851E-01
        2   -1    0    0  501    0  0.00000000000E+00  0.00000000000E+00  0.20828324305E+04  0.20828324305E+04  0.25500000920E-02 0.  1.
       -2   -1    0    0    0  501  0.00000000000E+00  0.00000000000E+00 -0.30646030324E+03  0.30646030325E+03  0.25500000920E-02 0. -1.
    10030    2    1    2    0    0  0.00000000000E+00  0.00000000000E+00  0.17763721272E+04  0.23892927337E+04  0.15978804189E+04 0.  0.
        5    1    3    3  502    0  0.67107006173E+03 -0.35678423369E+03  0.51992781116E+03  0.92085668590E+03  0.46999998093E+01 0. -1.
       -5    1    3    3    0  502 -0.67107006173E+03  0.35678423369E+03  0.12564443161E+04  0.14684360478E+04  0.46999998093E+01 0.  1.
</event>
<event>
 5   0  0.7601145E-04  0.1618242E+04  0.7818609E-02  0.8809419E-01
       -1   -1    0    0    0  501  0.00000000000E+00  0.00000000000E+00  0.52272537105E+03  0.52272537108E+03  0.50400001928E-02 0. -1.
        1   -1    0    0  501    0  0.00000000000E+00  0.00000000000E+00 -0.12524299438E+04  0.12524299438E+04  0.50400001928E-02 0.  1.
    10030    2    1    2    0    0  0.00000000000E+00  0.00000000000E+00 -0.72970457276E+03  0.17751553149E+04  0.16182421415E+04 0.  0.
        4    1    3    3  502    0  0.64458696367E+03  0.32717400544E+03  0.33906424653E+02  0.72366182855E+03  0.12699999809E+01 0. -1.
       -4    1    3    3    0  502 -0.64458696367E+03 -0.32717400544E+03 -0.76361099741E+03  0.10514934863E+04  0.12699999809E+01 0.  1.
</event>
<event>
 5   0  0.1354766E-03  0.1591560E+04  0.7818609E-02  0.8825750E-01
        2   -1    0    0  501    0  0.00000000000E+00  0.00000000000E+00  0.73273993194E+03  0.73273993195E+03  0.25500000920E-02 0.  1.
       -2   -1    0    0    0  501  0.00000000000E+00  0.00000000000E+00 -0.86424360260E+03  0.86424360260E+03  0.25500000920E-02 0. -1.
    10030    2    1    2    0    0  0.00000000000E+00  0.00000000000E+00 -0.13150367066E+03  0.15969835345E+04  0.15915599876E+04 0.  0.
        3    1    3    3  502    0 -0.40889857794E+03  0.52510537856E+03  0.37200549392E+03  0.76244462314E+03  0.10100000352E+00 0.  1.
       -3    1    3    3    0  502  0.40889857794E+03 -0.52510537856E+03 -0.50350916458E+03  0.83453891141E+03  0.10100000352E+00 0. -1.
</event>
<event>
 5   0  0.5095750E-04  0.1588006E+04  0.7818609E-02  0.8827950E-01
       -3   -1    0    0    0  501  0.00000000000E+00  0.00000000000E+00  0.12435243330E+04  0.12435243371E+04  0.10100000352E+00 0.  1.
        3   -1    0    0  501    0  0.00000000000E+00  0.00000000000E+00 -0.50697907171E+03  0.50697908177E+03  0.10100000352E+00 0. -1.
    10030    2    1    2    0    0  0.00000000000E+00  0.00000000000E+00  0.73654526134E+03  0.17505034189E+04  0.15880060761E+04 0.  0.
        2    1    3    3  502    0  0.76868370703E+03  0.19891248982E+03  0.36819994781E+03  0.87522112727E+03  0.25500000920E-02 0.  1.
       -2    1    3    3    0  502 -0.76868370703E+03 -0.19891248982E+03  0.36834531353E+03  0.87528229164E+03  0.25500000920E-02 0. -1.
</event>
<event>
 5   0  0.7499834E-04  0.1601284E+04  0.7818609E-02  0.8819759E-01
       -1   -1    0    0    0  501  0.00000000000E+00  0.00000000000E+00  0.26557091322E+03  0.26557091326E+03  0.50400001928E-02 0.  1.
        1   -1    0    0  501    0  0.00000000000E+00  0.00000000000E+00 -0.24137729434E+04  0.24137729434E+04  0.50400001928E-02 0. -1.
    10030    2    1    2    0    0  0.00000000000E+00  0.00000000000E+00 -0.21482020302E+04  0.26793438567E+04  0.16012843407E+04 0.  0.
        3    1    3    3  502    0  0.60699923722E+03  0.44526479826E+03 -0.61794847162E+03  0.97394514134E+03  0.10100000352E+00 0.  1.
       -3    1    3    3    0  502 -0.60699923722E+03 -0.44526479826E+03 -0.15302535586E+04  0.17053987154E+04  0.10100000352E+00 0. -1.
</event>
<event>
 5   0  0.7499834E-04  0.1617236E+04  0.7818609E-02  0.8810029E-01
        1   -1    0    0  501    0  0.00000000000E+00  0.00000000000E+00  0.48822823608E+03  0.48822823610E+03  0.50400001928E-02 0.  1.
       -1   -1    0    0    0  501  0.00000000000E+00  0.00000000000E+00 -0.13392567063E+04  0.13392567063E+04  0.50400001928E-02 0. -1.
    10030    2    1    2    0    0  0.00000000000E+00  0.00000000000E+00 -0.85102847019E+03  0.18274849424E+04  0.16172358386E+04 0.  0.
        3    1    3    3  502    0  0.70471664855E+03  0.19932473454E+03 -0.38156381820E+02  0.73335654645E+03  0.10100000352E+00 0.  1.
       -3    1    3    3    0  502 -0.70471664855E+03 -0.19932473454E+03 -0.81287208837E+03  0.10941283959E+04  0.10100000352E+00 0. -1.
</event>
<event>
 5   0  0.7633213E-04  0.1599773E+04  0.7818609E-02  0.8820687E-01
       -1   -1    0    0    0  501  0.00000000000E+00  0.00000000000E+00  0.39918161623E+03  0.39918161626E+03  0.50400001928E-02 0. -1.
        1   -1    0    0  501    0  0.00000000000E+00  0.00000000000E+00 -0.16028256812E+04  0.16028256812E+04  0.50400001928E-02 0.  1.
    10030    2    1    2    0    0  0.00000000000E+00  0.00000000000E+00 -0.12036440650E+04  0.20020072975E+04  0.15997731664E+04 0.  0.
        1    1    3    3  502    0  0.74390617229E+03  0.29465558108E+02 -0.23578313412E+03  0.78093424732E+03  0.50400001928E-02 0. -1.
       -1    1    3    3    0  502 -0.74390617229E+03 -0.29465558108E+02 -0.96786093084E+03  0.12210730501E+04  0.50400001928E-02 0.  1.
</event>
<event>
 5   0  0.1354766E-03  0.1592495E+04  0.7818609E-02  0.8825172E-01
        2   -1    0    0  501    0  0.00000000000E+00  0.00000000000E+00  0.11721917988E+04  0.11721917988E+04  0.25500000920E-02 0.  1.
       -2   -1    0    0    0  501  0.00000000000E+00  0.00000000000E+00 -0.54087555635E+03  0.54087555635E+03  0.25500000920E-02 0. -1.
    10030    2    1    2    0    0  0.00000000000E+00  0.00000000000E+00  0.63131624243E+03  0.17130673551E+04  0.15924947615E+04 0.  0.
        3    1    3    3  502    0 -0.49855400818E+03  0.50097102139E+02  0.98133595654E+03  0.11018557476E+04  0.10100000352E+00 0.  1.
       -3    1    3    3    0  502  0.49855400818E+03 -0.50097102139E+02 -0.35001971411E+03  0.61121160753E+03  0.10100000352E+00 0. -1.
</event>
<event>
 5   0  0.5095750E-04  0.1583076E+04  0.7818609E-02  0.8831013E-01
        3   -1    0    0  501    0  0.00000000000E+00  0.00000000000E+00  0.35272334083E+03  0.35272335529E+03  0.10100000352E+00 0. -1.
       -3   -1    0    0    0  501  0.00000000000E+00  0.00000000000E+00 -0.17762705079E+04  0.17762705107E+04  0.10100000352E+00 0.  1.
    10030    2    1    2    0    0  0.00000000000E+00  0.00000000000E+00 -0.14235471670E+04  0.21289938660E+04  0.15830755967E+04 0.  0.
        1    1    3    3  502    0  0.53968710020E+03  0.56327005376E+03 -0.89218748488E+03  0.11851302999E+04  0.50400001928E-02 0. -1.
       -1    1    3    3    0  502 -0.53968710020E+03 -0.56327005376E+03 -0.53135968214E+03  0.94386356610E+03  0.50400001928E-02 0.  1.
</event>
<event>
 5   0  0.1354766E-03  0.1469796E+04  0.7818609E-02  0.8904791E-01
        2   -1    0    0  501    0  0.00000000000E+00  0.00000000000E+00  0.87041806449E+03  0.87041806449E+03  0.25500000920E-02 0. -1.
       -2   -1    0    0    0  501  0.00000000000E+00  0.00000000000E+00 -0.62047765437E+03  0.62047765437E+03  0.25500000920E-02 0.  1.
    10030    2    1    2    0    0  0.00000000000E+00  0.00000000000E+00  0.24994041012E+03  0.14908957189E+04  0.14697958484E+04 0.  0.
        3    1    3    3  502    0 -0.17251348452E+03  0.47720243986E+03  0.66419529183E+03  0.83584595879E+03  0.10100000352E+00 0. -1.
       -3    1    3    3    0  502  0.17251348452E+03 -0.47720243986E+03 -0.41425488171E+03  0.65504976007E+03  0.10100000352E+00 0.  1.
</event>
<event>
 5   0  0.1339162E-03  0.1535144E+04  0.7818609E-02  0.8861413E-01
       -2   -1    0    0    0  501  0.00000000000E+00  0.00000000000E+00  0.55336610556E+03  0.55336610557E+03  0.25500000920E-02 0. -1.
        2   -1    0    0  501    0  0.00000000000E+00  0.00000000000E+00 -0.10646968466E+04  0.10646968467E+04  0.25500000920E-02 0.  1.
    10030    2    1    2    0    0  0.00000000000E+00  0.00000000000E+00 -0.51133074109E+03  0.16180629522E+04  0.15351444852E+04 0.  0.
        5    1    3    3  502    0  0.14221692407E+03  0.22789707971E+03 -0.10135166797E+04  0.10485231912E+04  0.46999998093E+01 0.  1.
       -5    1    3    3    0  502 -0.14221692407E+03 -0.22789707971E+03  0.50218593862E+03  0.56953976102E+03  0.46999998093E+01 0. -1.
</event>
<event>
 5   0  0.7124495E-04  0.1618241E+04  0.7818609E-02  0.8809420E-01
       -1   -1    0    0    0  501  0.00000000000E+00  0.00000000000E+00  0.21891355257E+03  0.21891355262E+03  0.50400001928E-02 0. -1.
        1   -1    0    0  501    0  0.00000000000E+00  0.00000000000E+00 -0.29905671115E+04  0.29905671115E+04  0.50400001928E-02 0.  1.
    10030    2    1    2    0    0  0.00000000000E+00  0.00000000000E+00 -0.27716535589E+04  0.32094806641E+04  0.16182406133E+04 0.  0.
        2    1    3    3  502    0 -0.66413876889E+03  0.37355622938E+02 -0.22994440039E+04  0.23937248117E+04  0.25500000920E-02 0.  1.
       -2    1    3    3    0  502  0.66413876889E+03 -0.37355622938E+02 -0.47220955495E+03  0.81575585238E+03  0.25500000920E-02 0. -1.
</event>
<event>
 5   0  0.7601145E-04  0.1623467E+04  0.7818609E-02  0.8806259E-01
       -1   -1    0    0    0  501  0.00000000000E+00  0.00000000000E+00  0.94918896741E+03  0.94918896742E+03  0.50400001928E-02 0. -1.
        1   -1    0    0  501    0  0.00000000000E+00  0.00000000000E+00 -0.69418373742E+03  0.69418373744E+03  0.50400001928E-02 0.  1.
    10030    2    1    2    0    0  0.00000000000E+00  0.00000000000E+00  0.25500522999E+03  0.16433727049E+04  0.16234673325E+04 0.  0.
        4    1    3    3  502    0 -0.24193246297E+03  0.39418560590E+02 -0.65582313210E+03  0.70013622464E+03  0.12699999809E+01 0.  1.
       -4    1    3    3    0  502  0.24193246297E+03 -0.39418560590E+02  0.91082836208E+03  0.94323648023E+03  0.12699999809E+01 0. -1.
</event>
<event>
 5   0  0.1414751E-03  0.1595692E+04  0.7818609E-02  0.8823199E-01
       -2   -1    0    0    0  501  0.00000000000E+00  0.00000000000E+00  0.42397190959E+03  0.42397190960E+03  0.25500000920E-02 0.  1.
        2   -1    0    0  501    0  0.00000000000E+00  0.00000000000E+00 -0.15014153843E+04  0.15014153843E+04  0.25500000920E-02 0. -1.
    10030    2    1    2    0    0  0.00000000000E+00  0.00000000000E+00 -0.10774434747E+04  0.19253872939E+04  0.15956916338E+04 0.  0.
        2    1    3    3  502    0  0.32541381989E+03  0.68680719332E+03 -0.83170760004E+03  0.11266480404E+04  0.25500000920E-02 0. -1.
       -2    1    3    3    0  502 -0.32541381989E+03 -0.68680719332E+03 -0.24573587467E+03  0.79873925350E+03  0.25500000920E-02 0.  1.
</event>
<event>
 5   0  0.1354766E-03  0.1628504E+04  0.7818609E-02  0.8803225E-01
        2   -1    0    0  501    0  0.00000000000E+00  0.00000000000E+00  0.22223185441E+04  0.22223185441E+04  0.25500000920E-02 0.  1.
       -2   -1    0    0    0  501  0.00000000000E+00  0.00000000000E+00 -0.29834009043E+03  0.29834009044E+03  0.25500000920E-02 0. -1.
    10030    2    1    2    0    0  0.00000000000E+00  0.00000000000E+00  0.19239784536E+04  0.25206586345E+04  0.16285044862E+04 0.  0.
        3    1    3    3  502    0  0.55767571288E+03  0.18312715433E+02  0.18798825490E+04  0.19609426214E+04  0.10100000352E+00 0.  1.
       -3    1    3    3    0  502 -0.55767571288E+03 -0.18312715433E+02  0.44095904620E+02  0.55971601307E+03  0.10100000352E+00 0. -1.
</event>
<event>
 5   0  0.7633213E-04  0.1551873E+04  0.7818609E-02  0.8850672E-01
       -1   -1    0    0    0  501  0.00000000000E+00  0.00000000000E+00  0.26352869465E+03  0.26352869470E+03  0.50400001928E-02 0. -1.
        1   -1    0    0  501    0  0.00000000000E+00  0.00000000000E+00 -0.22846759397E+04  0.22846759397E+04  0.50400001928E-02 0.  1.
    10030    2    1    2    0    0  0.00000000000E+00  0.00000000000E+00 -0.20211472450E+04  0.25482046344E+04  0.15518732785E+04 0.  0.
        1    1    3    3  502    0 -0.21443416703E+03  0.63972670408E+03 -0.38134536221E+03  0.77502035664E+03  0.50400001928E-02 0.  1.
       -1    1    3    3    0  502  0.21443416703E+03 -0.63972670408E+03 -0.16398018828E+04  0.17731842777E+04  0.50400001928E-02 0. -1.
</event>
<event>
 5   0  0.1339162E-03  0.1396844E+04  0.7818609E-02  0.8956106E-01
        2   -1    0    0  501    0  0.00000000000E+00  0.00000000000E+00  0.14960292572E+04  0.14960292572E+04  0.25500000920E-02 0. -1.
       -2   -1    0    0    0  501  0.00000000000E+00  0.00000000000E+00 -0.32605884652E+03  0.32605884653E+03  0.25500000920E-02 0.  1.
    10030    2    1    2    0    0  0.00000000000E+00  0.00000000000E+00  0.11699704106E+04  0.18220881037E+04  0.13968444065E+04 0.  0.
        5    1    3    3  502    0 -0.19907651528E+03 -0.22998590632E+03  0.14050635811E+04  0.14376198152E+04  0.46999998093E+01 0. -1.
       -5    1    3    3    0  502  0.19907651528E+03  0.22998590632E+03 -0.23509317050E+03  0.38446828849E+03  0.46999998093E+01 0.  1.
</event>
<event>
 5   0  0.7601145E-04  0.1593086E+04  0.7818609E-02  0.8824807E-01
        1   -1    0    0  501    0  0.00000000000E+00  0.00000000000E+00  0.16360462397E+04  0.16360462397E+04  0.50400001928E-02 0. -1.
       -1   -1    0    0    0  501  0.00000000000E+00  0.00000000000E+00 -0.38781321594E+03  0.38781321598E+03  0.50400001928E-02 0.  1.
    10030    2    1    2    0    0  0.00000000000E+00  0.00000000000E+00  0.12482330237E+04  0.20238594557E+04  0.15930855014E+04 0.  0.
        4    1    3    3  502    0 -0.65085807880E+03  0.45001126037E+03  0.50801281062E+03  0.94032175443E+03  0.12699999809E+01 0.  1.
       -4    1    3    3    0  502  0.65085807880E+03 -0.45001126037E+03  0.74022021312E+03  0.10835377012E+04  0.12699999809E+01 0. -1.
</event>
<event>
 5   0  0.7302027E-04  0.1638951E+04  0.7818609E-02  0.8796970E-01
        1   -1    0    0  501    0  0.00000000000E+00  0.00000000000E+00  0.97849843569E+03  0.97849843570E+03  0.50400001928E-02 0. -1.
       -1   -1    0    0    0  501  0.00000000000E+00  0.00000000000E+00 -0.68629615932E+03  0.68629615934E+03  0.50400001928E-02 0.  1.
    10030    2    1    2    0    0  0.00000000000E+00  0.00000000000E+00  0.29220227637E+03  0.16647945950E+04  0.16389505402E+04 0.  0.
        5    1    3    3  502    0  0.74182880363E+03 -0.27673235709E+03 -0.68480699356E+02  0.79473421189E+03  0.46999998093E+01 0.  1.
       -5    1    3    3    0  502 -0.74182880363E+03  0.27673235709E+03  0.36068297573E+03  0.87006038316E+03  0.46999998093E+01 0. -1.
</event>
<event>
 5   0  0.1414751E-03  0.1569023E+04  0.7818609E-02  0.8839808E-01
        2   -1    0    0  501    0  0.00000000000E+00  0.00000000000E+00  0.17800038551E+04  0.17800038551E+04  0.25500000920E-02 0.  1.
       -2   -1    0    0    0  501  0.00000000000E+00  0.00000000000E+00 -0.34576211753E+03  0.34576211754E+03  0.25500000920E-02 0. -1.
    10030    2    1    2    0    0  0.00000000000E+00  0.00000000000E+00  0.14342417376E+04  0.21257659727E+04  0.15690225010E+04 0.  0.
        2    1    3    3  502    0  0.71554735188E+02 -0.13693459581E+03  0.17591875119E+04  0.17659591914E+04  0.25500000920E-02 0.  1.
       -2    1    3    3    0  502 -0.71554735188E+02  0.13693459581E+03 -0.32494577426E+03  0.35980678131E+03  0.25500000920E-02 0. -1.
</event>
<event>
 5   0  0.7633213E-04  0.1609515E+04  0.7818609E-02  0.8814724E-01
       -1   -1    0    0    0  501  0.00000000000E+00  0.00000000000E+00  0.41215128807E+03  0.41215128810E+03  0.50400001928E-02 0.  1.
        1   -1    0    0  501    0  0.00000000000E+00  0.00000000000E+00 -0.15713514504E+04  0.15713514504E+04  0.50400001928E-02 0. -1.
    10030    2    1    2    0    0  0.00000000000E+00  0.00000000000E+00 -0.11592001623E+04  0.19835027385E+04  0.16095148640E+04 0.  0.
        1    1    3    3  502    0  0.21839998999E+03 -0.31004283473E+02  0.37416639435E+03  0.43435044826E+03  0.50400001928E-02 0.  1.
       -1    1    3    3    0  502 -0.21839998999E+03  0.31004283473E+02 -0.15333665567E+04  0.15491522903E+04  0.50400001928E-02 0. -1.
</event>
<event>
 5   0  0.7124495E-04  0.1575761E+04  0.7818609E-02  0.8835579E-01
       -1   -1    0    0    0  501  0.00000000000E+00  0.00000000000E+00  0.50086008550E+03  0.50086008553E+03  0.50400001928E-02 0. -1.
        1   -1    0    0  501    0  0.00000000000E+00  0.00000000000E+00 -0.12393801222E+04  0.12393801222E+04  0.50400001928E-02 0.  1.
    10030    2    1    2    0    0  0.00000000000E+00  0.00000000000E+00 -0.73852003669E+03  0.17402402077E+04  0.15757614464E+04 0.  0.
        2    1    3    3  502    0  0.74606917355E+02  0.53812835814E+03  0.26092209087E+03  0.60268454391E+03  0.25500000920E-02 0. -1.
       -2    1    3    3    0  502 -0.74606917355E+02 -0.53812835814E+03 -0.99944212756E+03  0.11375556638E+04  0.25500000920E-02 0.  1.
</event>
<event>
 5   0  0.1339162E-03  0.1586315E+04  0.7818609E-02  0.8828999E-01
        2   -1    0    0  501    0  0.00000000000E+00  0.00000000000E+00  0.11365732797E+04  0.11365732797E+04  0.25500000920E-02 0.  1.
       -2   -1    0    0    0  501  0.00000000000E+00  0.00000000000E+00 -0.55350495786E+03  0.55350495787E+03  0.25500000920E-02 0. -1.
    10030    2    1    2    0    0  0.00000000000E+00  0.00000000000E+00  0.58306832188E+03  0.16900782376E+04  0.15863151582E+04 0.  0.
        5    1    3    3  502    0 -0.34363795006E+03 -0.56350892468E+03 -0.17706219106E+03  0.68337578127E+03  0.46999998093E+01 0. -1.
       -5    1    3    3    0  502  0.34363795006E+03  0.56350892468E+03  0.76013051294E+03  0.10067024564E+04  0.46999998093E+01 0.  1.
</event>
<event>
 5   0  0.1414796E-03  0.1584481E+04  0.7818609E-02  0.8830139E-01
        2   -1    0    0  501    0  0.00000000000E+00  0.00000000000E+00  0.94348043326E+03  0.94348043326E+03  0.25500000920E-02 0. -1.
       -2   -1    0    0    0  501  0.00000000000E+00  0.00000000000E+00 -0.66524455718E+03  0.66524455719E+03  0.25500000920E-02 0.  1.
    10030    2    1    2    0    0  0.00000000000E+00  0.00000000000E+00  0.27823587607E+03  0.16087249904E+04  0.15844812691E+04 0.  0.
        4    1    3    3  502    0 -0.72097139367E+03  0.24292485850E+03 -0.85241408032E+02  0.76555858556E+03  0.12699999809E+01 0. -1.
       -4    1    3    3    0  502  0.72097139367E+03 -0.24292485850E+03  0.36347728410E+03  0.84316640489E+03  0.12699999809E+01 0.  1.
</event>
<event>
 5   0  0.7124495E-04  0.1623375E+04  0.7818609E-02  0.8806315E-01
       -1   -1    0    0    0  501  0.00000000000E+00  0.00000000000E+00  0.53238946676E+03  0.53238946679E+03  0.50400001928E-02 0. -1.
        1   -1    0    0  501    0  0.00000000000E+00  0.00000000000E+00 -0.12375085901E+04  0.12375085901E+04  0.50400001928E-02 0.  1.
    10030    2    1    2    0    0  0.00000000000E+00  0.00000000000E+00 -0.70511912330E+03  0.17698980569E+04  0.16233749270E+04 0.  0.
        2    1    3    3  502    0  0.27489822890E+03  0.53437297316E+03 -0.94743815092E+03  0.11219458813E+04  0.25500000920E-02 0.  1.
       -2    1    3    3    0  502 -0.27489822890E+03 -0.53437297316E+03  0.24231902762E+03  0.64795217558E+03  0.25500000920E-02 0. -1.
</event>
<event>
 5   0  0.7499834E-04  0.1703259E+04  0.7818609E-02  0.8759508E-01
        1   -1    0    0  501    0  0.00000000000E+00  0.00000000000E+00  0.60683923272E+03  0.60683923274E+03  0.50400001928E-02 0. -1.
       -1   -1    0    0    0  501  0.00000000000E+00  0.00000000000E+00 -0.11951642670E+04  0.11951642670E+04  0.50400001928E-02 0.  1.
    10030    2    1    2    0    0  0.00000000000E+00  0.00000000000E+00 -0.58832503430E+03  0.18020034998E+04  0.17032587200E+04 0.  0.
        3    1    3    3  502    0 -0.49172210176E+03 -0.18104117508E+03 -0.10044296044E+04  0.11328924807E+04  0.10100000352E+00 0.  1.
       -3    1    3    3    0  502  0.49172210176E+03  0.18104117508E+03  0.41610457008E+03  0.66911101909E+03  0.10100000352E+00 0. -1.
</event>
<event>
 5   0  0.7124495E-04  0.1607518E+04  0.7818609E-02  0.8815943E-01
        1   -1    0    0  501    0  0.00000000000E+00  0.00000000000E+00  0.10707120489E+04  0.10707120489E+04  0.50400001928E-02 0.  1.
       -1   -1    0    0    0  501  0.00000000000E+00  0.00000000000E+00 -0.60336316729E+03  0.60336316731E+03  0.50400001928E-02 0. -1.
    10030    2    1    2    0    0  0.00000000000E+00  0.00000000000E+00  0.46734888161E+03  0.16740752162E+04  0.16075176056E+04 0.  0.
        2    1    3    3  502    0  0.76191991546E+03  0.22724158140E+03  0.11103826004E+03  0.80280146306E+03  0.25500000920E-02 0. -1.
       -2    1    3    3    0  502 -0.76191991546E+03 -0.22724158140E+03  0.35631062156E+03  0.87127375316E+03  0.25500000920E-02 0.  1.
</event>
<event>
 5   0  0.1354766E-03  0.1587013E+04  0.7818609E-02  0.8828566E-01
       -2   -1    0    0    0  501  0.00000000000E+00  0.00000000000E+00  0.11393254368E+04  0.11393254368E+04  0.25500000920E-02 0. -1.
        2   -1    0    0  501    0  0.00000000000E+00  0.00000000000E+00 -0.55265384619E+03  0.55265384620E+03  0.25500000920E-02 0.  1.
    10030    2    1    2    0    0  0.00000000000E+00  0.00000000000E+00  0.58667159059E+03  0.16919792830E+04  0.15870130242E+04 0.  0.
        3    1    3    3  502    0 -0.21120805562E+03  0.35964431893E+03 -0.42636820974E+03  0.59644173176E+03  0.10100000352E+00 0.  1.
       -3    1    3    3    0  502  0.21120805562E+03 -0.35964431893E+03  0.10130398003E+04  0.10955375512E+04  0.10100000352E+00 0. -1.
</event>
<event>
 5   0  0.5095750E-04  0.1709510E+04  0.7818609E-02  0.8755959E-01
       -3   -1    0    0    0  501  0.00000000000E+00  0.00000000000E+00  0.50031373956E+03  0.50031374975E+03  0.10100000352E+00 0. -1.
        3   -1    0    0  501    0  0.00000000000E+00  0.00000000000E+00 -0.14602960133E+04  0.14602960168E+04  0.10100000352E+00 0.  1.
    10030    2    1    2    0    0  0.00000000000E+00  0.00000000000E+00 -0.95998227377E+03  0.19606097666E+04  0.17095100733E+04 0.  0.
        4    1    3    3  502    0  0.25003033377E+03  0.59767794354E+03  0.15946274894E+03  0.66720616994E+03  0.12699999809E+01 0. -1.
       -4    1    3    3    0  502 -0.25003033377E+03 -0.59767794354E+03 -0.11194450227E+04  0.12934035966E+04  0.12699999809E+01 0.  1.
</event>
<event>
 5   0  0.7601145E-04  0.1607073E+04  0.7818609E-02  0.8816215E-01
        1   -1    0    0  501    0  0.00000000000E+00  0.00000000000E+00  0.80510504891E+03  0.80510504892E+03  0.50400001928E-02 0.  1.
       -1   -1    0    0    0  501  0.00000000000E+00  0.00000000000E+00 -0.80197065639E+03  0.80197065641E+03  0.50400001928E-02 0. -1.
    10030    2    1    2    0    0  0.00000000000E+00  0.00000000000E+00  0.31343925166E+01  0.16070757053E+04  0.16070726487E+04 0.  0.
        4    1    3    3  502    0 -0.14424464892E+03  0.60629184268E+03 -0.50565432642E+03  0.80254858294E+03  0.12699999809E+01 0. -1.
       -4    1    3    3    0  502  0.14424464892E+03 -0.60629184268E+03  0.50878871894E+03  0.80452712239E+03  0.12699999809E+01 0.  1.
</event>
<event>
 5   0  0.7499834E-04  0.1568349E+04  0.7818609E-02  0.8840232E-01
        1   -1    0    0  501    0  0.00000000000E+00  0.00000000000E+00  0.59878869741E+03  0.59878869743E+03  0.50400001928E-02 0.  1.
       -1   -1    0    0    0  501  0.00000000000E+00  0.00000000000E+00 -0.10269564486E+04  0.10269564486E+04  0.50400001928E-02 0. -1.
    10030    2    1    2    0    0  0.00000000000E+00  0.00000000000E+00 -0.42816775116E+03  0.16257451460E+04  0.15683493414E+04 0.  0.
        3    1    3    3  502    0 -0.61072181610E+03  0.63052704034E+02  0.29159360771E+03  0.67969377105E+03  0.10100000352E+00 0.  1.
       -3    1    3    3    0  502  0.61072181610E+03 -0.63052704034E+02 -0.71976135887E+03  0.94605137497E+03  0.10100000352E+00 0. -1.
</event>
<event>
 5   0  0.1375777E-03  0.1613450E+04  0.7818609E-02  0.8812328E-01
        2   -1    0    0  501    0  0.00000000000E+00  0.00000000000E+00  0.12784799613E+04  0.12784799613E+04  0.25500000920E-02 0. -1.
       -2   -1    0    0    0  501  0.00000000000E+00  0.00000000000E+00 -0.50904599860E+03  0.50904599861E+03  0.25500000920E-02 0.  1.
    10030    2    1    2    0    0  0.00000000000E+00  0.00000000000E+00  0.76943396272E+03  0.17875259599E+04  0.16134498550E+04 0.  0.
        1    1    3    3  502    0  0.19732231216E+03  0.76125123674E+03  0.18540266068E+03  0.80796886507E+03  0.50400001928E-02 0.  1.
       -1    1    3    3    0  502 -0.19732231216E+03 -0.76125123674E+03  0.58403130204E+03  0.97955709486E+03  0.50400001928E-02 0. -1.
</event>
<event>
 5   0  0.7633213E-04  0.1594802E+04  0.7818609E-02  0.8823748E-01
       -1   -1    0    0    0  501  0.00000000000E+00  0.00000000000E+00  0.26098470385E+03  0.26098470390E+03  0.50400001928E-02 0.  1.
        1   -1    0    0  501    0  0.00000000000E+00  0.00000000000E+00 -0.24363439433E+04  0.24363439433E+04  0.50400001928E-02 0. -1.
    10030    2    1    2    0    0  0.00000000000E+00  0.00000000000E+00 -0.21753592394E+04  0.26973286472E+04  0.15948021853E+04 0.  0.
        1    1    3    3  502    0 -0.60856261752E+03 -0.41445019732E+03 -0.16054877278E+04  0.17662695914E+04  0.50400001928E-02 0. -1.
       -1    1    3    3    0  502  0.60856261752E+03  0.41445019732E+03 -0.56987151165E+03  0.93105905577E+03  0.50400001928E-02 0.  1.
</event>
<event>
 5   0  0.1354766E-03  0.1726856E+04  0.7818609E-02  0.8746194E-01
       -2   -1    0    0    0  501  0.00000000000E+00  0.00000000000E+00  0.35402392597E+03  0.35402392598E+03  0.25500000920E-02 0.  1.
        2   -1    0    0  501    0  0.00000000000E+00  0.00000000000E+00 -0.21058121145E+04  0.21058121145E+04  0.25500000920E-02 0. -1.
    10030    2    1    2    0    0  0.00000000000E+00  0.00000000000E+00 -0.17517881885E+04  0.24598360405E+04  0.17268559548E+04 0.  0.
        3    1    3    3  502    0  0.41552131649E+03 -0.70554961630E+03 -0.12661274100E+04  0.15078252067E+04  0.10100000352E+00 0.  1.
       -3    1    3    3    0  502 -0.41552131649E+03  0.70554961630E+03 -0.48566077850E+03  0.95201083371E+03  0.10100000352E+00 0. -1.
</event>
<event>
 5   0  0.1354766E-03  0.1645378E+04  0.7818609E-02  0.8793145E-01
        2   -1    0    0  501    0  0.00000000000E+00  0.00000000000E+00  0.11558056986E+04  0.11558056986E+04  0.25500000920E-02 0.  1.
       -2   -1    0    0    0  501  0.00000000000E+00  0.00000000000E+00 -0.58558061651E+03  0.58558061652E+03  0.25500000920E-02 0. -1.
    10030    2    1    2    0    0  0.00000000000E+00  0.00000000000E+00  0.57022508213E+03  0.17413863152E+04  0.16453782709E+04 0.  0.
        3    1    3    3  502    0 -0.21764426211E+03 -0.13110530179E+02  0.11246694188E+04  0.11456099784E+04  0.10100000352E+00 0.  1.
       -3    1    3    3    0  502  0.21764426211E+03  0.13110530179E+02 -0.55444433665E+03  0.59577633679E+03  0.10100000352E+00 0. -1.
</event>
<event>
 5   0  0.1414796E-03  0.1533009E+04  0.7818609E-02  0.8862794E-01
        2   -1    0    0  501    0  0.00000000000E+00  0.00000000000E+00  0.11357510451E+04  0.11357510451E+04  0.25500000920E-02 0. -1.
       -2   -1    0    0    0  501  0.00000000000E+00  0.00000000000E+00 -0.51730430203E+03  0.51730430203E+03  0.25500000920E-02 0.  1.
    10030    2    1    2    0    0  0.00000000000E+00  0.00000000000E+00  0.61844674309E+03  0.16530553471E+04  0.15330086780E+04 0.  0.
        4    1    3    3  502    0 -0.40818380575E+03  0.32243145525E+03 -0.29784694716E+03  0.59940844125E+03  0.12699999809E+01 0.  1.
       -4    1    3    3    0  502  0.40818380575E+03 -0.32243145525E+03  0.91629369025E+03  0.10536469059E+04  0.12699999809E+01 0. -1.
</event>
<event>
 5   0  0.7302027E-04  0.1565713E+04  0.7818609E-02  0.8841893E-01
        1   -1    0    0  501    0  0.00000000000E+00  0.00000000000E+00  0.20356972517E+04  0.20356972517E+04  0.50400001928E-02 0. -1.
       -1   -1    0    0    0  501  0.00000000000E+00  0.00000000000E+00 -0.30105866539E+03  0.30105866543E+03  0.50400001928E-02 0.  1.
    10030    2    1    2    0    0  0.00000000000E+00  0.00000000000E+00  0.17346385863E+04  0.23367559171E+04  0.15657129977E+04 0.  0.
        5    1    3    3  502    0  0.30763419757E+03  0.28699124647E+03 -0.11797156784E+03  0.43696928482E+03  0.46999998093E+01 0.  1.
       -5    1    3    3    0  502 -0.30763419757E+03 -0.28699124647E+03  0.18526101541E+04  0.18997866323E+04  0.46999998093E+01 0. -1.
</event>
<event>
 5   0  0.1414796E-03  0.1538270E+04  0.7818609E-02  0.8859395E-01
       -2   -1    0    0    0  501  0.00000000000E+00  0.00000000000E+00  0.12747817692E+04  0.12747817692E+04  0.25500000920E-02 0.  1.
        2   -1    0    0  501    0  0.00000000000E+00  0.00000000000E+00 -0.46405465449E+03  0.46405465450E+03  0.25500000920E-02 0. -1.
    10030    2    1    2    0    0  0.00000000000E+00  0.00000000000E+00  0.81072711467E+03  0.17388364237E+04  0.15382696947E+04 0.  0.
        4    1    3    3  502    0  0.20165320904E+03 -0.14309413312E+03 -0.41790019800E+03  0.48557402735E+03  0.12699999809E+01 0. -1.
       -4    1    3    3    0  502 -0.20165320904E+03  0.14309413312E+03  0.12286273127E+04  0.12532623963E+04  0.12699999809E+01 0.  1.
</event>
<event>
 5   0  0.7302027E-04  0.1639291E+04  0.7818609E-02  0.8796767E-01
       -1   -1    0    0    0  501  0.00000000000E+00  0.00000000000E+00  0.55142823208E+03  0.55142823211E+03  0.50400001928E-02 0. -1.
        1   -1    0    0  501    0  0.00000000000E+00  0.00000000000E+00 -0.12183250281E+04  0.12183250281E+04  0.50400001928E-02 0.  1.
    10030    2    1    2    0    0  0.00000000000E+00  0.00000000000E+00 -0.66689679597E+03  0.17697532602E+04  0.16392910862E+04 0.  0.
        5    1    3    3  502    0 -0.46592765431E+03 -0.67337313506E+03 -0.29487279836E+03  0.87034017217E+03  0.46999998093E+01 0. -1.
       -5    1    3    3    0  502  0.46592765431E+03  0.67337313506E+03 -0.37202399761E+03  0.89941308801E+03  0.46999998093E+01 0.  1.
</event>
<event>
 5   0  0.1375777E-03  0.1871843E+04  0.7818609E-02  0.8669000E-01
        2   -1    0    0  501    0  0.00000000000E+00  0.00000000000E+00  0.12310653358E+04  0.12310653358E+04  0.25500000920E-02 0.  1.
       -2   -1    0    0    0  501  0.00000000000E+00  0.00000000000E+00 -0.71153779106E+03  0.71153779106E+03  0.25500000920E-02 0. -1.
    10030    2    1    2    0    0  0.00000000000E+00  0.00000000000E+00  0.51952754474E+03  0.19426031269E+04  0.18718434867E+04 0.  0.
        1    1    3    3  502    0  0.48303880307E+03 -0.72701674383E+03 -0.90745619851E+02  0.87756173494E+03  0.50400001928E-02 0.  1.
       -1    1    3    3    0  502 -0.48303880307E+03  0.72701674383E+03  0.61027316459E+03  0.10650413919E+04  0.50400001928E-02 0. -1.
</event>
<event>
 5   0  0.7124495E-04  0.9641408E+03  0.7818609E-02  0.9348773E-01
        1   -1    0    0  501    0  0.00000000000E+00  0.00000000000E+00  0.11804906067E+04  0.11804906067E+04  0.50400001928E-02 0. -1.
       -1   -1    0    0    0  501  0.00000000000E+00  0.00000000000E+00 -0.19686040830E+03  0.19686040836E+03  0.50400001928E-02 0.  1.
    10030    2    1    2    0    0  0.00000000000E+00  0.00000000000E+00  0.98363019839E+03  0.13773510151E+04  0.96414078407E+03 0.  0.
        2    1    3    3  502    0 -0.66151931486E+02 -0.29230007133E+03  0.10312363881E+04  0.10739012514E+04  0.25500000920E-02 0. -1.
       -2    1    3    3    0  502  0.66151931486E+02  0.29230007133E+03 -0.47606189684E+02  0.30344976362E+03  0.25500000920E-02 0.  1.
</event>
<event>
 5   0  0.1339162E-03  0.1593454E+04  0.7818609E-02  0.8824579E-01
       -2   -1    0    0    0  501  0.00000000000E+00  0.00000000000E+00  0.87014953067E+03  0.87014953068E+03  0.25500000920E-02 0.  1.
        2   -1    0    0  501    0  0.00000000000E+00  0.00000000000E+00 -0.72949993429E+03  0.72949993429E+03  0.25500000920E-02 0. -1.
    10030    2    1    2    0    0  0.00000000000E+00  0.00000000000E+00  0.14064959639E+03  0.15996494650E+04  0.15934541417E+04 0.  0.
        5    1    3    3  502    0 -0.20161809225E+03  0.30139732247E+03 -0.64184280032E+03  0.73720721065E+03  0.46999998093E+01 0. -1.
       -5    1    3    3    0  502  0.20161809225E+03 -0.30139732247E+03  0.78249239671E+03  0.86244225431E+03  0.46999998093E+01 0.  1.
</event>
<event>
 5   0  0.7499834E-04  0.1543415E+04  0.7818609E-02  0.8856085E-01
       -1   -1    0    0    0  501  0.00000000000E+00  0.00000000000E+00  0.61838350375E+03  0.61838350377E+03  0.50400001928E-02 0. -1.
        1   -1    0    0  501    0  0.00000000000E+00  0.00000000000E+00 -0.96304704676E+03  0.96304704677E+03  0.50400001928E-02 0.  1.
    10030    2    1    2    0    0  0.00000000000E+00  0.00000000000E+00 -0.34466354301E+03  0.15814305505E+04  0.15434149242E+04 0.  0.
        3    1    3    3  502    0 -0.24899012070E+03 -0.64682816512E+03  0.17536345159E+03  0.71493713412E+03  0.10100000352E+00 0. -1.
       -3    1    3    3    0  502  0.24899012070E+03  0.64682816512E+03 -0.52002699459E+03  0.86649341642E+03  0.10100000352E+00 0.  1.
</event>
<event>
 5   0  0.7499834E-04  0.1603516E+04  0.7818609E-02  0.8818391E-01
        1   -1    0    0  501    0  0.00000000000E+00  0.00000000000E+00  0.12283510524E+04  0.12283510524E+04  0.50400001928E-02 0. -1.
       -1   -1    0    0    0  501  0.00000000000E+00  0.00000000000E+00 -0.52331587412E+03  0.52331587414E+03  0.50400001928E-02 0.  1.
    10030    2    1    2    0    0  0.00000000000E+00  0.00000000000E+00  0.70503517829E+03  0.17516669266E+04  0.16035156435E+04 0.  0.
        3    1    3    3  502    0  0.12804754678E+03 -0.45157870990E+03  0.10625688051E+04  0.11616247162E+04  0.10100000352E+00 0. -1.
       -3    1    3    3    0  502 -0.12804754678E+03  0.45157870990E+03 -0.35753362684E+03  0.59004221035E+03  0.10100000352E+00 0.  1.
</event>
<event>
 5   0  0.5095750E-04  0.1607438E+04  0.7818609E-02  0.8815992E-01
       -3   -1    0    0    0  501  0.00000000000E+00  0.00000000000E+00  0.10258053955E+04  0.10258054005E+04  0.10100000352E+00 0.  1.
        3   -1    0    0  501    0  0.00000000000E+00  0.00000000000E+00 -0.62971414671E+03  0.62971415481E+03  0.10100000352E+00 0. -1.
    10030    2    1    2    0    0  0.00000000000E+00  0.00000000000E+00  0.39609124879E+03  0.16555195553E+04  0.16074379368E+04 0.  0.
        3    1    3    3  502    0  0.30222047581E+03  0.50219838801E+03 -0.36833454132E+03  0.69225051928E+03  0.10100000352E+00 0. -1.
       -3    1    3    3    0  502 -0.30222047581E+03 -0.50219838801E+03  0.76442579012E+03  0.96326903600E+03  0.10100000352E+00 0.  1.
</event>
<event>
 5   0  0.7499834E-04  0.1624507E+04  0.7818609E-02  0.8805632E-01
        1   -1    0    0  501    0  0.00000000000E+00  0.00000000000E+00  0.12747748614E+04  0.12747748614E+04  0.50400001928E-02 0. -1.
       -1   -1    0    0    0  501  0.00000000000E+00  0.00000000000E+00 -0.51754673737E+03  0.51754673740E+03  0.50400001928E-02 0.  1.
    10030    2    1    2    0    0  0.00000000000E+00  0.00000000000E+00  0.75722812403E+03  0.17923215988E+04  0.16245067811E+04 0.  0.
        3    1    3    3  502    0 -0.26911695442E+03 -0.68842542619E+03  0.70746604320E+01  0.73919115498E+03  0.10100000352E+00 0.  1.
       -3    1    3    3    0  502  0.26911695442E+03  0.68842542619E+03  0.75015346360E+03  0.10531304438E+04  0.10100000352E+00 0. -1.
</event>
<event>
 5   0  0.7124495E-04  0.1627981E+04  0.7818609E-02  0.8803540E-01
        1   -1    0    0  501    0  0.00000000000E+00  0.00000000000E+00  0.10523450367E+04  0.10523450367E+04  0.50400001928E-02 0.  1.
       -1   -1    0    0    0  501  0.00000000000E+00  0.00000000000E+00 -0.62962311717E+03  0.62962311719E+03  0.50400001928E-02 0. -1.
    10030    2    1    2    0    0  0.00000000000E+00  0.00000000000E+00  0.42272191953E+03  0.16819681539E+04  0.16279812804E+04 0.  0.
        2    1    3    3  502    0 -0.65626429754E+03  0.32915891666E+03  0.57451748536E+03  0.93225466565E+03  0.25500000920E-02 0.  1.
       -2    1    3    3    0  502  0.65626429754E+03 -0.32915891666E+03 -0.15179556583E+03  0.74971348824E+03  0.25500000920E-02 0. -1.
</event>
<event>
 5   0  0.7302027E-04  0.1604479E+04  0.7818609E-02  0.8817801E-01
        1   -1    0    0  501    0  0.00000000000E+00  0.00000000000E+00  0.12021436361E+04  0.12021436361E+04  0.50400001928E-02 0. -1.
       -1   -1    0    0    0  501  0.00000000000E+00  0.00000000000E+00 -0.53536706372E+03  0.53536706375E+03  0.50400001928E-02 0.  1.
    10030    2    1    2    0    0  0.00000000000E+00  0.00000000000E+00  0.66677657235E+03  0.17375106998E+04  0.16044788670E+04 0.  0.
        5    1    3    3  502    0 -0.74846167554E+03  0.27372991118E+02  0.64466093811E+03  0.98820745570E+03  0.46999998093E+01 0.  1.
       -5    1    3    3    0  502  0.74846167554E+03 -0.27372991118E+02  0.22115634246E+02  0.74930324413E+03  0.46999998093E+01 0. -1.
</event>
<event>
 5   0  0.1339162E-03  0.1698615E+04  0.7818609E-02  0.8762155E-01
       -2   -1    0    0    0  501  0.00000000000E+00  0.00000000000E+00  0.52852762078E+03  0.52852762079E+03  0.25500000920E-02 0. -1.
        2   -1    0    0  501    0  0.00000000000E+00  0.00000000000E+00 -0.13647785066E+04  0.13647785066E+04  0.25500000920E-02 0.  1.
    10030    2    1    2    0    0  0.00000000000E+00  0.00000000000E+00 -0.83625088585E+03  0.18933061274E+04  0.16986148910E+04 0.  0.
        5    1    3    3  502    0  0.62601144977E+03 -0.19965433658E+03 -0.10178983464E+04  0.12115656495E+04  0.46999998093E+01 0.  1.
       -5    1    3    3    0  502 -0.62601144977E+03  0.19965433658E+03  0.18164746054E+03  0.68174047796E+03  0.46999998093E+01 0. -1.
</event>
<event>
 5   0  0.5095750E-04  0.1612977E+04  0.7818609E-02  0.8812615E-01
       -3   -1    0    0    0  501  0.00000000000E+00  0.00000000000E+00  0.96394987051E+03  0.96394987580E+03  0.10100000352E+00 0.  1.
        3   -1    0    0  501    0  0.00000000000E+00  0.00000000000E+00 -0.67474843736E+03  0.67474844492E+03  0.10100000352E+00 0. -1.
    10030    2    1    2    0    0  0.00000000000E+00  0.00000000000E+00  0.28920143314E+03  0.16386983207E+04  0.16129769736E+04 0.  0.
        4    1    3    3  502    0 -0.30323046245E+03 -0.30459270874E+03  0.83790261748E+03  0.94170475248E+03  0.12699999809E+01 0.  1.
       -4    1    3    3    0  502  0.30323046245E+03  0.30459270874E+03 -0.54870118434E+03  0.69699356824E+03  0.12699999809E+01 0. -1.
</event>
<event>
 5   0  0.1375777E-03  0.1648966E+04  0.7818609E-02  0.8791018E-01
       -2   -1    0    0    0  501  0.00000000000E+00  0.00000000000E+00  0.59193781826E+03  0.59193781827E+03  0.25500000920E-02 0. -1.
        2   -1    0    0  501    0  0.00000000000E+00  0.00000000000E+00 -0.11483848245E+04  0.11483848245E+04  0.25500000920E-02 0.  1.
    10030    2    1    2    0    0  0.00000000000E+00  0.00000000000E+00 -0.55644700621E+03  0.17403226427E+04  0.16489662307E+04 0.  0.
        1    1    3    3  502    0 -0.63376686692E+03 -0.14423057760E+03 -0.81358350980E+03  0.10413361746E+04  0.50400001928E-02 0.  1.
       -1    1    3    3    0  502  0.63376686692E+03  0.14423057760E+03  0.25713650359E+03  0.69898646813E+03  0.50400001928E-02 0. -1.
</event>
<event>
 5   0  0.7633213E-04  0.1629988E+04  0.7818609E-02  0.8802334E-01
        1   -1    0    0  501    0  0.00000000000E+00  0.00000000000E+00  0.29671030978E+04  0.29671030979E+04  0.50400001928E-02 0. -1.
       -1   -1    0    0    0  501  0.00000000000E+00  0.00000000000E+00 -0.22385977319E+03  0.22385977325E+03  0.50400001928E-02 0.  1.
    10030    2    1    2    0    0  0.00000000000E+00  0.00000000000E+00  0.27432433247E+04  0.31909628711E+04  0.16299877627E+04 0.  0.
        1    1    3    3  502    0 -0.53665781901E+03  0.43495567655E+03  0.52499970551E+03  0.86764782376E+03  0.50400001928E-02 0. -1.
       -1    1    3    3    0  502  0.53665781901E+03 -0.43495567655E+03  0.22182436192E+04  0.23233150473E+04  0.50400001928E-02 0.  1.
</event>
<event>
 5   0  0.1414796E-03  0.1638104E+04  0.7818609E-02  0.8797475E-01
        2   -1    0    0  501    0  0.00000000000E+00  0.00000000000E+00  0.54875834225E+03  0.54875834226E+03  0.25500000920E-02 0. -1.
       -2   -1    0    0    0  501  0.00000000000E+00  0.00000000000E+00 -0.12224805166E+04  0.12224805166E+04  0.25500000920E-02 0.  1.
    10030    2    1    2    0    0  0.00000000000E+00  0.00000000000E+00 -0.67372217430E+03  0.17712388588E+04  0.16381042478E+04 0.  0.
        4    1    3    3  502    0  0.31087264666E+03 -0.23986649996E+03  0.44035354614E+03  0.58999203277E+03  0.12699999809E+01 0. -1.
       -4    1    3    3    0  502 -0.31087264666E+03  0.23986649996E+03 -0.11140757204E+04  0.11812468260E+04  0.12699999809E+01 0.  1.
</event>
<event>
 5   0  0.1354766E-03  0.1578608E+04  0.7818609E-02  0.8833799E-01
       -2   -1    0    0    0  501  0.00000000000E+00  0.00000000000E+00  0.39620629461E+03  0.39620629462E+03  0.25500000920E-02 0.  1.
        2   -1    0    0  501    0  0.00000000000E+00  0.00000000000E+00 -0.15724159307E+04  0.15724159307E+04  0.25500000920E-02 0. -1.
    10030    2    1    2    0    0  0.00000000000E+00  0.00000000000E+00 -0.11762096361E+04  0.19686222253E+04  0.15786083612E+04 0.  0.
        3    1    3    3  502    0 -0.42069783370E+02  0.37631789923E+02  0.39368618429E+03  0.39771200659E+03  0.10100000352E+00 0.  1.
       -3    1    3    3    0  502  0.42069783370E+02 -0.37631789923E+02 -0.15698958204E+04  0.15709102187E+04  0.10100000352E+00 0. -1.
</event>
<event>
 5   0  0.7499834E-04  0.1611240E+04  0.7818609E-02  0.8813672E-01
        1   -1    0    0  501    0  0.00000000000E+00  0.00000000000E+00  0.88007745246E+03  0.88007745247E+03  0.50400001928E-02 0. -1.
       -1   -1    0    0    0  501  0.00000000000E+00  0.00000000000E+00 -0.73746185692E+03  0.73746185694E+03  0.50400001928E-02 0.  1.
    10030    2    1    2    0    0  0.00000000000E+00  0.00000000000E+00  0.14261559554E+03  0.16175393094E+04  0.16112399602E+04 0.  0.
        3    1    3    3  502    0  0.50241308476E+03  0.59458122904E+02  0.70071139192E+03  0.86426306243E+03  0.10100000352E+00 0. -1.
       -3    1    3    3    0  502 -0.50241308476E+03 -0.59458122904E+02 -0.55809579638E+03  0.75327624698E+03  0.10100000352E+00 0.  1.
</event>
<event>
 5   0  0.7302027E-04  0.1586548E+04  0.7818609E-02  0.8828855E-01
       -1   -1    0    0    0  501  0.00000000000E+00  0.00000000000E+00  0.46978637872E+03  0.46978637874E+03  0.50400001928E-02 0.  1.
        1   -1    0    0  501    0  0.00000000000E+00  0.00000000000E+00 -0.13395103282E+04  0.13395103282E+04  0.50400001928E-02 0. -1.
    10030    2    1    2    0    0  0.00000000000E+00  0.00000000000E+00 -0.86972394944E+03  0.18092967069E+04  0.15865480848E+04 0.  0.
        5    1    3    3  502    0 -0.37340826268E+03  0.45097623555E+03 -0.10452130216E+04  0.11980424226E+04  0.46999998093E+01 0. -1.
       -5    1    3    3    0  502  0.37340826268E+03 -0.45097623555E+03  0.17548907220E+03  0.61125428434E+03  0.46999998093E+01 0.  1.
</event>
<event>
 5   0  0.7601145E-04  0.1614441E+04  0.7818609E-02  0.8811725E-01
        1   -1    0    0  501    0  0.00000000000E+00  0.00000000000E+00  0.22294421673E+04  0.22294421673E+04  0.50400001928E-02 0.  1.
       -1   -1    0    0    0  501  0.00000000000E+00  0.00000000000E+00 -0.29227276210E+03  0.29227276214E+03  0.50400001928E-02 0. -1.
    10030    2    1    2    0    0  0.00000000000E+00  0.00000000000E+00  0.19371694052E+04  0.25217149295E+04  0.16144413526E+04 0.  0.
        4    1    3    3  502    0  0.43992000000E+02 -0.69850517981E+03  0.15967988440E+04  0.17434485778E+04  0.12699999809E+01 0.  1.
       -4    1    3    3    0  502 -0.43992000000E+02  0.69850517981E+03  0.34037056119E+03  0.77826635165E+03  0.12699999809E+01 0. -1.
</event>
<event>
 5   0  0.1339162E-03  0.1432811E+04  0.7818609E-02  0.8930405E-01
        2   -1    0    0  501    0  0.00000000000E+00  0.00000000000E+00  0.89720058805E+03  0.89720058806E+03  0.25500000920E-02 0.  1.
       -2   -1    0    0    0  501  0.00000000000E+00  0.00000000000E+00 -0.57204219664E+03  0.57204219664E+03  0.25500000920E-02 0. -1.
    10030    2    1    2    0    0  0.00000000000E+00  0.00000000000E+00  0.32515839142E+03  0.14692427847E+04  0.14328106577E+04 0.  0.
        5    1    3    3  502    0 -0.46031303476E+03  0.28108634428E+03 -0.32091468857E+03  0.62761927173E+03  0.46999998093E+01 0. -1.
       -5    1    3    3    0  502  0.46031303476E+03 -0.28108634428E+03  0.64607307998E+03  0.84162351297E+03  0.46999998093E+01 0.  1.
</event>
<event>
 5   0  0.1414751E-03  0.1564874E+04  0.7818609E-02  0.8842423E-01
        2   -1    0    0  501    0  0.00000000000E+00  0.00000000000E+00  0.11074658032E+04  0.11074658032E+04  0.25500000920E-02 0. -1.
       -2   -1    0    0    0  501  0.00000000000E+00  0.00000000000E+00 -0.55280059944E+03  0.55280059945E+03  0.25500000920E-02 0.  1.
    10030    2    1    2    0    0  0.00000000000E+00  0.00000000000E+00  0.55466520380E+03  0.16602664027E+04  0.15648741290E+04 0.  0.
        2    1    3    3  502    0 -0.48378467116E+03 -0.57595620394E+03  0.50595524285E+03  0.90651192197E+03  0.25500000920E-02 0.  1.
       -2    1    3    3    0  502  0.48378467116E+03  0.57595620394E+03  0.48709960953E+02  0.75375448072E+03  0.25500000920E-02 0. -1.
</event>
<event>
 5   0  0.1354766E-03  0.1599270E+04  0.7818609E-02  0.8820997E-01
        2   -1    0    0  501    0  0.00000000000E+00  0.00000000000E+00  0.12335949058E+04  0.12335949058E+04  0.25500000920E-02 0.  1.
       -2   -1    0    0    0  501  0.00000000000E+00  0.00000000000E+00 -0.51833566898E+03  0.51833566899E+03  0.25500000920E-02 0. -1.
    10030    2    1    2    0    0  0.00000000000E+00  0.00000000000E+00  0.71525923686E+03  0.17519305748E+04  0.15992701345E+04 0.  0.
        3    1    3    3  502    0 -0.50925255654E+03 -0.39910831725E+03 -0.15710736118E+03  0.66581404940E+03  0.10100000352E+00 0. -1.
       -3    1    3    3    0  502  0.50925255654E+03  0.39910831725E+03  0.87236659804E+03  0.10861165254E+04  0.10100000352E+00 0.  1.
</event>
<event>
 5   0  0.1414751E-03  0.1536306E+04  0.7818609E-02  0.8860662E-01
        2   -1    0    0  501    0  0.00000000000E+00  0.00000000000E+00  0.77531736244E+03  0.77531736244E+03  0.25500000920E-02 0. -1.
       -2   -1    0    0    0  501  0.00000000000E+00  0.00000000000E+00 -0.76105503187E+03  0.76105503187E+03  0.25500000920E-02 0.  1.
    10030    2    1    2    0    0  0.00000000000E+00  0.00000000000E+00  0.14262330571E+02  0.15363723943E+04  0.15363061934E+04 0.  0.
        2    1    3    3  502    0  0.36964426837E+01  0.47076209085E+03  0.61414049196E+03  0.77382113808E+03  0.25500000920E-02 0. -1.
       -2    1    3    3    0  502 -0.36964426837E+01 -0.47076209085E+03 -0.59987816138E+03  0.76255125623E+03  0.25500000920E-02 0.  1.
</event>
<event>
 5   0  0.1354766E-03  0.1603537E+04  0.7818609E-02  0.8818378E-01
        2   -1    0    0  501    0  0.00000000000E+00  0.00000000000E+00  0.47522290926E+03  0.47522290927E+03  0.25500000920E-02 0. -1.
       -2   -1    0    0    0  501  0.00000000000E+00  0.00000000000E+00 -0.13526971760E+04  0.13526971760E+04  0.25500000920E-02 0.  1.
    10030    2    1    2    0    0  0.00000000000E+00  0.00000000000E+00 -0.87747426675E+03  0.18279200853E+04  0.16035369498E+04 0.  0.
        3    1    3    3  502    0 -0.68428700166E+03 -0.41500845409E+03 -0.38345393569E+03  0.88742191128E+03  0.10100000352E+00 0.  1.
       -3    1    3    3    0  502  0.68428700166E+03  0.41500845409E+03 -0.49402033106E+03  0.94049817401E+03  0.10100000352E+00 0. -1.
</event>
<event>
 5   0  0.1339162E-03  0.1630744E+04  0.7818609E-02  0.8801880E-01
        2   -1    0    0  501    0  0.00000000000E+00  0.00000000000E+00  0.13034469839E+04  0.13034469839E+04  0.25500000920E-02 0.  1.
       -2   -1    0    0    0  501  0.00000000000E+00  0.00000000000E+00 -0.51005644615E+03  0.51005644616E+03  0.25500000920E-02 0. -1.
    10030    2    1    2    0    0  0.00000000000E+00  0.00000000000E+00  0.79339053772E+03  0.18135034300E+04  0.16307440466E+04 0.  0.
        5    1    3    3  502    0 -0.57933346965E+03  0.46870228240E+03  0.28701615297E+02  0.74575798441E+03  0.46999998093E+01 0. -1.
       -5    1    3    3    0  502  0.57933346965E+03 -0.46870228240E+03  0.76468892242E+03  0.10677454456E+04  0.46999998093E+01 0.  1.
</event>
<event>
 5   0  0.1414796E-03  0.1427360E+04  0.7818609E-02  0.8934249E-01
       -2   -1    0    0    0  501  0.00000000000E+00  0.00000000000E+00  0.29840137366E+03  0.29840137367E+03  0.25500000920E-02 0.  1.
        2   -1    0    0  501    0  0.00000000000E+00  0.00000000000E+00 -0.17068923531E+04  0.17068923531E+04  0.25500000920E-02 0. -1.
    10030    2    1    2    0    0  0.00000000000E+00  0.00000000000E+00 -0.14084909795E+04  0.20052937268E+04  0.14273598325E+04 0.  0.
        4    1    3    3  502    0  0.23349898269E+03  0.12046272412E+02 -0.16515572382E+04  0.16680257226E+04  0.12699999809E+01 0. -1.
       -4    1    3    3    0  502 -0.23349898269E+03 -0.12046272412E+02  0.24306625870E+03  0.33726800414E+03  0.12699999809E+01 0.  1.
</event>
<event>
 5   0  0.1414796E-03  0.1753865E+04  0.7818609E-02  0.8731226E-01
       -2   -1    0    0    0  501  0.00000000000E+00  0.00000000000E+00  0.33813475098E+03  0.33813475099E+03  0.25500000920E-02 0. -1.
        2   -1    0    0  501    0  0.00000000000E+00  0.00000000000E+00 -0.22742713746E+04  0.22742713746E+04  0.25500000920E-02 0.  1.
    10030    2    1    2    0    0  0.00000000000E+00  0.00000000000E+00 -0.19361366236E+04  0.26124061256E+04  0.17538645158E+04 0.  0.
        4    1    3    3  502    0 -0.37153186410E+03  0.75272778364E+03 -0.59014967152E+03  0.10261156319E+04  0.12699999809E+01 0. -1.
       -4    1    3    3    0  502  0.37153186410E+03 -0.75272778364E+03 -0.13459869521E+04  0.15862904937E+04  0.12699999809E+01 0.  1.
</event>
<event>
 5   0  0.7633213E-04  0.1607947E+04  0.7818609E-02  0.8815681E-01
        1   -1    0    0  501    0  0.00000000000E+00  0.00000000000E+00  0.73654699594E+03  0.73654699596E+03  0.50400001928E-02 0. -1.
       -1   -1    0    0    0  501  0.00000000000E+00  0.00000000000E+00 -0.87757262532E+03  0.87757262533E+03  0.50400001928E-02 0.  1.
    10030    2    1    2    0    0  0.00000000000E+00  0.00000000000E+00 -0.14102562937E+03  0.16141196213E+04  0.16079471147E+04 0.  0.
        1    1    3    3  502    0 -0.49454824796E+03 -0.42163759661E+03  0.40460868757E+03  0.76554844557E+03  0.50400001928E-02 0. -1.
       -1    1    3    3    0  502  0.49454824796E+03  0.42163759661E+03 -0.54563431694E+03  0.84857117573E+03  0.50400001928E-02 0.  1.
</event>
<event>
 5   0  0.1414751E-03  0.1635480E+04  0.7818609E-02  0.8799043E-01
        2   -1    0    0  501    0  0.00000000000E+00  0.00000000000E+00  0.67843298859E+03  0.67843298860E+03  0.25500000920E-02 0. -1.
       -2   -1    0    0    0  501  0.00000000000E+00  0.00000000000E+00 -0.98565235039E+03  0.98565235039E+03  0.25500000920E-02 0.  1.
    10030    2    1    2    0    0  0.00000000000E+00  0.00000000000E+00 -0.30721936179E+03  0.16640853390E+04  0.16354804429E+04 0.  0.
        2    1    3    3  502    0  0.39716719489E+02  0.63572579888E+03  0.36816973601E+03  0.73571303080E+03  0.25500000920E-02 0. -1.
       -2    1    3    3    0  502 -0.39716719489E+02 -0.63572579888E+03 -0.67538909780E+03  0.92837230819E+03  0.25500000920E-02 0.  1.
</event>
<event>
 5   0  0.7302027E-04  0.1178016E+04  0.7818609E-02  0.9132319E-01
       -1   -1    0    0    0  501  0.00000000000E+00  0.00000000000E+00  0.25280565213E+03  0.25280565218E+03  0.50400001928E-02 0.  1.
        1   -1    0    0  501    0  0.00000000000E+00  0.00000000000E+00 -0.13723214107E+04  0.13723214107E+04  0.50400001928E-02 0. -1.
    10030    2    1    2    0    0  0.00000000000E+00  0.00000000000E+00 -0.11195157585E+04  0.16251270628E+04  0.11780163143E+04 0.  0.
        5    1    3    3  502    0 -0.47999426218E+03  0.27736187308E+03 -0.28528581154E+03  0.62348551277E+03  0.46999998093E+01 0. -1.
       -5    1    3    3    0  502  0.47999426218E+03 -0.27736187308E+03 -0.83422994699E+03  0.10016415501E+04  0.46999998093E+01 0.  1.
</event>
<event>
 5   0  0.7601145E-04  0.1589364E+04  0.7818609E-02  0.8827109E-01
        1   -1    0    0  501    0  0.00000000000E+00  0.00000000000E+00  0.13821580288E+04  0.13821580288E+04  0.50400001928E-02 0. -1.
       -1   -1    0    0    0  501  0.00000000000E+00  0.00000000000E+00 -0.45690840884E+03  0.45690840886E+03  0.50400001928E-02 0.  1.
    10030    2    1    2    0    0  0.00000000000E+00  0.00000000000E+00  0.92524961997E+03  0.18390664377E+04  0.15893641820E+04 0.  0.
        4    1    3    3  502    0  0.22618287267E+03 -0.59333521218E+03 -0.90265504139E+02  0.64136950352E+03  0.12699999809E+01 0.  1.
       -4    1    3    3    0  502 -0.22618287267E+03  0.59333521218E+03  0.10155151241E+04  0.11976969342E+04  0.12699999809E+01 0. -1.
</event>
<event>
 5   0  0.7302027E-04  0.1389778E+04  0.7818609E-02  0.8961251E-01
        1   -1    0    0  501    0  0.00000000000E+00  0.00000000000E+00  0.74059328378E+03  0.74059328379E+03  0.50400001928E-02 0. -1.
       -1   -1    0    0    0  501  0.00000000000E+00  0.00000000000E+00 -0.65200496332E+03  0.65200496334E+03  0.50400001928E-02 0.  1.
    10030    2    1    2    0    0  0.00000000000E+00  0.00000000000E+00  0.88588320460E+02  0.13925982471E+04  0.13897776755E+04 0.  0.
        5    1    3    3  502    0  0.31781605784E+03  0.50712027707E+03 -0.30950937085E+03  0.67379237357E+03  0.46999998093E+01 0.  1.
       -5    1    3    3    0  502 -0.31781605784E+03 -0.50712027707E+03  0.39809769131E+03  0.71880587356E+03  0.46999998093E+01 0. -1.
</event>
<event>
 5   0  0.1375777E-03  0.1618537E+04  0.7818609E-02  0.8809240E-01
       -2   -1    0    0    0  501  0.00000000000E+00  0.00000000000E+00  0.45779780311E+03  0.45779780312E+03  0.25500000920E-02 0. -1.
        2   -1    0    0  501    0  0.00000000000E+00  0.00000000000E+00 -0.14305779597E+04  0.14305779597E+04  0.25500000920E-02 0.  1.
    10030    2    1    2    0    0  0.00000000000E+00  0.00000000000E+00 -0.97278015655E+03  0.18883757628E+04  0.16185369284E+04 0.  0.
        1    1    3    3  502    0  0.60897554239E+03  0.25311380439E+02  0.13474175407E+03  0.62421728390E+03  0.50400001928E-02 0. -1.
       -1    1    3    3    0  502 -0.60897554239E+03 -0.25311380439E+02 -0.11075219106E+04  0.12641584789E+04  0.50400001928E-02 0.  1.
</event>
<event>
 5   0  0.1354766E-03  0.1805324E+04  0.7818609E-02  0.8703473E-01
       -2   -1    0    0    0  501  0.00000000000E+00  0.00000000000E+00  0.59955702636E+03  0.59955702636E+03  0.25500000920E-02 0.  1.
        2   -1    0    0  501    0  0.00000000000E+00  0.00000000000E+00 -0.13590013066E+04  0.13590013066E+04  0.25500000920E-02 0. -1.
    10030    2    1    2    0    0  0.00000000000E+00  0.00000000000E+00 -0.75944428024E+03  0.19585583330E+04  0.18053241063E+04 0.  0.
        3    1    3    3  502    0 -0.77970080133E+03 -0.30699438795E+03 -0.74379546189E+03  0.11204510668E+04  0.10100000352E+00 0. -1.
       -3    1    3    3    0  502  0.77970080133E+03  0.30699438795E+03 -0.15648818348E+02  0.83810726613E+03  0.10100000352E+00 0.  1.
</event>
<event>
 5   0  0.1339162E-03  0.1609123E+04  0.7818609E-02  0.8814963E-01
       -2   -1    0    0    0  501  0.00000000000E+00  0.00000000000E+00  0.56660796720E+03  0.56660796720E+03  0.25500000920E-02 0. -1.
        2   -1    0    0  501    0  0.00000000000E+00  0.00000000000E+00 -0.11424470367E+04  0.11424470367E+04  0.25500000920E-02 0.  1.
    10030    2    1    2    0    0  0.00000000000E+00  0.00000000000E+00 -0.57583906946E+03  0.17090550039E+04  0.16091234795E+04 0.  0.
        5    1    3    3  502    0 -0.87413588122E+01  0.32969687886E+03 -0.10673331969E+04  0.11171386156E+04  0.46999998093E+01 0.  1.
       -5    1    3    3    0  502  0.87413588122E+01 -0.32969687886E+03  0.49149412748E+03  0.59191638821E+03  0.46999998093E+01 0. -1.
</event>
<event>
 5   0  0.7302027E-04  0.1643233E+04  0.7818609E-02  0.8794420E-01
        1   -1    0    0  501    0  0.00000000000E+00  0.00000000000E+00  0.69998645499E+03  0.69998645501E+03  0.50400001928E-02 0. -1.
       -1   -1    0    0    0  501  0.00000000000E+00  0.00000000000E+00 -0.96438132050E+03  0.96438132052E+03  0.50400001928E-02 0.  1.
    10030    2    1    2    0    0  0.00000000000E+00  0.00000000000E+00 -0.26439486551E+03  0.16643677755E+04  0.16432332297E+04 0.  0.
        5    1    3    3  502    0 -0.69710061574E+03  0.18019362593E+03 -0.53303061102E+03  0.89585865714E+03  0.46999998093E+01 0.  1.
       -5    1    3    3    0  502  0.69710061574E+03 -0.18019362593E+03  0.26863574551E+03  0.76850911839E+03  0.46999998093E+01 0. -1.
</event>
<event>
 5   0  0.1354766E-03  0.1594457E+04  0.7818609E-02  0.8823960E-01
       -2   -1    0    0    0  501  0.00000000000E+00  0.00000000000E+00  0.25190368169E+03  0.25190368170E+03  0.25500000920E-02 0.  1.
        2   -1    0    0  501    0  0.00000000000E+00  0.00000000000E+00 -0.25230813660E+04  0.25230813660E+04  0.25500000920E-02 0. -1.
    10030    2    1    2    0    0  0.00000000000E+00  0.00000000000E+00 -0.22711776843E+04  0.27749850477E+04  0.15944572560E+04 0.  0.
        3    1    3    3  502    0 -0.86594803231E+02  0.37264232624E+03  0.81708136385E+02  0.39119968431E+03  0.10100000352E+00 0.  1.
       -3    1    3    3    0  502  0.86594803231E+02 -0.37264232624E+03 -0.23528858207E+04  0.23837853634E+04  0.10100000352E+00 0. -1.
</event>
<event>
 5   0  0.1375777E-03  0.1649349E+04  0.7818609E-02  0.8790792E-01
       -2   -1    0    0    0  501  0.00000000000E+00  0.00000000000E+00  0.95730483570E+03  0.95730483570E+03  0.25500000920E-02 0.  1.
        2   -1    0    0  501    0  0.00000000000E+00  0.00000000000E+00 -0.71041958168E+03  0.71041958169E+03  0.25500000920E-02 0. -1.
    10030    2    1    2    0    0  0.00000000000E+00  0.00000000000E+00  0.24688525402E+03  0.16677244174E+04  0.16493490849E+04 0.  0.
        1    1    3    3  502    0 -0.41381130681E+02  0.37032123414E+03 -0.62044236745E+03  0.72373955660E+03  0.50400001928E-02 0. -1.
       -1    1    3    3    0  502  0.41381130681E+02 -0.37032123414E+03  0.86732762147E+03  0.94398486080E+03  0.50400001928E-02 0.  1.
</event>
<event>
 5   0  0.1339162E-03  0.1594804E+04  0.7818609E-02  0.8823747E-01
       -2   -1    0    0    0  501  0.00000000000E+00  0.00000000000E+00  0.55908326069E+03  0.55908326070E+03  0.25500000920E-02 0.  1.
        2   -1    0    0  501    0  0.00000000000E+00  0.00000000000E+00 -0.11373074985E+04  0.11373074985E+04  0.25500000920E-02 0. -1.
    10030    2    1    2    0    0  0.00000000000E+00  0.00000000000E+00 -0.57822423784E+03  0.16963907592E+04  0.15948035424E+04 0.  0.
        5    1    3    3  502    0 -0.20548147166E+03 -0.69395715486E+03  0.66914632098E+02  0.72684167874E+03  0.46999998093E+01 0.  1.
       -5    1    3    3    0  502  0.20548147166E+03  0.69395715486E+03 -0.64513886994E+03  0.96954908049E+03  0.46999998093E+01 0. -1.
</event>
<event>
 5   0  0.7302027E-04  0.1165112E+04  0.7818609E-02  0.9143954E-01
       -1   -1    0    0    0  501  0.00000000000E+00  0.00000000000E+00  0.10412086170E+04  0.10412086170E+04  0.50400001928E-02 0.  1.
        1   -1    0    0  501    0  0.00000000000E+00  0.00000000000E+00 -0.32593979790E+03  0.32593979794E+03  0.50400001928E-02 0. -1.
    10030    2    1    2    0    0  0.00000000000E+00  0.00000000000E+00  0.71526881907E+03  0.13671484149E+04  0.11651117135E+04 0.  0.
        5    1    3    3  502    0  0.34692174752E+03 -0.21629423514E+03  0.84457835388E+03  0.93833500462E+03  0.46999998093E+01 0.  1.
       -5    1    3    3    0  502 -0.34692174752E+03  0.21629423514E+03 -0.12930953481E+03  0.42881341030E+03  0.46999998093E+01 0. -1.
</event>
<event>
 5   0  0.1354766E-03  0.1601560E+04  0.7818609E-02  0.8819590E-01
       -2   -1    0    0    0  501  0.00000000000E+00  0.00000000000E+00  0.41205067478E+03  0.41205067479E+03  0.25500000920E-02 0.  1.
        2   -1    0    0  501    0  0.00000000000E+00  0.00000000000E+00 -0.15562369505E+04  0.15562369505E+04  0.25500000920E-02 0. -1.
    10030    2    1    2    0    0  0.00000000000E+00  0.00000000000E+00 -0.11441862757E+04  0.19682876253E+04  0.16015598466E+04 0.  0.
        3    1    3    3  502    0  0.14653441987E+03 -0.15978559528E+03  0.37529523337E+03  0.43341699904E+03  0.10100000352E+00 0.  1.
       -3    1    3    3    0  502 -0.14653441987E+03  0.15978559528E+03 -0.15194815091E+04  0.15348706262E+04  0.10100000352E+00 0. -1.
</event>
<event>
 5   0  0.1375777E-03  0.1589673E+04  0.7818609E-02  0.8826918E-01
       -2   -1    0    0    0  501  0.00000000000E+00  0.00000000000E+00  0.71332305851E+03  0.71332305852E+03  0.25500000920E-02 0.  1.
        2   -1    0    0  501    0  0.00000000000E+00  0.00000000000E+00 -0.88566449587E+03  0.88566449587E+03  0.25500000920E-02 0. -1.
    10030    2    1    2    0    0  0.00000000000E+00  0.00000000000E+00 -0.17234143736E+03  0.15989875544E+04  0.15896728053E+04 0.  0.
        1    1    3    3  502    0 -0.21653291971E+03 -0.41407607133E+03  0.56057381910E+03  0.72978661597E+03  0.50400001928E-02 0.  1.
       -1    1    3    3    0  502  0.21653291971E+03  0.41407607133E+03 -0.73291525646E+03  0.86920093841E+03  0.50400001928E-02 0. -1.
</event>
<event>
 5   0  0.1414796E-03  0.1562648E+04  0.7818609E-02  0.8843829E-01
        2   -1    0    0  501    0  0.00000000000E+00  0.00000000000E+00  0.13254848251E+04  0.13254848251E+04  0.25500000920E-02 0. -1.
       -2   -1    0    0    0  501  0.00000000000E+00  0.00000000000E+00 -0.46056124097E+03  0.46056124098E+03  0.25500000920E-02 0.  1.
    10030    2    1    2    0    0  0.00000000000E+00  0.00000000000E+00  0.86492358411E+03  0.17860460661E+04  0.15626476710E+04 0.  0.
        4    1    3    3  502    0 -0.25188639497E+03 -0.60724640082E+02 -0.41002647901E+03  0.48503357026E+03  0.12699999809E+01 0.  1.
       -4    1    3    3    0  502  0.25188639497E+03  0.60724640082E+02  0.12749500631E+04  0.13010124958E+04  0.12699999809E+01 0. -1.
</event>
<event>
 5   0  0.1375777E-03  0.1576410E+04  0.7818609E-02  0.8835173E-01
        2   -1    0    0  501    0  0.00000000000E+00  0.00000000000E+00  0.59369299098E+03  0.59369299098E+03  0.25500000920E-02 0.  1.
       -2   -1    0    0    0  501  0.00000000000E+00  0.00000000000E+00 -0.10464445660E+04  0.10464445660E+04  0.25500000920E-02 0. -1.
    10030    2    1    2    0    0  0.00000000000E+00  0.00000000000E+00 -0.45275157501E+03  0.16401375570E+04  0.15764095969E+04 0.  0.
        1    1    3    3  502    0  0.49141058112E+03 -0.35663536016E+03 -0.74928034913E+03  0.96441390543E+03  0.50400001928E-02 0. -1.
       -1    1    3    3    0  502 -0.49141058112E+03  0.35663536016E+03  0.29652877412E+03  0.67572365155E+03  0.50400001928E-02 0.  1.
</event>
<event>
 5   0  0.1354766E-03  0.1569650E+04  0.7818609E-02  0.8839413E-01
        2   -1    0    0  501    0  0.00000000000E+00  0.00000000000E+00  0.79811393879E+03  0.79811393879E+03  0.25500000920E-02 0.  1.
       -2   -1    0    0    0  501  0.00000000000E+00  0.00000000000E+00 -0.77175715583E+03  0.77175715583E+03  0.25500000920E-02 0. -1.
    10030    2    1    2    0    0  0.00000000000E+00  0.00000000000E+00  0.26356782960E+02  0.15698710946E+04  0.15696498252E+04 0.  0.
        3    1    3    3  502    0  0.41941752656E+03 -0.37550781578E+03 -0.53373774987E+03  0.77575329656E+03  0.10100000352E+00 0. -1.
       -3    1    3    3    0  502 -0.41941752656E+03  0.37550781578E+03  0.56009453282E+03  0.79411779806E+03  0.10100000352E+00 0.  1.
</event>
<event>
 5   0  0.1414751E-03  0.1545772E+04  0.7818609E-02  0.8854573E-01
       -2   -1    0    0    0  501  0.00000000000E+00  0.00000000000E+00  0.27456023620E+03  0.27456023621E+03  0.25500000920E-02 0. -1.
        2   -1    0    0  501    0  0.00000000000E+00  0.00000000000E+00 -0.21756716802E+04  0.21756716802E+04  0.25500000920E-02 0.  1.
    10030    2    1    2    0    0  0.00000000000E+00  0.00000000000E+00 -0.19011114440E+04  0.24502319164E+04  0.15457722089E+04 0.  0.
        2    1    3    3  502    0  0.25195891978E+03  0.54502723173E+03 -0.17917948585E+03  0.62661253478E+03  0.25500000920E-02 0. -1.
       -2    1    3    3    0  502 -0.25195891978E+03 -0.54502723173E+03 -0.17219319581E+04  0.18236193816E+04  0.25500000920E-02 0.  1.
</event>
<event>
 5   0  0.1375777E-03  0.1608099E+04  0.7818609E-02  0.8815588E-01
       -2   -1    0    0    0  501  0.00000000000E+00  0.00000000000E+00  0.60339956967E+03  0.60339956967E+03  0.25500000920E-02 0.  1.
        2   -1    0    0  501    0  0.00000000000E+00  0.00000000000E+00 -0.10714223171E+04  0.10714223171E+04  0.25500000920E-02 0. -1.
    10030    2    1    2    0    0  0.00000000000E+00  0.00000000000E+00 -0.46802274740E+03  0.16748218867E+04  0.16080992072E+04 0.  0.
        1    1    3    3  502    0 -0.30287981284E+03  0.16618798791E+03 -0.99018102695E+03  0.10487197407E+04  0.50400001928E-02 0. -1.
       -1    1    3    3    0  502  0.30287981284E+03 -0.16618798791E+03  0.52215827955E+03  0.62610214605E+03  0.50400001928E-02 0.  1.
</event>
<event>
 5   0  0.1414751E-03  0.1652635E+04  0.7818609E-02  0.8788849E-01
       -2   -1    0    0    0  501  0.00000000000E+00  0.00000000000E+00  0.55483019862E+03  0.55483019863E+03  0.25500000920E-02 0.  1.
        2   -1    0    0  501    0  0.00000000000E+00  0.00000000000E+00 -0.12306475005E+04  0.12306475005E+04  0.25500000920E-02 0. -1.
    10030    2    1    2    0    0  0.00000000000E+00  0.00000000000E+00 -0.67581730190E+03  0.17854776991E+04  0.16526347414E+04 0.  0.
        2    1    3    3  502    0 -0.80998158491E+03 -0.59024181290E+02 -0.17318529785E+03  0.83038976949E+03  0.25500000920E-02 0.  1.
       -2    1    3    3    0  502  0.80998158491E+03  0.59024181290E+02 -0.50263200405E+03  0.95508792966E+03  0.25500000920E-02 0. -1.
</event>
<event>
 5   0  0.7633213E-04  0.1582031E+04  0.7818609E-02  0.8831664E-01
       -1   -1    0    0    0  501  0.00000000000E+00  0.00000000000E+00  0.83923956335E+03  0.83923956337E+03  0.50400001928E-02 0. -1.
        1   -1    0    0  501    0  0.00000000000E+00  0.00000000000E+00 -0.74556204643E+03  0.74556204644E+03  0.50400001928E-02 0.  1.
    10030    2    1    2    0    0  0.00000000000E+00  0.00000000000E+00  0.93677516925E+02  0.15848016098E+04  0.15820305513E+04 0.  0.
        1    1    3    3  502    0 -0.42219171852E+03  0.13870142992E+03  0.70237111974E+03  0.83114927884E+03  0.50400001928E-02 0. -1.
       -1    1    3    3    0  502  0.42219171852E+03 -0.13870142992E+03 -0.60869360281E+03  0.75365233097E+03  0.50400001928E-02 0.  1.
</event>
<event>
 5   0  0.7124495E-04  0.1661306E+04  0.7818609E-02  0.8783746E-01
       -1   -1    0    0    0  501  0.00000000000E+00  0.00000000000E+00  0.51945434480E+03  0.51945434482E+03  0.50400001928E-02 0. -1.
        1   -1    0    0  501    0  0.00000000000E+00  0.00000000000E+00 -0.13282868548E+04  0.13282868548E+04  0.50400001928E-02 0.  1.
    10030    2    1    2    0    0  0.00000000000E+00  0.00000000000E+00 -0.80883250997E+03  0.18477411996E+04  0.16613059657E+04 0.  0.
        2    1    3    3  502    0 -0.82438220355E+03 -0.93378919124E+02 -0.35911811299E+03  0.90404173530E+03  0.25500000920E-02 0. -1.
       -2    1    3    3    0  502  0.82438220355E+03  0.93378919124E+02 -0.44971439698E+03  0.94369946431E+03  0.25500000920E-02 0.  1.
</event>
<event>
 5   0  0.7601145E-04  0.1747678E+04  0.7818609E-02  0.8734630E-01
       -1   -1    0    0    0  501  0.00000000000E+00  0.00000000000E+00  0.14780482753E+04  0.14780482753E+04  0.50400001928E-02 0. -1.
        1   -1    0    0  501    0  0.00000000000E+00  0.00000000000E+00 -0.51662347621E+03  0.51662347624E+03  0.50400001928E-02 0.  1.
    10030    2    1    2    0    0  0.00000000000E+00  0.00000000000E+00  0.96142479905E+03  0.19946717515E+04  0.17476778170E+04 0.  0.
        4    1    3    3  502    0  0.13767883184E+03  0.18627718361E+03  0.14423696900E+04  0.14608513221E+04  0.12699999809E+01 0. -1.
       -4    1    3    3    0  502 -0.13767883184E+03 -0.18627718361E+03 -0.48094489090E+03  0.53382042941E+03  0.12699999809E+01 0.  1.
</event>
<event>
 5   0  0.5095750E-04  0.1648757E+04  0.7818609E-02  0.8791142E-01
        3   -1    0    0  501    0  0.00000000000E+00  0.00000000000E+00  0.14556332424E+04  0.14556332459E+04  0.10100000352E+00 0.  1.
       -3   -1    0    0    0  501  0.00000000000E+00  0.00000000000E+00 -0.46687573295E+03  0.46687574388E+03  0.10100000352E+00 0. -1.
    10030    2    1    2    0    0  0.00000000000E+00  0.00000000000E+00  0.98875750946E+03  0.19225089898E+04  0.16487569267E+04 0.  0.
        2    1    3    3  502    0 -0.57468395219E+03  0.47059358019E+02  0.11813741577E+04  0.13145802100E+04  0.25500000920E-02 0.  1.
       -2    1    3    3    0  502  0.57468395219E+03 -0.47059358019E+02 -0.19261664825E+03  0.60792877977E+03  0.25500000920E-02 0. -1.
</event>
<event>
 5   0  0.1354766E-03  0.1950113E+04  0.7818609E-02  0.8630306E-01
       -2   -1    0    0    0  501  0.00000000000E+00  0.00000000000E+00  0.80946938409E+03  0.80946938409E+03  0.25500000920E-02 0.  1.
        2   -1    0    0  501    0  0.00000000000E+00  0.00000000000E+00 -0.11745163206E+04  0.11745163206E+04  0.25500000920E-02 0. -1.
    10030    2    1    2    0    0  0.00000000000E+00  0.00000000000E+00 -0.36504693652E+03  0.19839857047E+04  0.19501128200E+04 0.  0.
        3    1    3    3  502    0 -0.64329721729E+03 -0.39481448597E+02  0.56185814160E+03  0.85502904982E+03  0.10100000352E+00 0.  1.
       -3    1    3    3    0  502  0.64329721729E+03  0.39481448597E+02 -0.92690507812E+03  0.11289566549E+04  0.10100000352E+00 0. -1.
</event>
<event>
 5   0  0.1354766E-03  0.1607148E+04  0.7818609E-02  0.8816169E-01
       -2   -1    0    0    0  501  0.00000000000E+00  0.00000000000E+00  0.56451457036E+03  0.56451457036E+03  0.25500000920E-02 0. -1.
        2   -1    0    0  501    0  0.00000000000E+00  0.00000000000E+00 -0.11438693547E+04  0.11438693547E+04  0.25500000920E-02 0.  1.
    10030    2    1    2    0    0  0.00000000000E+00  0.00000000000E+00 -0.57935478439E+03  0.17083839251E+04  0.16071476813E+04 0.  0.
        3    1    3    3  502    0 -0.19429911017E+03 -0.16411840268E+03  0.52060083299E+03  0.57940679304E+03  0.10100000352E+00 0. -1.
       -3    1    3    3    0  502  0.19429911017E+03  0.16411840268E+03 -0.10999556174E+04  0.11289771321E+04  0.10100000352E+00 0.  1.
</event>
<event>
 5   0  0.7499834E-04  0.1571066E+04  0.7818609E-02  0.8838523E-01
       -1   -1    0    0    0  501  0.00000000000E+00  0.00000000000E+00  0.50440079806E+03  0.50440079808E+03  0.50400001928E-02 0. -1.
        1   -1    0    0  501    0  0.00000000000E+00  0.00000000000E+00 -0.12233566329E+04  0.12233566330E+04  0.50400001928E-02 0.  1.
    10030    2    1    2    0    0  0.00000000000E+00  0.00000000000E+00 -0.71895583489E+03  0.17277574310E+04  0.15710659591E+04 0.  0.
        3    1    3    3  502    0 -0.65904686021E+03 -0.37080669673E+03 -0.12561481633E+03  0.76656341067E+03  0.10100000352E+00 0. -1.
       -3    1    3    3    0  502  0.65904686021E+03  0.37080669673E+03 -0.59334101856E+03  0.96119402037E+03  0.10100000352E+00 0.  1.
</event>
<event>
 5   0  0.7601145E-04  0.1504569E+04  0.7818609E-02  0.8881420E-01
       -1   -1    0    0    0  501  0.00000000000E+00  0.00000000000E+00  0.74667095715E+03  0.74667095716E+03  0.50400001928E-02 0.  1.
        1   -1    0    0  501    0  0.00000000000E+00  0.00000000000E+00 -0.75794024881E+03  0.75794024882E+03  0.50400001928E-02 0. -1.
    10030    2    1    2    0    0  0.00000000000E+00  0.00000000000E+00 -0.11269291661E+02  0.15046112060E+04  0.15045690028E+04 0.  0.
        4    1    3    3  502    0 -0.66197763666E+03 -0.14600521234E+03  0.32056224829E+03  0.74986244165E+03  0.12699999809E+01 0. -1.
       -4    1    3    3    0  502  0.66197763666E+03  0.14600521234E+03 -0.33183153995E+03  0.75474876434E+03  0.12699999809E+01 0.  1.
</event>
<event>
 5   0  0.7302027E-04  0.1565150E+04  0.7818609E-02  0.8842249E-01
       -1   -1    0    0    0  501  0.00000000000E+00  0.00000000000E+00  0.52446123280E+03  0.52446123282E+03  0.50400001928E-02 0. -1.
        1   -1    0    0  501    0  0.00000000000E+00  0.00000000000E+00 -0.11677190057E+04  0.11677190058E+04  0.50400001928E-02 0.  1.
    10030    2    1    2    0    0  0.00000000000E+00  0.00000000000E+00 -0.64325777294E+03  0.16921802386E+04  0.15651496406E+04 0.  0.
        5    1    3    3  502    0  0.53239467762E+03 -0.55993799997E+03 -0.45591339115E+03  0.89713642597E+03  0.46999998093E+01 0.  1.
       -5    1    3    3    0  502 -0.53239467762E+03  0.55993799997E+03 -0.18734438179E+03  0.79504381260E+03  0.46999998093E+01 0. -1.
</event>
<event>
 5   0  0.1414796E-03  0.1524166E+04  0.7818609E-02  0.8868540E-01
       -2   -1    0    0    0  501  0.00000000000E+00  0.00000000000E+00  0.13722740251E+04  0.13722740251E+04  0.25500000920E-02 0. -1.
        2   -1    0    0  501    0  0.00000000000E+00  0.00000000000E+00 -0.42321739959E+03  0.42321739960E+03  0.25500000920E-02 0.  1.
    10030    2    1    2    0    0  0.00000000000E+00  0.00000000000E+00  0.94905662548E+03  0.17954914247E+04  0.15241656661E+04 0.  0.
        4    1    3    3  502    0  0.47760301690E+02 -0.23717253380E+03  0.13258327284E+04  0.13477261939E+04  0.12699999809E+01 0. -1.
       -4    1    3    3    0  502 -0.47760301690E+02  0.23717253380E+03 -0.37677610294E+03  0.44776523073E+03  0.12699999809E+01 0.  1.
</event>
<event>
 5   0  0.1414796E-03  0.1583320E+04  0.7818609E-02  0.8830861E-01
        2   -1    0    0  501    0  0.00000000000E+00  0.00000000000E+00  0.65110799623E+03  0.65110799623E+03  0.25500000920E-02 0.  1.
       -2   -1    0    0    0  501  0.00000000000E+00  0.00000000000E+00 -0.96255200911E+03  0.96255200911E+03  0.25500000920E-02 0. -1.
    10030    2    1    2    0    0  0.00000000000E+00  0.00000000000E+00 -0.31144401288E+03  0.16136600053E+04  0.15833196897E+04 0.  0.
        4    1    3    3  502    0 -0.64017570470E+03 -0.30128315439E+03  0.20622737847E+03  0.73697205953E+03  0.12699999809E+01 0. -1.
       -4    1    3    3    0  502  0.64017570470E+03  0.30128315439E+03 -0.51767139135E+03  0.87668794581E+03  0.12699999809E+01 0.  1.
</event>
<event>
 5   0  0.1354766E-03  0.1596490E+04  0.7818609E-02  0.8822707E-01
       -2   -1    0    0    0  501  0.00000000000E+00  0.00000000000E+00  0.69488806571E+03  0.69488806571E+03  0.25500000920E-02 0. -1.
        2   -1    0    0  501    0  0.00000000000E+00  0.00000000000E+00 -0.91697541876E+03  0.91697541876E+03  0.25500000920E-02 0.  1.
    10030    2    1    2    0    0  0.00000000000E+00  0.00000000000E+00 -0.22208735305E+03  0.16118634845E+04  0.15964902443E+04 0.  0.
        3    1    3    3  502    0  0.47658342446E+01 -0.61753055499E+03 -0.62170916129E+03  0.87629275413E+03  0.10100000352E+00 0.  1.
       -3    1    3    3    0  502 -0.47658342446E+01  0.61753055499E+03  0.39962180824E+03  0.73557073034E+03  0.10100000352E+00 0. -1.
</event>
<event>
 5   0  0.7633213E-04  0.1632606E+04  0.7818609E-02  0.8800764E-01
        1   -1    0    0  501    0  0.00000000000E+00  0.00000000000E+00  0.78919612574E+03  0.78919612576E+03  0.50400001928E-02 0. -1.
       -1   -1    0    0    0  501  0.00000000000E+00  0.00000000000E+00 -0.84434050580E+03  0.84434050582E+03  0.50400001928E-02 0.  1.
    10030    2    1    2    0    0  0.00000000000E+00  0.00000000000E+00 -0.55144380061E+02  0.16335366316E+04  0.16326055935E+04 0.  0.
        1    1    3    3  502    0  0.40360143454E+03 -0.50813175503E+03 -0.52309016932E+03  0.83349584503E+03  0.50400001928E-02 0. -1.
       -1    1    3    3    0  502 -0.40360143454E+03  0.50813175503E+03  0.46794578925E+03  0.80004078654E+03  0.50400001928E-02 0.  1.
</event>
<event>
 5   0  0.1414796E-03  0.1857258E+04  0.7818609E-02  0.8676429E-01
        2   -1    0    0  501    0  0.00000000000E+00  0.00000000000E+00  0.16878616356E+04  0.16878616356E+04  0.25500000920E-02 0. -1.
       -2   -1    0    0    0  501  0.00000000000E+00  0.00000000000E+00 -0.51091405560E+03  0.51091405560E+03  0.25500000920E-02 0.  1.
    10030    2    1    2    0    0  0.00000000000E+00  0.00000000000E+00  0.11769475800E+04  0.21987756912E+04  0.18572584457E+04 0.  0.
        4    1    3    3  502    0 -0.43944025357E+03 -0.77518710994E+03  0.89793583796E+03  0.12650348509E+04  0.12699999809E+01 0.  1.
       -4    1    3    3    0  502  0.43944025357E+03  0.77518710994E+03  0.27901174206E+03  0.93374084037E+03  0.12699999809E+01 0. -1.
</event>
<event>
 5   0  0.7601145E-04  0.1552587E+04  0.7818609E-02  0.8850217E-01
        1   -1    0    0  501    0  0.00000000000E+00  0.00000000000E+00  0.23741083765E+04  0.23741083765E+04  0.50400001928E-02 0.  1.
       -1   -1    0    0    0  501  0.00000000000E+00  0.00000000000E+00 -0.25383490140E+03  0.25383490145E+03  0.50400001928E-02 0. -1.
    10030    2    1    2    0    0  0.00000000000E+00  0.00000000000E+00  0.21202734751E+04  0.26279432779E+04  0.15525869582E+04 0.  0.
        4    1    3    3  502    0  0.25398096470E+03 -0.64625182222E+03  0.16476551833E+04  0.17879924396E+04  0.12699999809E+01 0.  1.
       -4    1    3    3    0  502 -0.25398096470E+03  0.64625182222E+03  0.47261829177E+03  0.83995083830E+03  0.12699999809E+01 0. -1.
</event>
<event>
 5   0  0.1375777E-03  0.1585568E+04  0.7818609E-02  0.8829463E-01
        2   -1    0    0  501    0  0.00000000000E+00  0.00000000000E+00  0.14204675040E+04  0.14204675040E+04  0.25500000920E-02 0. -1.
       -2   -1    0    0    0  501  0.00000000000E+00  0.00000000000E+00 -0.44246459163E+03  0.44246459164E+03  0.25500000920E-02 0.  1.
    10030    2    1    2    0    0  0.00000000000E+00  0.00000000000E+00  0.97800291233E+03  0.18629320956E+04  0.15855681304E+04 0.  0.
        1    1    3    3  502    0 -0.45264686155E+02  0.16344092325E+03  0.13989049725E+04  0.14091475967E+04  0.50400001928E-02 0. -1.
       -1    1    3    3    0  502  0.45264686155E+02 -0.16344092325E+03 -0.42090206014E+03  0.45378449892E+03  0.50400001928E-02 0.  1.
</event>
<event>
 5   0  0.1339162E-03  0.1585302E+04  0.7818609E-02  0.8829629E-01
       -2   -1    0    0    0  501  0.00000000000E+00  0.00000000000E+00  0.80602195853E+03  0.80602195854E+03  0.25500000920E-02 0.  1.
        2   -1    0    0  501    0  0.00000000000E+00  0.00000000000E+00 -0.77950182671E+03  0.77950182671E+03  0.25500000920E-02 0. -1.
    10030    2    1    2    0    0  0.00000000000E+00  0.00000000000E+00  0.26520131821E+02  0.15855237852E+04  0.15853019763E+04 0.  0.
        5    1    3    3  502    0 -0.14395145493E+02 -0.71761458017E+03 -0.32308386984E+03  0.78713606374E+03  0.46999998093E+01 0. -1.
       -5    1    3    3    0  502  0.14395145493E+02  0.71761458017E+03  0.34960400166E+03  0.79838772151E+03  0.46999998093E+01 0.  1.
</event>
<event>
 5   0  0.7633213E-04  0.1702270E+04  0.7818609E-02  0.8760071E-01
       -1   -1    0    0    0  501  0.00000000000E+00  0.00000000000E+00  0.71986210496E+03  0.71986210498E+03  0.50400001928E-02 0. -1.
        1   -1    0    0  501    0  0.00000000000E+00  0.00000000000E+00 -0.10063465986E+04  0.10063465986E+04  0.50400001928E-02 0.  1.
    10030    2    1    2    0    0  0.00000000000E+00  0.00000000000E+00 -0.28648449363E+03  0.17262087036E+04  0.17022699913E+04 0.  0.
        1    1    3    3  502    0 -0.39575252121E+03 -0.41704196931E+03 -0.77967207708E+03  0.96872731458E+03  0.50400001928E-02 0.  1.
       -1    1    3    3    0  502  0.39575252121E+03  0.41704196931E+03  0.49318758344E+03  0.75748138901E+03  0.50400001928E-02 0. -1.
</event>
<event>
 5   0  0.7633213E-04  0.1599577E+04  0.7818609E-02  0.8820808E-01
        1   -1    0    0  501    0  0.00000000000E+00  0.00000000000E+00  0.21524619353E+04  0.21524619353E+04  0.50400001928E-02 0.  1.
       -1   -1    0    0    0  501  0.00000000000E+00  0.00000000000E+00 -0.29717676816E+03  0.29717676821E+03  0.50400001928E-02 0. -1.
    10030    2    1    2    0    0  0.00000000000E+00  0.00000000000E+00  0.18552851672E+04  0.24496387035E+04  0.15995770461E+04 0.  0.
        1    1    3    3  502    0  0.70838779437E+03  0.18571608137E+02  0.35976625811E+03  0.79472632543E+03  0.50400001928E-02 0. -1.
       -1    1    3    3    0  502 -0.70838779437E+03 -0.18571608137E+02  0.14955189091E+04  0.16549123781E+04  0.50400001928E-02 0.  1.
</event>
<event>
 5   0  0.7601145E-04  0.1590252E+04  0.7818609E-02  0.8826559E-01
       -1   -1    0    0    0  501  0.00000000000E+00  0.00000000000E+00  0.81357984481E+03  0.81357984483E+03  0.50400001928E-02 0. -1.
        1   -1    0    0  501    0  0.00000000000E+00  0.00000000000E+00 -0.77709109120E+03  0.77709109122E+03  0.50400001928E-02 0.  1.
    10030    2    1    2    0    0  0.00000000000E+00  0.00000000000E+00  0.36488753614E+02  0.15906709360E+04  0.15902523692E+04 0.  0.
        4    1    3    3  502    0 -0.21125551528E+03  0.50234417859E+03 -0.56091188164E+03  0.78205007408E+03  0.12699999809E+01 0.  1.
       -4    1    3    3    0  502  0.21125551528E+03 -0.50234417859E+03  0.59740063525E+03  0.80862086196E+03  0.12699999809E+01 0. -1.
</event>
<event>
 5   0  0.1414796E-03  0.1613708E+04  0.7818609E-02  0.8812170E-01
        2   -1    0    0  501    0  0.00000000000E+00  0.00000000000E+00  0.41170928344E+03  0.41170928345E+03  0.25500000920E-02 0. -1.
       -2   -1    0    0    0  501  0.00000000000E+00  0.00000000000E+00 -0.15812460535E+04  0.15812460535E+04  0.25500000920E-02 0.  1.
    10030    2    1    2    0    0  0.00000000000E+00  0.00000000000E+00 -0.11695367701E+04  0.19929553370E+04  0.16137083747E+04 0.  0.
        4    1    3    3  502    0  0.82212182585E+02 -0.54701300531E+03  0.14067068155E+03  0.57076433358E+03  0.12699999809E+01 0. -1.
       -4    1    3    3    0  502 -0.82212182585E+02  0.54701300531E+03 -0.13102074516E+04  0.14221910034E+04  0.12699999809E+01 0.  1.
</event>
<event>
 5   0  0.7633213E-04  0.1574563E+04  0.7818609E-02  0.8836329E-01
        1   -1    0    0  501    0  0.00000000000E+00  0.00000000000E+00  0.68695165447E+03  0.68695165448E+03  0.50400001928E-02 0.  1.
       -1   -1    0    0    0  501  0.00000000000E+00  0.00000000000E+00 -0.90226507052E+03  0.90226507053E+03  0.50400001928E-02 0. -1.
    10030    2    1    2    0    0  0.00000000000E+00  0.00000000000E+00 -0.21531341606E+03  0.15892167250E+04  0.15745634099E+04 0.  0.
        1    1    3    3  502    0 -0.53367792747E+02 -0.96638671142E+02  0.67910081895E+03  0.68801531697E+03  0.50400001928E-02 0.  1.
       -1    1    3    3    0  502  0.53367792747E+02  0.96638671142E+02 -0.89441423501E+03  0.90120140805E+03  0.50400001928E-02 0. -1.
</event>
<event>
 5   0  0.1375777E-03  0.1119164E+04  0.7818609E-02  0.9186712E-01
       -2   -1    0    0    0  501  0.00000000000E+00  0.00000000000E+00  0.27835718540E+03  0.27835718541E+03  0.25500000920E-02 0. -1.
        2   -1    0    0  501    0  0.00000000000E+00  0.00000000000E+00 -0.11249278845E+04  0.11249278845E+04  0.25500000920E-02 0.  1.
    10030    2    1    2    0    0  0.00000000000E+00  0.00000000000E+00 -0.84657069908E+03  0.14032850699E+04  0.11191635443E+04 0.  0.
        1    1    3    3  502    0  0.18046323390E+03  0.46212038780E+01 -0.10874142771E+04  0.11022967588E+04  0.50400001928E-02 0.  1.
       -1    1    3    3    0  502 -0.18046323390E+03 -0.46212038780E+01  0.24084357804E+03  0.30098831111E+03  0.50400001928E-02 0. -1.
</event>
<event>
 5   0  0.5095750E-04  0.1632367E+04  0.7818609E-02  0.8800907E-01
        3   -1    0    0  501    0  0.00000000000E+00  0.00000000000E+00  0.14186556229E+04  0.14186556265E+04  0.10100000352E+00 0. -1.
       -3   -1    0    0    0  501  0.00000000000E+00  0.00000000000E+00 -0.46956813184E+03  0.46956814270E+03  0.10100000352E+00 0.  1.
    10030    2    1    2    0    0  0.00000000000E+00  0.00000000000E+00  0.94908749103E+03  0.18882237692E+04  0.16323669737E+04 0.  0.
        5    1    3    3  502    0  0.59458946334E+03 -0.33209140249E+03 -0.45747540098E+02  0.68259523654E+03  0.46999998093E+01 0.  1.
       -5    1    3    3    0  502 -0.59458946334E+03  0.33209140249E+03  0.99483503113E+03  0.12056285326E+04  0.46999998093E+01 0. -1.
</event>
<event>
 5   0  0.5095750E-04  0.1593491E+04  0.7818609E-02  0.8824557E-01
       -3   -1    0    0    0  501  0.00000000000E+00  0.00000000000E+00  0.91426469145E+03  0.91426469703E+03  0.10100000352E+00 0.  1.
        3   -1    0    0  501    0  0.00000000000E+00  0.00000000000E+00 -0.69433205507E+03  0.69433206242E+03  0.10100000352E+00 0. -1.
    10030    2    1    2    0    0  0.00000000000E+00  0.00000000000E+00  0.21993263638E+03  0.16085967594E+04  0.15934908754E+04 0.  0.
        2    1    3    3  502    0 -0.57392790724E+03  0.48968294026E+03  0.36856001295E+03  0.83965415966E+03  0.25500000920E-02 0.  1.
       -2    1    3    3    0  502  0.57392790724E+03 -0.48968294026E+03 -0.14862737658E+03  0.76894259978E+03  0.25500000920E-02 0. -1.
</event>
<event>
 5   0  0.1354766E-03  0.1600597E+04  0.7818609E-02  0.8820181E-01
        2   -1    0    0  501    0  0.00000000000E+00  0.00000000000E+00  0.17677175207E+04  0.17677175207E+04  0.25500000920E-02 0. -1.
       -2   -1    0    0    0  501  0.00000000000E+00  0.00000000000E+00 -0.36231902326E+03  0.36231902327E+03  0.25500000920E-02 0.  1.
    10030    2    1    2    0    0  0.00000000000E+00  0.00000000000E+00  0.14053984975E+04  0.21300365440E+04  0.16005969955E+04 0.  0.
        3    1    3    3  502    0  0.65905389158E+03 -0.43465733337E+03  0.52817644383E+03  0.94986809372E+03  0.10100000352E+00 0. -1.
       -3    1    3    3    0  502 -0.65905389158E+03  0.43465733337E+03  0.87722205366E+03  0.11801684503E+04  0.10100000352E+00 0.  1.
</event>
<event>
 5   0  0.7633213E-04  0.1584252E+04  0.7818609E-02  0.8830282E-01
       -1   -1    0    0    0  501  0.00000000000E+00  0.00000000000E+00  0.28415268090E+04  0.28415268090E+04  0.50400001928E-02 0. -1.
        1   -1    0    0  501    0  0.00000000000E+00  0.00000000000E+00 -0.22081912621E+03  0.22081912627E+03  0.50400001928E-02 0.  1.
    10030    2    1    2    0    0  0.00000000000E+00  0.00000000000E+00  0.26207076828E+04  0.30623459353E+04  0.15842518325E+04 0.  0.
        1    1    3    3  502    0 -0.74600729093E+03  0.11377465511E+03  0.84486018940E+03  0.11328107918E+04  0.50400001928E-02 0.  1.
       -1    1    3    3    0  502  0.74600729093E+03 -0.11377465511E+03  0.17758474934E+04  0.19295351435E+04  0.50400001928E-02 0. -1.
</event>
<event>
 5   0  0.5095750E-04  0.1590391E+04  0.7818609E-02  0.8826473E-01
        3   -1    0    0  501    0  0.00000000000E+00  0.00000000000E+00  0.78400591075E+03  0.78400591725E+03  0.10100000352E+00 0.  1.
       -3   -1    0    0    0  501  0.00000000000E+00  0.00000000000E+00 -0.80654497976E+03  0.80654498608E+03  0.10100000352E+00 0. -1.
    10030    2    1    2    0    0  0.00000000000E+00  0.00000000000E+00 -0.22539069009E+02  0.15905509033E+04  0.15903911992E+04 0.  0.
        2    1    3    3  502    0  0.21363630461E+03  0.34041499302E+03  0.67495766156E+03  0.78555119695E+03  0.25500000920E-02 0.  1.
       -2    1    3    3    0  502 -0.21363630461E+03 -0.34041499302E+03 -0.69749673057E+03  0.80499970638E+03  0.25500000920E-02 0. -1.
</event>
<event>
 5   0  0.1339162E-03  0.1673781E+04  0.7818609E-02  0.8776461E-01
       -2   -1    0    0    0  501  0.00000000000E+00  0.00000000000E+00  0.57655954537E+03  0.57655954538E+03  0.25500000920E-02 0. -1.
        2   -1    0    0  501    0  0.00000000000E+00  0.00000000000E+00 -0.12147672011E+04  0.12147672011E+04  0.25500000920E-02 0.  1.
    10030    2    1    2    0    0  0.00000000000E+00  0.00000000000E+00 -0.63820765575E+03  0.17913267465E+04  0.16737808999E+04 0.  0.
        5    1    3    3  502    0  0.53455278254E+03 -0.45588923829E+03 -0.80577141431E+03  0.10690516063E+04  0.46999998093E+01 0.  1.
       -5    1    3    3    0  502 -0.53455278254E+03  0.45588923829E+03  0.16756375855E+03  0.72227514016E+03  0.46999998093E+01 0. -1.
</event>
<event>
 5   0  0.7633213E-04  0.1583013E+04  0.7818609E-02  0.8831052E-01
       -1   -1    0    0    0  501  0.00000000000E+00  0.00000000000E+00  0.46189051600E+03  0.46189051603E+03  0.50400001928E-02 0. -1.
        1   -1    0    0  501    0  0.00000000000E+00  0.00000000000E+00 -0.13563443669E+04  0.13563443669E+04  0.50400001928E-02 0.  1.
    10030    2    1    2    0    0  0.00000000000E+00  0.00000000000E+00 -0.89445385088E+03  0.18182348829E+04  0.15830130758E+04 0.  0.
        1    1    3    3  502    0  0.37332193566E+03  0.65958987064E+03 -0.70928332292E+03  0.10380322236E+04  0.50400001928E-02 0.  1.
       -1    1    3    3    0  502 -0.37332193566E+03 -0.65958987064E+03 -0.18517052796E+03  0.78020265928E+03  0.50400001928E-02 0. -1.
</event>
<event>
 5   0  0.7302027E-04  0.1577061E+04  0.7818609E-02  0.8834766E-01
        1   -1    0    0  501    0  0.00000000000E+00  0.00000000000E+00  0.61306839083E+03  0.61306839085E+03  0.50400001928E-02 0. -1.
       -1   -1    0    0    0  501  0.00000000000E+00  0.00000000000E+00 -0.10142100694E+04  0.10142100695E+04  0.50400001928E-02 0.  1.
    10030    2    1    2    0    0  0.00000000000E+00  0.00000000000E+00 -0.40114167861E+03  0.16272784603E+04  0.15770607284E+04 0.  0.
        5    1    3    3  502    0  0.70366164863E+03 -0.31440391971E+03 -0.28625777956E+02  0.77125291938E+03  0.46999998093E+01 0.  1.
       -5    1    3    3    0  502 -0.70366164863E+03  0.31440391971E+03 -0.37251590066E+03  0.85602554093E+03  0.46999998093E+01 0. -1.
</event>
<event>
 5   0  0.7499834E-04  0.1327200E+04  0.7818609E-02  0.9008269E-01
        1   -1    0    0  501    0  0.00000000000E+00  0.00000000000E+00  0.13293873529E+04  0.13293873529E+04  0.50400001928E-02 0.  1.
       -1   -1    0    0    0  501  0.00000000000E+00  0.00000000000E+00 -0.33125423016E+03  0.33125423020E+03  0.50400001928E-02 0. -1.
    10030    2    1    2    0    0  0.00000000000E+00  0.00000000000E+00  0.99813312277E+03  0.16606415831E+04  0.13272003379E+04 0.  0.
        3    1    3    3  502    0 -0.55974130391E+03 -0.29069525415E+03  0.24096246213E+03  0.67518662342E+03  0.10100000352E+00 0.  1.
       -3    1    3    3    0  502  0.55974130391E+03  0.29069525415E+03  0.75717066064E+03  0.98545495972E+03  0.10100000352E+00 0. -1.
</event>
<event>
 5   0  0.1414796E-03  0.1525776E+04  0.7818609E-02  0.8867491E-01
       -2   -1    0    0    0  501  0.00000000000E+00  0.00000000000E+00  0.65515189465E+03  0.65515189466E+03  0.25500000920E-02 0.  1.
        2   -1    0    0  501    0  0.00000000000E+00  0.00000000000E+00 -0.88834091637E+03  0.88834091637E+03  0.25500000920E-02 0. -1.
    10030    2    1    2    0    0  0.00000000000E+00  0.00000000000E+00 -0.23318902172E+03  0.15434928110E+04  0.15257761755E+04 0.  0.
        4    1    3    3  502    0  0.43466656460E+03  0.20049701746E+03  0.48432535685E+03  0.68096016079E+03  0.12699999809E+01 0.  1.
       -4    1    3    3    0  502 -0.43466656460E+03 -0.20049701746E+03 -0.71751437857E+03  0.86253265025E+03  0.12699999809E+01 0. -1.
</event>
<event>
 5   0  0.7124495E-04  0.1578734E+04  0.7818609E-02  0.8833720E-01
        1   -1    0    0  501    0  0.00000000000E+00  0.00000000000E+00  0.78091153665E+03  0.78091153667E+03  0.50400001928E-02 0. -1.
       -1   -1    0    0    0  501  0.00000000000E+00  0.00000000000E+00 -0.79791355841E+03  0.79791355843E+03  0.50400001928E-02 0.  1.
    10030    2    1    2    0    0  0.00000000000E+00  0.00000000000E+00 -0.17002021758E+02  0.15788250951E+04  0.15787335469E+04 0.  0.
        2    1    3    3  502    0 -0.10881163058E+03 -0.73239590690E+03 -0.28211542837E+03  0.79235904130E+03  0.25500000920E-02 0.  1.
       -2    1    3    3    0  502  0.10881163058E+03  0.73239590690E+03  0.26511340662E+03  0.78646605379E+03  0.25500000920E-02 0. -1.
</event>
<event>
 5   0  0.5095750E-04  0.1600481E+04  0.7818609E-02  0.8820253E-01
       -3   -1    0    0    0  501  0.00000000000E+00  0.00000000000E+00  0.50268135256E+03  0.50268136271E+03  0.10100000352E+00 0.  1.
        3   -1    0    0  501    0  0.00000000000E+00  0.00000000000E+00 -0.12739372036E+04  0.12739372076E+04  0.10100000352E+00 0. -1.
    10030    2    1    2    0    0  0.00000000000E+00  0.00000000000E+00 -0.77125585109E+03  0.17766185704E+04  0.16004805393E+04 0.  0.
        3    1    3    3  502    0  0.77099710514E+02 -0.12283732419E+03 -0.12592271867E+04  0.12675513762E+04  0.10100000352E+00 0. -1.
       -3    1    3    3    0  502 -0.77099710514E+02  0.12283732419E+03  0.48797133558E+03  0.50906719411E+03  0.10100000352E+00 0.  1.
</event>
<event>
 5   0  0.1375777E-03  0.1549093E+04  0.7818609E-02  0.8852448E-01
       -2   -1    0    0    0  501  0.00000000000E+00  0.00000000000E+00  0.41054880100E+03  0.41054880100E+03  0.25500000920E-02 0. -1.
        2   -1    0    0  501    0  0.00000000000E+00  0.00000000000E+00 -0.14612683161E+04  0.14612683161E+04  0.25500000920E-02 0.  1.
    10030    2    1    2    0    0  0.00000000000E+00  0.00000000000E+00 -0.10507195151E+04  0.18718171171E+04  0.15490925797E+04 0.  0.
        1    1    3    3  502    0  0.33073657368E+03 -0.22937861042E+03  0.27426050614E+03  0.48705241334E+03  0.50400001928E-02 0. -1.
       -1    1    3    3    0  502 -0.33073657368E+03  0.22937861042E+03 -0.13249800212E+04  0.13847647037E+04  0.50400001928E-02 0.  1.
</event>
<event>
 5   0  0.1375777E-03  0.1634501E+04  0.7818609E-02  0.8799629E-01
        2   -1    0    0  501    0  0.00000000000E+00  0.00000000000E+00  0.14602207908E+04  0.14602207908E+04  0.25500000920E-02 0.  1.
       -2   -1    0    0    0  501  0.00000000000E+00  0.00000000000E+00 -0.45739541649E+03  0.45739541650E+03  0.25500000920E-02 0. -1.
    10030    2    1    2    0    0  0.00000000000E+00  0.00000000000E+00  0.10028253743E+04  0.19176162073E+04  0.16345008985E+04 0.  0.
        1    1    3    3  502    0  0.56577564462E+03 -0.36340385259E+02  0.11919908663E+04  0.13199488357E+04  0.50400001928E-02 0.  1.
       -1    1    3    3    0  502 -0.56577564462E+03  0.36340385259E+02 -0.18916549198E+03  0.59766737156E+03  0.50400001928E-02 0. -1.
</event>
<event>
 5   0  0.1414796E-03  0.1616239E+04  0.7818609E-02  0.8810633E-01
        2   -1    0    0  501    0  0.00000000000E+00  0.00000000000E+00  0.97007200295E+03  0.97007200295E+03  0.25500000920E-02 0.  1.
       -2   -1    0    0    0  501  0.00000000000E+00  0.00000000000E+00 -0.67320513303E+03  0.67320513303E+03  0.25500000920E-02 0. -1.
    10030    2    1    2    0    0  0.00000000000E+00  0.00000000000E+00  0.29686686992E+03  0.16432771360E+04  0.16162394028E+04 0.  0.
        4    1    3    3  502    0  0.38357762228E+03  0.34954876320E+03 -0.48139678261E+03  0.70785634515E+03  0.12699999809E+01 0. -1.
       -4    1    3    3    0  502 -0.38357762228E+03 -0.34954876320E+03  0.77826365253E+03  0.93542079083E+03  0.12699999809E+01 0.  1.
</event>
<event>
 5   0  0.1414796E-03  0.1599854E+04  0.7818609E-02  0.8820638E-01
       -2   -1    0    0    0  501  0.00000000000E+00  0.00000000000E+00  0.54865000274E+03  0.54865000275E+03  0.25500000920E-02 0.  1.
        2   -1    0    0  501    0  0.00000000000E+00  0.00000000000E+00 -0.11662867196E+04  0.11662867196E+04  0.25500000920E-02 0. -1.
    10030    2    1    2    0    0  0.00000000000E+00  0.00000000000E+00 -0.61763671686E+03  0.17149367223E+04  0.15998540082E+04 0.  0.
        4    1    3    3  502    0  0.55357126784E+03  0.39644217173E+03 -0.75886957895E+03  0.10195549004E+04  0.12699999809E+01 0. -1.
       -4    1    3    3    0  502 -0.55357126784E+03 -0.39644217173E+03  0.14123286209E+03  0.69538182198E+03  0.12699999809E+01 0.  1.
</event>
<event>
 5   0  0.1354766E-03  0.1588667E+04  0.7818609E-02  0.8827541E-01
        2   -1    0    0  501    0  0.00000000000E+00  0.00000000000E+00  0.64272345907E+03  0.64272345907E+03  0.25500000920E-02 0.  1.
       -2   -1    0    0    0  501  0.00000000000E+00  0.00000000000E+00 -0.98170593803E+03  0.98170593804E+03  0.25500000920E-02 0. -1.
    10030    2    1    2    0    0  0.00000000000E+00  0.00000000000E+00 -0.33898247896E+03  0.16244293971E+04  0.15886666564E+04 0.  0.
        3    1    3    3  502    0  0.31931705170E+03  0.72435483800E+03 -0.10234630736E+03  0.79820303663E+03  0.10100000352E+00 0. -1.
       -3    1    3    3    0  502 -0.31931705170E+03 -0.72435483800E+03 -0.23663617161E+03  0.82622636049E+03  0.10100000352E+00 0.  1.
</event>
<event>
 5   0  0.7499834E-04  0.1614610E+04  0.7818609E-02  0.8811622E-01
       -1   -1    0    0    0  501  0.00000000000E+00  0.00000000000E+00  0.12898690416E+04  0.12898690417E+04  0.50400001928E-02 0. -1.
        1   -1    0    0  501    0  0.00000000000E+00  0.00000000000E+00 -0.50527733074E+03  0.50527733077E+03  0.50400001928E-02 0.  1.
    10030    2    1    2    0    0  0.00000000000E+00  0.00000000000E+00  0.78459171090E+03  0.17951463724E+04  0.16146102767E+04 0.  0.
        3    1    3    3  502    0  0.29580205964E+03  0.74489522946E+03  0.49993998215E+03  0.94462043029E+03  0.10100000352E+00 0.  1.
       -3    1    3    3    0  502 -0.29580205964E+03 -0.74489522946E+03  0.28465172874E+03  0.85052594213E+03  0.10100000352E+00 0. -1.
</event>
<event>
 5   0  0.7601145E-04  0.1429987E+04  0.7818609E-02  0.8932394E-01
        1   -1    0    0  501    0  0.00000000000E+00  0.00000000000E+00  0.18275438132E+04  0.18275438132E+04  0.50400001928E-02 0.  1.
       -1   -1    0    0    0  501  0.00000000000E+00  0.00000000000E+00 -0.27972812992E+03  0.27972812996E+03  0.50400001928E-02 0. -1.
    10030    2    1    2    0    0  0.00000000000E+00  0.00000000000E+00  0.15478156833E+04  0.21072719432E+04  0.14299865919E+04 0.  0.
        4    1    3    3  502    0  0.31863389989E+03  0.14156101804E+03  0.16937729161E+04  0.17292875378E+04  0.12699999809E+01 0.  1.
       -4    1    3    3    0  502 -0.31863389989E+03 -0.14156101804E+03 -0.14595723286E+03  0.37798440538E+03  0.12699999809E+01 0. -1.
</event>
<event>
 5   0  0.1354766E-03  0.1632704E+04  0.7818609E-02  0.8800705E-01
        2   -1    0    0  501    0  0.00000000000E+00  0.00000000000E+00  0.14279015276E+04  0.14279015276E+04  0.25500000920E-02 0.  1.
       -2   -1    0    0    0  501  0.00000000000E+00  0.00000000000E+00 -0.46672027943E+03  0.46672027944E+03  0.25500000920E-02 0. -1.
    10030    2    1    2    0    0  0.00000000000E+00  0.00000000000E+00  0.96118124817E+03  0.18946218070E+04  0.16327040148E+04 0.  0.
        3    1    3    3  502    0  0.35137195060E+03  0.73027247201E+03  0.36647670810E+03  0.88941852849E+03  0.10100000352E+00 0.  1.
       -3    1    3    3    0  502 -0.35137195060E+03 -0.73027247201E+03  0.59470454007E+03  0.10052032786E+04  0.10100000352E+00 0. -1.
</event>
<event>
 5   0  0.1414751E-03  0.1087522E+04  0.7818609E-02  0.9217440E-01
       -2   -1    0    0    0  501  0.00000000000E+00  0.00000000000E+00  0.19461770968E+04  0.19461770968E+04  0.25500000920E-02 0. -1.
        2   -1    0    0  501    0  0.00000000000E+00  0.00000000000E+00 -0.15192647509E+03  0.15192647512E+03  0.25500000920E-02 0.  1.
    10030    2    1    2    0    0  0.00000000000E+00  0.00000000000E+00  0.17942506217E+04  0.20981035719E+04  0.10875216343E+04 0.  0.
        2    1    3    3  502    0  0.30008015850E+03  0.18249911560E+03  0.96260657897E+02  0.36417048615E+03  0.25500000920E-02 0.  1.
       -2    1    3    3    0  502 -0.30008015850E+03 -0.18249911560E+03  0.16979899638E+04  0.17339330857E+04  0.25500000920E-02 0. -1.
</event>
<event>
 5   0  0.7633213E-04  0.1594542E+04  0.7818609E-02  0.8823908E-01
       -1   -1    0    0    0  501  0.00000000000E+00  0.00000000000E+00  0.86271003875E+03  0.86271003876E+03  0.50400001928E-02 0.  1.
        1   -1    0    0  501    0  0.00000000000E+00  0.00000000000E+00 -0.73679547206E+03  0.73679547208E+03  0.50400001928E-02 0. -1.
    10030    2    1    2    0    0  0.00000000000E+00  0.00000000000E+00  0.12591456668E+03  0.15995055108E+04  0.15945417527E+04 0.  0.
        1    1    3    3  502    0 -0.68455983534E+03  0.70753059832E+01  0.47284723962E+03  0.83201967534E+03  0.50400001928E-02 0.  1.
       -1    1    3    3    0  502  0.68455983534E+03 -0.70753059832E+01 -0.34693267293E+03  0.76748583550E+03  0.50400001928E-02 0. -1.
</event>
<event>
 5   0  0.1375777E-03  0.1571896E+04  0.7818609E-02  0.8838002E-01
       -2   -1    0    0    0  501  0.00000000000E+00  0.00000000000E+00  0.72882143291E+03  0.72882143291E+03  0.25500000920E-02 0.  1.
        2   -1    0    0  501    0  0.00000000000E+00  0.00000000000E+00 -0.84755210789E+03  0.84755210789E+03  0.25500000920E-02 0. -1.
    10030    2    1    2    0    0  0.00000000000E+00  0.00000000000E+00 -0.11873067498E+03  0.15763735408E+04  0.15718958512E+04 0.  0.
        1    1    3    3  502    0  0.59259907238E+03 -0.15635672587E+03  0.43406578074E+03  0.75102209578E+03  0.50400001928E-02 0.  1.
       -1    1    3    3    0  502 -0.59259907238E+03  0.15635672587E+03 -0.55279645572E+03  0.82535144502E+03  0.50400001928E-02 0. -1.
</event>
<event>
 5   0  0.7124495E-04  0.1612813E+04  0.7818609E-02  0.8812715E-01
        1   -1    0    0  501    0  0.00000000000E+00  0.00000000000E+00  0.73130256012E+03  0.73130256014E+03  0.50400001928E-02 0.  1.
       -1   -1    0    0    0  501  0.00000000000E+00  0.00000000000E+00 -0.88922342594E+03  0.88922342596E+03  0.50400001928E-02 0. -1.
    10030    2    1    2    0    0  0.00000000000E+00  0.00000000000E+00 -0.15792086582E+03  0.16205259861E+04  0.16128129066E+04 0.  0.
        2    1    3    3  502    0  0.33396523045E+03 -0.68251532562E+02 -0.81327717304E+03  0.88182243510E+03  0.25500000920E-02 0. -1.
       -2    1    3    3    0  502 -0.33396523045E+03  0.68251532562E+02  0.65535630722E+03  0.73870355100E+03  0.25500000920E-02 0.  1.
</event>
<event>
 5   0  0.1339162E-03  0.1585258E+04  0.7818609E-02  0.8829656E-01
        2   -1    0    0  501    0  0.00000000000E+00  0.00000000000E+00  0.31444653944E+03  0.31444653945E+03  0.25500000920E-02 0.  1.
       -2   -1    0    0    0  501  0.00000000000E+00  0.00000000000E+00 -0.19979893107E+04  0.19979893107E+04  0.25500000920E-02 0. -1.
    10030    2    1    2    0    0  0.00000000000E+00  0.00000000000E+00 -0.16835427713E+04  0.23124358502E+04  0.15852581173E+04 0.  0.
        5    1    3    3  502    0  0.23986248998E+03 -0.66893154199E+03 -0.13538507719E+04  0.15290315316E+04  0.46999998093E+01 0. -1.
       -5    1    3    3    0  502 -0.23986248998E+03  0.66893154199E+03 -0.32969199941E+03  0.78340431863E+03  0.46999998093E+01 0.  1.
</event>
<event>
 5   0  0.7124495E-04  0.1610300E+04  0.7818609E-02  0.8814245E-01
        1   -1    0    0  501    0  0.00000000000E+00  0.00000000000E+00  0.65241343341E+03  0.65241343343E+03  0.50400001928E-02 0.  1.
       -1   -1    0    0    0  501  0.00000000000E+00  0.00000000000E+00 -0.99364375239E+03  0.99364375240E+03  0.50400001928E-02 0. -1.
    10030    2    1    2    0    0  0.00000000000E+00  0.00000000000E+00 -0.34123031898E+03  0.16460571858E+04  0.16103000119E+04 0.  0.
        2    1    3    3  502    0  0.44303983793E+03  0.34579219587E+03 -0.75996769650E+03  0.94520232778E+03  0.25500000920E-02 0. -1.
       -2    1    3    3    0  502 -0.44303983793E+03 -0.34579219587E+03  0.41873737752E+03  0.70085485805E+03  0.25500000920E-02 0.  1.
</event>
<event>
 5   0  0.7499834E-04  0.9494635E+03  0.7818609E-02  0.9365778E-01
       -1   -1    0    0    0  501  0.00000000000E+00  0.00000000000E+00  0.13027081659E+03  0.13027081669E+03  0.50400001928E-02 0. -1.
        1   -1    0    0  501    0  0.00000000000E+00  0.00000000000E+00 -0.17300132829E+04  0.17300132829E+04  0.50400001928E-02 0.  1.
    10030    2    1    2    0    0  0.00000000000E+00  0.00000000000E+00 -0.15997424663E+04  0.18602840996E+04  0.94946351838E+03 0.  0.
        3    1    3    3  502    0  0.32286589460E+02  0.22451333037E+03 -0.16169759543E+04  0.16328073697E+04  0.10100000352E+00 0.  1.
       -3    1    3    3    0  502 -0.32286589460E+02 -0.22451333037E+03  0.17233487974E+02  0.22747672998E+03  0.10100000352E+00 0. -1.
</event>
<event>
 5   0  0.7302027E-04  0.1603607E+04  0.7818609E-02  0.8818335E-01
       -1   -1    0    0    0  501  0.00000000000E+00  0.00000000000E+00  0.69653611513E+03  0.69653611515E+03  0.50400001928E-02 0.  1.
        1   -1    0    0  501    0  0.00000000000E+00  0.00000000000E+00 -0.92298024935E+03  0.92298024936E+03  0.50400001928E-02 0. -1.
    10030    2    1    2    0    0  0.00000000000E+00  0.00000000000E+00 -0.22644413422E+03  0.16195163645E+04  0.16036072802E+04 0.  0.
        5    1    3    3  502    0  0.29520718212E+03  0.40977963613E+01 -0.86607242110E+03  0.91502327889E+03  0.46999998093E+01 0. -1.
       -5    1    3    3    0  502 -0.29520718212E+03 -0.40977963613E+01  0.63962828688E+03  0.70449308562E+03  0.46999998093E+01 0.  1.
</event>
<event>
 5   0  0.1375777E-03  0.1575622E+04  0.7818609E-02  0.8835666E-01
       -2   -1    0    0    0  501  0.00000000000E+00  0.00000000000E+00  0.50073450746E+03  0.50073450747E+03  0.25500000920E-02 0. -1.
        2   -1    0    0  501    0  0.00000000000E+00  0.00000000000E+00 -0.12394714121E+04  0.12394714121E+04  0.25500000920E-02 0.  1.
    10030    2    1    2    0    0  0.00000000000E+00  0.00000000000E+00 -0.73873690468E+03  0.17402059196E+04  0.15756219179E+04 0.  0.
        1    1    3    3  502    0 -0.32762079714E+03 -0.46736475496E+03  0.23038389219E+03  0.61550137181E+03  0.50400001928E-02 0. -1.
       -1    1    3    3    0  502  0.32762079714E+03  0.46736475496E+03 -0.96912079687E+03  0.11247045478E+04  0.50400001928E-02 0.  1.
</event>
<event>
 5   0  0.7499834E-04  0.1702985E+04  0.7818609E-02  0.8759664E-01
        1   -1    0    0  501    0  0.00000000000E+00  0.00000000000E+00  0.21507257501E+04  0.21507257501E+04  0.50400001928E-02 0.  1.
       -1   -1    0    0    0  501  0.00000000000E+00  0.00000000000E+00 -0.33711401179E+03  0.33711401183E+03  0.50400001928E-02 0. -1.
    10030    2    1    2    0    0  0.00000000000E+00  0.00000000000E+00  0.18136117383E+04  0.24878397620E+04  0.17029853622E+04 0.  0.
        3    1    3    3  502    0 -0.22940311208E+03 -0.34654894748E+03  0.19924963134E+04  0.20353779821E+04  0.10100000352E+00 0.  1.
       -3    1    3    3    0  502  0.22940311208E+03  0.34654894748E+03 -0.17888457509E+03  0.45246177986E+03  0.10100000352E+00 0. -1.
</event>
<event>
 5   0  0.1414751E-03  0.1749219E+04  0.7818609E-02  0.8733781E-01
        2   -1    0    0  501    0  0.00000000000E+00  0.00000000000E+00  0.14482262867E+04  0.14482262867E+04  0.25500000920E-02 0. -1.
       -2   -1    0    0    0  501  0.00000000000E+00  0.00000000000E+00 -0.52819195504E+03  0.52819195505E+03  0.25500000920E-02 0.  1.
    10030    2    1    2    0    0  0.00000000000E+00  0.00000000000E+00  0.92003433167E+03  0.19764182418E+04  0.17492186527E+04 0.  0.
        2    1    3    3  502    0 -0.56207633533E+03  0.50009518950E+02  0.12150236761E+04  0.13396690980E+04  0.25500000920E-02 0. -1.
       -2    1    3    3    0  502  0.56207633533E+03 -0.50009518950E+02 -0.29498934442E+03  0.63674914374E+03  0.25500000920E-02 0.  1.
</event>
<event>
 5   0  0.7601145E-04  0.1669679E+04  0.7818609E-02  0.8778849E-01
        1   -1    0    0  501    0  0.00000000000E+00  0.00000000000E+00  0.92693580509E+03  0.92693580510E+03  0.50400001928E-02 0.  1.
       -1   -1    0    0    0  501  0.00000000000E+00  0.00000000000E+00 -0.75189355058E+03  0.75189355059E+03  0.50400001928E-02 0. -1.
    10030    2    1    2    0    0  0.00000000000E+00  0.00000000000E+00  0.17504225451E+03  0.16788293557E+04  0.16696790754E+04 0.  0.
        4    1    3    3  502    0 -0.68488286313E+03  0.46267490628E+02  0.56525677074E+03  0.88922553195E+03  0.12699999809E+01 0.  1.
       -4    1    3    3    0  502  0.68488286313E+03 -0.46267490628E+02 -0.39021451622E+03  0.78960382375E+03  0.12699999809E+01 0. -1.
</event>
<event>
 5   0  0.7302027E-04  0.1427068E+04  0.7818609E-02  0.8934455E-01
        1   -1    0    0  501    0  0.00000000000E+00  0.00000000000E+00  0.56583889097E+03  0.56583889099E+03  0.50400001928E-02 0.  1.
       -1   -1    0    0    0  501  0.00000000000E+00  0.00000000000E+00 -0.89978070823E+03  0.89978070824E+03  0.50400001928E-02 0. -1.
    10030    2    1    2    0    0  0.00000000000E+00  0.00000000000E+00 -0.33394181726E+03  0.14656195992E+04  0.14270682087E+04 0.  0.
        5    1    3    3  502    0 -0.43865881387E+03  0.56242990995E+03 -0.18645360428E+03  0.73724893702E+03  0.46999998093E+01 0. -1.
       -5    1    3    3    0  502  0.43865881387E+03 -0.56242990995E+03 -0.14748821299E+03  0.72837066221E+03  0.46999998093E+01 0.  1.
</event>
<event>
 5   0  0.1339162E-03  0.1578596E+04  0.7818609E-02  0.8833806E-01
       -2   -1    0    0    0  501  0.00000000000E+00  0.00000000000E+00  0.62137560582E+03  0.62137560583E+03  0.25500000920E-02 0.  1.
        2   -1    0    0  501    0  0.00000000000E+00  0.00000000000E+00 -0.10026002712E+04  0.10026002712E+04  0.25500000920E-02 0. -1.
    10030    2    1    2    0    0  0.00000000000E+00  0.00000000000E+00 -0.38122466538E+03  0.16239758770E+04  0.15785960230E+04 0.  0.
        5    1    3    3  502    0 -0.73017572294E+03 -0.29072093453E+03 -0.11576073713E+03  0.79441669570E+03  0.46999998093E+01 0.  1.
       -5    1    3    3    0  502  0.73017572294E+03  0.29072093453E+03 -0.26546392825E+03  0.82955918134E+03  0.46999998093E+01 0. -1.
</event>
<event>
 5   0  0.7302027E-04  0.1605874E+04  0.7818609E-02  0.8816948E-01
        1   -1    0    0  501    0  0.00000000000E+00  0.00000000000E+00  0.10552111154E+04  0.10552111154E+04  0.50400001928E-02 0. -1.
       -1   -1    0    0    0  501  0.00000000000E+00  0.00000000000E+00 -0.61097482431E+03  0.61097482433E+03  0.50400001928E-02 0.  1.
    10030    2    1    2    0    0  0.00000000000E+00  0.00000000000E+00  0.44423629105E+03  0.16661859397E+04  0.16058735017E+04 0.  0.
        5    1    3    3  502    0 -0.71918561239E+03 -0.78890153687E+02 -0.13914517962E+03  0.73677342001E+03  0.46999998093E+01 0.  1.
       -5    1    3    3    0  502  0.71918561239E+03  0.78890153687E+02  0.58338147067E+03  0.92941251968E+03  0.46999998093E+01 0. -1.
</event>
<event>
 5   0  0.7124495E-04  0.1633211E+04  0.7818609E-02  0.8800401E-01
        1   -1    0    0  501    0  0.00000000000E+00  0.00000000000E+00  0.78973684953E+03  0.78973684954E+03  0.50400001928E-02 0.  1.
       -1   -1    0    0    0  501  0.00000000000E+00  0.00000000000E+00 -0.84438802902E+03  0.84438802904E+03  0.50400001928E-02 0. -1.
    10030    2    1    2    0    0  0.00000000000E+00  0.00000000000E+00 -0.54651179499E+02  0.16341248786E+04  0.16332107541E+04 0.  0.
        2    1    3    3  502    0 -0.59680757803E+03 -0.16962392572E+03  0.50390733959E+03  0.79929604545E+03  0.25500000920E-02 0.  1.
       -2    1    3    3    0  502  0.59680757803E+03  0.16962392572E+03 -0.55855851909E+03  0.83482883313E+03  0.25500000920E-02 0. -1.
</event>
<event>
 5   0  0.1375777E-03  0.1621203E+04  0.7818609E-02  0.8807627E-01
       -2   -1    0    0    0  501  0.00000000000E+00  0.00000000000E+00  0.49380283306E+03  0.49380283307E+03  0.25500000920E-02 0. -1.
        2   -1    0    0  501    0  0.00000000000E+00  0.00000000000E+00 -0.13306415617E+04  0.13306415617E+04  0.25500000920E-02 0.  1.
    10030    2    1    2    0    0  0.00000000000E+00  0.00000000000E+00 -0.83683872861E+03  0.18244443947E+04  0.16212027300E+04 0.  0.
        1    1    3    3  502    0 -0.35997816870E+03  0.68736624692E+03 -0.68238381507E+03  0.10332977840E+04  0.50400001928E-02 0. -1.
       -1    1    3    3    0  502  0.35997816870E+03 -0.68736624692E+03 -0.15445491355E+03  0.79114661074E+03  0.50400001928E-02 0.  1.
</event>
<event>
 5   0  0.7601145E-04  0.1603350E+04  0.7818609E-02  0.8818493E-01
        1   -1    0    0  501    0  0.00000000000E+00  0.00000000000E+00  0.70527264996E+03  0.70527264998E+03  0.50400001928E-02 0.  1.
       -1   -1    0    0    0  501  0.00000000000E+00  0.00000000000E+00 -0.91125415036E+03  0.91125415037E+03  0.50400001928E-02 0. -1.
    10030    2    1    2    0    0  0.00000000000E+00  0.00000000000E+00 -0.20598150039E+03  0.16165268004E+04  0.16033497802E+04 0.  0.
        4    1    3    3  502    0 -0.53630741195E+03  0.19253713304E+03 -0.67152657082E+03  0.88070752008E+03  0.12699999809E+01 0. -1.
       -4    1    3    3    0  502  0.53630741195E+03 -0.19253713304E+03  0.46554507043E+03  0.73581928027E+03  0.12699999809E+01 0.  1.
</event>
<event>
 5   0  0.1375777E-03  0.1523718E+04  0.7818609E-02  0.8868832E-01
       -2   -1    0    0    0  501  0.00000000000E+00  0.00000000000E+00  0.43867794698E+03  0.43867794699E+03  0.25500000920E-02 0.  1.
        2   -1    0    0  501    0  0.00000000000E+00  0.00000000000E+00 -0.13231326076E+04  0.13231326076E+04  0.25500000920E-02 0. -1.
    10030    2    1    2    0    0  0.00000000000E+00  0.00000000000E+00 -0.88445466059E+03  0.17618105546E+04  0.15237179475E+04 0.  0.
        1    1    3    3  502    0 -0.37267719719E+03 -0.44349016497E+03  0.12992428893E+03  0.59367679811E+03  0.50400001928E-02 0.  1.
       -1    1    3    3    0  502  0.37267719719E+03  0.44349016497E+03 -0.10143789495E+04  0.11681337565E+04  0.50400001928E-02 0. -1.
</event>
<event>
 5   0  0.1375777E-03  0.1239569E+04  0.7818609E-02  0.9078910E-01
       -2   -1    0    0    0  501  0.00000000000E+00  0.00000000000E+00  0.63016097035E+03  0.63016097036E+03  0.25500000920E-02 0. -1.
        2   -1    0    0  501    0  0.00000000000E+00  0.00000000000E+00 -0.60957883402E+03  0.60957883403E+03  0.25500000920E-02 0.  1.
    10030    2    1    2    0    0  0.00000000000E+00  0.00000000000E+00  0.20582136330E+02  0.12397398044E+04  0.12395689405E+04 0.  0.
        1    1    3    3  502    0  0.14736485196E+03  0.27229759933E+03 -0.52669113265E+03  0.61095493405E+03  0.50400001928E-02 0.  1.
       -1    1    3    3    0  502 -0.14736485196E+03 -0.27229759933E+03  0.54727326898E+03  0.62878487034E+03  0.50400001928E-02 0. -1.
</event>
<event>
 5   0  0.7601145E-04  0.1593471E+04  0.7818609E-02  0.8824569E-01
       -1   -1    0    0    0  501  0.00000000000E+00  0.00000000000E+00  0.93833311089E+03  0.93833311091E+03  0.50400001928E-02 0.  1.
        1   -1    0    0  501    0  0.00000000000E+00  0.00000000000E+00 -0.67650557184E+03  0.67650557186E+03  0.50400001928E-02 0. -1.
    10030    2    1    2    0    0  0.00000000000E+00  0.00000000000E+00  0.26182753905E+03  0.16148386828E+04  0.15934711517E+04 0.  0.
        4    1    3    3  502    0 -0.14642832566E+03 -0.69632548789E+03  0.49415500134E+03  0.86631473374E+03  0.12699999809E+01 0. -1.
       -4    1    3    3    0  502  0.14642832566E+03  0.69632548789E+03 -0.23232746229E+03  0.74852394903E+03  0.12699999809E+01 0.  1.
</event>
<event>
 5   0  0.7499834E-04  0.1592195E+04  0.7818609E-02  0.8825357E-01
        1   -1    0    0  501    0  0.00000000000E+00  0.00000000000E+00  0.10987895720E+04  0.10987895720E+04  0.50400001928E-02 0.  1.
       -1   -1    0    0    0  501  0.00000000000E+00  0.00000000000E+00 -0.57679017289E+03  0.57679017291E+03  0.50400001928E-02 0. -1.
    10030    2    1    2    0    0  0.00000000000E+00  0.00000000000E+00  0.52199939915E+03  0.16755797450E+04  0.15921947459E+04 0.  0.
        3    1    3    3  502    0  0.40668359834E+03 -0.65021647165E+03  0.36279635507E+02  0.76778202070E+03  0.10100000352E+00 0. -1.
       -3    1    3    3    0  502 -0.40668359834E+03  0.65021647165E+03  0.48571976364E+03  0.90779772425E+03  0.10100000352E+00 0.  1.
</event>
<event>
 5   0  0.1375777E-03  0.1929707E+04  0.7818609E-02  0.8640209E-01
       -2   -1    0    0    0  501  0.00000000000E+00  0.00000000000E+00  0.56251438228E+03  0.56251438229E+03  0.25500000920E-02 0.  1.
        2   -1    0    0  501    0  0.00000000000E+00  0.00000000000E+00 -0.16549666969E+04  0.16549666969E+04  0.25500000920E-02 0. -1.
    10030    2    1    2    0    0  0.00000000000E+00  0.00000000000E+00 -0.10924523146E+04  0.22174810792E+04  0.19297073034E+04 0.  0.
        1    1    3    3  502    0  0.72965085784E+03 -0.62648780398E+03 -0.63571975898E+03  0.11528299766E+04  0.50400001928E-02 0. -1.
       -1    1    3    3    0  502 -0.72965085784E+03  0.62648780398E+03 -0.45673255560E+03  0.10646511026E+04  0.50400001928E-02 0.  1.
</event>
<event>
 5   0  0.7601145E-04  0.1613118E+04  0.7818609E-02  0.8812529E-01
        1   -1    0    0  501    0  0.00000000000E+00  0.00000000000E+00  0.63252055568E+03  0.63252055570E+03  0.50400001928E-02 0.  1.
       -1   -1    0    0    0  501  0.00000000000E+00  0.00000000000E+00 -0.10284840982E+04  0.10284840982E+04  0.50400001928E-02 0. -1.
    10030    2    1    2    0    0  0.00000000000E+00  0.00000000000E+00 -0.39596354249E+03  0.16610046539E+04  0.16131178919E+04 0.  0.
        4    1    3    3  502    0  0.12038648396E+03  0.28834676334E+03 -0.96362708233E+03  0.10130229653E+04  0.12699999809E+01 0. -1.
       -4    1    3    3    0  502 -0.12038648396E+03 -0.28834676334E+03  0.56766353983E+03  0.64798168863E+03  0.12699999809E+01 0.  1.
</event>
<event>
 5   0  0.7633213E-04  0.1287670E+04  0.7818609E-02  0.9039400E-01
       -1   -1    0    0    0  501  0.00000000000E+00  0.00000000000E+00  0.29533775919E+03  0.29533775923E+03  0.50400001928E-02 0.  1.
        1   -1    0    0  501    0  0.00000000000E+00  0.00000000000E+00 -0.14035582778E+04  0.14035582778E+04  0.50400001928E-02 0. -1.
    10030    2    1    2    0    0  0.00000000000E+00  0.00000000000E+00 -0.11082205186E+04  0.16988960371E+04  0.12876703875E+04 0.  0.
        1    1    3    3  502    0 -0.40055584504E+03 -0.68930596805E+02  0.10467982027E+03  0.41970737064E+03  0.50400001928E-02 0. -1.
       -1    1    3    3    0  502  0.40055584504E+03  0.68930596805E+02 -0.12129003389E+04  0.12791886664E+04  0.50400001928E-02 0.  1.
</event>
<event>
 5   0  0.7302027E-04  0.1598852E+04  0.7818609E-02  0.8821254E-01
        1   -1    0    0  501    0  0.00000000000E+00  0.00000000000E+00  0.36178060156E+03  0.36178060160E+03  0.50400001928E-02 0.  1.
       -1   -1    0    0    0  501  0.00000000000E+00  0.00000000000E+00 -0.17664895407E+04  0.17664895407E+04  0.50400001928E-02 0. -1.
    10030    2    1    2    0    0  0.00000000000E+00  0.00000000000E+00 -0.14047089392E+04  0.21282701423E+04  0.15988516488E+04 0.  0.
        5    1    3    3  502    0 -0.65984046411E+03 -0.30308519588E+03 -0.25725414996E+03  0.77035826841E+03  0.46999998093E+01 0.  1.
       -5    1    3    3    0  502  0.65984046411E+03  0.30308519588E+03 -0.11474547892E+04  0.13579118739E+04  0.46999998093E+01 0. -1.
</event>
<event>
 5   0  0.1414796E-03  0.1483579E+04  0.7818609E-02  0.8895447E-01
       -2   -1    0    0    0  501  0.00000000000E+00  0.00000000000E+00  0.53274637520E+03  0.53274637521E+03  0.25500000920E-02 0.  1.
        2   -1    0    0  501    0  0.00000000000E+00  0.00000000000E+00 -0.10328587989E+04  0.10328587989E+04  0.25500000920E-02 0. -1.
    10030    2    1    2    0    0  0.00000000000E+00  0.00000000000E+00 -0.50011242369E+03  0.15656051741E+04  0.14835791603E+04 0.  0.
        4    1    3    3  502    0 -0.22272831397E+03  0.14806599160E+03  0.48009318863E+03  0.54956575801E+03  0.12699999809E+01 0.  1.
       -4    1    3    3    0  502  0.22272831397E+03 -0.14806599160E+03 -0.98020561232E+03  0.10160394161E+04  0.12699999809E+01 0. -1.
</event>
<event>
 5   0  0.1414751E-03  0.1601502E+04  0.7818609E-02  0.8819626E-01
        2   -1    0    0  501    0  0.00000000000E+00  0.00000000000E+00  0.22646255514E+04  0.22646255514E+04  0.25500000920E-02 0.  1.
       -2   -1    0    0    0  501  0.00000000000E+00  0.00000000000E+00 -0.28313820949E+03  0.28313820950E+03  0.25500000920E-02 0. -1.
    10030    2    1    2    0    0  0.00000000000E+00  0.00000000000E+00  0.19814873419E+04  0.25477637609E+04  0.16015018249E+04 0.  0.
        2    1    3    3  502    0  0.18422046796E+03  0.75175619992E+03  0.13172671007E+04  0.15278308740E+04  0.25500000920E-02 0.  1.
       -2    1    3    3    0  502 -0.18422046796E+03 -0.75175619992E+03  0.66422024122E+03  0.10199328869E+04  0.25500000920E-02 0. -1.
</event>
<event>
 5   0  0.7302027E-04  0.1613007E+04  0.7818609E-02  0.8812597E-01
       -1   -1    0    0    0  501  0.00000000000E+00  0.00000000000E+00  0.87441490750E+03  0.87441490751E+03  0.50400001928E-02 0.  1.
        1   -1    0    0  501    0  0.00000000000E+00  0.00000000000E+00 -0.74386622819E+03  0.74386622821E+03  0.50400001928E-02 0. -1.
    10030    2    1    2    0    0  0.00000000000E+00  0.00000000000E+00  0.13054867931E+03  0.16182811357E+04  0.16130067813E+04 0.  0.
        5    1    3    3  502    0 -0.64279515788E+03  0.96597737278E+02 -0.41368474216E+03  0.77050236453E+03  0.46999998093E+01 0. -1.
       -5    1    3    3    0  502  0.64279515788E+03 -0.96597737278E+02  0.54423342147E+03  0.84777877119E+03  0.46999998093E+01 0.  1.
</event>
<event>
 5   0  0.7633213E-04  0.1626605E+04  0.7818609E-02  0.8804368E-01
        1   -1    0    0  501    0  0.00000000000E+00  0.00000000000E+00  0.60330789373E+03  0.60330789375E+03  0.50400001928E-02 0. -1.
       -1   -1    0    0    0  501  0.00000000000E+00  0.00000000000E+00 -0.10963907736E+04  0.10963907736E+04  0.50400001928E-02 0.  1.
    10030    2    1    2    0    0  0.00000000000E+00  0.00000000000E+00 -0.49308287990E+03  0.16996986674E+04  0.16266053097E+04 0.  0.
        1    1    3    3  502    0  0.18463228004E+03  0.46701114363E+03  0.42195045772E+03  0.65591971757E+03  0.50400001928E-02 0. -1.
       -1    1    3    3    0  502 -0.18463228004E+03 -0.46701114363E+03 -0.91503333761E+03  0.10437789498E+04  0.50400001928E-02 0.  1.
</event>
<event>
 5   0  0.1354766E-03  0.1588075E+04  0.7818609E-02  0.8827908E-01
        2   -1    0    0  501    0  0.00000000000E+00  0.00000000000E+00  0.10203850842E+04  0.10203850842E+04  0.25500000920E-02 0. -1.
       -2   -1    0    0    0  501  0.00000000000E+00  0.00000000000E+00 -0.61789943416E+03  0.61789943416E+03  0.25500000920E-02 0.  1.
    10030    2    1    2    0    0  0.00000000000E+00  0.00000000000E+00  0.40248565003E+03  0.16382845184E+04  0.15880747667E+04 0.  0.
        3    1    3    3  502    0  0.31206074578E+03 -0.44870707909E+03 -0.39296788525E+03  0.67315950630E+03  0.10100000352E+00 0.  1.
       -3    1    3    3    0  502 -0.31206074578E+03  0.44870707909E+03  0.79545353529E+03  0.96512501205E+03  0.10100000352E+00 0. -1.
</event>
<event>
 5   0  0.1414796E-03  0.1506194E+04  0.7818609E-02  0.8880345E-01
       -2   -1    0    0    0  501  0.00000000000E+00  0.00000000000E+00  0.61296482762E+03  0.61296482762E+03  0.25500000920E-02 0.  1.
        2   -1    0    0  501    0  0.00000000000E+00  0.00000000000E+00 -0.92526501293E+03  0.92526501293E+03  0.25500000920E-02 0. -1.
    10030    2    1    2    0    0  0.00000000000E+00  0.00000000000E+00 -0.31230018531E+03  0.15382298406E+04  0.15061937580E+04 0.  0.
        4    1    3    3  502    0  0.26681954626E+03  0.65277041009E+03  0.11376551694E+03  0.71431511555E+03  0.12699999809E+01 0. -1.
       -4    1    3    3    0  502 -0.26681954626E+03 -0.65277041009E+03 -0.42606570225E+03  0.82391472501E+03  0.12699999809E+01 0.  1.
</event>
<event>
 5   0  0.1414796E-03  0.1620342E+04  0.7818609E-02  0.8808148E-01
       -2   -1    0    0    0  501  0.00000000000E+00  0.00000000000E+00  0.83570247973E+03  0.83570247973E+03  0.25500000920E-02 0.  1.
        2   -1    0    0  501    0  0.00000000000E+00  0.00000000000E+00 -0.78541965596E+03  0.78541965597E+03  0.25500000920E-02 0. -1.
    10030    2    1    2    0    0  0.00000000000E+00  0.00000000000E+00  0.50282823765E+02  0.16211221357E+04  0.16203421295E+04 0.  0.
        4    1    3    3  502    0 -0.52179230437E+03 -0.46880560723E+03  0.43071247131E+03  0.82314078511E+03  0.12699999809E+01 0. -1.
       -4    1    3    3    0  502  0.52179230437E+03  0.46880560723E+03 -0.38042964754E+03  0.79798135059E+03  0.12699999809E+01 0.  1.
</event>
<event>
 5   0  0.7499834E-04  0.1541118E+04  0.7818609E-02  0.8857561E-01
       -1   -1    0    0    0  501  0.00000000000E+00  0.00000000000E+00  0.41670515694E+03  0.41670515697E+03  0.50400001928E-02 0. -1.
        1   -1    0    0  501    0  0.00000000000E+00  0.00000000000E+00 -0.14248953166E+04  0.14248953166E+04  0.50400001928E-02 0.  1.
    10030    2    1    2    0    0  0.00000000000E+00  0.00000000000E+00 -0.10081901597E+04  0.18416004736E+04  0.15411180702E+04 0.  0.
        3    1    3    3  502    0 -0.15620505709E+02  0.31991945536E+03  0.33338574606E+03  0.46231863903E+03  0.10100000352E+00 0. -1.
       -3    1    3    3    0  502  0.15620505709E+02 -0.31991945536E+03 -0.13415759058E+04  0.13792818346E+04  0.10100000352E+00 0.  1.
</event>
<event>
 5   0  0.7499834E-04  0.1603427E+04  0.7818609E-02  0.8818445E-01
       -1   -1    0    0    0  501  0.00000000000E+00  0.00000000000E+00  0.95520308403E+03  0.95520308404E+03  0.50400001928E-02 0. -1.
        1   -1    0    0  501    0  0.00000000000E+00  0.00000000000E+00 -0.67288800273E+03  0.67288800274E+03  0.50400001928E-02 0.  1.
    10030    2    1    2    0    0  0.00000000000E+00  0.00000000000E+00  0.28231508130E+03  0.16280910868E+04  0.16034271988E+04 0.  0.
        3    1    3    3  502    0  0.34202892268E+03  0.64856385843E+03  0.47037598356E+03  0.87113284780E+03  0.10100000352E+00 0. -1.
       -3    1    3    3    0  502 -0.34202892268E+03 -0.64856385843E+03 -0.18806090226E+03  0.75695823898E+03  0.10100000352E+00 0.  1.
</event>
<event>
 5   0  0.7499834E-04  0.1595023E+04  0.7818609E-02  0.8823611E-01
        1   -1    0    0  501    0  0.00000000000E+00  0.00000000000E+00  0.20631442438E+04  0.20631442438E+04  0.50400001928E-02 0.  1.
       -1   -1    0    0    0  501  0.00000000000E+00  0.00000000000E+00 -0.30827933761E+03  0.30827933766E+03  0.50400001928E-02 0. -1.
    10030    2    1    2    0    0  0.00000000000E+00  0.00000000000E+00  0.17548649062E+04  0.23714235815E+04  0.15950231860E+04 0.  0.
        3    1    3    3  502    0  0.38119145121E+03 -0.27460674793E+03  0.18355698134E+04  0.18947380659E+04  0.10100000352E+00 0.  1.
       -3    1    3    3    0  502 -0.38119145121E+03  0.27460674793E+03 -0.80704907186E+02  0.47668551554E+03  0.10100000352E+00 0. -1.
</event>
<event>
 5   0  0.7124495E-04  0.1654989E+04  0.7818609E-02  0.8787460E-01
        1   -1    0    0  501    0  0.00000000000E+00  0.00000000000E+00  0.14354601741E+04  0.14354601742E+04  0.50400001928E-02 0. -1.
       -1   -1    0    0    0  501  0.00000000000E+00  0.00000000000E+00 -0.47702301043E+03  0.47702301046E+03  0.50400001928E-02 0.  1.
    10030    2    1    2    0    0  0.00000000000E+00  0.00000000000E+00  0.95843716372E+03  0.19124831846E+04  0.16549894666E+04 0.  0.
        2    1    3    3  502    0  0.54704943695E+03 -0.37548598172E+03  0.10506145056E+04  0.12425955289E+04  0.25500000920E-02 0. -1.
       -2    1    3    3    0  502 -0.54704943695E+03  0.37548598172E+03 -0.92177341923E+02  0.66988765574E+03  0.25500000920E-02 0.  1.
</event>
<event>
 5   0  0.1354766E-03  0.1627927E+04  0.7818609E-02  0.8803573E-01
       -2   -1    0    0    0  501  0.00000000000E+00  0.00000000000E+00  0.28116824092E+03  0.28116824094E+03  0.25500000920E-02 0. -1.
        2   -1    0    0  501    0  0.00000000000E+00  0.00000000000E+00 -0.23563702434E+04  0.23563702434E+04  0.25500000920E-02 0.  1.
    10030    2    1    2    0    0  0.00000000000E+00  0.00000000000E+00 -0.20752020025E+04  0.26375384843E+04  0.16279268734E+04 0.  0.
        3    1    3    3  502    0  0.63774335012E+03  0.44598921564E+03 -0.14241206524E+04  0.16228809580E+04  0.10100000352E+00 0.  1.
       -3    1    3    3    0  502 -0.63774335012E+03 -0.44598921564E+03 -0.65108135004E+03  0.10146575263E+04  0.10100000352E+00 0. -1.
</event>
<event>
 5   0  0.1354766E-03  0.1564561E+04  0.7818609E-02  0.8842620E-01
       -2   -1    0    0    0  501  0.00000000000E+00  0.00000000000E+00  0.78187470846E+03  0.78187470846E+03  0.25500000920E-02 0.  1.
        2   -1    0    0  501    0  0.00000000000E+00  0.00000000000E+00 -0.78268691832E+03  0.78268691832E+03  0.25500000920E-02 0. -1.
    10030    2    1    2    0    0  0.00000000000E+00  0.00000000000E+00 -0.81220985874E+00  0.15645616268E+04  0.15645614160E+04 0.  0.
        3    1    3    3  502    0 -0.71343678897E+03  0.23930532718E+03 -0.21419108269E+03  0.78239179545E+03  0.10100000352E+00 0. -1.
       -3    1    3    3    0  502  0.71343678897E+03 -0.23930532718E+03  0.21337887283E+03  0.78216983133E+03  0.10100000352E+00 0.  1.
</event>
<event>
 5   0  0.7499834E-04  0.1560787E+04  0.7818609E-02  0.8845007E-01
        1   -1    0    0  501    0  0.00000000000E+00  0.00000000000E+00  0.13737667055E+04  0.13737667055E+04  0.50400001928E-02 0.  1.
       -1   -1    0    0    0  501  0.00000000000E+00  0.00000000000E+00 -0.44331663404E+03  0.44331663407E+03  0.50400001928E-02 0. -1.
    10030    2    1    2    0    0  0.00000000000E+00  0.00000000000E+00  0.93045007145E+03  0.18170833396E+04  0.15607865092E+04 0.  0.
        3    1    3    3  502    0  0.62059424969E+03  0.32501802859E+02 -0.84326542915E+02  0.62713998914E+03  0.10100000352E+00 0. -1.
       -3    1    3    3    0  502 -0.62059424969E+03 -0.32501802859E+02  0.10147766144E+04  0.11899433504E+04  0.10100000352E+00 0.  1.
</event>
<event>
 5   0  0.1414751E-03  0.1700078E+04  0.7818609E-02  0.8761320E-01
       -2   -1    0    0    0  501  0.00000000000E+00  0.00000000000E+00  0.18492075714E+04  0.18492075714E+04  0.25500000920E-02 0. -1.
        2   -1    0    0  501    0  0.00000000000E+00  0.00000000000E+00 -0.39074357908E+03  0.39074357909E+03  0.25500000920E-02 0.  1.
    10030    2    1    2    0    0  0.00000000000E+00  0.00000000000E+00  0.14584639924E+04  0.22399511505E+04  0.17000776276E+04 0.  0.
        2    1    3    3  502    0  0.17862606192E+03 -0.20919224384E+03  0.17889430658E+04  0.18099684963E+04  0.25500000920E-02 0. -1.
       -2    1    3    3    0  502 -0.17862606192E+03  0.20919224384E+03 -0.33047907350E+03  0.42998265419E+03  0.25500000920E-02 0.  1.
</event>
<event>
 5   0  0.1375777E-03  0.1571559E+04  0.7818609E-02  0.8838213E-01
       -2   -1    0    0    0  501  0.00000000000E+00  0.00000000000E+00  0.23203600001E+03  0.23203600002E+03  0.25500000920E-02 0.  1.
        2   -1    0    0  501    0  0.00000000000E+00  0.00000000000E+00 -0.26610076809E+04  0.26610076809E+04  0.25500000920E-02 0. -1.
    10030    2    1    2    0    0  0.00000000000E+00  0.00000000000E+00 -0.24289716809E+04  0.28930436809E+04  0.15715591981E+04 0.  0.
        1    1    3    3  502    0 -0.35982508374E+02 -0.23049324735E+02  0.22989548318E+03  0.23383315739E+03  0.50400001928E-02 0.  1.
       -1    1    3    3    0  502  0.35982508374E+02  0.23049324735E+02 -0.26588671641E+04  0.26592105236E+04  0.50400001928E-02 0. -1.
</event>
<event>
 5   0  0.1414796E-03  0.1584783E+04  0.7818609E-02  0.8829951E-01
        2   -1    0    0  501    0  0.00000000000E+00  0.00000000000E+00  0.11345468706E+04  0.11345468706E+04  0.25500000920E-02 0. -1.
       -2   -1    0    0    0  501  0.00000000000E+00  0.00000000000E+00 -0.55342279826E+03  0.55342279827E+03  0.25500000920E-02 0.  1.
    10030    2    1    2    0    0  0.00000000000E+00  0.00000000000E+00  0.58112407237E+03  0.16879696689E+04  0.15847827661E+04 0.  0.
        4    1    3    3  502    0  0.11096159001E+03  0.70176650291E+02 -0.54175616498E+03  0.55743931679E+03  0.12699999809E+01 0.  1.
       -4    1    3    3    0  502 -0.11096159001E+03 -0.70176650291E+02  0.11228802374E+04  0.11305303521E+04  0.12699999809E+01 0. -1.
</event>
<event>
 5   0  0.7302027E-04  0.1615064E+04  0.7818609E-02  0.8811347E-01
       -1   -1    0    0    0  501  0.00000000000E+00  0.00000000000E+00  0.14742620565E+04  0.14742620565E+04  0.50400001928E-02 0.  1.
        1   -1    0    0  501    0  0.00000000000E+00  0.00000000000E+00 -0.44232836864E+03  0.44232836867E+03  0.50400001928E-02 0. -1.
    10030    2    1    2    0    0  0.00000000000E+00  0.00000000000E+00  0.10319336878E+04  0.19165904252E+04  0.16150639993E+04 0.  0.
        5    1    3    3  502    0  0.29693777687E+03  0.20363806065E+03 -0.34178173345E+03  0.49646484911E+03  0.46999998093E+01 0. -1.
       -5    1    3    3    0  502 -0.29693777687E+03 -0.20363806065E+03  0.13737154213E+04  0.14201255761E+04  0.46999998093E+01 0.  1.
</event>
<event>
 5   0  0.1375777E-03  0.1602414E+04  0.7818609E-02  0.8819066E-01
        2   -1    0    0  501    0  0.00000000000E+00  0.00000000000E+00  0.16691758783E+04  0.16691758783E+04  0.25500000920E-02 0.  1.
       -2   -1    0    0    0  501  0.00000000000E+00  0.00000000000E+00 -0.38458067967E+03  0.38458067968E+03  0.25500000920E-02 0. -1.
    10030    2    1    2    0    0  0.00000000000E+00  0.00000000000E+00  0.12845951987E+04  0.20537565580E+04  0.16024141709E+04 0.  0.
        1    1    3    3  502    0  0.57147289575E+03 -0.37150454499E+03  0.10257262628E+03  0.68928806838E+03  0.50400001928E-02 0. -1.
       -1    1    3    3    0  502 -0.57147289575E+03  0.37150454499E+03  0.11820225724E+04  0.13644684896E+04  0.50400001928E-02 0.  1.
</event>
<event>
 5   0  0.1354766E-03  0.1604146E+04  0.7818609E-02  0.8818005E-01
       -2   -1    0    0    0  501  0.00000000000E+00  0.00000000000E+00  0.34908554177E+03  0.34908554178E+03  0.25500000920E-02 0.  1.
        2   -1    0    0  501    0  0.00000000000E+00  0.00000000000E+00 -0.18428746607E+04  0.18428746607E+04  0.25500000920E-02 0. -1.
    10030    2    1    2    0    0  0.00000000000E+00  0.00000000000E+00 -0.14937891189E+04  0.21919602024E+04  0.16041457532E+04 0.  0.
        3    1    3    3  502    0  0.76279872487E+03 -0.24376159972E+03 -0.80860049588E+03  0.11380318028E+04  0.10100000352E+00 0.  1.
       -3    1    3    3    0  502 -0.76279872487E+03  0.24376159972E+03 -0.68518862302E+03  0.10539283996E+04  0.10100000352E+00 0. -1.
</event>
<event>
 5   0  0.7601145E-04  0.1592137E+04  0.7818609E-02  0.8825393E-01
        1   -1    0    0  501    0  0.00000000000E+00  0.00000000000E+00  0.73426764625E+03  0.73426764626E+03  0.50400001928E-02 0.  1.
       -1   -1    0    0    0  501  0.00000000000E+00  0.00000000000E+00 -0.86307057954E+03  0.86307057956E+03  0.50400001928E-02 0. -1.
    10030    2    1    2    0    0  0.00000000000E+00  0.00000000000E+00 -0.12880293329E+03  0.15973382258E+04  0.15921366813E+04 0.  0.
        4    1    3    3  502    0  0.55533668716E+03  0.29004882113E+03 -0.55712308677E+03  0.83840020364E+03  0.12699999809E+01 0. -1.
       -4    1    3    3    0  502 -0.55533668716E+03 -0.29004882113E+03  0.42832015347E+03  0.75893802219E+03  0.12699999809E+01 0.  1.
</event>
<event>
 5   0  0.1339162E-03  0.1585499E+04  0.7818609E-02  0.8829507E-01
        2   -1    0    0  501    0  0.00000000000E+00  0.00000000000E+00  0.88523540806E+03  0.88523540807E+03  0.25500000920E-02 0.  1.
       -2   -1    0    0    0  501  0.00000000000E+00  0.00000000000E+00 -0.70992590235E+03  0.70992590235E+03  0.25500000920E-02 0. -1.
    10030    2    1    2    0    0  0.00000000000E+00  0.00000000000E+00  0.17530950572E+03  0.15951613104E+04  0.15854987176E+04 0.  0.
        5    1    3    3  502    0 -0.73350485012E+03  0.26811930039E+02 -0.21363852679E+03  0.76446828245E+03  0.46999998093E+01 0. -1.
       -5    1    3    3    0  502  0.73350485012E+03 -0.26811930039E+02  0.38894803250E+03  0.83069302797E+03  0.46999998093E+01 0.  1.
</event>
<event>
 5   0  0.1414751E-03  0.1577559E+04  0.7818609E-02  0.8834454E-01
       -2   -1    0    0    0  501  0.00000000000E+00  0.00000000000E+00  0.25333574418E+03  0.25333574419E+03  0.25500000920E-02 0.  1.
        2   -1    0    0  501    0  0.00000000000E+00  0.00000000000E+00 -0.24559240951E+04  0.24559240951E+04  0.25500000920E-02 0. -1.
    10030    2    1    2    0    0  0.00000000000E+00  0.00000000000E+00 -0.22025883509E+04  0.27092598393E+04  0.15775593280E+04 0.  0.
        2    1    3    3  502    0 -0.76613262810E+03  0.35956125788E+02 -0.78499265783E+03  0.10974814439E+04  0.25500000920E-02 0.  1.
       -2    1    3    3    0  502  0.76613262810E+03 -0.35956125788E+02 -0.14175956931E+04  0.16117783954E+04  0.25500000920E-02 0. -1.
</event>
<event>
 5   0  0.1414751E-03  0.1647334E+04  0.7818609E-02  0.8791985E-01
       -2   -1    0    0    0  501  0.00000000000E+00  0.00000000000E+00  0.75360628020E+03  0.75360628021E+03  0.25500000920E-02 0. -1.
        2   -1    0    0  501    0  0.00000000000E+00  0.00000000000E+00 -0.90024072862E+03  0.90024072863E+03  0.25500000920E-02 0.  1.
    10030    2    1    2    0    0  0.00000000000E+00  0.00000000000E+00 -0.14663444842E+03  0.16538470088E+04  0.16473336842E+04 0.  0.
        2    1    3    3  502    0 -0.52035519849E+03 -0.20023019539E+03 -0.68198606071E+03  0.88088969272E+03  0.25500000920E-02 0.  1.
       -2    1    3    3    0  502  0.52035519849E+03  0.20023019539E+03  0.53535161229E+03  0.77295731611E+03  0.25500000920E-02 0. -1.
</event>
<event>
 5   0  0.7499834E-04  0.1590526E+04  0.7818609E-02  0.8826390E-01
        1   -1    0    0  501    0  0.00000000000E+00  0.00000000000E+00  0.90725780792E+03  0.90725780793E+03  0.50400001928E-02 0.  1.
       -1   -1    0    0    0  501  0.00000000000E+00  0.00000000000E+00 -0.69709300509E+03  0.69709300511E+03  0.50400001928E-02 0. -1.
    10030    2    1    2    0    0  0.00000000000E+00  0.00000000000E+00  0.21016480282E+03  0.16043508130E+04  0.15905257895E+04 0.  0.
        3    1    3    3  502    0 -0.16244376744E+03  0.57300233344E+03 -0.42649299015E+03  0.73254073782E+03  0.10100000352E+00 0. -1.
       -3    1    3    3    0  502  0.16244376744E+03 -0.57300233344E+03  0.63665779298E+03  0.87181007523E+03  0.10100000352E+00 0.  1.
</event>
<event>
 5   0  0.7124495E-04  0.1598353E+04  0.7818609E-02  0.8821560E-01
        1   -1    0    0  501    0  0.00000000000E+00  0.00000000000E+00  0.57865114339E+03  0.57865114342E+03  0.50400001928E-02 0.  1.
       -1   -1    0    0    0  501  0.00000000000E+00  0.00000000000E+00 -0.11037448301E+04  0.11037448301E+04  0.50400001928E-02 0. -1.
    10030    2    1    2    0    0  0.00000000000E+00  0.00000000000E+00 -0.52509368673E+03  0.16823959736E+04  0.15983531625E+04 0.  0.
        2    1    3    3  502    0  0.69456411683E+03 -0.23951147331E+03  0.68469593045E+02  0.73788423443E+03  0.25500000920E-02 0.  1.
       -2    1    3    3    0  502 -0.69456411683E+03  0.23951147331E+03 -0.59356327977E+03  0.94451173912E+03  0.25500000920E-02 0. -1.
</event>
<event>
 5   0  0.1375777E-03  0.1607461E+04  0.7818609E-02  0.8815977E-01
        2   -1    0    0  501    0  0.00000000000E+00  0.00000000000E+00  0.23584793061E+04  0.23584793061E+04  0.25500000920E-02 0.  1.
       -2   -1    0    0    0  501  0.00000000000E+00  0.00000000000E+00 -0.27389804548E+03  0.27389804549E+03  0.25500000920E-02 0. -1.
    10030    2    1    2    0    0  0.00000000000E+00  0.00000000000E+00  0.20845812606E+04  0.26323773516E+04  0.16074611936E+04 0.  0.
        1    1    3    3  502    0 -0.47895391956E+03 -0.64536409938E+03  0.10579290093E+04  0.13285727178E+04  0.50400001928E-02 0. -1.
       -1    1    3    3    0  502  0.47895391956E+03  0.64536409938E+03  0.10266522513E+04  0.13038046337E+04  0.50400001928E-02 0.  1.
</event>
<event>
 5   0  0.7124495E-04  0.1397198E+04  0.7818609E-02  0.8955849E-01
        1   -1    0    0  501    0  0.00000000000E+00  0.00000000000E+00  0.68907511830E+03  0.68907511832E+03  0.50400001928E-02 0. -1.
       -1   -1    0    0    0  501  0.00000000000E+00  0.00000000000E+00 -0.70825473583E+03  0.70825473585E+03  0.50400001928E-02 0.  1.
    10030    2    1    2    0    0  0.00000000000E+00  0.00000000000E+00 -0.19179617529E+02  0.13973298542E+04  0.13971982192E+04 0.  0.
        2    1    3    3  502    0  0.13120245901E+03 -0.64120267364E+03  0.23473990477E+03  0.69531128053E+03  0.25500000920E-02 0.  1.
       -2    1    3    3    0  502 -0.13120245901E+03  0.64120267364E+03 -0.25391952230E+03  0.70201857365E+03  0.25500000920E-02 0. -1.
</event>
<event>
 5   0  0.7302027E-04  0.1601955E+04  0.7818609E-02  0.8819348E-01
       -1   -1    0    0    0  501  0.00000000000E+00  0.00000000000E+00  0.44667351650E+03  0.44667351653E+03  0.50400001928E-02 0.  1.
        1   -1    0    0  501    0  0.00000000000E+00  0.00000000000E+00 -0.14363169881E+04  0.14363169881E+04  0.50400001928E-02 0. -1.
    10030    2    1    2    0    0  0.00000000000E+00  0.00000000000E+00 -0.98964347159E+03  0.18829905046E+04  0.16019547558E+04 0.  0.
        5    1    3    3  502    0 -0.22736161836E+03  0.63672436086E+03 -0.99961712269E+03  0.12068006046E+04  0.46999998093E+01 0. -1.
       -5    1    3    3    0  502  0.22736161836E+03 -0.63672436086E+03  0.99736510967E+01  0.67618990005E+03  0.46999998093E+01 0.  1.
</event>
<event>
 5   0  0.1339162E-03  0.1617268E+04  0.7818609E-02  0.8810009E-01
        2   -1    0    0  501    0  0.00000000000E+00  0.00000000000E+00  0.11223520279E+04  0.11223520279E+04  0.25500000920E-02 0.  1.
       -2   -1    0    0    0  501  0.00000000000E+00  0.00000000000E+00 -0.58260628609E+03  0.58260628609E+03  0.25500000920E-02 0. -1.
    10030    2    1    2    0    0  0.00000000000E+00  0.00000000000E+00  0.53974574178E+03  0.17049583140E+04  0.16172684955E+04 0.  0.
        5    1    3    3  502    0 -0.16988807314E+03  0.20808517279E+02 -0.56327674754E+03  0.58872551847E+03  0.46999998093E+01 0. -1.
       -5    1    3    3    0  502  0.16988807314E+03 -0.20808517279E+02  0.11030224893E+04  0.11162327955E+04  0.46999998093E+01 0.  1.
</event>
<event>
 5   0  0.7124495E-04  0.1577456E+04  0.7818609E-02  0.8834519E-01
       -1   -1    0    0    0  501  0.00000000000E+00  0.00000000000E+00  0.56702130862E+03  0.56702130864E+03  0.50400001928E-02 0. -1.
        1   -1    0    0  501    0  0.00000000000E+00  0.00000000000E+00 -0.10971226064E+04  0.10971226064E+04  0.50400001928E-02 0.  1.
    10030    2    1    2    0    0  0.00000000000E+00  0.00000000000E+00 -0.53010129777E+03  0.16641439150E+04  0.15774560482E+04 0.  0.
        2    1    3    3  502    0 -0.75474782920E+03 -0.75405152910E+02 -0.49317867101E+03  0.90474052872E+03  0.25500000920E-02 0.  1.
       -2    1    3    3    0  502  0.75474782920E+03  0.75405152910E+02 -0.36922626761E+02  0.75940338631E+03  0.25500000920E-02 0. -1.
</event>
<event>
 5   0  0.7499834E-04  0.1564782E+04  0.7818609E-02  0.8842481E-01
       -1   -1    0    0    0  501  0.00000000000E+00  0.00000000000E+00  0.42470945809E+03  0.42470945812E+03  0.50400001928E-02 0.  1.
        1   -1    0    0  501    0  0.00000000000E+00  0.00000000000E+00 -0.14413043035E+04  0.14413043035E+04  0.50400001928E-02 0. -1.
    10030    2    1    2    0    0  0.00000000000E+00  0.00000000000E+00 -0.10165948454E+04  0.18660137616E+04  0.15647818630E+04 0.  0.
        3    1    3    3  502    0 -0.48153292650E+03  0.61553356074E+03 -0.46399716863E+03  0.90887232678E+03  0.10100000352E+00 0.  1.
       -3    1    3    3    0  502  0.48153292650E+03 -0.61553356074E+03 -0.55259767678E+03  0.95714143484E+03  0.10100000352E+00 0. -1.
</event>
<event>
 5   0  0.7302027E-04  0.1642547E+04  0.7818609E-02  0.8794828E-01
       -1   -1    0    0    0  501  0.00000000000E+00  0.00000000000E+00  0.77038387250E+03  0.77038387252E+03  0.50400001928E-02 0.  1.
        1   -1    0    0  501    0  0.00000000000E+00  0.00000000000E+00 -0.87552495658E+03  0.87552495660E+03  0.50400001928E-02 0. -1.
    10030    2    1    2    0    0  0.00000000000E+00  0.00000000000E+00 -0.10514108408E+03  0.16459088291E+04  0.16425471762E+04 0.  0.
        5    1    3    3  502    0 -0.18869607021E+03 -0.45526688749E+02 -0.85219452609E+03  0.87403460263E+03  0.46999998093E+01 0. -1.
       -5    1    3    3    0  502  0.18869607021E+03  0.45526688749E+02  0.74705344201E+03  0.77187422649E+03  0.46999998093E+01 0.  1.
</event>
<event>
 5   0  0.1414751E-03  0.1572679E+04  0.7818609E-02  0.8837510E-01
        2   -1    0    0  501    0  0.00000000000E+00  0.00000000000E+00  0.62619805564E+03  0.62619805565E+03  0.25500000920E-02 0.  1.
       -2   -1    0    0    0  501  0.00000000000E+00  0.00000000000E+00 -0.98743468550E+03  0.98743468551E+03  0.25500000920E-02 0. -1.
    10030    2    1    2    0    0  0.00000000000E+00  0.00000000000E+00 -0.36123662986E+03  0.16136327412E+04  0.15726788358E+04 0.  0.
        2    1    3    3  502    0 -0.64481887784E+03 -0.44574605056E+03 -0.24427216744E+03  0.82106626931E+03  0.25500000920E-02 0.  1.
       -2    1    3    3    0  502  0.64481887784E+03  0.44574605056E+03 -0.11696446242E+03  0.79256647184E+03  0.25500000920E-02 0. -1.
</event>
<event>
 5   0  0.1354766E-03  0.1585776E+04  0.7818609E-02  0.8829334E-01
        2   -1    0    0  501    0  0.00000000000E+00  0.00000000000E+00  0.26049871553E+04  0.26049871553E+04  0.25500000920E-02 0.  1.
       -2   -1    0    0    0  501  0.00000000000E+00  0.00000000000E+00 -0.24133385044E+03  0.24133385046E+03  0.25500000920E-02 0. -1.
    10030    2    1    2    0    0  0.00000000000E+00  0.00000000000E+00  0.23636533048E+04  0.28463210057E+04  0.15857762523E+04 0.  0.
        3    1    3    3  502    0  0.22113978719E+03  0.25647482584E+03 -0.10499707893E+03  0.35455117904E+03  0.10100000352E+00 0. -1.
       -3    1    3    3    0  502 -0.22113978719E+03 -0.25647482584E+03  0.24686503838E+04  0.24917698267E+04  0.10100000352E+00 0.  1.
</event>
<event>
 5   0  0.7499834E-04  0.1654200E+04  0.7818609E-02  0.8787925E-01
        1   -1    0    0  501    0  0.00000000000E+00  0.00000000000E+00  0.15983825480E+04  0.15983825480E+04  0.50400001928E-02 0. -1.
       -1   -1    0    0    0  501  0.00000000000E+00  0.00000000000E+00 -0.42799190457E+03  0.42799190460E+03  0.50400001928E-02 0.  1.
    10030    2    1    2    0    0  0.00000000000E+00  0.00000000000E+00  0.11703906435E+04  0.20263744526E+04  0.16542004606E+04 0.  0.
        3    1    3    3  502    0 -0.51365102768E+03 -0.58466924732E+03  0.92823390665E+03  0.12113189929E+04  0.10100000352E+00 0. -1.
       -3    1    3    3    0  502  0.51365102768E+03  0.58466924732E+03  0.24215673682E+03  0.81505545970E+03  0.10100000352E+00 0.  1.
</event>
<event>
 5   0  0.1375777E-03  0.1664035E+04  0.7818609E-02  0.8782146E-01
       -2   -1    0    0    0  501  0.00000000000E+00  0.00000000000E+00  0.63889571563E+03  0.63889571563E+03  0.25500000920E-02 0.  1.
        2   -1    0    0  501    0  0.00000000000E+00  0.00000000000E+00 -0.10835153100E+04  0.10835153100E+04  0.25500000920E-02 0. -1.
    10030    2    1    2    0    0  0.00000000000E+00  0.00000000000E+00 -0.44461959435E+03  0.17224110256E+04  0.16640352032E+04 0.  0.
        1    1    3    3  502    0 -0.81849785382E+03 -0.83595840778E+01 -0.67931135829E+02  0.82135452674E+03  0.50400001928E-02 0.  1.
       -1    1    3    3    0  502  0.81849785382E+03  0.83595840778E+01 -0.37668845852E+03  0.90105649887E+03  0.50400001928E-02 0. -1.
</event>
<event>
 5   0  0.1375777E-03  0.1510511E+04  0.7818609E-02  0.8877493E-01
       -2   -1    0    0    0  501  0.00000000000E+00  0.00000000000E+00  0.90219905506E+03  0.90219905507E+03  0.25500000920E-02 0. -1.
        2   -1    0    0  501    0  0.00000000000E+00  0.00000000000E+00 -0.63224520259E+03  0.63224520259E+03  0.25500000920E-02 0.  1.
    10030    2    1    2    0    0  0.00000000000E+00  0.00000000000E+00  0.26995385247E+03  0.15344442577E+04  0.15105112040E+04 0.  0.
        1    1    3    3  502    0 -0.56362667110E+02  0.71103225883E+03 -0.11728690538E+03  0.72284150513E+03  0.50400001928E-02 0.  1.
       -1    1    3    3    0  502  0.56362667110E+02 -0.71103225883E+03  0.38724075786E+03  0.81160275253E+03  0.50400001928E-02 0. -1.
</event>
<event>
 5   0  0.1339162E-03  0.1541235E+04  0.7818609E-02  0.8857486E-01
        2   -1    0    0  501    0  0.00000000000E+00  0.00000000000E+00  0.73279764859E+03  0.73279764860E+03  0.25500000920E-02 0. -1.
       -2   -1    0    0    0  501  0.00000000000E+00  0.00000000000E+00 -0.81038945799E+03  0.81038945799E+03  0.25500000920E-02 0.  1.
    10030    2    1    2    0    0  0.00000000000E+00  0.00000000000E+00 -0.77591809397E+02  0.15431871066E+04  0.15412352050E+04 0.  0.
        5    1    3    3  502    0  0.75922624710E+03  0.13077808824E+03 -0.56195963041E+02  0.77246843231E+03  0.46999998093E+01 0. -1.
       -5    1    3    3    0  502 -0.75922624710E+03 -0.13077808824E+03 -0.21395846356E+02  0.77071867428E+03  0.46999998093E+01 0.  1.
</event>
<event>
 5   0  0.1354766E-03  0.1062617E+04  0.7818609E-02  0.9242413E-01
       -2   -1    0    0    0  501  0.00000000000E+00  0.00000000000E+00  0.20477220932E+03  0.20477220933E+03  0.25500000920E-02 0. -1.
        2   -1    0    0  501    0  0.00000000000E+00  0.00000000000E+00 -0.13785510422E+04  0.13785510423E+04  0.25500000920E-02 0.  1.
    10030    2    1    2    0    0  0.00000000000E+00  0.00000000000E+00 -0.11737788329E+04  0.15833232516E+04  0.10626174149E+04 0.  0.
        3    1    3    3  502    0 -0.10205614724E+03  0.52106031580E+03 -0.55824289697E+03  0.77042485169E+03  0.10100000352E+00 0. -1.
       -3    1    3    3    0  502  0.10205614724E+03 -0.52106031580E+03 -0.61553593596E+03  0.81289839989E+03  0.10100000352E+00 0.  1.
</event>
<event>
 5   0  0.7633213E-04  0.1569313E+04  0.7818609E-02  0.8839625E-01
       -1   -1    0    0    0  501  0.00000000000E+00  0.00000000000E+00  0.12593169710E+04  0.12593169710E+04  0.50400001928E-02 0. -1.
        1   -1    0    0  501    0  0.00000000000E+00  0.00000000000E+00 -0.48890477957E+03  0.48890477960E+03  0.50400001928E-02 0.  1.
    10030    2    1    2    0    0  0.00000000000E+00  0.00000000000E+00  0.77041219145E+03  0.17482217506E+04  0.15693133354E+04 0.  0.
        1    1    3    3  502    0  0.72637263937E+01 -0.21019758319E+03 -0.45691798583E+03  0.50300082654E+03  0.50400001928E-02 0.  1.
       -1    1    3    3    0  502 -0.72637263937E+01  0.21019758319E+03  0.12273301773E+04  0.12452209241E+04  0.50400001928E-02 0. -1.
</event>
<event>
 5   0  0.7633213E-04  0.1451787E+04  0.7818609E-02  0.8917163E-01
       -1   -1    0    0    0  501  0.00000000000E+00  0.00000000000E+00  0.69255189245E+03  0.69255189247E+03  0.50400001928E-02 0.  1.
        1   -1    0    0  501    0  0.00000000000E+00  0.00000000000E+00 -0.76084001902E+03  0.76084001904E+03  0.50400001928E-02 0. -1.
    10030    2    1    2    0    0  0.00000000000E+00  0.00000000000E+00 -0.68288126567E+02  0.14533919115E+04  0.14517867544E+04 0.  0.
        1    1    3    3  502    0 -0.45617941408E+03 -0.22764129379E+02  0.53066349695E+03  0.70015827527E+03  0.50400001928E-02 0.  1.
       -1    1    3    3    0  502  0.45617941408E+03  0.22764129379E+02 -0.59895162352E+03  0.75323363623E+03  0.50400001928E-02 0. -1.
</event>
<event>
 5   0  0.7499834E-04  0.1612583E+04  0.7818609E-02  0.8812855E-01
        1   -1    0    0  501    0  0.00000000000E+00  0.00000000000E+00  0.82711800878E+03  0.82711800880E+03  0.50400001928E-02 0. -1.
       -1   -1    0    0    0  501  0.00000000000E+00  0.00000000000E+00 -0.78598940496E+03  0.78598940497E+03  0.50400001928E-02 0.  1.
    10030    2    1    2    0    0  0.00000000000E+00  0.00000000000E+00  0.41128603827E+02  0.16131074138E+04  0.16125830107E+04 0.  0.
        3    1    3    3  502    0 -0.10568110233E+03 -0.66343123292E+03  0.46657528970E+03  0.81792542898E+03  0.10100000352E+00 0. -1.
       -3    1    3    3    0  502  0.10568110233E+03  0.66343123292E+03 -0.42544668588E+03  0.79518198479E+03  0.10100000352E+00 0.  1.
</event>
<event>
 5   0  0.1339162E-03  0.1732149E+04  0.7818609E-02  0.8743238E-01
       -2   -1    0    0    0  501  0.00000000000E+00  0.00000000000E+00  0.53890125172E+03  0.53890125173E+03  0.25500000920E-02 0. -1.
        2   -1    0    0  501    0  0.00000000000E+00  0.00000000000E+00 -0.13918781009E+04  0.13918781009E+04  0.25500000920E-02 0.  1.
    10030    2    1    2    0    0  0.00000000000E+00  0.00000000000E+00 -0.85297684916E+03  0.19307793526E+04  0.17321487821E+04 0.  0.
        5    1    3    3  502    0  0.65887356972E+03  0.51561672713E+03 -0.17702130981E+03  0.85518046300E+03  0.46999998093E+01 0. -1.
       -5    1    3    3    0  502 -0.65887356972E+03 -0.51561672713E+03 -0.67595553935E+03  0.10755988896E+04  0.46999998093E+01 0.  1.
</event>
<event>
 5   0  0.1375777E-03  0.1608608E+04  0.7818609E-02  0.8815277E-01
       -2   -1    0    0    0  501  0.00000000000E+00  0.00000000000E+00  0.79899691469E+03  0.79899691470E+03  0.25500000920E-02 0.  1.
        2   -1    0    0  501    0  0.00000000000E+00  0.00000000000E+00 -0.80964649585E+03  0.80964649585E+03  0.25500000920E-02 0. -1.
    10030    2    1    2    0    0  0.00000000000E+00  0.00000000000E+00 -0.10649581153E+02  0.16086434105E+04  0.16086081589E+04 0.  0.
        1    1    3    3  502    0 -0.77799319655E+03  0.15651381082E+03 -0.13622863435E+03  0.80518831816E+03  0.50400001928E-02 0. -1.
       -1    1    3    3    0  502  0.77799319655E+03 -0.15651381082E+03  0.12557905319E+03  0.80345509239E+03  0.50400001928E-02 0.  1.
</event>
<event>
 5   0  0.7302027E-04  0.9140430E+03  0.7818609E-02  0.9408195E-01
        1   -1    0    0  501    0  0.00000000000E+00  0.00000000000E+00  0.30091379567E+03  0.30091379571E+03  0.50400001928E-02 0. -1.
       -1   -1    0    0    0  501  0.00000000000E+00  0.00000000000E+00 -0.69411452030E+03  0.69411452031E+03  0.50400001928E-02 0.  1.
    10030    2    1    2    0    0  0.00000000000E+00  0.00000000000E+00 -0.39320072463E+03  0.99502831602E+03  0.91404296389E+03 0.  0.
        5    1    3    3  502    0  0.16461728419E+03  0.42530515295E+03 -0.16461656865E+03  0.48487527061E+03  0.46999998093E+01 0.  1.
       -5    1    3    3    0  502 -0.16461728419E+03 -0.42530515295E+03 -0.22858415598E+03  0.51015304541E+03  0.46999998093E+01 0. -1.
</event>
<event>
 5   0  0.7302027E-04  0.1595629E+04  0.7818609E-02  0.8823238E-01
       -1   -1    0    0    0  501  0.00000000000E+00  0.00000000000E+00  0.80830854190E+03  0.80830854192E+03  0.50400001928E-02 0. -1.
        1   -1    0    0  501    0  0.00000000000E+00  0.00000000000E+00 -0.78745700069E+03  0.78745700070E+03  0.50400001928E-02 0.  1.
    10030    2    1    2    0    0  0.00000000000E+00  0.00000000000E+00  0.20851541215E+02  0.15957655426E+04  0.15956293054E+04 0.  0.
        5    1    3    3  502    0 -0.54586462589E+03  0.12586229019E+03  0.57852059346E+03  0.80530594990E+03  0.46999998093E+01 0. -1.
       -5    1    3    3    0  502  0.54586462589E+03 -0.12586229019E+03 -0.55766905225E+03  0.79045959272E+03  0.46999998093E+01 0.  1.
</event>
<event>
 5   0  0.1375777E-03  0.1610975E+04  0.7818609E-02  0.8813834E-01
        2   -1    0    0  501    0  0.00000000000E+00  0.00000000000E+00  0.10811244725E+04  0.10811244726E+04  0.25500000920E-02 0. -1.
       -2   -1    0    0    0  501  0.00000000000E+00  0.00000000000E+00 -0.60012502750E+03  0.60012502750E+03  0.25500000920E-02 0.  1.
    10030    2    1    2    0    0  0.00000000000E+00  0.00000000000E+00  0.48099944505E+03  0.16812495001E+04  0.16109746787E+04 0.  0.
        1    1    3    3  502    0  0.13212374303E+03 -0.22510951428E+03 -0.55476454265E+03  0.61310249934E+03  0.50400001928E-02 0.  1.
       -1    1    3    3    0  502 -0.13212374303E+03  0.22510951428E+03  0.10357639877E+04  0.10681470007E+04  0.50400001928E-02 0. -1.
</event>
<event>
 5   0  0.7499834E-04  0.1605479E+04  0.7818609E-02  0.8817189E-01
        1   -1    0    0  501    0  0.00000000000E+00  0.00000000000E+00  0.54143912845E+03  0.54143912848E+03  0.50400001928E-02 0. -1.
       -1   -1    0    0    0  501  0.00000000000E+00  0.00000000000E+00 -0.11901445281E+04  0.11901445281E+04  0.50400001928E-02 0.  1.
    10030    2    1    2    0    0  0.00000000000E+00  0.00000000000E+00 -0.64870539962E+03  0.17315836566E+04  0.16054791385E+04 0.  0.
        3    1    3    3  502    0 -0.53919551687E+03  0.25037980679E+03  0.25743178725E+03  0.64783716190E+03  0.10100000352E+00 0. -1.
       -3    1    3    3    0  502  0.53919551687E+03 -0.25037980679E+03 -0.90613718687E+03  0.10837464947E+04  0.10100000352E+00 0.  1.
</event>
<event>
 5   0  0.7124495E-04  0.1533214E+04  0.7818609E-02  0.8862662E-01
        1   -1    0    0  501    0  0.00000000000E+00  0.00000000000E+00  0.16009442689E+04  0.16009442689E+04  0.50400001928E-02 0. -1.
       -1   -1    0    0    0  501  0.00000000000E+00  0.00000000000E+00 -0.36708720745E+03  0.36708720748E+03  0.50400001928E-02 0.  1.
    10030    2    1    2    0    0  0.00000000000E+00  0.00000000000E+00  0.12338570614E+04  0.19680314764E+04  0.15332138285E+04 0.  0.
        2    1    3    3  502    0  0.68065848382E+02 -0.31921317420E+03  0.15073022516E+04  0.15422354192E+04  0.25500000920E-02 0. -1.
       -2    1    3    3    0  502 -0.68065848382E+02  0.31921317420E+03 -0.27344519019E+03  0.42579605722E+03  0.25500000920E-02 0.  1.
</event>
<event>
 5   0  0.7601145E-04  0.1573485E+04  0.7818609E-02  0.8837005E-01
        1   -1    0    0  501    0  0.00000000000E+00  0.00000000000E+00  0.93541211850E+03  0.93541211851E+03  0.50400001928E-02 0.  1.
       -1   -1    0    0    0  501  0.00000000000E+00  0.00000000000E+00 -0.66170174366E+03  0.66170174368E+03  0.50400001928E-02 0. -1.
    10030    2    1    2    0    0  0.00000000000E+00  0.00000000000E+00  0.27371037484E+03  0.15971138622E+04  0.15734850872E+04 0.  0.
        4    1    3    3  502    0 -0.11849876995E+03 -0.54611597063E+03 -0.42524571112E+03  0.70222513455E+03  0.12699999809E+01 0. -1.
       -4    1    3    3    0  502  0.11849876995E+03  0.54611597063E+03  0.69895608596E+03  0.89488872764E+03  0.12699999809E+01 0.  1.
</event>
<event>
 5   0  0.7601145E-04  0.1591504E+04  0.7818609E-02  0.8825784E-01
       -1   -1    0    0    0  501  0.00000000000E+00  0.00000000000E+00  0.50462058862E+03  0.50462058865E+03  0.50400001928E-02 0.  1.
        1   -1    0    0  501    0  0.00000000000E+00  0.00000000000E+00 -0.12548468156E+04  0.12548468157E+04  0.50400001928E-02 0. -1.
    10030    2    1    2    0    0  0.00000000000E+00  0.00000000000E+00 -0.75022622702E+03  0.17594674043E+04  0.15915043685E+04 0.  0.
        4    1    3    3  502    0  0.73160172845E+03 -0.21201165494E+03 -0.12052754943E+03  0.77117996212E+03  0.12699999809E+01 0.  1.
       -4    1    3    3    0  502 -0.73160172845E+03  0.21201165494E+03 -0.62969867759E+03  0.98828744218E+03  0.12699999809E+01 0. -1.
</event>
<event>
 5   0  0.7633213E-04  0.1500629E+04  0.7818609E-02  0.8884035E-01
        1   -1    0    0  501    0  0.00000000000E+00  0.00000000000E+00  0.53594936380E+03  0.53594936382E+03  0.50400001928E-02 0.  1.
       -1   -1    0    0    0  501  0.00000000000E+00  0.00000000000E+00 -0.10504198982E+04  0.10504198983E+04  0.50400001928E-02 0. -1.
    10030    2    1    2    0    0  0.00000000000E+00  0.00000000000E+00 -0.51447053444E+03  0.15863692621E+04  0.15006290364E+04 0.  0.
        1    1    3    3  502    0 -0.30038468675E+03 -0.41979410337E+03  0.31840798177E+03  0.60649954010E+03  0.50400001928E-02 0.  1.
       -1    1    3    3    0  502  0.30038468675E+03  0.41979410337E+03 -0.83287851621E+03  0.97986972198E+03  0.50400001928E-02 0. -1.
</event>
<event>
 5   0  0.7499834E-04  0.1470331E+04  0.7818609E-02  0.8904426E-01
       -1   -1    0    0    0  501  0.00000000000E+00  0.00000000000E+00  0.54499483018E+03  0.54499483021E+03  0.50400001928E-02 0. -1.
        1   -1    0    0  501    0  0.00000000000E+00  0.00000000000E+00 -0.99169398352E+03  0.99169398353E+03  0.50400001928E-02 0.  1.
    10030    2    1    2    0    0  0.00000000000E+00  0.00000000000E+00 -0.44669915333E+03  0.15366888137E+04  0.14703307032E+04 0.  0.
        3    1    3    3  502    0  0.31493338388E+03 -0.87536613920E+02 -0.91156872610E+03  0.96840242031E+03  0.10100000352E+00 0.  1.
       -3    1    3    3    0  502 -0.31493338388E+03  0.87536613920E+02  0.46486957277E+03  0.56828639342E+03  0.10100000352E+00 0. -1.
</event>
<event>
 5   0  0.7601145E-04  0.1579338E+04  0.7818609E-02  0.8833343E-01
        1   -1    0    0  501    0  0.00000000000E+00  0.00000000000E+00  0.78269343703E+03  0.78269343705E+03  0.50400001928E-02 0. -1.
       -1   -1    0    0    0  501  0.00000000000E+00  0.00000000000E+00 -0.79670627275E+03  0.79670627277E+03  0.50400001928E-02 0.  1.
    10030    2    1    2    0    0  0.00000000000E+00  0.00000000000E+00 -0.14012835720E+02  0.15793997098E+04  0.15793375459E+04 0.  0.
        4    1    3    3  502    0 -0.58064379529E+03 -0.29857157536E+03 -0.45118936007E+03  0.79364075888E+03  0.12699999809E+01 0.  1.
       -4    1    3    3    0  502  0.58064379529E+03  0.29857157536E+03  0.43717652435E+03  0.78575895093E+03  0.12699999809E+01 0. -1.
</event>
<event>
 5   0  0.1339162E-03  0.1599741E+04  0.7818609E-02  0.8820707E-01
        2   -1    0    0  501    0  0.00000000000E+00  0.00000000000E+00  0.16634601909E+04  0.16634601909E+04  0.25500000920E-02 0. -1.
       -2   -1    0    0    0  501  0.00000000000E+00  0.00000000000E+00 -0.38461558834E+03  0.38461558835E+03  0.25500000920E-02 0.  1.
    10030    2    1    2    0    0  0.00000000000E+00  0.00000000000E+00  0.12788446026E+04  0.20480757793E+04  0.15997408790E+04 0.  0.
        5    1    3    3  502    0  0.62376010468E+03 -0.24496755389E+02 -0.82521600230E+00  0.62425918511E+03  0.46999998093E+01 0.  1.
       -5    1    3    3    0  502 -0.62376010468E+03  0.24496755389E+02  0.12796698186E+04  0.14238165941E+04  0.46999998093E+01 0. -1.
</event>
<event>
 5   0  0.7124495E-04  0.1608190E+04  0.7818609E-02  0.8815532E-01
       -1   -1    0    0    0  501  0.00000000000E+00  0.00000000000E+00  0.67743921088E+03  0.67743921090E+03  0.50400001928E-02 0.  1.
        1   -1    0    0  501    0  0.00000000000E+00  0.00000000000E+00 -0.95443090827E+03  0.95443090828E+03  0.50400001928E-02 0. -1.
    10030    2    1    2    0    0  0.00000000000E+00  0.00000000000E+00 -0.27699169739E+03  0.16318701192E+04  0.16081901895E+04 0.  0.
        2    1    3    3  502    0  0.92613336508E+02  0.74221971796E+03 -0.43797128211E+03  0.86676766425E+03  0.25500000920E-02 0. -1.
       -2    1    3    3    0  502 -0.92613336508E+02 -0.74221971796E+03  0.16097958472E+03  0.76510245493E+03  0.25500000920E-02 0.  1.
</event>
<event>
 5   0  0.7499834E-04  0.1612925E+04  0.7818609E-02  0.8812647E-01
        1   -1    0    0  501    0  0.00000000000E+00  0.00000000000E+00  0.44261003134E+03  0.44261003137E+03  0.50400001928E-02 0.  1.
       -1   -1    0    0    0  501  0.00000000000E+00  0.00000000000E+00 -0.14694232233E+04  0.14694232233E+04  0.50400001928E-02 0. -1.
    10030    2    1    2    0    0  0.00000000000E+00  0.00000000000E+00 -0.10268131920E+04  0.19120332547E+04  0.16129246219E+04 0.  0.
        3    1    3    3  502    0 -0.71359831130E+03 -0.18492895322E+03 -0.90110359081E+03  0.11642203224E+04  0.10100000352E+00 0. -1.
       -3    1    3    3    0  502  0.71359831130E+03  0.18492895322E+03 -0.12570960117E+03  0.74781293226E+03  0.10100000352E+00 0.  1.
</event>
<event>
 5   0  0.7124495E-04  0.1587241E+04  0.7818609E-02  0.8828425E-01
        1   -1    0    0  501    0  0.00000000000E+00  0.00000000000E+00  0.19725900264E+04  0.19725900264E+04  0.50400001928E-02 0.  1.
       -1   -1    0    0    0  501  0.00000000000E+00  0.00000000000E+00 -0.31929281617E+03  0.31929281621E+03  0.50400001928E-02 0. -1.
    10030    2    1    2    0    0  0.00000000000E+00  0.00000000000E+00  0.16532972102E+04  0.22918828426E+04  0.15872414117E+04 0.  0.
        2    1    3    3  502    0 -0.79287094468E+03  0.22712741061E+02  0.86412495652E+03  0.11729757645E+04  0.25500000920E-02 0.  1.
       -2    1    3    3    0  502  0.79287094468E+03 -0.22712741061E+02  0.78917225371E+03  0.11189070782E+04  0.25500000920E-02 0. -1.
</event>
<event>
 5   0  0.1375777E-03  0.1425616E+04  0.7818609E-02  0.8935482E-01
       -2   -1    0    0    0  501  0.00000000000E+00  0.00000000000E+00  0.92497984235E+03  0.92497984235E+03  0.25500000920E-02 0.  1.
        2   -1    0    0  501    0  0.00000000000E+00  0.00000000000E+00 -0.54930414124E+03  0.54930414125E+03  0.25500000920E-02 0. -1.
    10030    2    1    2    0    0  0.00000000000E+00  0.00000000000E+00  0.37567570111E+03  0.14742839836E+04  0.14256160184E+04 0.  0.
        1    1    3    3  502    0  0.21346854105E+03 -0.23782811063E+03  0.84674233803E+03  0.90504343281E+03  0.50400001928E-02 0.  1.
       -1    1    3    3    0  502 -0.21346854105E+03  0.23782811063E+03 -0.47106663692E+03  0.56924055080E+03  0.50400001928E-02 0. -1.
</event>
<event>
 5   0  0.7633213E-04  0.1548063E+04  0.7818609E-02  0.8853106E-01
        1   -1    0    0  501    0  0.00000000000E+00  0.00000000000E+00  0.84449679779E+03  0.84449679781E+03  0.50400001928E-02 0.  1.
       -1   -1    0    0    0  501  0.00000000000E+00  0.00000000000E+00 -0.70944582533E+03  0.70944582535E+03  0.50400001928E-02 0. -1.
    10030    2    1    2    0    0  0.00000000000E+00  0.00000000000E+00  0.13505097246E+03  0.15539426232E+04  0.15480629544E+04 0.  0.
        1    1    3    3  502    0 -0.48362699594E+03 -0.14630792821E+03 -0.52106634743E+03  0.72581762138E+03  0.50400001928E-02 0. -1.
       -1    1    3    3    0  502  0.48362699594E+03  0.14630792821E+03  0.65611731990E+03  0.82812500177E+03  0.50400001928E-02 0.  1.
</event>
<event>
 5   0  0.1414751E-03  0.1599469E+04  0.7818609E-02  0.8820874E-01
        2   -1    0    0  501    0  0.00000000000E+00  0.00000000000E+00  0.72994314780E+03  0.72994314781E+03  0.25500000920E-02 0.  1.
       -2   -1    0    0    0  501  0.00000000000E+00  0.00000000000E+00 -0.87619876482E+03  0.87619876483E+03  0.25500000920E-02 0. -1.
    10030    2    1    2    0    0  0.00000000000E+00  0.00000000000E+00 -0.14625561702E+03  0.16061419126E+04  0.15994690175E+04 0.  0.
        2    1    3    3  502    0 -0.22819365135E+03 -0.44304196904E+02  0.69527049466E+03  0.73310044682E+03  0.25500000920E-02 0.  1.
       -2    1    3    3    0  502  0.22819365135E+03  0.44304196904E+02 -0.84152611168E+03  0.87304146581E+03  0.25500000920E-02 0. -1.
</event>
<event>
 5   0  0.5095750E-04  0.1628531E+04  0.7818609E-02  0.8803210E-01
       -3   -1    0    0    0  501  0.00000000000E+00  0.00000000000E+00  0.84466271277E+03  0.84466271881E+03  0.10100000352E+00 0. -1.
        3   -1    0    0  501    0  0.00000000000E+00  0.00000000000E+00 -0.78496184140E+03  0.78496184790E+03  0.10100000352E+00 0.  1.
    10030    2    1    2    0    0  0.00000000000E+00  0.00000000000E+00  0.59700871371E+02  0.16296245667E+04  0.16285306366E+04 0.  0.
        4    1    3    3  502    0  0.10851333903E+03  0.77763852783E+03  0.24570247397E+03  0.82271996653E+03  0.12699999809E+01 0.  1.
       -4    1    3    3    0  502 -0.10851333903E+03 -0.77763852783E+03 -0.18600160260E+03  0.80690460018E+03  0.12699999809E+01 0. -1.
</event>
<event>
 5   0  0.7633213E-04  0.1535046E+04  0.7818609E-02  0.8861477E-01
        1   -1    0    0  501    0  0.00000000000E+00  0.00000000000E+00  0.58393409350E+03  0.58393409352E+03  0.50400001928E-02 0.  1.
       -1   -1    0    0    0  501  0.00000000000E+00  0.00000000000E+00 -0.10088317924E+04  0.10088317924E+04  0.50400001928E-02 0. -1.
    10030    2    1    2    0    0  0.00000000000E+00  0.00000000000E+00 -0.42489769885E+03  0.15927658859E+04  0.15350456387E+04 0.  0.
        1    1    3    3  502    0  0.26575412575E+03 -0.71831323999E+03 -0.26424702196E+03  0.81020099650E+03  0.50400001928E-02 0.  1.
       -1    1    3    3    0  502 -0.26575412575E+03  0.71831323999E+03 -0.16065067689E+03  0.78256488939E+03  0.50400001928E-02 0. -1.
</event>
<event>
 5   0  0.7499834E-04  0.1663970E+04  0.7818609E-02  0.8782185E-01
        1   -1    0    0  501    0  0.00000000000E+00  0.00000000000E+00  0.18861368776E+04  0.18861368776E+04  0.50400001928E-02 0.  1.
       -1   -1    0    0    0  501  0.00000000000E+00  0.00000000000E+00 -0.36699301275E+03  0.36699301278E+03  0.50400001928E-02 0. -1.
    10030    2    1    2    0    0  0.00000000000E+00  0.00000000000E+00  0.15191438648E+04  0.22531298904E+04  0.16639700180E+04 0.  0.
        3    1    3    3  502    0  0.27436357857E+03 -0.78543941939E+03  0.75560327966E+03  0.11238891321E+04  0.10100000352E+00 0.  1.
       -3    1    3    3    0  502 -0.27436357857E+03  0.78543941939E+03  0.76354058516E+03  0.11292407583E+04  0.10100000352E+00 0. -1.
</event>
<event>
 5   0  0.1354766E-03  0.1249451E+04  0.7818609E-02  0.9070641E-01
       -2   -1    0    0    0  501  0.00000000000E+00  0.00000000000E+00  0.42659475084E+03  0.42659475085E+03  0.25500000920E-02 0.  1.
        2   -1    0    0  501    0  0.00000000000E+00  0.00000000000E+00 -0.91487700086E+03  0.91487700087E+03  0.25500000920E-02 0. -1.
    10030    2    1    2    0    0  0.00000000000E+00  0.00000000000E+00 -0.48828225002E+03  0.13414717517E+04  0.12494506413E+04 0.  0.
        3    1    3    3  502    0  0.19709366367E+03  0.29294943878E+03  0.30919610962E+03  0.46932667764E+03  0.10100000352E+00 0.  1.
       -3    1    3    3    0  502 -0.19709366367E+03 -0.29294943878E+03 -0.79747835964E+03  0.87214507408E+03  0.10100000352E+00 0. -1.
</event>
<event>
 5   0  0.1414796E-03  0.1621184E+04  0.7818609E-02  0.8807639E-01
        2   -1    0    0  501    0  0.00000000000E+00  0.00000000000E+00  0.15248008409E+04  0.15248008409E+04  0.25500000920E-02 0.  1.
       -2   -1    0    0    0  501  0.00000000000E+00  0.00000000000E+00 -0.43091488814E+03  0.43091488815E+03  0.25500000920E-02 0. -1.
    10030    2    1    2    0    0  0.00000000000E+00  0.00000000000E+00  0.10938859527E+04  0.19557157290E+04  0.16211839918E+04 0.  0.
        4    1    3    3  502    0 -0.34841187154E+03  0.24340739273E+03 -0.28571819663E+03  0.51212741759E+03  0.12699999809E+01 0. -1.
       -4    1    3    3    0  502  0.34841187154E+03 -0.24340739273E+03  0.13796041494E+04  0.14435883114E+04  0.12699999809E+01 0.  1.
</event>
<event>
 5   0  0.7633213E-04  0.1618420E+04  0.7818609E-02  0.8809311E-01
       -1   -1    0    0    0  501  0.00000000000E+00  0.00000000000E+00  0.93417351482E+03  0.93417351483E+03  0.50400001928E-02 0. -1.
        1   -1    0    0  501    0  0.00000000000E+00  0.00000000000E+00 -0.70096254068E+03  0.70096254069E+03  0.50400001928E-02 0.  1.
    10030    2    1    2    0    0  0.00000000000E+00  0.00000000000E+00  0.23321097414E+03  0.16351360555E+04  0.16184197730E+04 0.  0.
        1    1    3    3  502    0 -0.37053776247E+02 -0.44447163936E+03 -0.56556668647E+03  0.72027334908E+03  0.50400001928E-02 0.  1.
       -1    1    3    3    0  502  0.37053776247E+02  0.44447163936E+03  0.79877766061E+03  0.91486270645E+03  0.50400001928E-02 0. -1.
</event>
<event>
 5   0  0.7302027E-04  0.1610409E+04  0.7818609E-02  0.8814179E-01
       -1   -1    0    0    0  501  0.00000000000E+00  0.00000000000E+00  0.50394844628E+03  0.50394844631E+03  0.50400001928E-02 0. -1.
        1   -1    0    0  501    0  0.00000000000E+00  0.00000000000E+00 -0.12865484486E+04  0.12865484486E+04  0.50400001928E-02 0.  1.
    10030    2    1    2    0    0  0.00000000000E+00  0.00000000000E+00 -0.78260000231E+03  0.17904968949E+04  0.16104087578E+04 0.  0.
        5    1    3    3  502    0  0.74985580489E+03 -0.25694358605E+03 -0.23395275832E+03  0.82647426921E+03  0.46999998093E+01 0.  1.
       -5    1    3    3    0  502 -0.74985580489E+03  0.25694358605E+03 -0.54864724399E+03  0.96402262571E+03  0.46999998093E+01 0. -1.
</event>
<event>
 5   0  0.1354766E-03  0.1609597E+04  0.7818609E-02  0.8814674E-01
        2   -1    0    0  501    0  0.00000000000E+00  0.00000000000E+00  0.66338845299E+03  0.66338845300E+03  0.25500000920E-02 0. -1.
       -2   -1    0    0    0  501  0.00000000000E+00  0.00000000000E+00 -0.97635196611E+03  0.97635196611E+03  0.25500000920E-02 0.  1.
    10030    2    1    2    0    0  0.00000000000E+00  0.00000000000E+00 -0.31296351312E+03  0.16397404191E+04  0.16095969935E+04 0.  0.
        3    1    3    3  502    0  0.46561300891E+03 -0.41036555957E+03  0.36546588716E+03  0.72025043661E+03  0.10100000352E+00 0. -1.
       -3    1    3    3    0  502 -0.46561300891E+03  0.41036555957E+03 -0.67842940028E+03  0.91948998250E+03  0.10100000352E+00 0.  1.
</event>
<event>
 5   0  0.7601145E-04  0.1226339E+04  0.7818609E-02  0.9090109E-01
        1   -1    0    0  501    0  0.00000000000E+00  0.00000000000E+00  0.11264816822E+04  0.11264816822E+04  0.50400001928E-02 0. -1.
       -1   -1    0    0    0  501  0.00000000000E+00  0.00000000000E+00 -0.33376208666E+03  0.33376208670E+03  0.50400001928E-02 0.  1.
    10030    2    1    2    0    0  0.00000000000E+00  0.00000000000E+00  0.79271959554E+03  0.14602437689E+04  0.12263390671E+04 0.  0.
        4    1    3    3  502    0  0.82756065657E+02 -0.93467521815E+01 -0.32699460306E+03  0.33743593690E+03  0.12699999809E+01 0.  1.
       -4    1    3    3    0  502 -0.82756065657E+02  0.93467521815E+01  0.11197141986E+04  0.11228078320E+04  0.12699999809E+01 0. -1.
</event>
<event>
 5   0  0.1354766E-03  0.1592161E+04  0.7818609E-02  0.8825378E-01
       -2   -1    0    0    0  501  0.00000000000E+00  0.00000000000E+00  0.44790750461E+03  0.44790750462E+03  0.25500000920E-02 0.  1.
        2   -1    0    0  501    0  0.00000000000E+00  0.00000000000E+00 -0.14148996329E+04  0.14148996329E+04  0.25500000920E-02 0. -1.
    10030    2    1    2    0    0  0.00000000000E+00  0.00000000000E+00 -0.96699212828E+03  0.18628071375E+04  0.15921610017E+04 0.  0.
        3    1    3    3  502    0 -0.51939710508E+02 -0.61750227637E+03  0.10118989997E+03  0.62789027776E+03  0.10100000352E+00 0.  1.
       -3    1    3    3    0  502  0.51939710508E+02  0.61750227637E+03 -0.10681820283E+04  0.12349168598E+04  0.10100000352E+00 0. -1.
</event>
<event>
 5   0  0.5095750E-04  0.1634531E+04  0.7818609E-02  0.8799611E-01
        3   -1    0    0  501    0  0.00000000000E+00  0.00000000000E+00  0.72650972993E+03  0.72650973695E+03  0.10100000352E+00 0.  1.
       -3   -1    0    0    0  501  0.00000000000E+00  0.00000000000E+00 -0.91935846910E+03  0.91935847465E+03  0.10100000352E+00 0. -1.
    10030    2    1    2    0    0  0.00000000000E+00  0.00000000000E+00 -0.19284873917E+03  0.16458682116E+04  0.16345309828E+04 0.  0.
        2    1    3    3  502    0 -0.55926701973E+03  0.68230288892E+02  0.49970212204E+03  0.75308510970E+03  0.25500000920E-02 0.  1.
       -2    1    3    3    0  502  0.55926701973E+03 -0.68230288892E+02 -0.69255086121E+03  0.89278310190E+03  0.25500000920E-02 0. -1.
</event>
<event>
 5   0  0.7124495E-04  0.1616796E+04  0.7818609E-02  0.8810296E-01
        1   -1    0    0  501    0  0.00000000000E+00  0.00000000000E+00  0.33332692492E+03  0.33332692496E+03  0.50400001928E-02 0. -1.
       -1   -1    0    0    0  501  0.00000000000E+00  0.00000000000E+00 -0.19605592858E+04  0.19605592858E+04  0.50400001928E-02 0.  1.
    10030    2    1    2    0    0  0.00000000000E+00  0.00000000000E+00 -0.16272323609E+04  0.22938862108E+04  0.16167958410E+04 0.  0.
        2    1    3    3  502    0 -0.19252684896E+03  0.88493480314E+02 -0.19204592651E+04  0.19321132142E+04  0.25500000920E-02 0.  1.
       -2    1    3    3    0  502  0.19252684896E+03 -0.88493480314E+02  0.29322690425E+03  0.36177299652E+03  0.25500000920E-02 0. -1.
</event>
<event>
 5   0  0.1339162E-03  0.1630313E+04  0.7818609E-02  0.8802139E-01
       -2   -1    0    0    0  501  0.00000000000E+00  0.00000000000E+00  0.41430475573E+03  0.41430475574E+03  0.25500000920E-02 0. -1.
        2   -1    0    0  501    0  0.00000000000E+00  0.00000000000E+00 -0.16038434138E+04  0.16038434138E+04  0.25500000920E-02 0.  1.
    10030    2    1    2    0    0  0.00000000000E+00  0.00000000000E+00 -0.11895386581E+04  0.20181481696E+04  0.16303127968E+04 0.  0.
        5    1    3    3  502    0  0.65680145796E+02 -0.14602466509E+03  0.39463003773E+03  0.42590144522E+03  0.46999998093E+01 0. -1.
       -5    1    3    3    0  502 -0.65680145796E+02  0.14602466509E+03 -0.15841686958E+04  0.15922467244E+04  0.46999998093E+01 0.  1.
</event>
<event>
 5   0  0.7633213E-04  0.1591569E+04  0.7818609E-02  0.8825744E-01
       -1   -1    0    0    0  501  0.00000000000E+00  0.00000000000E+00  0.51343922522E+03  0.51343922525E+03  0.50400001928E-02 0.  1.
        1   -1    0    0  501    0  0.00000000000E+00  0.00000000000E+00 -0.12333947972E+04  0.12333947972E+04  0.50400001928E-02 0. -1.
    10030    2    1    2    0    0  0.00000000000E+00  0.00000000000E+00 -0.71995557195E+03  0.17468340224E+04  0.15915693753E+04 0.  0.
        1    1    3    3  502    0 -0.52081900180E+03 -0.59695901881E+03 -0.27739991527E+03  0.83938263968E+03  0.50400001928E-02 0. -1.
       -1    1    3    3    0  502  0.52081900180E+03  0.59695901881E+03 -0.44255565668E+03  0.90745138275E+03  0.50400001928E-02 0.  1.
</event>
<event>
 5   0  0.7633213E-04  0.1599679E+04  0.7818609E-02  0.8820745E-01
        1   -1    0    0  501    0  0.00000000000E+00  0.00000000000E+00  0.50421408428E+03  0.50421408431E+03  0.50400001928E-02 0.  1.
       -1   -1    0    0    0  501  0.00000000000E+00  0.00000000000E+00 -0.12687929284E+04  0.12687929284E+04  0.50400001928E-02 0. -1.
    10030    2    1    2    0    0  0.00000000000E+00  0.00000000000E+00 -0.76457884414E+03  0.17730070127E+04  0.15996790485E+04 0.  0.
        1    1    3    3  502    0  0.63556779172E+03  0.17290937904E+03  0.12063754030E+03  0.66962488558E+03  0.50400001928E-02 0.  1.
       -1    1    3    3    0  502 -0.63556779172E+03 -0.17290937904E+03 -0.88521638444E+03  0.11033821272E+04  0.50400001928E-02 0. -1.
</event>
<event>
 5   0  0.1339162E-03  0.1593325E+04  0.7818609E-02  0.8824659E-01
        2   -1    0    0  501    0  0.00000000000E+00  0.00000000000E+00  0.24853207677E+04  0.24853207677E+04  0.25500000920E-02 0. -1.
       -2   -1    0    0    0  501  0.00000000000E+00  0.00000000000E+00 -0.25536805638E+03  0.25536805639E+03  0.25500000920E-02 0.  1.
    10030    2    1    2    0    0  0.00000000000E+00  0.00000000000E+00  0.22299527113E+04  0.27406888241E+04  0.15933254959E+04 0.  0.
        5    1    3    3  502    0  0.38993179580E+02  0.84840336082E+01  0.24835766525E+04  0.24839016740E+04  0.46999998093E+01 0. -1.
       -5    1    3    3    0  502 -0.38993179580E+02 -0.84840336082E+01 -0.25362394125E+03  0.25678715010E+03  0.46999998093E+01 0.  1.
</event>
<event>
 5   0  0.7601145E-04  0.1610046E+04  0.7818609E-02  0.8814400E-01
       -1   -1    0    0    0  501  0.00000000000E+00  0.00000000000E+00  0.25917784989E+03  0.25917784994E+03  0.50400001928E-02 0.  1.
        1   -1    0    0  501    0  0.00000000000E+00  0.00000000000E+00 -0.25004537696E+04  0.25004537696E+04  0.50400001928E-02 0. -1.
    10030    2    1    2    0    0  0.00000000000E+00  0.00000000000E+00 -0.22412759197E+04  0.27596316196E+04  0.16100462500E+04 0.  0.
        4    1    3    3  502    0 -0.34702618000E+03  0.48724268102E+03 -0.19725378019E+03  0.62987559606E+03  0.12699999809E+01 0.  1.
       -4    1    3    3    0  502  0.34702618000E+03 -0.48724268102E+03 -0.20440221395E+04  0.21297560235E+04  0.12699999809E+01 0. -1.
</event>
<event>
 5   0  0.7633213E-04  0.1605165E+04  0.7818609E-02  0.8817381E-01
        1   -1    0    0  501    0  0.00000000000E+00  0.00000000000E+00  0.15881202987E+04  0.15881202987E+04  0.50400001928E-02 0.  1.
       -1   -1    0    0    0  501  0.00000000000E+00  0.00000000000E+00 -0.40559839200E+03  0.40559839203E+03  0.50400001928E-02 0. -1.
    10030    2    1    2    0    0  0.00000000000E+00  0.00000000000E+00  0.11825219067E+04  0.19937186907E+04  0.16051654612E+04 0.  0.
        1    1    3    3  502    0  0.23951731189E+03  0.91627783737E+02 -0.35334085449E+03  0.43659357866E+03  0.50400001928E-02 0. -1.
       -1    1    3    3    0  502 -0.23951731189E+03 -0.91627783737E+02  0.15358627612E+04  0.15571251121E+04  0.50400001928E-02 0.  1.
</event>
<event>
 5   0  0.1339162E-03  0.1325455E+04  0.7818609E-02  0.9009619E-01
       -2   -1    0    0    0  501  0.00000000000E+00  0.00000000000E+00  0.50223679992E+03  0.50223679992E+03  0.25500000920E-02 0.  1.
        2   -1    0    0  501    0  0.00000000000E+00  0.00000000000E+00 -0.87450316686E+03  0.87450316686E+03  0.25500000920E-02 0. -1.
    10030    2    1    2    0    0  0.00000000000E+00  0.00000000000E+00 -0.37226636694E+03  0.13767399668E+04  0.13254548986E+04 0.  0.
        5    1    3    3  502    0 -0.50780002192E+03 -0.28746707341E+03  0.14016737911E+03  0.60013928777E+03  0.46999998093E+01 0.  1.
       -5    1    3    3    0  502  0.50780002192E+03  0.28746707341E+03 -0.51243374605E+03  0.77660067902E+03  0.46999998093E+01 0. -1.
</event>
<event>
 5   0  0.7302027E-04  0.1513711E+04  0.7818609E-02  0.8875386E-01
        1   -1    0    0  501    0  0.00000000000E+00  0.00000000000E+00  0.42804909027E+03  0.42804909030E+03  0.50400001928E-02 0. -1.
       -1   -1    0    0    0  501  0.00000000000E+00  0.00000000000E+00 -0.13382350233E+04  0.13382350233E+04  0.50400001928E-02 0.  1.
    10030    2    1    2    0    0  0.00000000000E+00  0.00000000000E+00 -0.91018593301E+03  0.17662841136E+04  0.15137110481E+04 0.  0.
        5    1    3    3  502    0 -0.30759917914E+03  0.54041214608E+03  0.48342757346E+02  0.62371600495E+03  0.46999998093E+01 0. -1.
       -5    1    3    3    0  502  0.30759917914E+03 -0.54041214608E+03 -0.95852869035E+03  0.11425681086E+04  0.46999998093E+01 0.  1.
</event>
<event>
 5   0  0.1354766E-03  0.9176787E+03  0.7818609E-02  0.9403748E-01
       -2   -1    0    0    0  501  0.00000000000E+00  0.00000000000E+00  0.70031809146E+03  0.70031809146E+03  0.25500000920E-02 0.  1.
        2   -1    0    0  501    0  0.00000000000E+00  0.00000000000E+00 -0.30062560767E+03  0.30062560768E+03  0.25500000920E-02 0. -1.
    10030    2    1    2    0    0  0.00000000000E+00  0.00000000000E+00  0.39969248379E+03  0.10009436991E+04  0.91767870590E+03 0.  0.
        3    1    3    3  502    0 -0.51552734051E+01  0.13396353414E+03  0.67847949136E+03  0.69159759667E+03  0.10100000352E+00 0.  1.
       -3    1    3    3    0  502  0.51552734051E+01 -0.13396353414E+03 -0.27878700757E+03  0.30934610247E+03  0.10100000352E+00 0. -1.
</event>
<event>
 5   0  0.7124495E-04  0.1612951E+04  0.7818609E-02  0.8812631E-01
       -1   -1    0    0    0  501  0.00000000000E+00  0.00000000000E+00  0.58246953072E+03  0.58246953074E+03  0.50400001928E-02 0. -1.
        1   -1    0    0  501    0  0.00000000000E+00  0.00000000000E+00 -0.11166295075E+04  0.11166295076E+04  0.50400001928E-02 0.  1.
    10030    2    1    2    0    0  0.00000000000E+00  0.00000000000E+00 -0.53415997683E+03  0.16990990383E+04  0.16129509171E+04 0.  0.
        2    1    3    3  502    0 -0.21184629875E+02 -0.25692575696E+03 -0.10720557110E+04  0.11026164703E+04  0.25500000920E-02 0.  1.
       -2    1    3    3    0  502  0.21184629875E+02  0.25692575696E+03  0.53789573414E+03  0.59648256801E+03  0.25500000920E-02 0. -1.
</event>
<event>
 5   0  0.7601145E-04  0.1619226E+04  0.7818609E-02  0.8808823E-01
       -1   -1    0    0    0  501  0.00000000000E+00  0.00000000000E+00  0.35015295790E+03  0.35015295794E+03  0.50400001928E-02 0.  1.
        1   -1    0    0  501    0  0.00000000000E+00  0.00000000000E+00 -0.18719621999E+04  0.18719621999E+04  0.50400001928E-02 0. -1.
    10030    2    1    2    0    0  0.00000000000E+00  0.00000000000E+00 -0.15218092420E+04  0.22221151579E+04  0.16192258662E+04 0.  0.
        4    1    3    3  502    0  0.25249406097E+03  0.17113478281E+02  0.29447596974E+03  0.38828318483E+03  0.12699999809E+01 0.  1.
       -4    1    3    3    0  502 -0.25249406097E+03 -0.17113478281E+02 -0.18162852118E+04  0.18338319730E+04  0.12699999809E+01 0. -1.
</event>
<event>
 5   0  0.7633213E-04  0.1090797E+04  0.7818609E-02  0.9214209E-01
       -1   -1    0    0    0  501  0.00000000000E+00  0.00000000000E+00  0.47540622392E+03  0.47540622395E+03  0.50400001928E-02 0.  1.
        1   -1    0    0  501    0  0.00000000000E+00  0.00000000000E+00 -0.62569494871E+03  0.62569494874E+03  0.50400001928E-02 0. -1.
    10030    2    1    2    0    0  0.00000000000E+00  0.00000000000E+00 -0.15028872479E+03  0.11011011727E+04  0.10907965400E+04 0.  0.
        1    1    3    3  502    0 -0.37391116782E+03  0.37932282816E+03 -0.19357233190E+03  0.56671475813E+03  0.50400001928E-02 0.  1.
       -1    1    3    3    0  502  0.37391116782E+03 -0.37932282816E+03  0.43283607107E+02  0.53438641455E+03  0.50400001928E-02 0. -1.
</event>
<event>
 5   0  0.7601145E-04  0.1652831E+04  0.7818609E-02  0.8788733E-01
        1   -1    0    0  501    0  0.00000000000E+00  0.00000000000E+00  0.13996809527E+04  0.13996809527E+04  0.50400001928E-02 0. -1.
       -1   -1    0    0    0  501  0.00000000000E+00  0.00000000000E+00 -0.48794188147E+03  0.48794188149E+03  0.50400001928E-02 0.  1.
    10030    2    1    2    0    0  0.00000000000E+00  0.00000000000E+00  0.91173907127E+03  0.18876228342E+04  0.16528314585E+04 0.  0.
        4    1    3    3  502    0  0.59498216238E+03 -0.56064379131E+03  0.31770407469E+03  0.87707623743E+03  0.12699999809E+01 0.  1.
       -4    1    3    3    0  502 -0.59498216238E+03  0.56064379131E+03  0.59403499658E+03  0.10105465968E+04  0.12699999809E+01 0. -1.
</event>
<event>
 5   0  0.1414751E-03  0.1542370E+04  0.7818609E-02  0.8856756E-01
        2   -1    0    0  501    0  0.00000000000E+00  0.00000000000E+00  0.11837045539E+04  0.11837045539E+04  0.25500000920E-02 0.  1.
       -2   -1    0    0    0  501  0.00000000000E+00  0.00000000000E+00 -0.50242826057E+03  0.50242826058E+03  0.25500000920E-02 0. -1.
    10030    2    1    2    0    0  0.00000000000E+00  0.00000000000E+00  0.68127629329E+03  0.16861328144E+04  0.15423704095E+04 0.  0.
        2    1    3    3  502    0  0.24970587114E+02 -0.18487796087E+03  0.11586645818E+04  0.11735872373E+04  0.25500000920E-02 0.  1.
       -2    1    3    3    0  502 -0.24970587114E+02  0.18487796087E+03 -0.47738828847E+03  0.51254557710E+03  0.25500000920E-02 0. -1.
</event>
<event>
 5   0  0.1375777E-03  0.1608687E+04  0.7818609E-02  0.8815229E-01
       -2   -1    0    0    0  501  0.00000000000E+00  0.00000000000E+00  0.34149645663E+03  0.34149645664E+03  0.25500000920E-02 0. -1.
        2   -1    0    0  501    0  0.00000000000E+00  0.00000000000E+00 -0.18945106532E+04  0.18945106532E+04  0.25500000920E-02 0.  1.
    10030    2    1    2    0    0  0.00000000000E+00  0.00000000000E+00 -0.15530141966E+04  0.22360071099E+04  0.16086872600E+04 0.  0.
        1    1    3    3  502    0  0.27185026452E+03 -0.56731972174E+02 -0.18257617819E+04  0.18467612643E+04  0.50400001928E-02 0.  1.
       -1    1    3    3    0  502 -0.27185026452E+03  0.56731972174E+02  0.27274758531E+03  0.38924584558E+03  0.50400001928E-02 0. -1.
</event>
<event>
 5   0  0.1354766E-03  0.1600156E+04  0.7818609E-02  0.8820452E-01
        2   -1    0    0  501    0  0.00000000000E+00  0.00000000000E+00  0.82995002318E+03  0.82995002318E+03  0.25500000920E-02 0.  1.
       -2   -1    0    0    0  501  0.00000000000E+00  0.00000000000E+00 -0.77128147591E+03  0.77128147591E+03  0.25500000920E-02 0. -1.
    10030    2    1    2    0    0  0.00000000000E+00  0.00000000000E+00  0.58668547273E+02  0.16012314991E+04  0.16001563409E+04 0.  0.
        3    1    3    3  502    0  0.19196383934E+03 -0.66182635379E+03  0.43613027320E+03  0.81552060893E+03  0.10100000352E+00 0.  1.
       -3    1    3    3    0  502 -0.19196383934E+03  0.66182635379E+03 -0.37746172593E+03  0.78571089017E+03  0.10100000352E+00 0. -1.
</event>
<event>
 5   0  0.1375777E-03  0.1541470E+04  0.7818609E-02  0.8857334E-01
        2   -1    0    0  501    0  0.00000000000E+00  0.00000000000E+00  0.21285006466E+04  0.21285006466E+04  0.25500000920E-02 0.  1.
       -2   -1    0    0    0  501  0.00000000000E+00  0.00000000000E+00 -0.27908504335E+03  0.27908504336E+03  0.25500000920E-02 0. -1.
    10030    2    1    2    0    0  0.00000000000E+00  0.00000000000E+00  0.18494156033E+04  0.24075856900E+04  0.15414703309E+04 0.  0.
        1    1    3    3  502    0 -0.19367562408E+03  0.22727925161E+03  0.20344827039E+04  0.20562796449E+04  0.50400001928E-02 0.  1.
       -1    1    3    3    0  502  0.19367562408E+03 -0.22727925161E+03 -0.18506710060E+03  0.35130604510E+03  0.50400001928E-02 0. -1.
</event>
<event>
 5   0  0.1414796E-03  0.1581385E+04  0.7818609E-02  0.8832066E-01
       -2   -1    0    0    0  501  0.00000000000E+00  0.00000000000E+00  0.23282939238E+03  0.23282939240E+03  0.25500000920E-02 0.  1.
        2   -1    0    0  501    0  0.00000000000E+00  0.00000000000E+00 -0.26852045463E+04  0.26852045463E+04  0.25500000920E-02 0. -1.
    10030    2    1    2    0    0  0.00000000000E+00  0.00000000000E+00 -0.24523751539E+04  0.29180339387E+04  0.15813848905E+04 0.  0.
        4    1    3    3  502    0  0.24946622802E+03 -0.45991467757E+03 -0.13228882765E+03  0.53968218090E+03  0.12699999809E+01 0.  1.
       -4    1    3    3    0  502 -0.24946622802E+03  0.45991467757E+03 -0.23200863262E+04  0.23783517578E+04  0.12699999809E+01 0. -1.
</event>
<event>
 5   0  0.7499834E-04  0.1569859E+04  0.7818609E-02  0.8839282E-01
        1   -1    0    0  501    0  0.00000000000E+00  0.00000000000E+00  0.58896872970E+03  0.58896872972E+03  0.50400001928E-02 0. -1.
       -1   -1    0    0    0  501  0.00000000000E+00  0.00000000000E+00 -0.10460901134E+04  0.10460901135E+04  0.50400001928E-02 0.  1.
    10030    2    1    2    0    0  0.00000000000E+00  0.00000000000E+00 -0.45712138375E+03  0.16350588432E+04  0.15698590577E+04 0.  0.
        3    1    3    3  502    0  0.56325319804E+03 -0.54636955984E+03 -0.24777954660E+03  0.82290253064E+03  0.10100000352E+00 0. -1.
       -3    1    3    3    0  502 -0.56325319804E+03  0.54636955984E+03 -0.20934183714E+03  0.81215631254E+03  0.10100000352E+00 0.  1.
</event>
<event>
 5   0  0.7633213E-04  0.1604672E+04  0.7818609E-02  0.8817683E-01
        1   -1    0    0  501    0  0.00000000000E+00  0.00000000000E+00  0.83589731785E+03  0.83589731786E+03  0.50400001928E-02 0.  1.
       -1   -1    0    0    0  501  0.00000000000E+00  0.00000000000E+00 -0.77012202600E+03  0.77012202601E+03  0.50400001928E-02 0. -1.
    10030    2    1    2    0    0  0.00000000000E+00  0.00000000000E+00  0.65775291852E+02  0.16060193439E+04  0.16046718493E+04 0.  0.
        1    1    3    3  502    0 -0.46415475876E+03 -0.62591428910E+03 -0.15841311959E+03  0.79517485741E+03  0.50400001928E-02 0. -1.
       -1    1    3    3    0  502  0.46415475876E+03  0.62591428910E+03  0.22418841144E+03  0.81084448646E+03  0.50400001928E-02 0.  1.
</event>
<event>
 5   0  0.5095750E-04  0.1587618E+04  0.7818609E-02  0.8828191E-01
        3   -1    0    0  501    0  0.00000000000E+00  0.00000000000E+00  0.51923165071E+03  0.51923166053E+03  0.10100000352E+00 0. -1.
       -3   -1    0    0    0  501  0.00000000000E+00  0.00000000000E+00 -0.12135869980E+04  0.12135870022E+04  0.10100000352E+00 0.  1.
    10030    2    1    2    0    0  0.00000000000E+00  0.00000000000E+00 -0.69435534728E+03  0.17328186627E+04  0.15876180805E+04 0.  0.
        4    1    3    3  502    0  0.63932136044E+03  0.37355309432E+03 -0.34903389425E+02  0.74127833887E+03  0.12699999809E+01 0. -1.
       -4    1    3    3    0  502 -0.63932136044E+03 -0.37355309432E+03 -0.65945195785E+03  0.99154032384E+03  0.12699999809E+01 0.  1.
</event>
<event>
 5   0  0.7633213E-04  0.1645700E+04  0.7818609E-02  0.8792954E-01
       -1   -1    0    0    0  501  0.00000000000E+00  0.00000000000E+00  0.80793888754E+03  0.80793888755E+03  0.50400001928E-02 0.  1.
        1   -1    0    0  501    0  0.00000000000E+00  0.00000000000E+00 -0.83803663006E+03  0.83803663007E+03  0.50400001928E-02 0. -1.
    10030    2    1    2    0    0  0.00000000000E+00  0.00000000000E+00 -0.30097742519E+02  0.16459755176E+04  0.16457003161E+04 0.  0.
        1    1    3    3  502    0 -0.42372063925E+03 -0.73298853242E+02  0.68661707514E+03  0.81015733651E+03  0.50400001928E-02 0.  1.
       -1    1    3    3    0  502  0.42372063925E+03  0.73298853242E+02 -0.71671481765E+03  0.83581818111E+03  0.50400001928E-02 0. -1.
</event>
<event>
 5   0  0.7601145E-04  0.1586688E+04  0.7818609E-02  0.8828768E-01
        1   -1    0    0  501    0  0.00000000000E+00  0.00000000000E+00  0.99393589676E+03  0.99393589677E+03  0.50400001928E-02 0. -1.
       -1   -1    0    0    0  501  0.00000000000E+00  0.00000000000E+00 -0.63323482420E+03  0.63323482422E+03  0.50400001928E-02 0.  1.
    10030    2    1    2    0    0  0.00000000000E+00  0.00000000000E+00  0.36070107256E+03  0.16271707210E+04  0.15866881519E+04 0.  0.
        4    1    3    3  502    0 -0.42341340084E+03 -0.53619591590E+03  0.59388605687E+03  0.90525533949E+03  0.12699999809E+01 0. -1.
       -4    1    3    3    0  502  0.42341340084E+03  0.53619591590E+03 -0.23318498431E+03  0.72191538150E+03  0.12699999809E+01 0.  1.
</event>
<event>
 5   0  0.7499834E-04  0.1524713E+04  0.7818609E-02  0.8868183E-01
        1   -1    0    0  501    0  0.00000000000E+00  0.00000000000E+00  0.46906001419E+03  0.46906001422E+03  0.50400001928E-02 0.  1.
       -1   -1    0    0    0  501  0.00000000000E+00  0.00000000000E+00 -0.12390470956E+04  0.12390470956E+04  0.50400001928E-02 0. -1.
    10030    2    1    2    0    0  0.00000000000E+00  0.00000000000E+00 -0.76998708144E+03  0.17081071099E+04  0.15247130199E+04 0.  0.
        3    1    3    3  502    0 -0.76073062892E+03  0.48845803225E+02 -0.39564716170E+03  0.85885603510E+03  0.10100000352E+00 0.  1.
       -3    1    3    3    0  502  0.76073062892E+03 -0.48845803225E+02 -0.37433991975E+03  0.84925107476E+03  0.10100000352E+00 0. -1.
</event>
<event>
 5   0  0.1414796E-03  0.1547966E+04  0.7818609E-02  0.8853168E-01
        2   -1    0    0  501    0  0.00000000000E+00  0.00000000000E+00  0.11490013642E+04  0.11490013642E+04  0.25500000920E-02 0. -1.
       -2   -1    0    0    0  501  0.00000000000E+00  0.00000000000E+00 -0.52136561255E+03  0.52136561256E+03  0.25500000920E-02 0.  1.
    10030    2    1    2    0    0  0.00000000000E+00  0.00000000000E+00  0.62763575167E+03  0.16703669768E+04  0.15479661496E+04 0.  0.
        4    1    3    3  502    0 -0.73174371049E+03  0.16637756720E+03  0.51832361876E+03  0.91202595323E+03  0.12699999809E+01 0. -1.
       -4    1    3    3    0  502  0.73174371049E+03 -0.16637756720E+03  0.10931213291E+03  0.75834102356E+03  0.12699999809E+01 0.  1.
</event>
<event>
 5   0  0.7124495E-04  0.1652885E+04  0.7818609E-02  0.8788702E-01
        1   -1    0    0  501    0  0.00000000000E+00  0.00000000000E+00  0.11851750251E+04  0.11851750251E+04  0.50400001928E-02 0.  1.
       -1   -1    0    0    0  501  0.00000000000E+00  0.00000000000E+00 -0.57629212614E+03  0.57629212616E+03  0.50400001928E-02 0. -1.
    10030    2    1    2    0    0  0.00000000000E+00  0.00000000000E+00  0.60888289894E+03  0.17614671513E+04  0.16528847934E+04 0.  0.
        2    1    3    3  502    0  0.24173469694E+03 -0.69939548798E+03 -0.87723771848E+02  0.74517459194E+03  0.25500000920E-02 0. -1.
       -2    1    3    3    0  502 -0.24173469694E+03  0.69939548798E+03  0.69660667079E+03  0.10162925593E+04  0.25500000920E-02 0.  1.
</event>
<event>
 5   0  0.7499834E-04  0.1624347E+04  0.7818609E-02  0.8805729E-01
       -1   -1    0    0    0  501  0.00000000000E+00  0.00000000000E+00  0.29319754970E+03  0.29319754975E+03  0.50400001928E-02 0.  1.
        1   -1    0    0  501    0  0.00000000000E+00  0.00000000000E+00 -0.22497652768E+04  0.22497652768E+04  0.50400001928E-02 0. -1.
    10030    2    1    2    0    0  0.00000000000E+00  0.00000000000E+00 -0.19565677271E+04  0.25429628266E+04  0.16243468430E+04 0.  0.
        3    1    3    3  502    0  0.14141320409E+03 -0.36162720179E+03  0.13847066869E+03  0.41224514995E+03  0.10100000352E+00 0.  1.
       -3    1    3    3    0  502 -0.14141320409E+03  0.36162720179E+03 -0.20950383958E+04  0.21307176766E+04  0.10100000352E+00 0. -1.
</event>
<event>
 5   0  0.1339162E-03  0.1730945E+04  0.7818609E-02  0.8743910E-01
        2   -1    0    0  501    0  0.00000000000E+00  0.00000000000E+00  0.20953594516E+04  0.20953594516E+04  0.25500000920E-02 0.  1.
       -2   -1    0    0    0  501  0.00000000000E+00  0.00000000000E+00 -0.35747681990E+03  0.35747681990E+03  0.25500000920E-02 0. -1.
    10030    2    1    2    0    0  0.00000000000E+00  0.00000000000E+00  0.17378826317E+04  0.24528362715E+04  0.17309447517E+04 0.  0.
        5    1    3    3  502    0  0.99613031657E+02  0.53202869391E+03  0.18258891793E+04  0.19044344757E+04  0.46999998093E+01 0.  1.
       -5    1    3    3    0  502 -0.99613031657E+02 -0.53202869391E+03 -0.88006547585E+02  0.54840179580E+03  0.46999998093E+01 0. -1.
</event>
<event>
 5   0  0.7124495E-04  0.1605917E+04  0.7818609E-02  0.8816921E-01
        1   -1    0    0  501    0  0.00000000000E+00  0.00000000000E+00  0.43063680048E+03  0.43063680051E+03  0.50400001928E-02 0. -1.
       -1   -1    0    0    0  501  0.00000000000E+00  0.00000000000E+00 -0.14971833660E+04  0.14971833661E+04  0.50400001928E-02 0.  1.
    10030    2    1    2    0    0  0.00000000000E+00  0.00000000000E+00 -0.10665465656E+04  0.19278201666E+04  0.16059168777E+04 0.  0.
        2    1    3    3  502    0 -0.62612110058E+03 -0.22888835914E+03 -0.10705657496E+04  0.12611615827E+04  0.25500000920E-02 0.  1.
       -2    1    3    3    0  502  0.62612110058E+03  0.22888835914E+03  0.40191840321E+01  0.66665858383E+03  0.25500000920E-02 0. -1.
</event>
<event>
 5   0  0.7302027E-04  0.1594692E+04  0.7818609E-02  0.8823816E-01
        1   -1    0    0  501    0  0.00000000000E+00  0.00000000000E+00  0.29288215415E+04  0.29288215416E+04  0.50400001928E-02 0.  1.
       -1   -1    0    0    0  501  0.00000000000E+00  0.00000000000E+00 -0.21707039614E+03  0.21707039620E+03  0.50400001928E-02 0. -1.
    10030    2    1    2    0    0  0.00000000000E+00  0.00000000000E+00  0.27117511454E+04  0.31458919378E+04  0.15946917600E+04 0.  0.
        5    1    3    3  502    0  0.71398191552E+03  0.34958904888E+03  0.14767714655E+04  0.16771579324E+04  0.46999998093E+01 0.  1.
       -5    1    3    3    0  502 -0.71398191552E+03 -0.34958904888E+03  0.12349796799E+04  0.14687340054E+04  0.46999998093E+01 0. -1.
</event>
<event>
 5   0  0.7302027E-04  0.1463970E+04  0.7818609E-02  0.8908772E-01
        1   -1    0    0  501    0  0.00000000000E+00  0.00000000000E+00  0.10032244858E+04  0.10032244858E+04  0.50400001928E-02 0. -1.
       -1   -1    0    0    0  501  0.00000000000E+00  0.00000000000E+00 -0.53408016406E+03  0.53408016409E+03  0.50400001928E-02 0.  1.
    10030    2    1    2    0    0  0.00000000000E+00  0.00000000000E+00  0.46914432177E+03  0.15373046499E+04  0.14639703522E+04 0.  0.
        5    1    3    3  502    0  0.38696540841E+03 -0.53485620798E+03  0.56658554577E+03  0.86997394282E+03  0.46999998093E+01 0.  1.
       -5    1    3    3    0  502 -0.38696540841E+03  0.53485620798E+03 -0.97441224001E+02  0.66733070711E+03  0.46999998093E+01 0. -1.
</event>
<event>
 5   0  0.1414751E-03  0.1317050E+04  0.7818609E-02  0.9016153E-01
       -2   -1    0    0    0  501  0.00000000000E+00  0.00000000000E+00  0.47799656151E+03  0.47799656151E+03  0.25500000920E-02 0.  1.
        2   -1    0    0  501    0  0.00000000000E+00  0.00000000000E+00 -0.90723457054E+03  0.90723457054E+03  0.25500000920E-02 0. -1.
    10030    2    1    2    0    0  0.00000000000E+00  0.00000000000E+00 -0.42923800903E+03  0.13852311321E+04  0.13170497412E+04 0.  0.
        2    1    3    3  502    0 -0.59248209902E+03 -0.10847039082E+03 -0.49458332520E+03  0.77936739020E+03  0.25500000920E-02 0. -1.
       -2    1    3    3    0  502  0.59248209902E+03  0.10847039082E+03  0.65345316167E+02  0.60586374185E+03  0.25500000920E-02 0.  1.
</event>
<event>
 5   0  0.1414751E-03  0.1325551E+04  0.7818609E-02  0.9009545E-01
       -2   -1    0    0    0  501  0.00000000000E+00  0.00000000000E+00  0.22818906018E+03  0.22818906020E+03  0.25500000920E-02 0. -1.
        2   -1    0    0  501    0  0.00000000000E+00  0.00000000000E+00 -0.19250323025E+04  0.19250323025E+04  0.25500000920E-02 0.  1.
    10030    2    1    2    0    0  0.00000000000E+00  0.00000000000E+00 -0.16968432423E+04  0.21532213627E+04  0.13255509223E+04 0.  0.
        2    1    3    3  502    0  0.22865553654E+03  0.45409643971E+03 -0.15774824238E+03  0.53232644020E+03  0.25500000920E-02 0. -1.
       -2    1    3    3    0  502 -0.22865553654E+03 -0.45409643971E+03 -0.15390949999E+04  0.16208949225E+04  0.25500000920E-02 0.  1.
</event>
<event>
 5   0  0.1339162E-03  0.1600175E+04  0.7818609E-02  0.8820440E-01
       -2   -1    0    0    0  501  0.00000000000E+00  0.00000000000E+00  0.76896872393E+03  0.76896872393E+03  0.25500000920E-02 0. -1.
        2   -1    0    0  501    0  0.00000000000E+00  0.00000000000E+00 -0.83246568026E+03  0.83246568026E+03  0.25500000920E-02 0.  1.
    10030    2    1    2    0    0  0.00000000000E+00  0.00000000000E+00 -0.63496956327E+02  0.16014344042E+04  0.16001750803E+04 0.  0.
        5    1    3    3  502    0 -0.38091235007E+03 -0.12619956991E+03 -0.72446185308E+03  0.82818332297E+03  0.46999998093E+01 0.  1.
       -5    1    3    3    0  502  0.38091235007E+03  0.12619956991E+03  0.66096489675E+03  0.77325108122E+03  0.46999998093E+01 0. -1.
</event>
<event>
 5   0  0.1414796E-03  0.1608162E+04  0.7818609E-02  0.8815549E-01
        2   -1    0    0  501    0  0.00000000000E+00  0.00000000000E+00  0.50149732822E+03  0.50149732823E+03  0.25500000920E-02 0. -1.
       -2   -1    0    0    0  501  0.00000000000E+00  0.00000000000E+00 -0.12892316843E+04  0.12892316843E+04  0.25500000920E-02 0.  1.
    10030    2    1    2    0    0  0.00000000000E+00  0.00000000000E+00 -0.78773435603E+03  0.17907290125E+04  0.16081619883E+04 0.  0.
        4    1    3    3  502    0 -0.57973862482E+03  0.44071846324E+03 -0.14262844409E+02  0.72837811512E+03  0.12699999809E+01 0. -1.
       -4    1    3    3    0  502  0.57973862482E+03 -0.44071846324E+03 -0.77347151162E+03  0.10623508974E+04  0.12699999809E+01 0.  1.
</event>
<event>
 5   0  0.7633213E-04  0.1931247E+04  0.7818609E-02  0.8639457E-01
       -1   -1    0    0    0  501  0.00000000000E+00  0.00000000000E+00  0.57470657535E+03  0.57470657537E+03  0.50400001928E-02 0. -1.
        1   -1    0    0  501    0  0.00000000000E+00  0.00000000000E+00 -0.16224431716E+04  0.16224431716E+04  0.50400001928E-02 0.  1.
    10030    2    1    2    0    0  0.00000000000E+00  0.00000000000E+00 -0.10477365962E+04  0.21971497469E+04  0.19312470156E+04 0.  0.
        1    1    3    3  502    0  0.16859377078E+03  0.48626206776E+02  0.55641711283E+03  0.58342811983E+03  0.50400001928E-02 0. -1.
       -1    1    3    3    0  502 -0.16859377078E+03 -0.48626206776E+02 -0.16041537090E+04  0.16137216271E+04  0.50400001928E-02 0.  1.
</event>
<event>
 5   0  0.1414796E-03  0.1630575E+04  0.7818609E-02  0.8801982E-01
        2   -1    0    0  501    0  0.00000000000E+00  0.00000000000E+00  0.16266446463E+04  0.16266446463E+04  0.25500000920E-02 0. -1.
       -2   -1    0    0    0  501  0.00000000000E+00  0.00000000000E+00 -0.40862878346E+03  0.40862878347E+03  0.25500000920E-02 0.  1.
    10030    2    1    2    0    0  0.00000000000E+00  0.00000000000E+00  0.12180158629E+04  0.20352734298E+04  0.16305751414E+04 0.  0.
        4    1    3    3  502    0  0.14774369141E+03 -0.43401118905E+03 -0.23248035937E+03  0.51404536859E+03  0.12699999809E+01 0.  1.
       -4    1    3    3    0  502 -0.14774369141E+03  0.43401118905E+03  0.14504962222E+04  0.15212280612E+04  0.12699999809E+01 0. -1.
</event>
<event>
 5   0  0.7601145E-04  0.1585275E+04  0.7818609E-02  0.8829646E-01
       -1   -1    0    0    0  501  0.00000000000E+00  0.00000000000E+00  0.11680798384E+04  0.11680798384E+04  0.50400001928E-02 0.  1.
        1   -1    0    0  501    0  0.00000000000E+00  0.00000000000E+00 -0.53786889423E+03  0.53786889425E+03  0.50400001928E-02 0. -1.
    10030    2    1    2    0    0  0.00000000000E+00  0.00000000000E+00  0.63021094413E+03  0.17059487326E+04  0.15852745012E+04 0.  0.
        4    1    3    3  502    0  0.75736270897E+03  0.40672458223E+02  0.56289333927E+03  0.94451206774E+03  0.12699999809E+01 0.  1.
       -4    1    3    3    0  502 -0.75736270897E+03 -0.40672458223E+02  0.67317604858E+02  0.76143666488E+03  0.12699999809E+01 0. -1.
</event>
<event>
 5   0  0.1375777E-03  0.1581644E+04  0.7818609E-02  0.8831905E-01
       -2   -1    0    0    0  501  0.00000000000E+00  0.00000000000E+00  0.41810582063E+03  0.41810582064E+03  0.25500000920E-02 0. -1.
        2   -1    0    0  501    0  0.00000000000E+00  0.00000000000E+00 -0.14957922876E+04  0.14957922876E+04  0.25500000920E-02 0.  1.
    10030    2    1    2    0    0  0.00000000000E+00  0.00000000000E+00 -0.10776864670E+04  0.19138981083E+04  0.15816440332E+04 0.  0.
        1    1    3    3  502    0  0.72323371006E+03 -0.15830222617E+03 -0.87521813285E+03  0.11463565651E+04  0.50400001928E-02 0.  1.
       -1    1    3    3    0  502 -0.72323371006E+03  0.15830222617E+03 -0.20246833415E+03  0.76754154320E+03  0.50400001928E-02 0. -1.
</event>
<event>
 5   0  0.7499834E-04  0.1845591E+04  0.7818609E-02  0.8682424E-01
        1   -1    0    0  501    0  0.00000000000E+00  0.00000000000E+00  0.79899498578E+03  0.79899498580E+03  0.50400001928E-02 0.  1.
       -1   -1    0    0    0  501  0.00000000000E+00  0.00000000000E+00 -0.10657780087E+04  0.10657780087E+04  0.50400001928E-02 0. -1.
    10030    2    1    2    0    0  0.00000000000E+00  0.00000000000E+00 -0.26678302294E+03  0.18647729945E+04  0.18455907292E+04 0.  0.
        3    1    3    3  502    0  0.41886751405E+02 -0.88987511403E+03 -0.37655664845E+03  0.96717482298E+03  0.10100000352E+00 0. -1.
       -3    1    3    3    0  502 -0.41886751405E+02  0.88987511403E+03  0.10977362552E+03  0.89759817155E+03  0.10100000352E+00 0.  1.
</event>
<event>
 5   0  0.1354766E-03  0.1612777E+04  0.7818609E-02  0.8812737E-01
        2   -1    0    0  501    0  0.00000000000E+00  0.00000000000E+00  0.14839011162E+04  0.14839011162E+04  0.25500000920E-02 0.  1.
       -2   -1    0    0    0  501  0.00000000000E+00  0.00000000000E+00 -0.43821118447E+03  0.43821118448E+03  0.25500000920E-02 0. -1.
    10030    2    1    2    0    0  0.00000000000E+00  0.00000000000E+00  0.10456899317E+04  0.19221123007E+04  0.16127765695E+04 0.  0.
        3    1    3    3  502    0 -0.28117688199E+03  0.69652512946E+03  0.87246071959E+03  0.11512581867E+04  0.10100000352E+00 0.  1.
       -3    1    3    3    0  502  0.28117688199E+03 -0.69652512946E+03  0.17322921212E+03  0.77085411399E+03  0.10100000352E+00 0. -1.
</event>
<event>
 5   0  0.7302027E-04  0.1640647E+04  0.7818609E-02  0.8795959E-01
       -1   -1    0    0    0  501  0.00000000000E+00  0.00000000000E+00  0.12257917388E+04  0.12257917388E+04  0.50400001928E-02 0. -1.
        1   -1    0    0  501    0  0.00000000000E+00  0.00000000000E+00 -0.54897640956E+03  0.54897640959E+03  0.50400001928E-02 0.  1.
    10030    2    1    2    0    0  0.00000000000E+00  0.00000000000E+00  0.67681532922E+03  0.17747681484E+04  0.16406471256E+04 0.  0.
        5    1    3    3  502    0 -0.37405268155E+03 -0.26733565456E+03 -0.39648516653E+03  0.60712958917E+03  0.46999998093E+01 0.  1.
       -5    1    3    3    0  502  0.37405268155E+03  0.26733565456E+03  0.10733004957E+04  0.11676385592E+04  0.46999998093E+01 0. -1.
</event>
<event>
 5   0  0.1375777E-03  0.9064203E+03  0.7818609E-02  0.9417591E-01
        2   -1    0    0  501    0  0.00000000000E+00  0.00000000000E+00  0.63967664947E+03  0.63967664947E+03  0.25500000920E-02 0. -1.
       -2   -1    0    0    0  501  0.00000000000E+00  0.00000000000E+00 -0.32109885466E+03  0.32109885467E+03  0.25500000920E-02 0.  1.
    10030    2    1    2    0    0  0.00000000000E+00  0.00000000000E+00  0.31857779481E+03  0.96077550414E+03  0.90642029877E+03 0.  0.
        1    1    3    3  502    0  0.20385438268E+02  0.17464304909E+03 -0.28347245334E+03  0.33357516772E+03  0.50400001928E-02 0.  1.
       -1    1    3    3    0  502 -0.20385438268E+02 -0.17464304909E+03  0.60205024815E+03  0.62720033642E+03  0.50400001928E-02 0. -1.
</event>
<event>
 5   0  0.1354766E-03  0.1617631E+04  0.7818609E-02  0.8809789E-01
       -2   -1    0    0    0  501  0.00000000000E+00  0.00000000000E+00  0.35866214713E+03  0.35866214714E+03  0.25500000920E-02 0. -1.
        2   -1    0    0  501    0  0.00000000000E+00  0.00000000000E+00 -0.18239516783E+04  0.18239516783E+04  0.25500000920E-02 0.  1.
    10030    2    1    2    0    0  0.00000000000E+00  0.00000000000E+00 -0.14652895312E+04  0.21826138255E+04  0.16176308914E+04 0.  0.
        3    1    3    3  502    0  0.24268148474E+03 -0.11333782035E+03 -0.17623763995E+04  0.17826133479E+04  0.10100000352E+00 0.  1.
       -3    1    3    3    0  502 -0.24268148474E+03  0.11333782035E+03  0.29708686826E+03  0.40000047757E+03  0.10100000352E+00 0. -1.
</event>
<event>
 5   0  0.5095750E-04  0.1599914E+04  0.7818609E-02  0.8820601E-01
        3   -1    0    0  501    0  0.00000000000E+00  0.00000000000E+00  0.14694662213E+04  0.14694662248E+04  0.10100000352E+00 0. -1.
       -3   -1    0    0    0  501  0.00000000000E+00  0.00000000000E+00 -0.43548549846E+03  0.43548551017E+03  0.10100000352E+00 0.  1.
    10030    2    1    2    0    0  0.00000000000E+00  0.00000000000E+00  0.10339807228E+04  0.19049517349E+04  0.15999140531E+04 0.  0.
        4    1    3    3  502    0  0.48570270359E+03  0.28710955166E+03 -0.15821986345E+03  0.58598135552E+03  0.12699999809E+01 0.  1.
       -4    1    3    3    0  502 -0.48570270359E+03 -0.28710955166E+03  0.11922005863E+04  0.13189703794E+04  0.12699999809E+01 0. -1.
</event>
<event>
 5   0  0.7601145E-04  0.1584426E+04  0.7818609E-02  0.8830173E-01
        1   -1    0    0  501    0  0.00000000000E+00  0.00000000000E+00  0.19204064058E+04  0.19204064058E+04  0.50400001928E-02 0. -1.
       -1   -1    0    0    0  501  0.00000000000E+00  0.00000000000E+00 -0.32680662748E+03  0.32680662752E+03  0.50400001928E-02 0.  1.
    10030    2    1    2    0    0  0.00000000000E+00  0.00000000000E+00  0.15935997784E+04  0.22472130334E+04  0.15844261307E+04 0.  0.
        4    1    3    3  502    0 -0.25508859159E+03  0.37430795265E+03 -0.12502022172E+03  0.46990243851E+03  0.12699999809E+01 0.  1.
       -4    1    3    3    0  502  0.25508859159E+03 -0.37430795265E+03  0.17186200001E+04  0.17773105949E+04  0.12699999809E+01 0. -1.
</event>
<event>
 5   0  0.7124495E-04  0.1558886E+04  0.7818609E-02  0.8846212E-01
        1   -1    0    0  501    0  0.00000000000E+00  0.00000000000E+00  0.71320360990E+03  0.71320360991E+03  0.50400001928E-02 0.  1.
       -1   -1    0    0    0  501  0.00000000000E+00  0.00000000000E+00 -0.85183408792E+03  0.85183408794E+03  0.50400001928E-02 0. -1.
    10030    2    1    2    0    0  0.00000000000E+00  0.00000000000E+00 -0.13863047803E+03  0.15650376979E+04  0.15588856874E+04 0.  0.
        2    1    3    3  502    0 -0.18711257413E+03  0.50307714264E+03 -0.63673010362E+03  0.83278025415E+03  0.25500000920E-02 0. -1.
       -2    1    3    3    0  502  0.18711257413E+03 -0.50307714264E+03  0.49809962559E+03  0.73225744370E+03  0.25500000920E-02 0.  1.
</event>
<event>
 5   0  0.1414796E-03  0.1578073E+04  0.7818609E-02  0.8834133E-01
       -2   -1    0    0    0  501  0.00000000000E+00  0.00000000000E+00  0.66011719788E+03  0.66011719788E+03  0.25500000920E-02 0. -1.
        2   -1    0    0  501    0  0.00000000000E+00  0.00000000000E+00 -0.94313364411E+03  0.94313364411E+03  0.25500000920E-02 0.  1.
    10030    2    1    2    0    0  0.00000000000E+00  0.00000000000E+00 -0.28301644623E+03  0.16032508420E+04  0.15780731775E+04 0.  0.
        4    1    3    3  502    0 -0.33012214762E+03 -0.71284719574E+03 -0.66538141744E+02  0.78839120621E+03  0.12699999809E+01 0.  1.
       -4    1    3    3    0  502  0.33012214762E+03  0.71284719574E+03 -0.21647830448E+03  0.81485963578E+03  0.12699999809E+01 0. -1.
</event>
<event>
 5   0  0.1375777E-03  0.1588546E+04  0.7818609E-02  0.8827616E-01
        2   -1    0    0  501    0  0.00000000000E+00  0.00000000000E+00  0.11911690712E+04  0.11911690712E+04  0.25500000920E-02 0. -1.
       -2   -1    0    0    0  501  0.00000000000E+00  0.00000000000E+00 -0.52962221941E+03  0.52962221941E+03  0.25500000920E-02 0.  1.
    10030    2    1    2    0    0  0.00000000000E+00  0.00000000000E+00  0.66154685176E+03  0.17207912906E+04  0.15885460109E+04 0.  0.
        1    1    3    3  502    0 -0.28285819683E+03 -0.37851326238E+03 -0.36080174512E+03  0.59452413628E+03  0.50400001928E-02 0.  1.
       -1    1    3    3    0  502  0.28285819683E+03  0.37851326238E+03  0.10223485969E+04  0.11262671543E+04  0.50400001928E-02 0. -1.
</event>
<event>
 5   0  0.7633213E-04  0.1547296E+04  0.7818609E-02  0.8853597E-01
       -1   -1    0    0    0  501  0.00000000000E+00  0.00000000000E+00  0.86960320814E+03  0.86960320815E+03  0.50400001928E-02 0. -1.
        1   -1    0    0  501    0  0.00000000000E+00  0.00000000000E+00 -0.68828111404E+03  0.68828111405E+03  0.50400001928E-02 0.  1.
    10030    2    1    2    0    0  0.00000000000E+00  0.00000000000E+00  0.18132209410E+03  0.15578843222E+04  0.15472963063E+04 0.  0.
        1    1    3    3  502    0  0.16799019917E+03 -0.63475698929E+03 -0.32127716518E+03  0.73099668902E+03  0.50400001928E-02 0.  1.
       -1    1    3    3    0  502 -0.16799019917E+03  0.63475698929E+03  0.50259925928E+03  0.82688763319E+03  0.50400001928E-02 0. -1.
</event>
<event>
 5   0  0.1339162E-03  0.1568862E+04  0.7818609E-02  0.8839909E-01
        2   -1    0    0  501    0  0.00000000000E+00  0.00000000000E+00  0.15524051761E+04  0.15524051761E+04  0.25500000920E-02 0. -1.
       -2   -1    0    0    0  501  0.00000000000E+00  0.00000000000E+00 -0.39637333662E+03  0.39637333663E+03  0.25500000920E-02 0.  1.
    10030    2    1    2    0    0  0.00000000000E+00  0.00000000000E+00  0.11560318394E+04  0.19487785127E+04  0.15688620327E+04 0.  0.
        5    1    3    3  502    0 -0.18235167811E+03  0.14588479018E+02  0.15255206177E+04  0.15364570295E+04  0.46999998093E+01 0. -1.
       -5    1    3    3    0  502  0.18235167811E+03 -0.14588479018E+02 -0.36948877831E+03  0.41232148322E+03  0.46999998093E+01 0.  1.
</event>
<event>
 5   0  0.7601145E-04  0.1592466E+04  0.7818609E-02  0.8825190E-01
       -1   -1    0    0    0  501  0.00000000000E+00  0.00000000000E+00  0.40573817669E+03  0.40573817672E+03  0.50400001928E-02 0.  1.
        1   -1    0    0  501    0  0.00000000000E+00  0.00000000000E+00 -0.15625527221E+04  0.15625527221E+04  0.50400001928E-02 0. -1.
    10030    2    1    2    0    0  0.00000000000E+00  0.00000000000E+00 -0.11568145454E+04  0.19682908988E+04  0.15924663795E+04 0.  0.
        4    1    3    3  502    0  0.72358707363E+03  0.28988286088E+03 -0.77913998656E+03  0.11021211629E+04  0.12699999809E+01 0. -1.
       -4    1    3    3    0  502 -0.72358707363E+03 -0.28988286088E+03 -0.37767455886E+03  0.86616973594E+03  0.12699999809E+01 0.  1.
</event>
<event>
 5   0  0.7302027E-04  0.1589175E+04  0.7818609E-02  0.8827226E-01
       -1   -1    0    0    0  501  0.00000000000E+00  0.00000000000E+00  0.58114604586E+03  0.58114604588E+03  0.50400001928E-02 0. -1.
        1   -1    0    0  501    0  0.00000000000E+00  0.00000000000E+00 -0.10864213976E+04  0.10864213976E+04  0.50400001928E-02 0.  1.
    10030    2    1    2    0    0  0.00000000000E+00  0.00000000000E+00 -0.50527535172E+03  0.16675674435E+04  0.15891752570E+04 0.  0.
        5    1    3    3  502    0 -0.10579610210E+03  0.37017721297E+03 -0.98199552461E+03  0.10547802068E+04  0.46999998093E+01 0.  1.
       -5    1    3    3    0  502  0.10579610210E+03 -0.37017721297E+03  0.47672017290E+03  0.61278723670E+03  0.46999998093E+01 0. -1.
</event>
<event>
 5   0  0.7124495E-04  0.1647310E+04  0.7818609E-02  0.8792000E-01
        1   -1    0    0  501    0  0.00000000000E+00  0.00000000000E+00  0.74177040642E+03  0.74177040644E+03  0.50400001928E-02 0.  1.
       -1   -1    0    0    0  501  0.00000000000E+00  0.00000000000E+00 -0.91457834243E+03  0.91457834245E+03  0.50400001928E-02 0. -1.
    10030    2    1    2    0    0  0.00000000000E+00  0.00000000000E+00 -0.17280793601E+03  0.16563487489E+04  0.16473095019E+04 0.  0.
        2    1    3    3  502    0  0.25553209359E+03 -0.72871625848E+03  0.20166965105E+03  0.79811946749E+03  0.25500000920E-02 0.  1.
       -2    1    3    3    0  502 -0.25553209359E+03  0.72871625848E+03 -0.37447758707E+03  0.85822928140E+03  0.25500000920E-02 0. -1.
</event>
<event>
 5   0  0.1414796E-03  0.1579986E+04  0.7818609E-02  0.8832939E-01
        2   -1    0    0  501    0  0.00000000000E+00  0.00000000000E+00  0.19994481669E+04  0.19994481669E+04  0.25500000920E-02 0. -1.
       -2   -1    0    0    0  501  0.00000000000E+00  0.00000000000E+00 -0.31213043388E+03  0.31213043389E+03  0.25500000920E-02 0.  1.
    10030    2    1    2    0    0  0.00000000000E+00  0.00000000000E+00  0.16873177330E+04  0.23115786008E+04  0.15799855998E+04 0.  0.
        4    1    3    3  502    0  0.75690383587E+03 -0.22145928235E+03  0.91132939219E+03  0.12051848424E+04  0.12699999809E+01 0. -1.
       -4    1    3    3    0  502 -0.75690383587E+03  0.22145928235E+03  0.77598834084E+03  0.11063937583E+04  0.12699999809E+01 0.  1.
</event>
<event>
 5   0  0.7633213E-04  0.1544333E+04  0.7818609E-02  0.8855496E-01
        1   -1    0    0  501    0  0.00000000000E+00  0.00000000000E+00  0.11142020311E+04  0.11142020311E+04  0.50400001928E-02 0.  1.
       -1   -1    0    0    0  501  0.00000000000E+00  0.00000000000E+00 -0.53512809201E+03  0.53512809203E+03  0.50400001928E-02 0. -1.
    10030    2    1    2    0    0  0.00000000000E+00  0.00000000000E+00  0.57907393909E+03  0.16493301231E+04  0.15443326158E+04 0.  0.
        1    1    3    3  502    0  0.70409391087E+03 -0.18531891682E+03  0.56421880085E+03  0.92110487541E+03  0.50400001928E-02 0.  1.
       -1    1    3    3    0  502 -0.70409391087E+03  0.18531891682E+03  0.14855138240E+02  0.72822524772E+03  0.50400001928E-02 0. -1.
</event>
<event>
 5   0  0.7499834E-04  0.1567963E+04  0.7818609E-02  0.8840475E-01
        1   -1    0    0  501    0  0.00000000000E+00  0.00000000000E+00  0.86745345276E+03  0.86745345278E+03  0.50400001928E-02 0.  1.
       -1   -1    0    0    0  501  0.00000000000E+00  0.00000000000E+00 -0.70854187255E+03  0.70854187257E+03  0.50400001928E-02 0. -1.
    10030    2    1    2    0    0  0.00000000000E+00  0.00000000000E+00  0.15891158021E+03  0.15759953253E+04  0.15679631294E+04 0.  0.
        3    1    3    3  502    0 -0.36139087552E+03 -0.50503043519E+03 -0.40150143539E+03  0.73950153360E+03  0.10100000352E+00 0. -1.
       -3    1    3    3    0  502  0.36139087552E+03  0.50503043519E+03  0.56041301560E+03  0.83649379175E+03  0.10100000352E+00 0.  1.
</event>
<event>
 5   0  0.1414751E-03  0.1440470E+04  0.7818609E-02  0.8925034E-01
        2   -1    0    0  501    0  0.00000000000E+00  0.00000000000E+00  0.10644217033E+04  0.10644217033E+04  0.25500000920E-02 0. -1.
       -2   -1    0    0    0  501  0.00000000000E+00  0.00000000000E+00 -0.48734325212E+03  0.48734325212E+03  0.25500000920E-02 0.  1.
    10030    2    1    2    0    0  0.00000000000E+00  0.00000000000E+00  0.57707845116E+03  0.15517649554E+04  0.14404703878E+04 0.  0.
        2    1    3    3  502    0 -0.59171141280E+03 -0.13636381151E+03 -0.12871235823E+03  0.62071278084E+03  0.25500000920E-02 0.  1.
       -2    1    3    3    0  502  0.59171141280E+03  0.13636381151E+03  0.70579080939E+03  0.93105217456E+03  0.25500000920E-02 0. -1.
</event>
<event>
 5   0  0.1414796E-03  0.1595215E+04  0.7818609E-02  0.8823493E-01
       -2   -1    0    0    0  501  0.00000000000E+00  0.00000000000E+00  0.12254399867E+04  0.12254399867E+04  0.25500000920E-02 0.  1.
        2   -1    0    0  501    0  0.00000000000E+00  0.00000000000E+00 -0.51914215006E+03  0.51914215007E+03  0.25500000920E-02 0. -1.
    10030    2    1    2    0    0  0.00000000000E+00  0.00000000000E+00  0.70629783659E+03  0.17445821367E+04  0.15952147811E+04 0.  0.
        4    1    3    3  502    0 -0.16883507469E+03 -0.71566684037E+03  0.15197009078E+02  0.73547050983E+03  0.12699999809E+01 0. -1.
       -4    1    3    3    0  502  0.16883507469E+03  0.71566684037E+03  0.69110082751E+03  0.10091116269E+04  0.12699999809E+01 0.  1.
</event>
<event>
 5   0  0.7302027E-04  0.1641995E+04  0.7818609E-02  0.8795156E-01
        1   -1    0    0  501    0  0.00000000000E+00  0.00000000000E+00  0.58136118663E+03  0.58136118665E+03  0.50400001928E-02 0. -1.
       -1   -1    0    0    0  501  0.00000000000E+00  0.00000000000E+00 -0.11594120579E+04  0.11594120579E+04  0.50400001928E-02 0.  1.
    10030    2    1    2    0    0  0.00000000000E+00  0.00000000000E+00 -0.57805087129E+03  0.17407732446E+04  0.16419953347E+04 0.  0.
        5    1    3    3  502    0 -0.46493157436E+03  0.43614270707E+03  0.25942870321E+03  0.68826388240E+03  0.46999998093E+01 0. -1.
       -5    1    3    3    0  502  0.46493157436E+03 -0.43614270707E+03 -0.83747957450E+03  0.10525093622E+04  0.46999998093E+01 0.  1.
</event>
<event>
 5   0  0.1414796E-03  0.1566747E+04  0.7818609E-02  0.8841241E-01
       -2   -1    0    0    0  501  0.00000000000E+00  0.00000000000E+00  0.67617659271E+03  0.67617659271E+03  0.25500000920E-02 0.  1.
        2   -1    0    0  501    0  0.00000000000E+00  0.00000000000E+00 -0.90756468901E+03  0.90756468901E+03  0.25500000920E-02 0. -1.
    10030    2    1    2    0    0  0.00000000000E+00  0.00000000000E+00 -0.23138809630E+03  0.15837412817E+04  0.15667469471E+04 0.  0.
        4    1    3    3  502    0  0.32397886592E+03  0.41184916464E+03  0.47293690115E+03  0.70587036016E+03  0.12699999809E+01 0.  1.
       -4    1    3    3    0  502 -0.32397886592E+03 -0.41184916464E+03 -0.70432499745E+03  0.87787092156E+03  0.12699999809E+01 0. -1.
</event>
<event>
 5   0  0.7124495E-04  0.1541502E+04  0.7818609E-02  0.8857314E-01
        1   -1    0    0  501    0  0.00000000000E+00  0.00000000000E+00  0.55406866596E+03  0.55406866598E+03  0.50400001928E-02 0.  1.
       -1   -1    0    0    0  501  0.00000000000E+00  0.00000000000E+00 -0.10721718142E+04  0.10721718142E+04  0.50400001928E-02 0. -1.
    10030    2    1    2    0    0  0.00000000000E+00  0.00000000000E+00 -0.51810314825E+03  0.16262404802E+04  0.15415016144E+04 0.  0.
        2    1    3    3  502    0  0.28258627792E+03  0.12912070076E+03  0.48508091384E+03  0.57604743972E+03  0.25500000920E-02 0.  1.
       -2    1    3    3    0  502 -0.28258627792E+03 -0.12912070076E+03 -0.10031840621E+04  0.10501930405E+04  0.25500000920E-02 0. -1.
</event>
<event>
 5   0  0.1339162E-03  0.1590080E+04  0.7818609E-02  0.8826666E-01
        2   -1    0    0  501    0  0.00000000000E+00  0.00000000000E+00  0.77621027276E+03  0.77621027276E+03  0.25500000920E-02 0.  1.
       -2   -1    0    0    0  501  0.00000000000E+00  0.00000000000E+00 -0.81432612361E+03  0.81432612361E+03  0.25500000920E-02 0. -1.
    10030    2    1    2    0    0  0.00000000000E+00  0.00000000000E+00 -0.38115850850E+02  0.15905363964E+04  0.15900796238E+04 0.  0.
        5    1    3    3  502    0  0.66668071068E+03  0.42874004296E+03 -0.80598099313E+02  0.79674295607E+03  0.46999998093E+01 0. -1.
       -5    1    3    3    0  502 -0.66668071068E+03 -0.42874004296E+03  0.42482248462E+02  0.79379344030E+03  0.46999998093E+01 0.  1.
</event>
<event>
 5   0  0.7601145E-04  0.1624866E+04  0.7818609E-02  0.8805416E-01
       -1   -1    0    0    0  501  0.00000000000E+00  0.00000000000E+00  0.52843448537E+03  0.52843448540E+03  0.50400001928E-02 0. -1.
        1   -1    0    0  501    0  0.00000000000E+00  0.00000000000E+00 -0.12490615701E+04  0.12490615702E+04  0.50400001928E-02 0.  1.
    10030    2    1    2    0    0  0.00000000000E+00  0.00000000000E+00 -0.72062708477E+03  0.17774960555E+04  0.16248657890E+04 0.  0.
        4    1    3    3  502    0 -0.79690475982E+03 -0.12794738819E+03 -0.25876095601E+03  0.84757688478E+03  0.12699999809E+01 0.  1.
       -4    1    3    3    0  502  0.79690475982E+03  0.12794738819E+03 -0.46186612875E+03  0.92991917076E+03  0.12699999809E+01 0. -1.
</event>
<event>
 5   0  0.1354766E-03  0.1511017E+04  0.7818609E-02  0.8877160E-01
       -2   -1    0    0    0  501  0.00000000000E+00  0.00000000000E+00  0.32204601172E+03  0.32204601173E+03  0.25500000920E-02 0.  1.
        2   -1    0    0  501    0  0.00000000000E+00  0.00000000000E+00 -0.17723957970E+04  0.17723957970E+04  0.25500000920E-02 0. -1.
    10030    2    1    2    0    0  0.00000000000E+00  0.00000000000E+00 -0.14503497853E+04  0.20944418087E+04  0.15110168730E+04 0.  0.
        3    1    3    3  502    0 -0.28295612334E+03 -0.56858498357E+03 -0.12923648197E+04  0.14399860724E+04  0.10100000352E+00 0.  1.
       -3    1    3    3    0  502  0.28295612334E+03  0.56858498357E+03 -0.15798496557E+03  0.65445573634E+03  0.10100000352E+00 0. -1.
</event>
<event>
 5   0  0.5095750E-04  0.1591343E+04  0.7818609E-02  0.8825884E-01
        4   -1    0    0  501    0  0.00000000000E+00  0.00000000000E+00  0.82413420663E+03  0.82413518518E+03  0.12699999809E+01 0. -1.
       -4   -1    0    0    0  501  0.00000000000E+00  0.00000000000E+00 -0.76819011085E+03  0.76819116065E+03  0.12699999809E+01 0.  1.
    10030    2    1    2    0    0  0.00000000000E+00  0.00000000000E+00  0.55944095783E+02  0.15923263458E+04  0.15913432847E+04 0.  0.
        3    1    3    3  502    0  0.39614044151E+03  0.55665032944E+03 -0.38008683338E+03  0.78182661107E+03  0.10100000352E+00 0.  1.
       -3    1    3    3    0  502 -0.39614044151E+03 -0.55665032944E+03  0.43603092916E+03  0.81049973476E+03  0.10100000352E+00 0. -1.
</event>
<event>
 5   0  0.1414751E-03  0.1068233E+04  0.7818609E-02  0.9236719E-01
       -2   -1    0    0    0  501  0.00000000000E+00  0.00000000000E+00  0.33350331697E+03  0.33350331698E+03  0.25500000920E-02 0. -1.
        2   -1    0    0  501    0  0.00000000000E+00  0.00000000000E+00 -0.85540575023E+03  0.85540575023E+03  0.25500000920E-02 0.  1.
    10030    2    1    2    0    0  0.00000000000E+00  0.00000000000E+00 -0.52190243326E+03  0.11889090672E+04  0.10682334109E+04 0.  0.
        2    1    3    3  502    0 -0.25849563446E+03  0.45059123614E+03 -0.39919324939E+03  0.65513945499E+03  0.25500000920E-02 0.  1.
       -2    1    3    3    0  502  0.25849563446E+03 -0.45059123614E+03 -0.12270918386E+03  0.53376961222E+03  0.25500000920E-02 0. -1.
</event>
<event>
 5   0  0.5095750E-04  0.1629628E+04  0.7818609E-02  0.8802550E-01
       -3   -1    0    0    0  501  0.00000000000E+00  0.00000000000E+00  0.30660881702E+03  0.30660883365E+03  0.10100000352E+00 0.  1.
        3   -1    0    0  501    0  0.00000000000E+00  0.00000000000E+00 -0.21653710549E+04  0.21653710573E+04  0.10100000352E+00 0. -1.
    10030    2    1    2    0    0  0.00000000000E+00  0.00000000000E+00 -0.18587622379E+04  0.24719798909E+04  0.16296280324E+04 0.  0.
        3    1    3    3  502    0  0.46119859162E+02 -0.17960516342E+03  0.27417685068E+03  0.33099548605E+03  0.10100000352E+00 0.  1.
       -3    1    3    3    0  502 -0.46119859162E+02  0.17960516342E+03 -0.21329390886E+04  0.21409844049E+04  0.10100000352E+00 0. -1.
</event>
<event>
 5   0  0.1414796E-03  0.1584656E+04  0.7818609E-02  0.8830030E-01
        2   -1    0    0  501    0  0.00000000000E+00  0.00000000000E+00  0.10127070512E+04  0.10127070512E+04  0.25500000920E-02 0.  1.
       -2   -1    0    0    0  501  0.00000000000E+00  0.00000000000E+00 -0.61990621880E+03  0.61990621880E+03  0.25500000920E-02 0. -1.
    10030    2    1    2    0    0  0.00000000000E+00  0.00000000000E+00  0.39280083242E+03  0.16326132700E+04  0.15846556710E+04 0.  0.
        4    1    3    3  502    0 -0.39324414845E+03  0.36067701700E+03 -0.40703246324E+03  0.67112287245E+03  0.12699999809E+01 0. -1.
       -4    1    3    3    0  502  0.39324414845E+03 -0.36067701700E+03  0.79983329567E+03  0.96149039758E+03  0.12699999809E+01 0.  1.
</event>
<event>
 5   0  0.1339162E-03  0.1641225E+04  0.7818609E-02  0.8795615E-01
        2   -1    0    0  501    0  0.00000000000E+00  0.00000000000E+00  0.72290216052E+03  0.72290216052E+03  0.25500000920E-02 0. -1.
       -2   -1    0    0    0  501  0.00000000000E+00  0.00000000000E+00 -0.93152931223E+03  0.93152931224E+03  0.25500000920E-02 0.  1.
    10030    2    1    2    0    0  0.00000000000E+00  0.00000000000E+00 -0.20862715172E+03  0.16544314728E+04  0.16412246067E+04 0.  0.
        5    1    3    3  502    0  0.41584336751E+03 -0.47790373527E+03  0.42148199366E+03  0.76091185262E+03  0.46999998093E+01 0. -1.
       -5    1    3    3    0  502 -0.41584336751E+03  0.47790373527E+03 -0.63010914537E+03  0.89351962014E+03  0.46999998093E+01 0.  1.
</event>
<event>
 5   0  0.7601145E-04  0.1606908E+04  0.7818609E-02  0.8816316E-01
        1   -1    0    0  501    0  0.00000000000E+00  0.00000000000E+00  0.24329876157E+04  0.24329876157E+04  0.50400001928E-02 0. -1.
       -1   -1    0    0    0  501  0.00000000000E+00  0.00000000000E+00 -0.26532727464E+03  0.26532727468E+03  0.50400001928E-02 0.  1.
    10030    2    1    2    0    0  0.00000000000E+00  0.00000000000E+00  0.21676603410E+04  0.26983148904E+04  0.16069075560E+04 0.  0.
        4    1    3    3  502    0 -0.10264992840E+03 -0.77736971575E+03  0.78963174096E+03  0.11128165087E+04  0.12699999809E+01 0. -1.
       -4    1    3    3    0  502  0.10264992840E+03  0.77736971575E+03  0.13780286001E+04  0.15854983817E+04  0.12699999809E+01 0.  1.
</event>
<event>
 5   0  0.7124495E-04  0.1543330E+04  0.7818609E-02  0.8856139E-01
        1   -1    0    0  501    0  0.00000000000E+00  0.00000000000E+00  0.61123252877E+03  0.61123252879E+03  0.50400001928E-02 0. -1.
       -1   -1    0    0    0  501  0.00000000000E+00  0.00000000000E+00 -0.97420735354E+03  0.97420735355E+03  0.50400001928E-02 0.  1.
    10030    2    1    2    0    0  0.00000000000E+00  0.00000000000E+00 -0.36297482476E+03  0.15854398823E+04  0.15433304562E+04 0.  0.
        2    1    3    3  502    0  0.37235453720E+03 -0.10795134969E+03  0.50392468027E+03  0.63579987312E+03  0.25500000920E-02 0. -1.
       -2    1    3    3    0  502 -0.37235453720E+03  0.10795134969E+03 -0.86689950503E+03  0.94964000922E+03  0.25500000920E-02 0.  1.
</event>
<event>
 5   0  0.1339162E-03  0.1607099E+04  0.7818609E-02  0.8816198E-01
        2   -1    0    0  501    0  0.00000000000E+00  0.00000000000E+00  0.65683268662E+03  0.65683268662E+03  0.25500000920E-02 0. -1.
       -2   -1    0    0    0  501  0.00000000000E+00  0.00000000000E+00 -0.98303889918E+03  0.98303889919E+03  0.25500000920E-02 0.  1.
    10030    2    1    2    0    0  0.00000000000E+00  0.00000000000E+00 -0.32620621257E+03  0.16398715858E+04  0.16070993513E+04 0.  0.
        5    1    3    3  502    0  0.22249278840E+03 -0.72076049174E+03 -0.44564537382E+03  0.87613961019E+03  0.46999998093E+01 0.  1.
       -5    1    3    3    0  502 -0.22249278840E+03  0.72076049174E+03  0.11943916125E+03  0.76373197562E+03  0.46999998093E+01 0. -1.
</event>
<event>
 5   0  0.7499834E-04  0.1601592E+04  0.7818609E-02  0.8819571E-01
       -1   -1    0    0    0  501  0.00000000000E+00  0.00000000000E+00  0.90627073734E+03  0.90627073735E+03  0.50400001928E-02 0.  1.
        1   -1    0    0  501    0  0.00000000000E+00  0.00000000000E+00 -0.70759654042E+03  0.70759654044E+03  0.50400001928E-02 0. -1.
    10030    2    1    2    0    0  0.00000000000E+00  0.00000000000E+00  0.19867419692E+03  0.16138672778E+04  0.16015917563E+04 0.  0.
        3    1    3    3  502    0  0.44885013840E+02 -0.73522915281E+03  0.41590652683E+03  0.84590473510E+03  0.10100000352E+00 0.  1.
       -3    1    3    3    0  502 -0.44885013840E+02  0.73522915281E+03 -0.21723232991E+03  0.76796254269E+03  0.10100000352E+00 0. -1.
</event>
<event>
 5   0  0.1375777E-03  0.1602981E+04  0.7818609E-02  0.8818719E-01
       -2   -1    0    0    0  501  0.00000000000E+00  0.00000000000E+00  0.29006938773E+03  0.29006938775E+03  0.25500000920E-02 0. -1.
        2   -1    0    0  501    0  0.00000000000E+00  0.00000000000E+00 -0.22145972990E+04  0.22145972990E+04  0.25500000920E-02 0.  1.
    10030    2    1    2    0    0  0.00000000000E+00  0.00000000000E+00 -0.19245279112E+04  0.25046666867E+04  0.16029808266E+04 0.  0.
        1    1    3    3  502    0 -0.20950869664E+03 -0.46018193041E+03  0.94155911660E+01  0.50571726926E+03  0.50400001928E-02 0. -1.
       -1    1    3    3    0  502  0.20950869664E+03  0.46018193041E+03 -0.19339435024E+04  0.19989494175E+04  0.50400001928E-02 0.  1.
</event>
<event>
 5   0  0.7633213E-04  0.1560358E+04  0.7818609E-02  0.8845279E-01
        1   -1    0    0  501    0  0.00000000000E+00  0.00000000000E+00  0.13288516367E+04  0.13288516367E+04  0.50400001928E-02 0.  1.
       -1   -1    0    0    0  501  0.00000000000E+00  0.00000000000E+00 -0.45804906414E+03  0.45804906417E+03  0.50400001928E-02 0. -1.
    10030    2    1    2    0    0  0.00000000000E+00  0.00000000000E+00  0.87080257259E+03  0.17869007009E+04  0.15603579700E+04 0.  0.
        1    1    3    3  502    0  0.19523571775E+03 -0.52520213217E+03  0.10571067035E+04  0.11964233564E+04  0.50400001928E-02 0.  1.
       -1    1    3    3    0  502 -0.19523571775E+03  0.52520213217E+03 -0.18630413094E+03  0.59047734449E+03  0.50400001928E-02 0. -1.
</event>
<event>
 5   0  0.1375777E-03  0.1487285E+04  0.7818609E-02  0.8892953E-01
        2   -1    0    0  501    0  0.00000000000E+00  0.00000000000E+00  0.10439134774E+04  0.10439134774E+04  0.25500000920E-02 0.  1.
       -2   -1    0    0    0  501  0.00000000000E+00  0.00000000000E+00 -0.52974118220E+03  0.52974118220E+03  0.25500000920E-02 0. -1.
    10030    2    1    2    0    0  0.00000000000E+00  0.00000000000E+00  0.51417229516E+03  0.15736546596E+04  0.14872847200E+04 0.  0.
        1    1    3    3  502    0  0.50374972632E+03  0.29538617125E+03  0.74424446007E+03  0.94600031358E+03  0.50400001928E-02 0.  1.
       -1    1    3    3    0  502 -0.50374972632E+03 -0.29538617125E+03 -0.23007216491E+03  0.62765434598E+03  0.50400001928E-02 0. -1.
</event>
<event>
 5   0  0.1375777E-03  0.1007782E+04  0.7818609E-02  0.9300051E-01
        2   -1    0    0  501    0  0.00000000000E+00  0.00000000000E+00  0.48276766215E+03  0.48276766216E+03  0.25500000920E-02 0.  1.
       -2   -1    0    0    0  501  0.00000000000E+00  0.00000000000E+00 -0.52593811123E+03  0.52593811124E+03  0.25500000920E-02 0. -1.
    10030    2    1    2    0    0  0.00000000000E+00  0.00000000000E+00 -0.43170449081E+02  0.10087057734E+04  0.10077815486E+04 0.  0.
        1    1    3    3  502    0  0.37632350138E+03  0.31106693350E+03  0.10312397400E+03  0.49901559980E+03  0.50400001928E-02 0.  1.
       -1    1    3    3    0  502 -0.37632350138E+03 -0.31106693350E+03 -0.14629442308E+03  0.50969017359E+03  0.50400001928E-02 0. -1.
</event>
<event>
 5   0  0.1339162E-03  0.1434489E+04  0.7818609E-02  0.8929225E-01
       -2   -1    0    0    0  501  0.00000000000E+00  0.00000000000E+00  0.11500855180E+04  0.11500855180E+04  0.25500000920E-02 0.  1.
        2   -1    0    0  501    0  0.00000000000E+00  0.00000000000E+00 -0.44730559505E+03  0.44730559506E+03  0.25500000920E-02 0. -1.
    10030    2    1    2    0    0  0.00000000000E+00  0.00000000000E+00  0.70277992296E+03  0.15973911131E+04  0.14344890198E+04 0.  0.
        5    1    3    3  502    0  0.29925399289E+03 -0.21640000738E+03 -0.33327867232E+03  0.49747228956E+03  0.46999998093E+01 0. -1.
       -5    1    3    3    0  502 -0.29925399289E+03  0.21640000738E+03  0.10360585953E+04  0.10999188235E+04  0.46999998093E+01 0.  1.
</event>
<event>
 5   0  0.1354766E-03  0.1604511E+04  0.7818609E-02  0.8817781E-01
       -2   -1    0    0    0  501  0.00000000000E+00  0.00000000000E+00  0.34037368892E+03  0.34037368893E+03  0.25500000920E-02 0. -1.
        2   -1    0    0  501    0  0.00000000000E+00  0.00000000000E+00 -0.18909041869E+04  0.18909041869E+04  0.25500000920E-02 0.  1.
    10030    2    1    2    0    0  0.00000000000E+00  0.00000000000E+00 -0.15505304980E+04  0.22312778759E+04  0.16045111823E+04 0.  0.
        3    1    3    3  502    0 -0.37434850029E+03  0.21371341195E+03 -0.17161807173E+04  0.17694876340E+04  0.10100000352E+00 0.  1.
       -3    1    3    3    0  502  0.37434850029E+03 -0.21371341195E+03  0.16565021933E+03  0.46179024187E+03  0.10100000352E+00 0. -1.
</event>
<event>
 5   0  0.7124495E-04  0.8679090E+03  0.7818609E-02  0.9466610E-01
       -1   -1    0    0    0  501  0.00000000000E+00  0.00000000000E+00  0.38518455350E+03  0.38518455353E+03  0.50400001928E-02 0.  1.
        1   -1    0    0  501    0  0.00000000000E+00  0.00000000000E+00 -0.48889947376E+03  0.48889947378E+03  0.50400001928E-02 0. -1.
    10030    2    1    2    0    0  0.00000000000E+00  0.00000000000E+00 -0.10371492026E+03  0.87408402731E+03  0.86790904023E+03 0.  0.
        2    1    3    3  502    0  0.34587865507E+03 -0.67914640843E+02  0.20306810687E+03  0.40679368051E+03  0.25500000920E-02 0.  1.
       -2    1    3    3    0  502 -0.34587865507E+03  0.67914640843E+02 -0.30678302713E+03  0.46729034680E+03  0.25500000920E-02 0. -1.
</event>
<event>
 5   0  0.7499834E-04  0.1595421E+04  0.7818609E-02  0.8823366E-01
        1   -1    0    0  501    0  0.00000000000E+00  0.00000000000E+00  0.20822776519E+04  0.20822776519E+04  0.50400001928E-02 0. -1.
       -1   -1    0    0    0  501  0.00000000000E+00  0.00000000000E+00 -0.30559894637E+03  0.30559894641E+03  0.50400001928E-02 0.  1.
    10030    2    1    2    0    0  0.00000000000E+00  0.00000000000E+00  0.17766787055E+04  0.23878765983E+04  0.15954207677E+04 0.  0.
        3    1    3    3  502    0  0.39195198986E+03  0.14297243901E+03  0.19059614854E+04  0.19510911498E+04  0.10100000352E+00 0. -1.
       -3    1    3    3    0  502 -0.39195198986E+03 -0.14297243901E+03 -0.12928277989E+03  0.43678544853E+03  0.10100000352E+00 0.  1.
</event>
<event>
 5   0  0.5095750E-04  0.1625194E+04  0.7818609E-02  0.8805218E-01
       -3   -1    0    0    0  501  0.00000000000E+00  0.00000000000E+00  0.57662466750E+03  0.57662467635E+03  0.10100000352E+00 0.  1.
        3   -1    0    0  501    0  0.00000000000E+00  0.00000000000E+00 -0.11451363947E+04  0.11451363992E+04  0.10100000352E+00 0. -1.
    10030    2    1    2    0    0  0.00000000000E+00  0.00000000000E+00 -0.56851172723E+03  0.17217610755E+04  0.16251940245E+04 0.  0.
        5    1    3    3  502    0 -0.38691262944E+00  0.16921027027E+03  0.55773853326E+03  0.58286072672E+03  0.46999998093E+01 0.  1.
       -5    1    3    3    0  502  0.38691262944E+00 -0.16921027027E+03 -0.11262502605E+04  0.11389003488E+04  0.46999998093E+01 0. -1.
</event>
<event>
 5   0  0.7124495E-04  0.1584631E+04  0.7818609E-02  0.8830046E-01
        1   -1    0    0  501    0  0.00000000000E+00  0.00000000000E+00  0.72936073627E+03  0.72936073629E+03  0.50400001928E-02 0. -1.
       -1   -1    0    0    0  501  0.00000000000E+00  0.00000000000E+00 -0.86070371421E+03  0.86070371423E+03  0.50400001928E-02 0.  1.
    10030    2    1    2    0    0  0.00000000000E+00  0.00000000000E+00 -0.13134297794E+03  0.15900644505E+04  0.15846305497E+04 0.  0.
        2    1    3    3  502    0 -0.35867933973E+03  0.28035610136E+03  0.58502199761E+03  0.74128344782E+03  0.25500000920E-02 0. -1.
       -2    1    3    3    0  502  0.35867933973E+03 -0.28035610136E+03 -0.71636497556E+03  0.84878100269E+03  0.25500000920E-02 0.  1.
</event>
<event>
 5   0  0.7633213E-04  0.1354636E+04  0.7818609E-02  0.8987326E-01
        1   -1    0    0  501    0  0.00000000000E+00  0.00000000000E+00  0.17346685623E+04  0.17346685623E+04  0.50400001928E-02 0.  1.
       -1   -1    0    0    0  501  0.00000000000E+00  0.00000000000E+00 -0.26446523960E+03  0.26446523965E+03  0.50400001928E-02 0. -1.
    10030    2    1    2    0    0  0.00000000000E+00  0.00000000000E+00  0.14702033227E+04  0.19991338020E+04  0.13546357991E+04 0.  0.
        1    1    3    3  502    0  0.20934661244E+03  0.33140733472E+03  0.15502606980E+04  0.15990512992E+04  0.50400001928E-02 0.  1.
       -1    1    3    3    0  502 -0.20934661244E+03 -0.33140733472E+03 -0.80057375311E+02  0.40008250276E+03  0.50400001928E-02 0. -1.
</event>
<event>
 5   0  0.1375777E-03  0.1695270E+04  0.7818609E-02  0.8764067E-01
        2   -1    0    0  501    0  0.00000000000E+00  0.00000000000E+00  0.57802978640E+03  0.57802978640E+03  0.25500000920E-02 0.  1.
       -2   -1    0    0    0  501  0.00000000000E+00  0.00000000000E+00 -0.12429900792E+04  0.12429900792E+04  0.25500000920E-02 0. -1.
    10030    2    1    2    0    0  0.00000000000E+00  0.00000000000E+00 -0.66496029277E+03  0.18210198656E+04  0.16952702321E+04 0.  0.
        1    1    3    3  502    0 -0.79819583658E+03  0.18525089280E+03 -0.56548194197E+03  0.99559244349E+03  0.50400001928E-02 0.  1.
       -1    1    3    3    0  502  0.79819583658E+03 -0.18525089280E+03 -0.99478350796E+02  0.82542742208E+03  0.50400001928E-02 0. -1.
</event>
<event>
 5   0  0.7499834E-04  0.1590050E+04  0.7818609E-02  0.8826684E-01
        1   -1    0    0  501    0  0.00000000000E+00  0.00000000000E+00  0.86947823154E+03  0.86947823156E+03  0.50400001928E-02 0.  1.
       -1   -1    0    0    0  501  0.00000000000E+00  0.00000000000E+00 -0.72694694343E+03  0.72694694345E+03  0.50400001928E-02 0. -1.
    10030    2    1    2    0    0  0.00000000000E+00  0.00000000000E+00  0.14253128811E+03  0.15964251750E+04  0.15900497386E+04 0.  0.
        3    1    3    3  502    0  0.47316292232E+02 -0.69221000632E+03 -0.31845436619E+03  0.76341778726E+03  0.10100000352E+00 0. -1.
       -3    1    3    3    0  502 -0.47316292232E+02  0.69221000632E+03  0.46098565430E+03  0.83300738774E+03  0.10100000352E+00 0.  1.
</event>
<event>
 5   0  0.1414751E-03  0.1568902E+04  0.7818609E-02  0.8839884E-01
       -2   -1    0    0    0  501  0.00000000000E+00  0.00000000000E+00  0.56164972817E+03  0.56164972817E+03  0.25500000920E-02 0.  1.
        2   -1    0    0  501    0  0.00000000000E+00  0.00000000000E+00 -0.10956348461E+04  0.10956348461E+04  0.25500000920E-02 0. -1.
    10030    2    1    2    0    0  0.00000000000E+00  0.00000000000E+00 -0.53398511789E+03  0.16572845742E+04  0.15689015437E+04 0.  0.
        2    1    3    3  502    0  0.66535238238E+03 -0.76870636320E+02  0.16437502401E+03  0.68965356230E+03  0.25500000920E-02 0.  1.
       -2    1    3    3    0  502 -0.66535238238E+03  0.76870636320E+02 -0.69836014189E+03  0.96763101193E+03  0.25500000920E-02 0. -1.
</event>
<event>
 5   0  0.7302027E-04  0.1549144E+04  0.7818609E-02  0.8852415E-01
       -1   -1    0    0    0  501  0.00000000000E+00  0.00000000000E+00  0.11073193557E+04  0.11073193557E+04  0.50400001928E-02 0. -1.
        1   -1    0    0  501    0  0.00000000000E+00  0.00000000000E+00 -0.54181426224E+03  0.54181426226E+03  0.50400001928E-02 0.  1.
    10030    2    1    2    0    0  0.00000000000E+00  0.00000000000E+00  0.56550509348E+03  0.16491336180E+04  0.15491435309E+04 0.  0.
        5    1    3    3  502    0  0.45620631698E+03  0.62594117079E+03  0.28655773733E+03  0.82587164848E+03  0.46999998093E+01 0. -1.
       -5    1    3    3    0  502 -0.45620631698E+03 -0.62594117079E+03  0.27894735615E+03  0.82326196951E+03  0.46999998093E+01 0.  1.
</event>
<event>
 5   0  0.1414796E-03  0.1622167E+04  0.7818609E-02  0.8807044E-01
        2   -1    0    0  501    0  0.00000000000E+00  0.00000000000E+00  0.12529953008E+04  0.12529953008E+04  0.25500000920E-02 0.  1.
       -2   -1    0    0    0  501  0.00000000000E+00  0.00000000000E+00 -0.52502714686E+03  0.52502714687E+03  0.25500000920E-02 0. -1.
    10030    2    1    2    0    0  0.00000000000E+00  0.00000000000E+00  0.72796815397E+03  0.17780224477E+04  0.16221671281E+04 0.  0.
        4    1    3    3  502    0 -0.23147951213E+03  0.62289356677E+03  0.87372039961E+03  0.10977103943E+04  0.12699999809E+01 0.  1.
       -4    1    3    3    0  502  0.23147951213E+03 -0.62289356677E+03 -0.14575224564E+03  0.68031205345E+03  0.12699999809E+01 0. -1.
</event>
<event>
 5   0  0.1375777E-03  0.1601713E+04  0.7818609E-02  0.8819497E-01
        2   -1    0    0  501    0  0.00000000000E+00  0.00000000000E+00  0.69597734590E+03  0.69597734590E+03  0.25500000920E-02 0. -1.
       -2   -1    0    0    0  501  0.00000000000E+00  0.00000000000E+00 -0.92153972103E+03  0.92153972103E+03  0.25500000920E-02 0.  1.
    10030    2    1    2    0    0  0.00000000000E+00  0.00000000000E+00 -0.22556237513E+03  0.16175170669E+04  0.16017125450E+04 0.  0.
        1    1    3    3  502    0  0.20188140401E+03 -0.74091811736E+03 -0.34230118209E+03  0.84076504280E+03  0.50400001928E-02 0.  1.
       -1    1    3    3    0  502 -0.20188140401E+03  0.74091811736E+03  0.11673880696E+03  0.77675202413E+03  0.50400001928E-02 0. -1.
</event>
<event>
 5   0  0.1354766E-03  0.1584570E+04  0.7818609E-02  0.8830084E-01
        2   -1    0    0  501    0  0.00000000000E+00  0.00000000000E+00  0.22088321990E+04  0.22088321990E+04  0.25500000920E-02 0.  1.
       -2   -1    0    0    0  501  0.00000000000E+00  0.00000000000E+00 -0.28418423345E+03  0.28418423346E+03  0.25500000920E-02 0. -1.
    10030    2    1    2    0    0  0.00000000000E+00  0.00000000000E+00  0.19246479655E+04  0.24930164324E+04  0.15845697022E+04 0.  0.
        3    1    3    3  502    0  0.11959854085E+03  0.73796264982E+03  0.13750665913E+04  0.15651520132E+04  0.10100000352E+00 0.  1.
       -3    1    3    3    0  502 -0.11959854085E+03 -0.73796264982E+03  0.54958137419E+03  0.92786441928E+03  0.10100000352E+00 0. -1.
</event>
<event>
 5   0  0.7601145E-04  0.1587379E+04  0.7818609E-02  0.8828340E-01
        1   -1    0    0  501    0  0.00000000000E+00  0.00000000000E+00  0.12456170741E+04  0.12456170741E+04  0.50400001928E-02 0.  1.
       -1   -1    0    0    0  501  0.00000000000E+00  0.00000000000E+00 -0.50572743238E+03  0.50572743240E+03  0.50400001928E-02 0. -1.
    10030    2    1    2    0    0  0.00000000000E+00  0.00000000000E+00  0.73988964172E+03  0.17513445065E+04  0.15873786248E+04 0.  0.
        4    1    3    3  502    0 -0.54341155884E+03  0.52867721822E+03  0.62903184125E+03  0.98512861777E+03  0.12699999809E+01 0. -1.
       -4    1    3    3    0  502  0.54341155884E+03 -0.52867721822E+03  0.11085780047E+03  0.76621588874E+03  0.12699999809E+01 0.  1.
</event>
<event>
 5   0  0.1414796E-03  0.1013506E+04  0.7818609E-02  0.9293854E-01
        2   -1    0    0  501    0  0.00000000000E+00  0.00000000000E+00  0.70946784377E+03  0.70946784377E+03  0.25500000920E-02 0. -1.
       -2   -1    0    0    0  501  0.00000000000E+00  0.00000000000E+00 -0.36195976924E+03  0.36195976925E+03  0.25500000920E-02 0.  1.
    10030    2    1    2    0    0  0.00000000000E+00  0.00000000000E+00  0.34750807452E+03  0.10714276130E+04  0.10135064223E+04 0.  0.
        4    1    3    3  502    0  0.46903196315E+03 -0.19050433219E+03  0.14977931999E+03  0.52793781891E+03  0.12699999809E+01 0. -1.
       -4    1    3    3    0  502 -0.46903196315E+03  0.19050433219E+03  0.19772875453E+03  0.54348979411E+03  0.12699999809E+01 0.  1.
</event>
<event>
 5   0  0.1414796E-03  0.1615612E+04  0.7818609E-02  0.8811014E-01
        2   -1    0    0  501    0  0.00000000000E+00  0.00000000000E+00  0.10558179002E+04  0.10558179002E+04  0.25500000920E-02 0. -1.
       -2   -1    0    0    0  501  0.00000000000E+00  0.00000000000E+00 -0.61805214694E+03  0.61805214695E+03  0.25500000920E-02 0.  1.
    10030    2    1    2    0    0  0.00000000000E+00  0.00000000000E+00  0.43776575329E+03  0.16738700472E+04  0.16156119832E+04 0.  0.
        4    1    3    3  502    0 -0.40527840917E+03  0.69123487099E+03  0.32501032112E+03  0.86469044030E+03  0.12699999809E+01 0. -1.
       -4    1    3    3    0  502  0.40527840917E+03 -0.69123487099E+03  0.11275543217E+03  0.80917960688E+03  0.12699999809E+01 0.  1.
</event>
<event>
 5   0  0.7124495E-04  0.1580760E+04  0.7818609E-02  0.8832456E-01
       -1   -1    0    0    0  501  0.00000000000E+00  0.00000000000E+00  0.10512626454E+04  0.10512626454E+04  0.50400001928E-02 0. -1.
        1   -1    0    0  501    0  0.00000000000E+00  0.00000000000E+00 -0.59423837109E+03  0.59423837111E+03  0.50400001928E-02 0.  1.
    10030    2    1    2    0    0  0.00000000000E+00  0.00000000000E+00  0.45702427435E+03  0.16455010166E+04  0.15807600729E+04 0.  0.
        2    1    3    3  502    0 -0.75467559838E+03  0.12538584094E+03  0.43525056458E+03  0.88017039366E+03  0.25500000920E-02 0. -1.
       -2    1    3    3    0  502  0.75467559838E+03 -0.12538584094E+03  0.21773709767E+02  0.76533062290E+03  0.25500000920E-02 0.  1.
</event>
<event>
 5   0  0.1375777E-03  0.1402744E+04  0.7818609E-02  0.8951835E-01
       -2   -1    0    0    0  501  0.00000000000E+00  0.00000000000E+00  0.78035899567E+03  0.78035899567E+03  0.25500000920E-02 0. -1.
        2   -1    0    0  501    0  0.00000000000E+00  0.00000000000E+00 -0.63038012618E+03  0.63038012619E+03  0.25500000920E-02 0.  1.
    10030    2    1    2    0    0  0.00000000000E+00  0.00000000000E+00  0.14997886949E+03  0.14107391219E+04  0.14027441708E+04 0.  0.
        1    1    3    3  502    0  0.64093539774E+03 -0.26371047228E+03 -0.33240864614E+02  0.69386335281E+03  0.50400001928E-02 0.  1.
       -1    1    3    3    0  502 -0.64093539774E+03  0.26371047228E+03  0.18321973410E+03  0.71687576905E+03  0.50400001928E-02 0. -1.
</event>
<event>
 5   0  0.7302027E-04  0.1576304E+04  0.7818609E-02  0.8835239E-01
        1   -1    0    0  501    0  0.00000000000E+00  0.00000000000E+00  0.13637251160E+04  0.13637251160E+04  0.50400001928E-02 0.  1.
       -1   -1    0    0    0  501  0.00000000000E+00  0.00000000000E+00 -0.45550484498E+03  0.45550484501E+03  0.50400001928E-02 0. -1.
    10030    2    1    2    0    0  0.00000000000E+00  0.00000000000E+00  0.90822027101E+03  0.18192299610E+04  0.15763037748E+04 0.  0.
        5    1    3    3  502    0 -0.57274577440E+03  0.50303119499E+03  0.68517232802E+03  0.10249689333E+04  0.46999998093E+01 0.  1.
       -5    1    3    3    0  502  0.57274577440E+03 -0.50303119499E+03  0.22304794299E+03  0.79426102768E+03  0.46999998093E+01 0. -1.
</event>
<event>
 5   0  0.7302027E-04  0.1415465E+04  0.7818609E-02  0.8942700E-01
       -1   -1    0    0    0  501  0.00000000000E+00  0.00000000000E+00  0.48956219915E+03  0.48956219918E+03  0.50400001928E-02 0. -1.
        1   -1    0    0  501    0  0.00000000000E+00  0.00000000000E+00 -0.10231285438E+04  0.10231285439E+04  0.50400001928E-02 0.  1.
    10030    2    1    2    0    0  0.00000000000E+00  0.00000000000E+00 -0.53356634469E+03  0.15126907430E+04  0.14154646728E+04 0.  0.
        5    1    3    3  502    0  0.26604251593E+03  0.48564059862E+03  0.20421337112E+03  0.59021233658E+03  0.46999998093E+01 0. -1.
       -5    1    3    3    0  502 -0.26604251593E+03 -0.48564059862E+03 -0.73777971581E+03  0.92247840645E+03  0.46999998093E+01 0.  1.
</event>
<event>
 5   0  0.7302027E-04  0.1638831E+04  0.7818609E-02  0.8797041E-01
       -1   -1    0    0    0  501  0.00000000000E+00  0.00000000000E+00  0.47368599520E+03  0.47368599523E+03  0.50400001928E-02 0.  1.
        1   -1    0    0  501    0  0.00000000000E+00  0.00000000000E+00 -0.14174828290E+04  0.14174828290E+04  0.50400001928E-02 0. -1.
    10030    2    1    2    0    0  0.00000000000E+00  0.00000000000E+00 -0.94379683383E+03  0.18911688243E+04  0.16388310036E+04 0.  0.
        5    1    3    3  502    0  0.47232406680E+03  0.55161042835E+03 -0.90988537633E+03  0.11641638960E+04  0.46999998093E+01 0. -1.
       -5    1    3    3    0  502 -0.47232406680E+03 -0.55161042835E+03 -0.33911457503E+02  0.72700492825E+03  0.46999998093E+01 0.  1.
</event>
<event>
 5   0  0.7124495E-04  0.1819489E+04  0.7818609E-02  0.8696004E-01
       -1   -1    0    0    0  501  0.00000000000E+00  0.00000000000E+00  0.21711327496E+04  0.21711327496E+04  0.50400001928E-02 0. -1.
        1   -1    0    0  501    0  0.00000000000E+00  0.00000000000E+00 -0.38119970922E+03  0.38119970926E+03  0.50400001928E-02 0.  1.
    10030    2    1    2    0    0  0.00000000000E+00  0.00000000000E+00  0.17899330403E+04  0.25523324588E+04  0.18194891293E+04 0.  0.
        2    1    3    3  502    0  0.32532315670E+03 -0.73513429216E+03  0.14923862908E+04  0.16951325685E+04  0.25500000920E-02 0. -1.
       -2    1    3    3    0  502 -0.32532315670E+03  0.73513429216E+03  0.29754674951E+03  0.85719989031E+03  0.25500000920E-02 0.  1.
</event>
<event>
 5   0  0.1354766E-03  0.1604966E+04  0.7818609E-02  0.8817503E-01
        2   -1    0    0  501    0  0.00000000000E+00  0.00000000000E+00  0.96322934278E+03  0.96322934279E+03  0.25500000920E-02 0. -1.
       -2   -1    0    0    0  501  0.00000000000E+00  0.00000000000E+00 -0.66856276302E+03  0.66856276302E+03  0.25500000920E-02 0.  1.
    10030    2    1    2    0    0  0.00000000000E+00  0.00000000000E+00  0.29466657976E+03  0.16317921058E+04  0.16049663808E+04 0.  0.
        3    1    3    3  502    0 -0.21450570059E+03  0.31727376675E+03 -0.56965131450E+03  0.68642404457E+03  0.10100000352E+00 0.  1.
       -3    1    3    3    0  502  0.21450570059E+03 -0.31727376675E+03  0.86431789426E+03  0.94536806123E+03  0.10100000352E+00 0. -1.
</event>
<event>
 5   0  0.1339162E-03  0.1593257E+04  0.7818609E-02  0.8824701E-01
        2   -1    0    0  501    0  0.00000000000E+00  0.00000000000E+00  0.74034593619E+03  0.74034593619E+03  0.25500000920E-02 0.  1.
       -2   -1    0    0    0  501  0.00000000000E+00  0.00000000000E+00 -0.85718937987E+03  0.85718937987E+03  0.25500000920E-02 0. -1.
    10030    2    1    2    0    0  0.00000000000E+00  0.00000000000E+00 -0.11684344368E+03  0.15975353161E+04  0.15932566321E+04 0.  0.
        5    1    3    3  502    0 -0.44896487513E+03  0.65775011894E+03 -0.38622659511E+02  0.79731955820E+03  0.46999998093E+01 0. -1.
       -5    1    3    3    0  502  0.44896487513E+03 -0.65775011894E+03 -0.78220784170E+02  0.80021575786E+03  0.46999998093E+01 0.  1.
</event>
<event>
 5   0  0.1414751E-03  0.1239667E+04  0.7818609E-02  0.9078827E-01
        2   -1    0    0  501    0  0.00000000000E+00  0.00000000000E+00  0.69663512518E+03  0.69663512519E+03  0.25500000920E-02 0.  1.
       -2   -1    0    0    0  501  0.00000000000E+00  0.00000000000E+00 -0.55149931106E+03  0.55149931106E+03  0.25500000920E-02 0. -1.
    10030    2    1    2    0    0  0.00000000000E+00  0.00000000000E+00  0.14513581412E+03  0.12481344363E+04  0.12396673612E+04 0.  0.
        2    1    3    3  502    0  0.13596380230E+03  0.26599331294E+03 -0.47423929043E+03  0.56048327599E+03  0.25500000920E-02 0. -1.
       -2    1    3    3    0  502 -0.13596380230E+03 -0.26599331294E+03  0.61937510456E+03  0.68765116027E+03  0.25500000920E-02 0.  1.
</event>
<event>
 5   0  0.7124495E-04  0.1669068E+04  0.7818609E-02  0.8779205E-01
        1   -1    0    0  501    0  0.00000000000E+00  0.00000000000E+00  0.19478883697E+04  0.19478883697E+04  0.50400001928E-02 0.  1.
       -1   -1    0    0    0  501  0.00000000000E+00  0.00000000000E+00 -0.35753964641E+03  0.35753964644E+03  0.50400001928E-02 0. -1.
    10030    2    1    2    0    0  0.00000000000E+00  0.00000000000E+00  0.15903487233E+04  0.23054280161E+04  0.16690683856E+04 0.  0.
        2    1    3    3  502    0  0.50994452486E+03  0.63511801228E+03  0.10462041271E+04  0.13258813610E+04  0.25500000920E-02 0. -1.
       -2    1    3    3    0  502 -0.50994452486E+03 -0.63511801228E+03  0.54414459617E+03  0.97954665509E+03  0.25500000920E-02 0.  1.
</event>
<event>
 5   0  0.1375777E-03  0.1606770E+04  0.7818609E-02  0.8816400E-01
        2   -1    0    0  501    0  0.00000000000E+00  0.00000000000E+00  0.88019069862E+03  0.88019069862E+03  0.25500000920E-02 0.  1.
       -2   -1    0    0    0  501  0.00000000000E+00  0.00000000000E+00 -0.73328108408E+03  0.73328108408E+03  0.25500000920E-02 0. -1.
    10030    2    1    2    0    0  0.00000000000E+00  0.00000000000E+00  0.14690961454E+03  0.16134717827E+04  0.16067696657E+04 0.  0.
        1    1    3    3  502    0  0.47096898212E+02 -0.34264276170E+03 -0.65469394615E+03  0.74043658954E+03  0.50400001928E-02 0.  1.
       -1    1    3    3    0  502 -0.47096898212E+02  0.34264276170E+03  0.80160356069E+03  0.87303519317E+03  0.50400001928E-02 0. -1.
</event>
<event>
 5   0  0.5095750E-04  0.1925158E+04  0.7818609E-02  0.8642434E-01
        4   -1    0    0  501    0  0.00000000000E+00  0.00000000000E+00  0.13342859613E+04  0.13342865657E+04  0.12699999809E+01 0. -1.
       -4   -1    0    0    0  501  0.00000000000E+00  0.00000000000E+00 -0.69442090264E+03  0.69442206397E+03  0.12699999809E+01 0.  1.
    10030    2    1    2    0    0  0.00000000000E+00  0.00000000000E+00  0.63986505869E+03  0.20287086297E+04  0.19251575029E+04 0.  0.
        5    1    3    3  502    0 -0.78540086791E+03  0.22182021373E+03 -0.21788893135E+03  0.84472268049E+03  0.46999998093E+01 0.  1.
       -5    1    3    3    0  502  0.78540086791E+03 -0.22182021373E+03  0.85775399004E+03  0.11839859492E+04  0.46999998093E+01 0. -1.
</event>
<event>
 5   0  0.7633213E-04  0.1713248E+04  0.7818609E-02  0.8753845E-01
       -1   -1    0    0    0  501  0.00000000000E+00  0.00000000000E+00  0.38232916157E+03  0.38232916161E+03  0.50400001928E-02 0.  1.
        1   -1    0    0  501    0  0.00000000000E+00  0.00000000000E+00 -0.19193002263E+04  0.19193002263E+04  0.50400001928E-02 0. -1.
    10030    2    1    2    0    0  0.00000000000E+00  0.00000000000E+00 -0.15369710648E+04  0.23016293879E+04  0.17132477303E+04 0.  0.
        1    1    3    3  502    0  0.12985941697E+03  0.84014252409E+03 -0.62693666424E+03  0.10562918678E+04  0.50400001928E-02 0.  1.
       -1    1    3    3    0  502 -0.12985941697E+03 -0.84014252409E+03 -0.91003440051E+03  0.12453375201E+04  0.50400001928E-02 0. -1.
</event>
<event>
 5   0  0.7499834E-04  0.1616088E+04  0.7818609E-02  0.8810725E-01
       -1   -1    0    0    0  501  0.00000000000E+00  0.00000000000E+00  0.47821644214E+03  0.47821644216E+03  0.50400001928E-02 0. -1.
        1   -1    0    0  501    0  0.00000000000E+00  0.00000000000E+00 -0.13653539900E+04  0.13653539900E+04  0.50400001928E-02 0.  1.
    10030    2    1    2    0    0  0.00000000000E+00  0.00000000000E+00 -0.88713754784E+03  0.18435704321E+04  0.16160875315E+04 0.  0.
        3    1    3    3  502    0 -0.51394484749E+03  0.16542441066E+03 -0.11293838987E+04  0.12518037158E+04  0.10100000352E+00 0.  1.
       -3    1    3    3    0  502  0.51394484749E+03 -0.16542441066E+03  0.24224635088E+03  0.59176671639E+03  0.10100000352E+00 0. -1.
</event>
<event>
 5   0  0.7124495E-04  0.1608192E+04  0.7818609E-02  0.8815531E-01
        1   -1    0    0  501    0  0.00000000000E+00  0.00000000000E+00  0.67271634398E+03  0.67271634400E+03  0.50400001928E-02 0.  1.
       -1   -1    0    0    0  501  0.00000000000E+00  0.00000000000E+00 -0.96113405394E+03  0.96113405395E+03  0.50400001928E-02 0. -1.
    10030    2    1    2    0    0  0.00000000000E+00  0.00000000000E+00 -0.28841770996E+03  0.16338503979E+04  0.16081922607E+04 0.  0.
        2    1    3    3  502    0  0.16260792954E+03  0.78158434618E+03 -0.24194748269E+03  0.83417864593E+03  0.25500000920E-02 0. -1.
       -2    1    3    3    0  502 -0.16260792954E+03 -0.78158434618E+03 -0.46470227278E+02  0.79967175202E+03  0.25500000920E-02 0.  1.
</event>
<event>
 5   0  0.7499834E-04  0.1594716E+04  0.7818609E-02  0.8823801E-01
        1   -1    0    0  501    0  0.00000000000E+00  0.00000000000E+00  0.69766493889E+03  0.69766493891E+03  0.50400001928E-02 0.  1.
       -1   -1    0    0    0  501  0.00000000000E+00  0.00000000000E+00 -0.91129647605E+03  0.91129647606E+03  0.50400001928E-02 0. -1.
    10030    2    1    2    0    0  0.00000000000E+00  0.00000000000E+00 -0.21363153715E+03  0.16089614150E+04  0.15947157744E+04 0.  0.
        3    1    3    3  502    0  0.42353493387E+02  0.32930139244E+03 -0.83823749604E+03  0.90159599347E+03  0.10100000352E+00 0. -1.
       -3    1    3    3    0  502 -0.42353493387E+02 -0.32930139244E+03  0.62460595889E+03  0.70736542151E+03  0.10100000352E+00 0.  1.
</event>
<event>
 5   0  0.7633213E-04  0.1128240E+04  0.7818609E-02  0.9178096E-01
       -1   -1    0    0    0  501  0.00000000000E+00  0.00000000000E+00  0.13889827730E+03  0.13889827739E+03  0.50400001928E-02 0. -1.
        1   -1    0    0  501    0  0.00000000000E+00  0.00000000000E+00 -0.22911130465E+04  0.22911130465E+04  0.50400001928E-02 0.  1.
    10030    2    1    2    0    0  0.00000000000E+00  0.00000000000E+00 -0.21522147692E+04  0.24300113239E+04  0.11282404981E+04 0.  0.
        1    1    3    3  502    0  0.52452409563E+03 -0.20727339853E+03 -0.11019410947E+04  0.12378860872E+04  0.50400001928E-02 0. -1.
       -1    1    3    3    0  502 -0.52452409563E+03  0.20727339853E+03 -0.10502736745E+04  0.11921252367E+04  0.50400001928E-02 0.  1.
</event>
<event>
 5   0  0.7124495E-04  0.1762676E+04  0.7818609E-02  0.8726404E-01
        1   -1    0    0  501    0  0.00000000000E+00  0.00000000000E+00  0.11210655519E+04  0.11210655519E+04  0.50400001928E-02 0. -1.
       -1   -1    0    0    0  501  0.00000000000E+00  0.00000000000E+00 -0.69287337075E+03  0.69287337076E+03  0.50400001928E-02 0.  1.
    10030    2    1    2    0    0  0.00000000000E+00  0.00000000000E+00  0.42819218114E+03  0.18139389227E+04  0.17626757703E+04 0.  0.
        2    1    3    3  502    0  0.91564317821E+02 -0.21147978216E+03  0.10895113887E+04  0.11136169847E+04  0.25500000920E-02 0. -1.
       -2    1    3    3    0  502 -0.91564317821E+02  0.21147978216E+03 -0.66131920752E+03  0.70032193797E+03  0.25500000920E-02 0.  1.
</event>
<event>
 5   0  0.1414751E-03  0.1584816E+04  0.7818609E-02  0.8829931E-01
       -2   -1    0    0    0  501  0.00000000000E+00  0.00000000000E+00  0.62996508959E+03  0.62996508960E+03  0.25500000920E-02 0. -1.
        2   -1    0    0  501    0  0.00000000000E+00  0.00000000000E+00 -0.99673876015E+03  0.99673876015E+03  0.25500000920E-02 0.  1.
    10030    2    1    2    0    0  0.00000000000E+00  0.00000000000E+00 -0.36677367055E+03  0.16267038497E+04  0.15848162321E+04 0.  0.
        2    1    3    3  502    0  0.29225970644E+03 -0.39212897379E+03  0.45657411654E+03  0.66905963261E+03  0.25500000920E-02 0. -1.
       -2    1    3    3    0  502 -0.29225970644E+03  0.39212897379E+03 -0.82334778709E+03  0.95764421713E+03  0.25500000920E-02 0.  1.
</event>
<event>
 5   0  0.7124495E-04  0.1371453E+04  0.7818609E-02  0.8974746E-01
       -1   -1    0    0    0  501  0.00000000000E+00  0.00000000000E+00  0.80504503979E+03  0.80504503981E+03  0.50400001928E-02 0. -1.
        1   -1    0    0  501    0  0.00000000000E+00  0.00000000000E+00 -0.58409256617E+03  0.58409256619E+03  0.50400001928E-02 0.  1.
    10030    2    1    2    0    0  0.00000000000E+00  0.00000000000E+00  0.22095247363E+03  0.13891376060E+04  0.13714529860E+04 0.  0.
        2    1    3    3  502    0 -0.26545754401E+03  0.38839579135E+03 -0.39485760591E+03  0.61419176758E+03  0.25500000920E-02 0.  1.
       -2    1    3    3    0  502  0.26545754401E+03 -0.38839579135E+03  0.61581007954E+03  0.77494583842E+03  0.25500000920E-02 0. -1.
</event>
<event>
 5   0  0.7302027E-04  0.1624627E+04  0.7818609E-02  0.8805560E-01
       -1   -1    0    0    0  501  0.00000000000E+00  0.00000000000E+00  0.14207176704E+04  0.14207176704E+04  0.50400001928E-02 0. -1.
        1   -1    0    0  501    0  0.00000000000E+00  0.00000000000E+00 -0.46445061189E+03  0.46445061191E+03  0.50400001928E-02 0.  1.
    10030    2    1    2    0    0  0.00000000000E+00  0.00000000000E+00  0.95626705851E+03  0.18851682823E+04  0.16246269619E+04 0.  0.
        5    1    3    3  502    0 -0.54792595595E+03 -0.19356683021E+03 -0.18046215864E+03  0.60850608186E+03  0.46999998093E+01 0.  1.
       -5    1    3    3    0  502  0.54792595595E+03  0.19356683021E+03  0.11367292172E+04  0.12766622005E+04  0.46999998093E+01 0. -1.
</event>
<event>
 5   0  0.5095750E-04  0.9700755E+03  0.7818609E-02  0.9341988E-01
        3   -1    0    0  501    0  0.00000000000E+00  0.00000000000E+00  0.47214291247E+03  0.47214292327E+03  0.10100000352E+00 0. -1.
       -3   -1    0    0    0  501  0.00000000000E+00  0.00000000000E+00 -0.49828477134E+03  0.49828478157E+03  0.10100000352E+00 0.  1.
    10030    2    1    2    0    0  0.00000000000E+00  0.00000000000E+00 -0.26141858865E+02  0.97042770485E+03  0.97007552982E+03 0.  0.
        5    1    3    3  502    0  0.34152570770E+03  0.12348665107E+03  0.30852794444E+03  0.47655046376E+03  0.46999998093E+01 0. -1.
       -5    1    3    3    0  502 -0.34152570770E+03 -0.12348665107E+03 -0.33466980331E+03  0.49387724108E+03  0.46999998093E+01 0.  1.
</event>
<event>
 5   0  0.1354766E-03  0.1594699E+04  0.7818609E-02  0.8823811E-01
       -2   -1    0    0    0  501  0.00000000000E+00  0.00000000000E+00  0.26884025242E+03  0.26884025243E+03  0.25500000920E-02 0. -1.
        2   -1    0    0  501    0  0.00000000000E+00  0.00000000000E+00 -0.23648489287E+04  0.23648489287E+04  0.25500000920E-02 0.  1.
    10030    2    1    2    0    0  0.00000000000E+00  0.00000000000E+00 -0.20960086763E+04  0.26336891811E+04  0.15946994487E+04 0.  0.
        3    1    3    3  502    0 -0.47758131634E+03 -0.61269537123E+03 -0.13447605366E+04  0.15530165622E+04  0.10100000352E+00 0.  1.
       -3    1    3    3    0  502  0.47758131634E+03  0.61269537123E+03 -0.75124813973E+03  0.10806726189E+04  0.10100000352E+00 0. -1.
</event>
<event>
 5   0  0.1354766E-03  0.8924783E+03  0.7818609E-02  0.9435033E-01
       -2   -1    0    0    0  501  0.00000000000E+00  0.00000000000E+00  0.36694283044E+03  0.36694283045E+03  0.25500000920E-02 0. -1.
        2   -1    0    0  501    0  0.00000000000E+00  0.00000000000E+00 -0.54267136192E+03  0.54267136192E+03  0.25500000920E-02 0.  1.
    10030    2    1    2    0    0  0.00000000000E+00  0.00000000000E+00 -0.17572853147E+03  0.90961419238E+03  0.89247826988E+03 0.  0.
        3    1    3    3  502    0  0.41071797225E+03 -0.13174557563E+03  0.28713751806E+02  0.43228536775E+03  0.10100000352E+00 0.  1.
       -3    1    3    3    0  502 -0.41071797225E+03  0.13174557563E+03 -0.20444228328E+03  0.47732882463E+03  0.10100000352E+00 0. -1.
</event>
<event>
 5   0  0.1414796E-03  0.1606220E+04  0.7818609E-02  0.8816736E-01
       -2   -1    0    0    0  501  0.00000000000E+00  0.00000000000E+00  0.57073644787E+03  0.57073644788E+03  0.25500000920E-02 0. -1.
        2   -1    0    0  501    0  0.00000000000E+00  0.00000000000E+00 -0.11300941653E+04  0.11300941653E+04  0.25500000920E-02 0.  1.
    10030    2    1    2    0    0  0.00000000000E+00  0.00000000000E+00 -0.55935771745E+03  0.17008306132E+04  0.16062203207E+04 0.  0.
        4    1    3    3  502    0  0.11018222799E+03 -0.57172850570E+03 -0.86540670936E+03  0.10430455374E+04  0.12699999809E+01 0.  1.
       -4    1    3    3    0  502 -0.11018222799E+03  0.57172850570E+03  0.30604899191E+03  0.65778507580E+03  0.12699999809E+01 0. -1.
</event>
<event>
 5   0  0.1354766E-03  0.1610887E+04  0.7818609E-02  0.8813887E-01
        2   -1    0    0  501    0  0.00000000000E+00  0.00000000000E+00  0.47338813275E+03  0.47338813275E+03  0.25500000920E-02 0.  1.
       -2   -1    0    0    0  501  0.00000000000E+00  0.00000000000E+00 -0.13704176481E+04  0.13704176481E+04  0.25500000920E-02 0. -1.
    10030    2    1    2    0    0  0.00000000000E+00  0.00000000000E+00 -0.89702951539E+03  0.18438057809E+04  0.16108872730E+04 0.  0.
        3    1    3    3  502    0 -0.66761354455E+03  0.95331358242E+02  0.55551548479E+02  0.67666971077E+03  0.10100000352E+00 0.  1.
       -3    1    3    3    0  502  0.66761354455E+03 -0.95331358242E+02 -0.95258106387E+03  0.11671360701E+04  0.10100000352E+00 0. -1.
</event>
<event>
 5   0  0.1375777E-03  0.1550247E+04  0.7818609E-02  0.8851710E-01
        2   -1    0    0  501    0  0.00000000000E+00  0.00000000000E+00  0.22056165930E+04  0.22056165930E+04  0.25500000920E-02 0.  1.
       -2   -1    0    0    0  501  0.00000000000E+00  0.00000000000E+00 -0.27240310565E+03  0.27240310566E+03  0.25500000920E-02 0. -1.
    10030    2    1    2    0    0  0.00000000000E+00  0.00000000000E+00  0.19332134873E+04  0.24780196986E+04  0.15502474768E+04 0.  0.
        1    1    3    3  502    0 -0.25426217116E+03 -0.11768257443E+03 -0.18863100449E+03  0.33775745127E+03  0.50400001928E-02 0. -1.
       -1    1    3    3    0  502  0.25426217116E+03  0.11768257443E+03  0.21218444918E+04  0.21402622474E+04  0.50400001928E-02 0.  1.
</event>
<event>
 5   0  0.1339162E-03  0.1595067E+04  0.7818609E-02  0.8823584E-01
        2   -1    0    0  501    0  0.00000000000E+00  0.00000000000E+00  0.97349566654E+03  0.97349566654E+03  0.25500000920E-02 0. -1.
       -2   -1    0    0    0  501  0.00000000000E+00  0.00000000000E+00 -0.65337672217E+03  0.65337672218E+03  0.25500000920E-02 0.  1.
    10030    2    1    2    0    0  0.00000000000E+00  0.00000000000E+00  0.32011894437E+03  0.16268723887E+04  0.15950666540E+04 0.  0.
        5    1    3    3  502    0  0.26764638820E+03  0.54838289431E+03 -0.36367645442E+03  0.71038091288E+03  0.46999998093E+01 0.  1.
       -5    1    3    3    0  502 -0.26764638820E+03 -0.54838289431E+03  0.68379539878E+03  0.91649147584E+03  0.46999998093E+01 0. -1.
</event>
<event>
 5   0  0.1339162E-03  0.1566327E+04  0.7818609E-02  0.8841506E-01
       -2   -1    0    0    0  501  0.00000000000E+00  0.00000000000E+00  0.13673907809E+04  0.13673907809E+04  0.25500000920E-02 0.  1.
        2   -1    0    0  501    0  0.00000000000E+00  0.00000000000E+00 -0.44855140545E+03  0.44855140546E+03  0.25500000920E-02 0. -1.
    10030    2    1    2    0    0  0.00000000000E+00  0.00000000000E+00  0.91883937546E+03  0.18159421864E+04  0.15663269858E+04 0.  0.
        5    1    3    3  502    0  0.53420300439E+03 -0.53206208409E+02  0.11204797301E+04  0.12424575108E+04  0.46999998093E+01 0.  1.
       -5    1    3    3    0  502 -0.53420300439E+03  0.53206208409E+02 -0.20164035465E+03  0.57348467559E+03  0.46999998093E+01 0. -1.
</event>
<event>
 5   0  0.7499834E-04  0.1541962E+04  0.7818609E-02  0.8857018E-01
       -1   -1    0    0    0  501  0.00000000000E+00  0.00000000000E+00  0.37708621724E+03  0.37708621727E+03  0.50400001928E-02 0. -1.
        1   -1    0    0  501    0  0.00000000000E+00  0.00000000000E+00 -0.15763285690E+04  0.15763285690E+04  0.50400001928E-02 0.  1.
    10030    2    1    2    0    0  0.00000000000E+00  0.00000000000E+00 -0.11992423518E+04  0.19534147863E+04  0.15419620971E+04 0.  0.
        3    1    3    3  502    0  0.57091909480E+03 -0.25204003377E+03 -0.11731206880E+04  0.13287907850E+04  0.10100000352E+00 0.  1.
       -3    1    3    3    0  502 -0.57091909480E+03  0.25204003377E+03 -0.26121663718E+02  0.62462400126E+03  0.10100000352E+00 0. -1.
</event>
<event>
 5   0  0.7633213E-04  0.1654933E+04  0.7818609E-02  0.8787494E-01
        1   -1    0    0  501    0  0.00000000000E+00  0.00000000000E+00  0.10010306401E+04  0.10010306401E+04  0.50400001928E-02 0. -1.
       -1   -1    0    0    0  501  0.00000000000E+00  0.00000000000E+00 -0.68399555692E+03  0.68399555694E+03  0.50400001928E-02 0.  1.
    10030    2    1    2    0    0  0.00000000000E+00  0.00000000000E+00  0.31703508321E+03  0.16850261971E+04  0.16549326394E+04 0.  0.
        1    1    3    3  502    0  0.17035545070E+03  0.26202042949E+03 -0.62159016764E+03  0.69573703480E+03  0.50400001928E-02 0.  1.
       -1    1    3    3    0  502 -0.17035545070E+03 -0.26202042949E+03  0.93862525085E+03  0.98928916229E+03  0.50400001928E-02 0. -1.
</event>
<event>
 5   0  0.7499834E-04  0.1622825E+04  0.7818609E-02  0.8806647E-01
       -1   -1    0    0    0  501  0.00000000000E+00  0.00000000000E+00  0.70820449458E+03  0.70820449460E+03  0.50400001928E-02 0. -1.
        1   -1    0    0  501    0  0.00000000000E+00  0.00000000000E+00 -0.92966127304E+03  0.92966127305E+03  0.50400001928E-02 0.  1.
    10030    2    1    2    0    0  0.00000000000E+00  0.00000000000E+00 -0.22145677846E+03  0.16378657677E+04  0.16228250578E+04 0.  0.
        3    1    3    3  502    0  0.57543774475E+03 -0.55615032949E+03  0.24522947840E+02  0.80064547226E+03  0.10100000352E+00 0. -1.
       -3    1    3    3    0  502 -0.57543774475E+03  0.55615032949E+03 -0.24597972630E+03  0.83722029540E+03  0.10100000352E+00 0.  1.
</event>
<event>
 5   0  0.7633213E-04  0.1560207E+04  0.7818609E-02  0.8845374E-01
       -1   -1    0    0    0  501  0.00000000000E+00  0.00000000000E+00  0.39080844115E+03  0.39080844118E+03  0.50400001928E-02 0.  1.
        1   -1    0    0  501    0  0.00000000000E+00  0.00000000000E+00 -0.15571856820E+04  0.15571856820E+04  0.50400001928E-02 0. -1.
    10030    2    1    2    0    0  0.00000000000E+00  0.00000000000E+00 -0.11663772409E+04  0.19479941232E+04  0.15602067927E+04 0.  0.
        1    1    3    3  502    0  0.19208692020E+03 -0.75433465193E+03 -0.51899868243E+03  0.93556281692E+03  0.50400001928E-02 0.  1.
       -1    1    3    3    0  502 -0.19208692020E+03  0.75433465193E+03 -0.64737855844E+03  0.10124313063E+04  0.50400001928E-02 0. -1.
</event>
<event>
 5   0  0.7601145E-04  0.1611164E+04  0.7818609E-02  0.8813719E-01
       -1   -1    0    0    0  501  0.00000000000E+00  0.00000000000E+00  0.33339013610E+03  0.33339013613E+03  0.50400001928E-02 0.  1.
        1   -1    0    0  501    0  0.00000000000E+00  0.00000000000E+00 -0.19465554641E+04  0.19465554641E+04  0.50400001928E-02 0. -1.
    10030    2    1    2    0    0  0.00000000000E+00  0.00000000000E+00 -0.16131653280E+04  0.22799456002E+04  0.16111640402E+04 0.  0.
        4    1    3    3  502    0  0.43486114113E+03 -0.63803113462E+03 -0.48150289138E+03  0.90996405870E+03  0.12699999809E+01 0.  1.
       -4    1    3    3    0  502 -0.43486114113E+03  0.63803113462E+03 -0.11316624366E+04  0.13699815415E+04  0.12699999809E+01 0. -1.
</event>
<event>
 5   0  0.1414796E-03  0.1596469E+04  0.7818609E-02  0.8822720E-01
        2   -1    0    0  501    0  0.00000000000E+00  0.00000000000E+00  0.14203631588E+04  0.14203631588E+04  0.25500000920E-02 0. -1.
       -2   -1    0    0    0  501  0.00000000000E+00  0.00000000000E+00 -0.44860234051E+03  0.44860234051E+03  0.25500000920E-02 0.  1.
    10030    2    1    2    0    0  0.00000000000E+00  0.00000000000E+00  0.97176081825E+03  0.18689654993E+04  0.15964689003E+04 0.  0.
        4    1    3    3  502    0 -0.60712032180E+03 -0.17672153375E+03  0.10562237696E+04  0.12310304017E+04  0.12699999809E+01 0. -1.
       -4    1    3    3    0  502  0.60712032180E+03  0.17672153375E+03 -0.84462951329E+02  0.63793509755E+03  0.12699999809E+01 0.  1.
</event>
<event>
 5   0  0.1339162E-03  0.9502403E+03  0.7818609E-02  0.9364870E-01
        2   -1    0    0  501    0  0.00000000000E+00  0.00000000000E+00  0.12522112395E+04  0.12522112395E+04  0.25500000920E-02 0.  1.
       -2   -1    0    0    0  501  0.00000000000E+00  0.00000000000E+00 -0.18027240624E+03  0.18027240626E+03  0.25500000920E-02 0. -1.
    10030    2    1    2    0    0  0.00000000000E+00  0.00000000000E+00  0.10719388333E+04  0.14324836458E+04  0.95024025023E+03 0.  0.
        5    1    3    3  502    0 -0.76337901961E+02 -0.22197911628E+03  0.11586490367E+04  0.11821979037E+04  0.46999998093E+01 0.  1.
       -5    1    3    3    0  502  0.76337901961E+02  0.22197911628E+03 -0.86710203356E+02  0.25028574212E+03  0.46999998093E+01 0. -1.
</event>
<event>
 5   0  0.7633213E-04  0.1597570E+04  0.7818609E-02  0.8822042E-01
        1   -1    0    0  501    0  0.00000000000E+00  0.00000000000E+00  0.96752279415E+03  0.96752279416E+03  0.50400001928E-02 0. -1.
       -1   -1    0    0    0  501  0.00000000000E+00  0.00000000000E+00 -0.65947542891E+03  0.65947542893E+03  0.50400001928E-02 0.  1.
    10030    2    1    2    0    0  0.00000000000E+00  0.00000000000E+00  0.30804736524E+03  0.16269982231E+04  0.15975700419E+04 0.  0.
        1    1    3    3  502    0  0.31374459482E+03  0.72524433379E+03  0.27297631992E+03  0.83602098403E+03  0.50400001928E-02 0. -1.
       -1    1    3    3    0  502 -0.31374459482E+03 -0.72524433379E+03  0.35071045317E+02  0.79097723907E+03  0.50400001928E-02 0.  1.
</event>
<event>
 5   0  0.1354766E-03  0.1419731E+04  0.7818609E-02  0.8939659E-01
        2   -1    0    0  501    0  0.00000000000E+00  0.00000000000E+00  0.11975469172E+04  0.11975469172E+04  0.25500000920E-02 0.  1.
       -2   -1    0    0    0  501  0.00000000000E+00  0.00000000000E+00 -0.42078428229E+03  0.42078428230E+03  0.25500000920E-02 0. -1.
    10030    2    1    2    0    0  0.00000000000E+00  0.00000000000E+00  0.77676263490E+03  0.16183311995E+04  0.14197308478E+04 0.  0.
        3    1    3    3  502    0  0.32294350186E+03 -0.43526039154E+03 -0.13418495192E+03  0.55834552507E+03  0.10100000352E+00 0. -1.
       -3    1    3    3    0  502 -0.32294350186E+03  0.43526039154E+03  0.91094758682E+03  0.10599856744E+04  0.10100000352E+00 0.  1.
</event>
<event>
 5   0  0.1375777E-03  0.1620977E+04  0.7818609E-02  0.8807764E-01
       -2   -1    0    0    0  501  0.00000000000E+00  0.00000000000E+00  0.26916889308E+03  0.26916889309E+03  0.25500000920E-02 0. -1.
        2   -1    0    0  501    0  0.00000000000E+00  0.00000000000E+00 -0.24404434442E+04  0.24404434442E+04  0.25500000920E-02 0.  1.
    10030    2    1    2    0    0  0.00000000000E+00  0.00000000000E+00 -0.21712745511E+04  0.27096123373E+04  0.16209768172E+04 0.  0.
        1    1    3    3  502    0  0.56616759687E+03 -0.53731505276E+03 -0.72079240700E+03  0.10624476023E+04  0.50400001928E-02 0. -1.
       -1    1    3    3    0  502 -0.56616759687E+03  0.53731505276E+03 -0.14504821441E+04  0.16471647350E+04  0.50400001928E-02 0.  1.
</event>
<event>
 5   0  0.1414751E-03  0.1568556E+04  0.7818609E-02  0.8840101E-01
       -2   -1    0    0    0  501  0.00000000000E+00  0.00000000000E+00  0.48495952215E+03  0.48495952216E+03  0.25500000920E-02 0. -1.
        2   -1    0    0  501    0  0.00000000000E+00  0.00000000000E+00 -0.12683372434E+04  0.12683372434E+04  0.25500000920E-02 0.  1.
    10030    2    1    2    0    0  0.00000000000E+00  0.00000000000E+00 -0.78337772121E+03  0.17532967655E+04  0.15685563088E+04 0.  0.
        2    1    3    3  502    0 -0.84192353699E+01  0.43423982334E+03  0.33826095041E+03  0.55050483947E+03  0.25500000920E-02 0. -1.
       -2    1    3    3    0  502  0.84192353699E+01 -0.43423982334E+03 -0.11216386716E+04  0.12027919261E+04  0.25500000920E-02 0.  1.
</event>
<event>
 5   0  0.7124495E-04  0.1583191E+04  0.7818609E-02  0.8830941E-01
        1   -1    0    0  501    0  0.00000000000E+00  0.00000000000E+00  0.17877496925E+04  0.17877496925E+04  0.50400001928E-02 0. -1.
       -1   -1    0    0    0  501  0.00000000000E+00  0.00000000000E+00 -0.35050980739E+03  0.35050980743E+03  0.50400001928E-02 0.  1.
    10030    2    1    2    0    0  0.00000000000E+00  0.00000000000E+00  0.14372398851E+04  0.21382594999E+04  0.15831914609E+04 0.  0.
        2    1    3    3  502    0 -0.61460567798E+03 -0.11419183015E+02  0.45005539126E+02  0.61635706835E+03  0.25500000920E-02 0.  1.
       -2    1    3    3    0  502  0.61460567798E+03  0.11419183015E+02  0.13922343460E+04  0.15219024316E+04  0.25500000920E-02 0. -1.
</event>
<event>
 5   0  0.7601145E-04  0.1656786E+04  0.7818609E-02  0.8786402E-01
        1   -1    0    0  501    0  0.00000000000E+00  0.00000000000E+00  0.14017777701E+04  0.14017777701E+04  0.50400001928E-02 0. -1.
       -1   -1    0    0    0  501  0.00000000000E+00  0.00000000000E+00 -0.48954639755E+03  0.48954639757E+03  0.50400001928E-02 0.  1.
    10030    2    1    2    0    0  0.00000000000E+00  0.00000000000E+00  0.91223137253E+03  0.18913241677E+04  0.16567863562E+04 0.  0.
        4    1    3    3  502    0 -0.51259408100E+02 -0.80873403536E+03  0.25986204650E+03  0.85100420855E+03  0.12699999809E+01 0.  1.
       -4    1    3    3    0  502  0.51259408100E+02  0.80873403536E+03  0.65236932603E+03  0.10403199591E+04  0.12699999809E+01 0. -1.
</event>
<event>
 5   0  0.1339162E-03  0.1557005E+04  0.7818609E-02  0.8847406E-01
        2   -1    0    0  501    0  0.00000000000E+00  0.00000000000E+00  0.13908394246E+04  0.13908394246E+04  0.25500000920E-02 0. -1.
       -2   -1    0    0    0  501  0.00000000000E+00  0.00000000000E+00 -0.43575555929E+03  0.43575555930E+03  0.25500000920E-02 0.  1.
    10030    2    1    2    0    0  0.00000000000E+00  0.00000000000E+00  0.95508386534E+03  0.18265949839E+04  0.15570048316E+04 0.  0.
        5    1    3    3  502    0  0.72611929878E+03 -0.63844461163E+02  0.79821802039E+03  0.10809715303E+04  0.46999998093E+01 0. -1.
       -5    1    3    3    0  502 -0.72611929878E+03  0.63844461163E+02  0.15686584495E+03  0.74562345362E+03  0.46999998093E+01 0.  1.
</event>
<event>
 5   0  0.5095750E-04  0.1309256E+04  0.7818609E-02  0.9022257E-01
        4   -1    0    0  501    0  0.00000000000E+00  0.00000000000E+00  0.91422443848E+03  0.91422532060E+03  0.12699999809E+01 0. -1.
       -4   -1    0    0    0  501  0.00000000000E+00  0.00000000000E+00 -0.46874251645E+03  0.46874423691E+03  0.12699999809E+01 0.  1.
    10030    2    1    2    0    0  0.00000000000E+00  0.00000000000E+00  0.44548192203E+03  0.13829695575E+04  0.13092557634E+04 0.  0.
        3    1    3    3  502    0 -0.97516288097E+02 -0.39813263013E+03 -0.31640644937E+03  0.51781470530E+03  0.10100000352E+00 0.  1.
       -3    1    3    3    0  502  0.97516288097E+02  0.39813263013E+03  0.76188837140E+03  0.86515485221E+03  0.10100000352E+00 0. -1.
</event>
<event>
 5   0  0.7302027E-04  0.1540989E+04  0.7818609E-02  0.8857644E-01
        1   -1    0    0  501    0  0.00000000000E+00  0.00000000000E+00  0.51715697441E+03  0.51715697443E+03  0.50400001928E-02 0.  1.
       -1   -1    0    0    0  501  0.00000000000E+00  0.00000000000E+00 -0.11479339397E+04  0.11479339398E+04  0.50400001928E-02 0. -1.
    10030    2    1    2    0    0  0.00000000000E+00  0.00000000000E+00 -0.63077696534E+03  0.16650909142E+04  0.15409893486E+04 0.  0.
        5    1    3    3  502    0 -0.27044812136E+03 -0.74232497488E+02 -0.10908077269E+04  0.11262931399E+04  0.46999998093E+01 0. -1.
       -5    1    3    3    0  502  0.27044812136E+03  0.74232497488E+02  0.46003076152E+03  0.53879777428E+03  0.46999998093E+01 0.  1.
</event>
<event>
 5   0  0.7601145E-04  0.1569604E+04  0.7818609E-02  0.8839442E-01
       -1   -1    0    0    0  501  0.00000000000E+00  0.00000000000E+00  0.10886196216E+04  0.10886196216E+04  0.50400001928E-02 0.  1.
        1   -1    0    0  501    0  0.00000000000E+00  0.00000000000E+00 -0.56577556409E+03  0.56577556412E+03  0.50400001928E-02 0. -1.
    10030    2    1    2    0    0  0.00000000000E+00  0.00000000000E+00  0.52284405753E+03  0.16543951857E+04  0.15696042565E+04 0.  0.
        4    1    3    3  502    0 -0.21299401670E+02 -0.75681196741E+03  0.47921122031E+03  0.89602624130E+03  0.12699999809E+01 0.  1.
       -4    1    3    3    0  502  0.21299401670E+02  0.75681196741E+03  0.43632837215E+02  0.75836894445E+03  0.12699999809E+01 0. -1.
</event>
<event>
 5   0  0.7499834E-04  0.1587855E+04  0.7818609E-02  0.8828044E-01
       -1   -1    0    0    0  501  0.00000000000E+00  0.00000000000E+00  0.49948165589E+03  0.49948165592E+03  0.50400001928E-02 0. -1.
        1   -1    0    0  501    0  0.00000000000E+00  0.00000000000E+00 -0.12619498220E+04  0.12619498220E+04  0.50400001928E-02 0.  1.
    10030    2    1    2    0    0  0.00000000000E+00  0.00000000000E+00 -0.76246816611E+03  0.17614314779E+04  0.15878548886E+04 0.  0.
        3    1    3    3  502    0  0.36191962238E+03 -0.24887858222E+03  0.35242037239E+03  0.56313985015E+03  0.10100000352E+00 0. -1.
       -3    1    3    3    0  502 -0.36191962238E+03  0.24887858222E+03 -0.11148885385E+04  0.11982916278E+04  0.10100000352E+00 0.  1.
</event>
<event>
 5   0  0.7302027E-04  0.1584304E+04  0.7818609E-02  0.8830249E-01
        1   -1    0    0  501    0  0.00000000000E+00  0.00000000000E+00  0.12804422587E+04  0.12804422587E+04  0.50400001928E-02 0. -1.
       -1   -1    0    0    0  501  0.00000000000E+00  0.00000000000E+00 -0.49006873986E+03  0.49006873989E+03  0.50400001928E-02 0.  1.
    10030    2    1    2    0    0  0.00000000000E+00  0.00000000000E+00  0.79037351881E+03  0.17705109986E+04  0.15843039155E+04 0.  0.
        5    1    3    3  502    0  0.11282534657E+03  0.23863237626E+03 -0.43945934757E+03  0.51266127023E+03  0.46999998093E+01 0.  1.
       -5    1    3    3    0  502 -0.11282534657E+03 -0.23863237626E+03  0.12298328664E+04  0.12578497283E+04  0.46999998093E+01 0. -1.
</event>
<event>
 5   0  0.7633213E-04  0.1487458E+04  0.7818609E-02  0.8892836E-01
       -1   -1    0    0    0  501  0.00000000000E+00  0.00000000000E+00  0.82164380652E+03  0.82164380654E+03  0.50400001928E-02 0.  1.
        1   -1    0    0  501    0  0.00000000000E+00  0.00000000000E+00 -0.67320309993E+03  0.67320309995E+03  0.50400001928E-02 0. -1.
    10030    2    1    2    0    0  0.00000000000E+00  0.00000000000E+00  0.14844070659E+03  0.14948469065E+04  0.14874584466E+04 0.  0.
        1    1    3    3  502    0 -0.27340381397E+03  0.16705659048E+03 -0.60028828308E+03  0.68044365876E+03  0.50400001928E-02 0. -1.
       -1    1    3    3    0  502  0.27340381397E+03 -0.16705659048E+03  0.74872898967E+03  0.81440324773E+03  0.50400001928E-02 0.  1.
</event>
<event>
 5   0  0.5095750E-04  0.1681868E+04  0.7818609E-02  0.8771774E-01
        3   -1    0    0  501    0  0.00000000000E+00  0.00000000000E+00  0.18356997774E+04  0.18356997802E+04  0.10100000352E+00 0. -1.
       -3   -1    0    0    0  501  0.00000000000E+00  0.00000000000E+00 -0.38523174478E+03  0.38523175802E+03  0.10100000352E+00 0.  1.
    10030    2    1    2    0    0  0.00000000000E+00  0.00000000000E+00  0.14504680327E+04  0.22209315382E+04  0.16818678259E+04 0.  0.
        5    1    3    3  502    0  0.58619269137E+02 -0.44873356865E+03 -0.21070249938E+03  0.49921505145E+03  0.46999998093E+01 0.  1.
       -5    1    3    3    0  502 -0.58619269137E+02  0.44873356865E+03  0.16611705320E+04  0.17217164868E+04  0.46999998093E+01 0. -1.
</event>
<event>
 5   0  0.1375777E-03  0.1655167E+04  0.7818609E-02  0.8787356E-01
        2   -1    0    0  501    0  0.00000000000E+00  0.00000000000E+00  0.10858497005E+04  0.10858497005E+04  0.25500000920E-02 0.  1.
       -2   -1    0    0    0  501  0.00000000000E+00  0.00000000000E+00 -0.63074504766E+03  0.63074504766E+03  0.25500000920E-02 0. -1.
    10030    2    1    2    0    0  0.00000000000E+00  0.00000000000E+00  0.45510465280E+03  0.17165947481E+04  0.16551668448E+04 0.  0.
        1    1    3    3  502    0  0.38884189723E+03 -0.12166062585E+03 -0.51952531823E+03  0.66023169057E+03  0.50400001928E-02 0. -1.
       -1    1    3    3    0  502 -0.38884189723E+03  0.12166062585E+03  0.97462997102E+03  0.10563630576E+04  0.50400001928E-02 0.  1.
</event>
<event>
 5   0  0.7633213E-04  0.1620399E+04  0.7818609E-02  0.8808114E-01
       -1   -1    0    0    0  501  0.00000000000E+00  0.00000000000E+00  0.47158725650E+03  0.47158725652E+03  0.50400001928E-02 0. -1.
        1   -1    0    0  501    0  0.00000000000E+00  0.00000000000E+00 -0.13919435289E+04  0.13919435289E+04  0.50400001928E-02 0.  1.
    10030    2    1    2    0    0  0.00000000000E+00  0.00000000000E+00 -0.92035627237E+03  0.18635307854E+04  0.16203985066E+04 0.  0.
        1    1    3    3  502    0 -0.56405210890E+03  0.29274282654E+03  0.11779193425E+03  0.64631887165E+03  0.50400001928E-02 0. -1.
       -1    1    3    3    0  502  0.56405210890E+03 -0.29274282654E+03 -0.10381482066E+04  0.12172119138E+04  0.50400001928E-02 0.  1.
</event>
<event>
 5   0  0.1375777E-03  0.1713131E+04  0.7818609E-02  0.8753910E-01
       -2   -1    0    0    0  501  0.00000000000E+00  0.00000000000E+00  0.11415834003E+04  0.11415834003E+04  0.25500000920E-02 0. -1.
        2   -1    0    0  501    0  0.00000000000E+00  0.00000000000E+00 -0.64270799898E+03  0.64270799899E+03  0.25500000920E-02 0.  1.
    10030    2    1    2    0    0  0.00000000000E+00  0.00000000000E+00  0.49887540136E+03  0.17842913993E+04  0.17131313819E+04 0.  0.
        1    1    3    3  502    0  0.74382107672E+03  0.11023890767E+03  0.67669985283E+03  0.10116052104E+04  0.50400001928E-02 0.  1.
       -1    1    3    3    0  502 -0.74382107672E+03 -0.11023890767E+03 -0.17782445147E+03  0.77268618890E+03  0.50400001928E-02 0. -1.
</event>
<event>
 5   0  0.1339162E-03  0.1619622E+04  0.7818609E-02  0.8808584E-01
       -2   -1    0    0    0  501  0.00000000000E+00  0.00000000000E+00  0.83697843319E+03  0.83697843319E+03  0.25500000920E-02 0. -1.
        2   -1    0    0  501    0  0.00000000000E+00  0.00000000000E+00 -0.78352491497E+03  0.78352491497E+03  0.25500000920E-02 0.  1.
    10030    2    1    2    0    0  0.00000000000E+00  0.00000000000E+00  0.53453518221E+02  0.16205033482E+04  0.16196215060E+04 0.  0.
        5    1    3    3  502    0 -0.34307770118E+03 -0.60452461435E+03  0.44242745878E+03  0.82396387341E+03  0.46999998093E+01 0. -1.
       -5    1    3    3    0  502  0.34307770118E+03  0.60452461435E+03 -0.38897394056E+03  0.79653947475E+03  0.46999998093E+01 0.  1.
</event>
<event>
 5   0  0.7124495E-04  0.1731359E+04  0.7818609E-02  0.8743679E-01
        1   -1    0    0  501    0  0.00000000000E+00  0.00000000000E+00  0.15160209262E+04  0.15160209263E+04  0.50400001928E-02 0.  1.
       -1   -1    0    0    0  501  0.00000000000E+00  0.00000000000E+00 -0.49432078074E+03  0.49432078077E+03  0.50400001928E-02 0. -1.
    10030    2    1    2    0    0  0.00000000000E+00  0.00000000000E+00  0.10217001455E+04  0.20103417070E+04  0.17313585971E+04 0.  0.
        2    1    3    3  502    0  0.20921854091E+03  0.81443620554E+03  0.74972222433E+03  0.11265709673E+04  0.25500000920E-02 0.  1.
       -2    1    3    3    0  502 -0.20921854091E+03 -0.81443620554E+03  0.27197792117E+03  0.88377073970E+03  0.25500000920E-02 0. -1.
</event>
<event>
 5   0  0.7633213E-04  0.1560342E+04  0.7818609E-02  0.8845289E-01
        1   -1    0    0  501    0  0.00000000000E+00  0.00000000000E+00  0.10902298058E+04  0.10902298058E+04  0.50400001928E-02 0.  1.
       -1   -1    0    0    0  501  0.00000000000E+00  0.00000000000E+00 -0.55829243246E+03  0.55829243248E+03  0.50400001928E-02 0. -1.
    10030    2    1    2    0    0  0.00000000000E+00  0.00000000000E+00  0.53193737335E+03  0.16485222383E+04  0.15603423346E+04 0.  0.
        1    1    3    3  502    0 -0.29246885766E+03  0.14976497463E+03 -0.48162131444E+03  0.58303230689E+03  0.50400001928E-02 0. -1.
       -1    1    3    3    0  502  0.29246885766E+03 -0.14976497463E+03  0.10135586878E+04  0.10654899314E+04  0.50400001928E-02 0.  1.
</event>
<event>
 5   0  0.1414751E-03  0.1404137E+04  0.7818609E-02  0.8950830E-01
       -2   -1    0    0    0  501  0.00000000000E+00  0.00000000000E+00  0.50468323887E+03  0.50468323888E+03  0.25500000920E-02 0. -1.
        2   -1    0    0  501    0  0.00000000000E+00  0.00000000000E+00 -0.97665189992E+03  0.97665189992E+03  0.25500000920E-02 0.  1.
    10030    2    1    2    0    0  0.00000000000E+00  0.00000000000E+00 -0.47196866105E+03  0.14813351388E+04  0.14041365234E+04 0.  0.
        2    1    3    3  502    0  0.32931608718E+03 -0.37230511978E+03  0.28709789054E+03  0.57400817611E+03  0.25500000920E-02 0. -1.
       -2    1    3    3    0  502 -0.32931608718E+03  0.37230511978E+03 -0.75906655158E+03  0.90732696269E+03  0.25500000920E-02 0.  1.
</event>
<event>
 5   0  0.7499834E-04  0.1619158E+04  0.7818609E-02  0.8808865E-01
       -1   -1    0    0    0  501  0.00000000000E+00  0.00000000000E+00  0.70005435343E+03  0.70005435345E+03  0.50400001928E-02 0. -1.
        1   -1    0    0  501    0  0.00000000000E+00  0.00000000000E+00 -0.93623839407E+03  0.93623839409E+03  0.50400001928E-02 0.  1.
    10030    2    1    2    0    0  0.00000000000E+00  0.00000000000E+00 -0.23618404064E+03  0.16362927475E+04  0.16191575138E+04 0.  0.
        3    1    3    3  502    0  0.13967872781E+03  0.40230452543E+03  0.57771363653E+03  0.71771312808E+03  0.10100000352E+00 0. -1.
       -3    1    3    3    0  502 -0.13967872781E+03 -0.40230452543E+03 -0.81389767717E+03  0.91857961946E+03  0.10100000352E+00 0.  1.
</event>
<event>
 5   0  0.7499834E-04  0.1566383E+04  0.7818609E-02  0.8841471E-01
       -1   -1    0    0    0  501  0.00000000000E+00  0.00000000000E+00  0.83435953859E+03  0.83435953860E+03  0.50400001928E-02 0.  1.
        1   -1    0    0  501    0  0.00000000000E+00  0.00000000000E+00 -0.73516125760E+03  0.73516125761E+03  0.50400001928E-02 0. -1.
    10030    2    1    2    0    0  0.00000000000E+00  0.00000000000E+00  0.99198280989E+02  0.15695207962E+04  0.15663828494E+04 0.  0.
        3    1    3    3  502    0  0.20122155226E+03  0.45437455649E+03 -0.55695845067E+03  0.74642419351E+03  0.10100000352E+00 0. -1.
       -3    1    3    3    0  502 -0.20122155226E+03 -0.45437455649E+03  0.65615673166E+03  0.82309660271E+03  0.10100000352E+00 0.  1.
</event>
<event>
 5   0  0.1414751E-03  0.1714716E+04  0.7818609E-02  0.8753016E-01
       -2   -1    0    0    0  501  0.00000000000E+00  0.00000000000E+00  0.40660130053E+03  0.40660130054E+03  0.25500000920E-02 0.  1.
        2   -1    0    0  501    0  0.00000000000E+00  0.00000000000E+00 -0.18078216552E+04  0.18078216552E+04  0.25500000920E-02 0. -1.
    10030    2    1    2    0    0  0.00000000000E+00  0.00000000000E+00 -0.14012203547E+04  0.22144229558E+04  0.17147158787E+04 0.  0.
        2    1    3    3  502    0 -0.34266601009E+03 -0.78590176824E+03 -0.70193497262E+03  0.11080497686E+04  0.25500000920E-02 0. -1.
       -2    1    3    3    0  502  0.34266601009E+03  0.78590176824E+03 -0.69928538209E+03  0.11063731872E+04  0.25500000920E-02 0.  1.
</event>
<event>
 5   0  0.7302027E-04  0.1548670E+04  0.7818609E-02  0.8852718E-01
        1   -1    0    0  501    0  0.00000000000E+00  0.00000000000E+00  0.16345804346E+04  0.16345804346E+04  0.50400001928E-02 0.  1.
       -1   -1    0    0    0  501  0.00000000000E+00  0.00000000000E+00 -0.36681868264E+03  0.36681868267E+03  0.50400001928E-02 0. -1.
    10030    2    1    2    0    0  0.00000000000E+00  0.00000000000E+00  0.12677617520E+04  0.20013991173E+04  0.15486699348E+04 0.  0.
        5    1    3    3  502    0 -0.82094842481E+02  0.42777767993E+03 -0.19345452563E+03  0.47663408407E+03  0.46999998093E+01 0. -1.
       -5    1    3    3    0  502  0.82094842481E+02 -0.42777767993E+03  0.14612162776E+04  0.15247650332E+04  0.46999998093E+01 0.  1.
</event>
<event>
 5   0  0.1354766E-03  0.1590874E+04  0.7818609E-02  0.8826174E-01
       -2   -1    0    0    0  501  0.00000000000E+00  0.00000000000E+00  0.53357877884E+03  0.53357877884E+03  0.25500000920E-02 0. -1.
        2   -1    0    0  501    0  0.00000000000E+00  0.00000000000E+00 -0.11858039085E+04  0.11858039085E+04  0.25500000920E-02 0.  1.
    10030    2    1    2    0    0  0.00000000000E+00  0.00000000000E+00 -0.65222512970E+03  0.17193826874E+04  0.15908737240E+04 0.  0.
        3    1    3    3  502    0 -0.28688669944E+03 -0.29373605275E+02  0.47508871408E+03  0.55576621295E+03  0.10100000352E+00 0. -1.
       -3    1    3    3    0  502  0.28688669944E+03  0.29373605275E+02 -0.11273138438E+04  0.11636164744E+04  0.10100000352E+00 0.  1.
</event>
<event>
 5   0  0.1354766E-03  0.1574796E+04  0.7818609E-02  0.8836183E-01
        2   -1    0    0  501    0  0.00000000000E+00  0.00000000000E+00  0.12337292290E+04  0.12337292290E+04  0.25500000920E-02 0.  1.
       -2   -1    0    0    0  501  0.00000000000E+00  0.00000000000E+00 -0.50253791325E+03  0.50253791326E+03  0.25500000920E-02 0. -1.
    10030    2    1    2    0    0  0.00000000000E+00  0.00000000000E+00  0.73119131578E+03  0.17362671423E+04  0.15747961294E+04 0.  0.
        3    1    3    3  502    0  0.57723144271E+03 -0.44116490306E+03  0.70032538691E+03  0.10090977494E+04  0.10100000352E+00 0.  1.
       -3    1    3    3    0  502 -0.57723144271E+03  0.44116490306E+03  0.30865928867E+02  0.72716939286E+03  0.10100000352E+00 0. -1.
</event>
<event>
 5   0  0.1414751E-03  0.1597708E+04  0.7818609E-02  0.8821957E-01
        2   -1    0    0  501    0  0.00000000000E+00  0.00000000000E+00  0.21106469030E+04  0.21106469030E+04  0.25500000920E-02 0. -1.
       -2   -1    0    0    0  501  0.00000000000E+00  0.00000000000E+00 -0.30235648928E+03  0.30235648929E+03  0.25500000920E-02 0.  1.
    10030    2    1    2    0    0  0.00000000000E+00  0.00000000000E+00  0.18082904137E+04  0.24130033923E+04  0.15977080931E+04 0.  0.
        2    1    3    3  502    0 -0.40616388585E+03  0.67477179413E+03  0.70218535768E+03  0.10551541844E+04  0.25500000920E-02 0.  1.
       -2    1    3    3    0  502  0.40616388585E+03 -0.67477179413E+03  0.11061050560E+04  0.13578492079E+04  0.25500000920E-02 0. -1.
</event>
<event>
 5   0  0.7601145E-04  0.1593792E+04  0.7818609E-02  0.8824371E-01
       -1   -1    0    0    0  501  0.00000000000E+00  0.00000000000E+00  0.40980169525E+03  0.40980169528E+03  0.50400001928E-02 0. -1.
        1   -1    0    0  501    0  0.00000000000E+00  0.00000000000E+00 -0.15496351987E+04  0.15496351987E+04  0.50400001928E-02 0.  1.
    10030    2    1    2    0    0  0.00000000000E+00  0.00000000000E+00 -0.11398335035E+04  0.19594368940E+04  0.15937918703E+04 0.  0.
        4    1    3    3  502    0 -0.16516292277E+03 -0.39058243659E+03  0.25956084108E+03  0.49719902851E+03  0.12699999809E+01 0. -1.
       -4    1    3    3    0  502  0.16516292277E+03  0.39058243659E+03 -0.13993943446E+04  0.14622378655E+04  0.12699999809E+01 0.  1.
</event>
<event>
 5   0  0.1375777E-03  0.1249511E+04  0.7818609E-02  0.9070590E-01
       -2   -1    0    0    0  501  0.00000000000E+00  0.00000000000E+00  0.92870905766E+03  0.92870905766E+03  0.25500000920E-02 0.  1.
        2   -1    0    0  501    0  0.00000000000E+00  0.00000000000E+00 -0.42028184153E+03  0.42028184154E+03  0.25500000920E-02 0. -1.
    10030    2    1    2    0    0  0.00000000000E+00  0.00000000000E+00  0.50842721613E+03  0.13489908992E+04  0.12495111892E+04 0.  0.
        1    1    3    3  502    0 -0.43891023626E+03 -0.98379974423E+02 -0.21389468729E+03  0.49806801959E+03  0.50400001928E-02 0. -1.
       -1    1    3    3    0  502  0.43891023626E+03  0.98379974423E+02  0.72232190342E+03  0.85092287961E+03  0.50400001928E-02 0.  1.
</event>
<event>
 5   0  0.1414751E-03  0.1587467E+04  0.7818609E-02  0.8828285E-01
       -2   -1    0    0    0  501  0.00000000000E+00  0.00000000000E+00  0.55171843257E+03  0.55171843257E+03  0.25500000920E-02 0.  1.
        2   -1    0    0  501    0  0.00000000000E+00  0.00000000000E+00 -0.11419096996E+04  0.11419096996E+04  0.25500000920E-02 0. -1.
    10030    2    1    2    0    0  0.00000000000E+00  0.00000000000E+00 -0.59019126704E+03  0.16936281322E+04  0.15874666984E+04 0.  0.
        2    1    3    3  502    0 -0.26962882873E+03  0.27341356307E+03 -0.10362150167E+04  0.11050774827E+04  0.25500000920E-02 0. -1.
       -2    1    3    3    0  502  0.26962882873E+03 -0.27341356307E+03  0.44602374970E+03  0.58855064952E+03  0.25500000920E-02 0.  1.
</event>
<event>
 5   0  0.1375777E-03  0.1596953E+04  0.7818609E-02  0.8822422E-01
        2   -1    0    0  501    0  0.00000000000E+00  0.00000000000E+00  0.28755199861E+04  0.28755199861E+04  0.25500000920E-02 0.  1.
       -2   -1    0    0    0  501  0.00000000000E+00  0.00000000000E+00 -0.22172154247E+03  0.22172154248E+03  0.25500000920E-02 0. -1.
    10030    2    1    2    0    0  0.00000000000E+00  0.00000000000E+00  0.26537984437E+04  0.30972415286E+04  0.15969530071E+04 0.  0.
        1    1    3    3  502    0  0.45177449169E+03 -0.36614120500E+03  0.26566175858E+03  0.63932444294E+03  0.50400001928E-02 0. -1.
       -1    1    3    3    0  502 -0.45177449169E+03  0.36614120500E+03  0.23881366851E+04  0.24579170857E+04  0.50400001928E-02 0.  1.
</event>
<event>
 5   0  0.1354766E-03  0.1461512E+04  0.7818609E-02  0.8910458E-01
        2   -1    0    0  501    0  0.00000000000E+00  0.00000000000E+00  0.74411350752E+03  0.74411350752E+03  0.25500000920E-02 0.  1.
       -2   -1    0    0    0  501  0.00000000000E+00  0.00000000000E+00 -0.71763819853E+03  0.71763819853E+03  0.25500000920E-02 0. -1.
    10030    2    1    2    0    0  0.00000000000E+00  0.00000000000E+00  0.26475308990E+02  0.14617517061E+04  0.14615119254E+04 0.  0.
        3    1    3    3  502    0 -0.67527531911E+03  0.11055783760E+03 -0.24328926848E+03  0.72622962650E+03  0.10100000352E+00 0. -1.
       -3    1    3    3    0  502  0.67527531911E+03 -0.11055783760E+03  0.26976457747E+03  0.73552207955E+03  0.10100000352E+00 0.  1.
</event>
<event>
 5   0  0.7124495E-04  0.1626660E+04  0.7818609E-02  0.8804335E-01
       -1   -1    0    0    0  501  0.00000000000E+00  0.00000000000E+00  0.51320365884E+03  0.51320365886E+03  0.50400001928E-02 0. -1.
        1   -1    0    0  501    0  0.00000000000E+00  0.00000000000E+00 -0.12889733129E+04  0.12889733129E+04  0.50400001928E-02 0.  1.
    10030    2    1    2    0    0  0.00000000000E+00  0.00000000000E+00 -0.77576965402E+03  0.18021769717E+04  0.16266601616E+04 0.  0.
        2    1    3    3  502    0 -0.15261194761E+03 -0.16188950407E+03 -0.12546049342E+04  0.12741790137E+04  0.25500000920E-02 0.  1.
       -2    1    3    3    0  502  0.15261194761E+03  0.16188950407E+03  0.47883528019E+03  0.52799795799E+03  0.25500000920E-02 0. -1.
</event>
<event>
 5   0  0.1354766E-03  0.1796952E+04  0.7818609E-02  0.8707922E-01
        2   -1    0    0  501    0  0.00000000000E+00  0.00000000000E+00  0.10436674088E+04  0.10436674088E+04  0.25500000920E-02 0.  1.
       -2   -1    0    0    0  501  0.00000000000E+00  0.00000000000E+00 -0.77348326510E+03  0.77348326511E+03  0.25500000920E-02 0. -1.
    10030    2    1    2    0    0  0.00000000000E+00  0.00000000000E+00  0.27018414368E+03  0.18171506739E+04  0.17969521697E+04 0.  0.
        3    1    3    3  502    0 -0.12824082348E+02 -0.43308096661E+03 -0.66086122336E+03  0.79022854129E+03  0.10100000352E+00 0. -1.
       -3    1    3    3    0  502  0.12824082348E+02  0.43308096661E+03  0.93104536704E+03  0.10269221326E+04  0.10100000352E+00 0.  1.
</event>
<event>
 5   0  0.1414796E-03  0.1595911E+04  0.7818609E-02  0.8823064E-01
       -2   -1    0    0    0  501  0.00000000000E+00  0.00000000000E+00  0.23308715920E+03  0.23308715921E+03  0.25500000920E-02 0.  1.
        2   -1    0    0  501    0  0.00000000000E+00  0.00000000000E+00 -0.27317382574E+04  0.27317382574E+04  0.25500000920E-02 0. -1.
    10030    2    1    2    0    0  0.00000000000E+00  0.00000000000E+00 -0.24986510982E+04  0.29648254166E+04  0.15959111631E+04 0.  0.
        4    1    3    3  502    0 -0.11423377577E+03  0.22716227812E+03  0.15581116989E+03  0.29821265850E+03  0.12699999809E+01 0.  1.
       -4    1    3    3    0  502  0.11423377577E+03 -0.22716227812E+03 -0.26544622680E+04  0.26666127581E+04  0.12699999809E+01 0. -1.
</event>
<event>
 5   0  0.7633213E-04  0.1616445E+04  0.7818609E-02  0.8810509E-01
        1   -1    0    0  501    0  0.00000000000E+00  0.00000000000E+00  0.11855885771E+04  0.11855885771E+04  0.50400001928E-02 0. -1.
       -1   -1    0    0    0  501  0.00000000000E+00  0.00000000000E+00 -0.55096970086E+03  0.55096970088E+03  0.50400001928E-02 0.  1.
    10030    2    1    2    0    0  0.00000000000E+00  0.00000000000E+00  0.63461887621E+03  0.17365582780E+04  0.16164447206E+04 0.  0.
        1    1    3    3  502    0 -0.19562996709E+03 -0.54774326748E+03  0.92019551576E+03  0.10886016527E+04  0.50400001928E-02 0. -1.
       -1    1    3    3    0  502  0.19562996709E+03  0.54774326748E+03 -0.28557663956E+03  0.64795662523E+03  0.50400001928E-02 0.  1.
</event>
<event>
 5   0  0.7124495E-04  0.1632282E+04  0.7818609E-02  0.8800958E-01
       -1   -1    0    0    0  501  0.00000000000E+00  0.00000000000E+00  0.71744499870E+03  0.71744499872E+03  0.50400001928E-02 0. -1.
        1   -1    0    0  501    0  0.00000000000E+00  0.00000000000E+00 -0.92841416302E+03  0.92841416303E+03  0.50400001928E-02 0.  1.
    10030    2    1    2    0    0  0.00000000000E+00  0.00000000000E+00 -0.21096916432E+03  0.16458591618E+04  0.16322819585E+04 0.  0.
        2    1    3    3  502    0  0.16500475664E+03  0.60945763803E+02  0.69810441057E+03  0.71992410982E+03  0.25500000920E-02 0. -1.
       -2    1    3    3    0  502 -0.16500475664E+03 -0.60945763803E+02 -0.90907357488E+03  0.92593505193E+03  0.25500000920E-02 0.  1.
</event>
<event>
 5   0  0.7302027E-04  0.1639950E+04  0.7818609E-02  0.8796374E-01
       -1   -1    0    0    0  501  0.00000000000E+00  0.00000000000E+00  0.30862062081E+03  0.30862062085E+03  0.50400001928E-02 0.  1.
        1   -1    0    0  501    0  0.00000000000E+00  0.00000000000E+00 -0.21785937565E+04  0.21785937565E+04  0.50400001928E-02 0. -1.
    10030    2    1    2    0    0  0.00000000000E+00  0.00000000000E+00 -0.18699731357E+04  0.24872143773E+04  0.16399499476E+04 0.  0.
        5    1    3    3  502    0 -0.33920033538E+02 -0.60592315547E+03 -0.17712641152E+04  0.18723493517E+04  0.46999998093E+01 0. -1.
       -5    1    3    3    0  502  0.33920033538E+02  0.60592315547E+03 -0.98709020444E+02  0.61486502561E+03  0.46999998093E+01 0.  1.
</event>
<event>
 5   0  0.5095750E-04  0.1598882E+04  0.7818609E-02  0.8821235E-01
       -3   -1    0    0    0  501  0.00000000000E+00  0.00000000000E+00  0.42322295689E+03  0.42322296894E+03  0.10100000352E+00 0.  1.
        3   -1    0    0  501    0  0.00000000000E+00  0.00000000000E+00 -0.15100924061E+04  0.15100924095E+04  0.10100000352E+00 0. -1.
    10030    2    1    2    0    0  0.00000000000E+00  0.00000000000E+00 -0.10868694492E+04  0.19333153784E+04  0.15988818445E+04 0.  0.
        3    1    3    3  502    0 -0.66674368344E+03  0.14862533381E+03 -0.10455946421E+04  0.12489614866E+04  0.10100000352E+00 0. -1.
       -3    1    3    3    0  502  0.66674368344E+03 -0.14862533381E+03 -0.41274807059E+02  0.68435389175E+03  0.10100000352E+00 0.  1.
</event>
<event>
 5   0  0.7499834E-04  0.1604909E+04  0.7818609E-02  0.8817538E-01
        1   -1    0    0  501    0  0.00000000000E+00  0.00000000000E+00  0.24233303198E+04  0.24233303198E+04  0.50400001928E-02 0. -1.
       -1   -1    0    0    0  501  0.00000000000E+00  0.00000000000E+00 -0.26572251593E+03  0.26572251598E+03  0.50400001928E-02 0.  1.
    10030    2    1    2    0    0  0.00000000000E+00  0.00000000000E+00  0.21576078038E+04  0.26890528358E+04  0.16049092555E+04 0.  0.
        3    1    3    3  502    0 -0.77199613913E+03 -0.21847330367E+03  0.10536825360E+04  0.13243698578E+04  0.10100000352E+00 0.  1.
       -3    1    3    3    0  502  0.77199613913E+03  0.21847330367E+03  0.11039252678E+04  0.13646829780E+04  0.10100000352E+00 0. -1.
</event>
<event>
 5   0  0.1414796E-03  0.1593721E+04  0.7818609E-02  0.8824415E-01
       -2   -1    0    0    0  501  0.00000000000E+00  0.00000000000E+00  0.46376540522E+03  0.46376540522E+03  0.25500000920E-02 0. -1.
        2   -1    0    0  501    0  0.00000000000E+00  0.00000000000E+00 -0.13691975808E+04  0.13691975808E+04  0.25500000920E-02 0.  1.
    10030    2    1    2    0    0  0.00000000000E+00  0.00000000000E+00 -0.90543217555E+03  0.18329629860E+04  0.15937207671E+04 0.  0.
        4    1    3    3  502    0  0.59084430445E+03  0.52297043994E+03 -0.32469740765E+03  0.85324386466E+03  0.12699999809E+01 0. -1.
       -4    1    3    3    0  502 -0.59084430445E+03 -0.52297043994E+03 -0.58073476790E+03  0.97971912133E+03  0.12699999809E+01 0.  1.
</event>
<event>
 5   0  0.7633213E-04  0.1610372E+04  0.7818609E-02  0.8814201E-01
        1   -1    0    0  501    0  0.00000000000E+00  0.00000000000E+00  0.22375634943E+04  0.22375634943E+04  0.50400001928E-02 0.  1.
       -1   -1    0    0    0  501  0.00000000000E+00  0.00000000000E+00 -0.28974566028E+03  0.28974566033E+03  0.50400001928E-02 0. -1.
    10030    2    1    2    0    0  0.00000000000E+00  0.00000000000E+00  0.19478178340E+04  0.25273091547E+04  0.16103717734E+04 0.  0.
        1    1    3    3  502    0  0.48844740864E+03  0.51554374265E+03  0.37845211640E+03  0.80473115140E+03  0.50400001928E-02 0. -1.
       -1    1    3    3    0  502 -0.48844740864E+03 -0.51554374265E+03  0.15693657176E+04  0.17225780033E+04  0.50400001928E-02 0.  1.
</event>
<event>
 5   0  0.1339162E-03  0.1603751E+04  0.7818609E-02  0.8818247E-01
        2   -1    0    0  501    0  0.00000000000E+00  0.00000000000E+00  0.10468115073E+04  0.10468115073E+04  0.25500000920E-02 0.  1.
       -2   -1    0    0    0  501  0.00000000000E+00  0.00000000000E+00 -0.61425062418E+03  0.61425062418E+03  0.25500000920E-02 0. -1.
    10030    2    1    2    0    0  0.00000000000E+00  0.00000000000E+00  0.43256088316E+03  0.16610621315E+04  0.16037513795E+04 0.  0.
        5    1    3    3  502    0  0.10013381257E+03  0.55181495369E+03  0.80987162224E+03  0.98510946501E+03  0.46999998093E+01 0.  1.
       -5    1    3    3    0  502 -0.10013381257E+03 -0.55181495369E+03 -0.37731073908E+03  0.67595266651E+03  0.46999998093E+01 0. -1.
</event>
<event>
 5   0  0.1339162E-03  0.1594367E+04  0.7818609E-02  0.8824016E-01
       -2   -1    0    0    0  501  0.00000000000E+00  0.00000000000E+00  0.34239188094E+03  0.34239188095E+03  0.25500000920E-02 0.  1.
        2   -1    0    0  501    0  0.00000000000E+00  0.00000000000E+00 -0.18560659175E+04  0.18560659175E+04  0.25500000920E-02 0. -1.
    10030    2    1    2    0    0  0.00000000000E+00  0.00000000000E+00 -0.15136740366E+04  0.21984577984E+04  0.15943674616E+04 0.  0.
        5    1    3    3  502    0 -0.29046081470E+03  0.63455167505E+03 -0.22554986357E+03  0.73342903143E+03  0.46999998093E+01 0.  1.
       -5    1    3    3    0  502  0.29046081470E+03 -0.63455167505E+03 -0.12881241730E+04  0.14650287670E+04  0.46999998093E+01 0. -1.
</event>
<event>
 5   0  0.1339162E-03  0.1652726E+04  0.7818609E-02  0.8788795E-01
        2   -1    0    0  501    0  0.00000000000E+00  0.00000000000E+00  0.53213862581E+03  0.53213862582E+03  0.25500000920E-02 0. -1.
       -2   -1    0    0    0  501  0.00000000000E+00  0.00000000000E+00 -0.12832666796E+04  0.12832666796E+04  0.25500000920E-02 0.  1.
    10030    2    1    2    0    0  0.00000000000E+00  0.00000000000E+00 -0.75112805382E+03  0.18154053055E+04  0.16527259512E+04 0.  0.
        5    1    3    3  502    0  0.10279844768E+03 -0.64139096468E+03  0.18550067295E+03  0.67556086334E+03  0.46999998093E+01 0.  1.
       -5    1    3    3    0  502 -0.10279844768E+03  0.64139096468E+03 -0.93662872677E+03  0.11398444421E+04  0.46999998093E+01 0. -1.
</event>
<event>
 5   0  0.1414751E-03  0.1561024E+04  0.7818609E-02  0.8844857E-01
        2   -1    0    0  501    0  0.00000000000E+00  0.00000000000E+00  0.17634942398E+04  0.17634942398E+04  0.25500000920E-02 0. -1.
       -2   -1    0    0    0  501  0.00000000000E+00  0.00000000000E+00 -0.34544988135E+03  0.34544988136E+03  0.25500000920E-02 0.  1.
    10030    2    1    2    0    0  0.00000000000E+00  0.00000000000E+00  0.14180443584E+04  0.21089441211E+04  0.15610238639E+04 0.  0.
        2    1    3    3  502    0  0.48657233126E+02  0.59700971059E+03  0.13850771639E+04  0.15090483329E+04  0.25500000920E-02 0. -1.
       -2    1    3    3    0  502 -0.48657233126E+02 -0.59700971059E+03  0.32967194511E+02  0.59989578828E+03  0.25500000920E-02 0.  1.
</event>
<event>
 5   0  0.7601145E-04  0.1607868E+04  0.7818609E-02  0.8815729E-01
        1   -1    0    0  501    0  0.00000000000E+00  0.00000000000E+00  0.14127971335E+04  0.14127971335E+04  0.50400001928E-02 0. -1.
       -1   -1    0    0    0  501  0.00000000000E+00  0.00000000000E+00 -0.45746815220E+03  0.45746815223E+03  0.50400001928E-02 0.  1.
    10030    2    1    2    0    0  0.00000000000E+00  0.00000000000E+00  0.95532898131E+03  0.18702652857E+04  0.16078677733E+04 0.  0.
        4    1    3    3  502    0 -0.78050304726E+03  0.93859286742E+02  0.67339103501E+03  0.10351094973E+04  0.12699999809E+01 0. -1.
       -4    1    3    3    0  502  0.78050304726E+03 -0.93859286742E+02  0.28193794629E+03  0.83515578843E+03  0.12699999809E+01 0.  1.
</event>
<event>
 5   0  0.1375777E-03  0.1591384E+04  0.7818609E-02  0.8825859E-01
       -2   -1    0    0    0  501  0.00000000000E+00  0.00000000000E+00  0.46149721846E+03  0.46149721846E+03  0.25500000920E-02 0.  1.
        2   -1    0    0  501    0  0.00000000000E+00  0.00000000000E+00 -0.13718949404E+04  0.13718949404E+04  0.25500000920E-02 0. -1.
    10030    2    1    2    0    0  0.00000000000E+00  0.00000000000E+00 -0.91039772196E+03  0.18333921589E+04  0.15913839248E+04 0.  0.
        1    1    3    3  502    0 -0.93908273471E+02  0.67896161241E+03  0.10384567908E+02  0.68550381052E+03  0.50400001928E-02 0.  1.
       -1    1    3    3    0  502  0.93908273471E+02 -0.67896161241E+03 -0.92078228987E+03  0.11478883484E+04  0.50400001928E-02 0. -1.
</event>
<event>
 5   0  0.1339162E-03  0.1563396E+04  0.7818609E-02  0.8843356E-01
        2   -1    0    0  501    0  0.00000000000E+00  0.00000000000E+00  0.69989016614E+03  0.69989016614E+03  0.25500000920E-02 0.  1.
       -2   -1    0    0    0  501  0.00000000000E+00  0.00000000000E+00 -0.87306838136E+03  0.87306838137E+03  0.25500000920E-02 0. -1.
    10030    2    1    2    0    0  0.00000000000E+00  0.00000000000E+00 -0.17317821523E+03  0.15729585475E+04  0.15633962703E+04 0.  0.
        5    1    3    3  502    0  0.46773575890E+03  0.60116703223E+03  0.90130707386E+02  0.76702293003E+03  0.46999998093E+01 0. -1.
       -5    1    3    3    0  502 -0.46773575890E+03 -0.60116703223E+03 -0.26330892261E+03  0.80593561747E+03  0.46999998093E+01 0.  1.
</event>
<event>
 5   0  0.1414796E-03  0.1533185E+04  0.7818609E-02  0.8862680E-01
       -2   -1    0    0    0  501  0.00000000000E+00  0.00000000000E+00  0.41906205804E+03  0.41906205804E+03  0.25500000920E-02 0. -1.
        2   -1    0    0  501    0  0.00000000000E+00  0.00000000000E+00 -0.14023321931E+04  0.14023321931E+04  0.25500000920E-02 0.  1.
    10030    2    1    2    0    0  0.00000000000E+00  0.00000000000E+00 -0.98327013505E+03  0.18213942511E+04  0.15331852007E+04 0.  0.
        4    1    3    3  502    0  0.60503420227E+03  0.39118726021E+03 -0.18055481798E+03  0.74276208416E+03  0.12699999809E+01 0. -1.
       -4    1    3    3    0  502 -0.60503420227E+03 -0.39118726021E+03 -0.80271531707E+03  0.10786321670E+04  0.12699999809E+01 0.  1.
</event>
<event>
 5   0  0.1339162E-03  0.1528597E+04  0.7818609E-02  0.8865656E-01
        2   -1    0    0  501    0  0.00000000000E+00  0.00000000000E+00  0.47869897082E+03  0.47869897082E+03  0.25500000920E-02 0.  1.
       -2   -1    0    0    0  501  0.00000000000E+00  0.00000000000E+00 -0.12202912995E+04  0.12202912995E+04  0.25500000920E-02 0. -1.
    10030    2    1    2    0    0  0.00000000000E+00  0.00000000000E+00 -0.74159232872E+03  0.16989902704E+04  0.15285969897E+04 0.  0.
        5    1    3    3  502    0  0.26907414638E+03  0.39914192662E+03 -0.10306155004E+04  0.11374997027E+04  0.46999998093E+01 0. -1.
       -5    1    3    3    0  502 -0.26907414638E+03 -0.39914192662E+03  0.28902317171E+03  0.56149056770E+03  0.46999998093E+01 0.  1.
</event>
<event>
 5   0  0.1339162E-03  0.1739293E+04  0.7818609E-02  0.8739266E-01
       -2   -1    0    0    0  501  0.00000000000E+00  0.00000000000E+00  0.46296747414E+03  0.46296747415E+03  0.25500000920E-02 0.  1.
        2   -1    0    0  501    0  0.00000000000E+00  0.00000000000E+00 -0.16335590492E+04  0.16335590492E+04  0.25500000920E-02 0. -1.
    10030    2    1    2    0    0  0.00000000000E+00  0.00000000000E+00 -0.11705915751E+04  0.20965265234E+04  0.17392926228E+04 0.  0.
        5    1    3    3  502    0 -0.29357632705E+03  0.20275226555E+03  0.37066848666E+03  0.51450243730E+03  0.46999998093E+01 0.  1.
       -5    1    3    3    0  502  0.29357632705E+03 -0.20275226555E+03 -0.15412600617E+04  0.15820240861E+04  0.46999998093E+01 0. -1.
</event>
<event>
 5   0  0.7601145E-04  0.1598731E+04  0.7818609E-02  0.8821328E-01
        1   -1    0    0  501    0  0.00000000000E+00  0.00000000000E+00  0.73069315646E+03  0.73069315648E+03  0.50400001928E-02 0. -1.
       -1   -1    0    0    0  501  0.00000000000E+00  0.00000000000E+00 -0.87449192373E+03  0.87449192374E+03  0.50400001928E-02 0.  1.
    10030    2    1    2    0    0  0.00000000000E+00  0.00000000000E+00 -0.14379876726E+03  0.16051850802E+04  0.15987310769E+04 0.  0.
        4    1    3    3  502    0 -0.56366055359E+03  0.50876234650E+03  0.17897187480E+03  0.78011851008E+03  0.12699999809E+01 0. -1.
       -4    1    3    3    0  502  0.56366055359E+03 -0.50876234650E+03 -0.32277064206E+03  0.82506657015E+03  0.12699999809E+01 0.  1.
</event>
<event>
 5   0  0.7499834E-04  0.1581737E+04  0.7818609E-02  0.8831847E-01
       -1   -1    0    0    0  501  0.00000000000E+00  0.00000000000E+00  0.86461407468E+03  0.86461407469E+03  0.50400001928E-02 0.  1.
        1   -1    0    0  501    0  0.00000000000E+00  0.00000000000E+00 -0.72341287018E+03  0.72341287020E+03  0.50400001928E-02 0. -1.
    10030    2    1    2    0    0  0.00000000000E+00  0.00000000000E+00  0.14120120449E+03  0.15880269449E+04  0.15817369559E+04 0.  0.
        3    1    3    3  502    0 -0.28034271085E+03  0.26170543533E+03 -0.62380814416E+03  0.73226933661E+03  0.10100000352E+00 0. -1.
       -3    1    3    3    0  502  0.28034271085E+03 -0.26170543533E+03  0.76500934866E+03  0.85575760829E+03  0.10100000352E+00 0.  1.
</event>
<event>
 5   0  0.7302027E-04  0.1559382E+04  0.7818609E-02  0.8845897E-01
        1   -1    0    0  501    0  0.00000000000E+00  0.00000000000E+00  0.10855693667E+04  0.10855693668E+04  0.50400001928E-02 0. -1.
       -1   -1    0    0    0  501  0.00000000000E+00  0.00000000000E+00 -0.55999947754E+03  0.55999947756E+03  0.50400001928E-02 0.  1.
    10030    2    1    2    0    0  0.00000000000E+00  0.00000000000E+00  0.52556988920E+03  0.16455688443E+04  0.15593822857E+04 0.  0.
        5    1    3    3  502    0  0.42072222818E+03  0.10989656599E+03 -0.42013985404E+03  0.60466853354E+03  0.46999998093E+01 0.  1.
       -5    1    3    3    0  502 -0.42072222818E+03 -0.10989656599E+03  0.94570974324E+03  0.10409003108E+04  0.46999998093E+01 0. -1.
</event>
<event>
 5   0  0.1375777E-03  0.1596282E+04  0.7818609E-02  0.8822835E-01
        2   -1    0    0  501    0  0.00000000000E+00  0.00000000000E+00  0.92894061711E+03  0.92894061711E+03  0.25500000920E-02 0.  1.
       -2   -1    0    0    0  501  0.00000000000E+00  0.00000000000E+00 -0.68575852203E+03  0.68575852203E+03  0.25500000920E-02 0. -1.
    10030    2    1    2    0    0  0.00000000000E+00  0.00000000000E+00  0.24318209508E+03  0.16146991391E+04  0.15962818606E+04 0.  0.
        1    1    3    3  502    0 -0.22377788270E+02 -0.77061107920E+03 -0.87400416870E+02  0.77587436720E+03  0.50400001928E-02 0. -1.
       -1    1    3    3    0  502  0.22377788270E+02  0.77061107920E+03  0.33058251195E+03  0.83882477194E+03  0.50400001928E-02 0.  1.
</event>
<event>
 5   0  0.1339162E-03  0.1596285E+04  0.7818609E-02  0.8822834E-01
       -2   -1    0    0    0  501  0.00000000000E+00  0.00000000000E+00  0.47651327192E+03  0.47651327193E+03  0.25500000920E-02 0.  1.
        2   -1    0    0  501    0  0.00000000000E+00  0.00000000000E+00 -0.13368591018E+04  0.13368591018E+04  0.25500000920E-02 0. -1.
    10030    2    1    2    0    0  0.00000000000E+00  0.00000000000E+00 -0.86034582992E+03  0.18133723738E+04  0.15962845670E+04 0.  0.
        5    1    3    3  502    0  0.18250265717E+03  0.65047036659E+03  0.52578600616E+02  0.67764704450E+03  0.46999998093E+01 0.  1.
       -5    1    3    3    0  502 -0.18250265717E+03 -0.65047036659E+03 -0.91292443054E+03  0.11357253293E+04  0.46999998093E+01 0. -1.
</event>
<event>
 5   0  0.7302027E-04  0.1600135E+04  0.7818609E-02  0.8820465E-01
        1   -1    0    0  501    0  0.00000000000E+00  0.00000000000E+00  0.65198203921E+03  0.65198203923E+03  0.50400001928E-02 0.  1.
       -1   -1    0    0    0  501  0.00000000000E+00  0.00000000000E+00 -0.98178830925E+03  0.98178830927E+03  0.50400001928E-02 0. -1.
    10030    2    1    2    0    0  0.00000000000E+00  0.00000000000E+00 -0.32980627005E+03  0.16337703485E+04  0.16001354242E+04 0.  0.
        5    1    3    3  502    0 -0.35522190574E+03  0.23513987583E+03 -0.85634774994E+03  0.95646585007E+03  0.46999998093E+01 0. -1.
       -5    1    3    3    0  502  0.35522190574E+03 -0.23513987583E+03  0.52654147990E+03  0.67730449842E+03  0.46999998093E+01 0.  1.
</event>
<event>
 5   0  0.7633213E-04  0.1598103E+04  0.7818609E-02  0.8821714E-01
       -1   -1    0    0    0  501  0.00000000000E+00  0.00000000000E+00  0.87794976632E+03  0.87794976633E+03  0.50400001928E-02 0. -1.
        1   -1    0    0  501    0  0.00000000000E+00  0.00000000000E+00 -0.72724343604E+03  0.72724343606E+03  0.50400001928E-02 0.  1.
    10030    2    1    2    0    0  0.00000000000E+00  0.00000000000E+00  0.15070633027E+03  0.16051932024E+04  0.15981028812E+04 0.  0.
        1    1    3    3  502    0 -0.36244749851E+03 -0.66889060920E+03  0.32077380455E+03  0.82563834090E+03  0.50400001928E-02 0. -1.
       -1    1    3    3    0  502  0.36244749851E+03  0.66889060920E+03 -0.17006747428E+03  0.77955486149E+03  0.50400001928E-02 0.  1.
</event>
<event>
 5   0  0.1414796E-03  0.1584756E+04  0.7818609E-02  0.8829968E-01
        2   -1    0    0  501    0  0.00000000000E+00  0.00000000000E+00  0.11723090054E+04  0.11723090054E+04  0.25500000920E-02 0. -1.
       -2   -1    0    0    0  501  0.00000000000E+00  0.00000000000E+00 -0.53557816267E+03  0.53557816268E+03  0.25500000920E-02 0.  1.
    10030    2    1    2    0    0  0.00000000000E+00  0.00000000000E+00  0.63673084272E+03  0.17078871681E+04  0.15847562629E+04 0.  0.
        4    1    3    3  502    0 -0.78044787076E+03 -0.56996559273E+02  0.18413262359E+03  0.80389919935E+03  0.12699999809E+01 0. -1.
       -4    1    3    3    0  502  0.78044787076E+03  0.56996559273E+02  0.45259821913E+03  0.90398796872E+03  0.12699999809E+01 0.  1.
</event>
<event>
 5   0  0.7633213E-04  0.1565350E+04  0.7818609E-02  0.8842122E-01
       -1   -1    0    0    0  501  0.00000000000E+00  0.00000000000E+00  0.51416897680E+03  0.51416897682E+03  0.50400001928E-02 0.  1.
        1   -1    0    0  501    0  0.00000000000E+00  0.00000000000E+00 -0.11913991024E+04  0.11913991024E+04  0.50400001928E-02 0. -1.
    10030    2    1    2    0    0  0.00000000000E+00  0.00000000000E+00 -0.67723012560E+03  0.17055680792E+04  0.15653503857E+04 0.  0.
        1    1    3    3  502    0  0.23836264695E+03  0.48701631343E+03  0.27637194642E+03  0.60859107273E+03  0.50400001928E-02 0.  1.
       -1    1    3    3    0  502 -0.23836264695E+03 -0.48701631343E+03 -0.95360207202E+03  0.10969770065E+04  0.50400001928E-02 0. -1.
</event>
<event>
 5   0  0.1414796E-03  0.1616132E+04  0.7818609E-02  0.8810698E-01
        2   -1    0    0  501    0  0.00000000000E+00  0.00000000000E+00  0.18977275765E+04  0.18977275765E+04  0.25500000920E-02 0.  1.
       -2   -1    0    0    0  501  0.00000000000E+00  0.00000000000E+00 -0.34408043255E+03  0.34408043256E+03  0.25500000920E-02 0. -1.
    10030    2    1    2    0    0  0.00000000000E+00  0.00000000000E+00  0.15536471440E+04  0.22418080091E+04  0.16161323280E+04 0.  0.
        4    1    3    3  502    0 -0.66128178105E+03  0.36429790413E+03  0.11763661643E+04  0.13978002441E+04  0.12699999809E+01 0.  1.
       -4    1    3    3    0  502  0.66128178105E+03 -0.36429790413E+03  0.37728097968E+03  0.84400776503E+03  0.12699999809E+01 0. -1.
</event>
<event>
 5   0  0.1375777E-03  0.1495086E+04  0.7818609E-02  0.8887728E-01
        2   -1    0    0  501    0  0.00000000000E+00  0.00000000000E+00  0.25787618337E+04  0.25787618337E+04  0.25500000920E-02 0. -1.
       -2   -1    0    0    0  501  0.00000000000E+00  0.00000000000E+00 -0.21670097603E+03  0.21670097604E+03  0.25500000920E-02 0.  1.
    10030    2    1    2    0    0  0.00000000000E+00  0.00000000000E+00  0.23620608576E+04  0.27954628097E+04  0.14950855578E+04 0.  0.
        1    1    3    3  502    0  0.56544522503E+03 -0.38482918065E+03  0.17450634934E+04  0.18743181152E+04  0.50400001928E-02 0. -1.
       -1    1    3    3    0  502 -0.56544522503E+03  0.38482918065E+03  0.61699736422E+03  0.92114469453E+03  0.50400001928E-02 0.  1.
</event>
<event>
 5   0  0.5095750E-04  0.1599744E+04  0.7818609E-02  0.8820706E-01
        4   -1    0    0  501    0  0.00000000000E+00  0.00000000000E+00  0.10225165104E+04  0.10225172991E+04  0.12699999809E+01 0.  1.
       -4   -1    0    0    0  501  0.00000000000E+00  0.00000000000E+00 -0.62570443228E+03  0.62570572115E+03  0.12699999809E+01 0. -1.
    10030    2    1    2    0    0  0.00000000000E+00  0.00000000000E+00  0.39681207808E+03  0.16482230202E+04  0.15997435104E+04 0.  0.
        1    1    3    3  502    0  0.75334950898E+03  0.21204350665E+03  0.28181475328E+02  0.78312969997E+03  0.50400001928E-02 0. -1.
       -1    1    3    3    0  502 -0.75334950898E+03 -0.21204350665E+03  0.36863060275E+03  0.86509332023E+03  0.50400001928E-02 0.  1.
</event>
<event>
 5   0  0.7633213E-04  0.1571969E+04  0.7818609E-02  0.8837956E-01
       -1   -1    0    0    0  501  0.00000000000E+00  0.00000000000E+00  0.40679798334E+03  0.40679798337E+03  0.50400001928E-02 0.  1.
        1   -1    0    0  501    0  0.00000000000E+00  0.00000000000E+00 -0.15186204855E+04  0.15186204855E+04  0.50400001928E-02 0. -1.
    10030    2    1    2    0    0  0.00000000000E+00  0.00000000000E+00 -0.11118225022E+04  0.19254184689E+04  0.15719691486E+04 0.  0.
        1    1    3    3  502    0 -0.18581652286E+01  0.40172559799E+03 -0.13833707024E+04  0.14405212283E+04  0.50400001928E-02 0. -1.
       -1    1    3    3    0  502  0.18581652286E+01 -0.40172559799E+03  0.27154820024E+03  0.48489724060E+03  0.50400001928E-02 0.  1.
</event>
<event>
 5   0  0.5095750E-04  0.1655460E+04  0.7818609E-02  0.8787183E-01
       -3   -1    0    0    0  501  0.00000000000E+00  0.00000000000E+00  0.10828637794E+04  0.10828637841E+04  0.10100000352E+00 0.  1.
        3   -1    0    0  501    0  0.00000000000E+00  0.00000000000E+00 -0.63270801700E+03  0.63270802506E+03  0.10100000352E+00 0. -1.
    10030    2    1    2    0    0  0.00000000000E+00  0.00000000000E+00  0.45015576239E+03  0.17155718092E+04  0.16554595803E+04 0.  0.
        1    1    3    3  502    0 -0.68275831613E+03 -0.51574984175E+02 -0.25691026360E+03  0.73131510363E+03  0.50400001928E-02 0.  1.
       -1    1    3    3    0  502  0.68275831613E+03  0.51574984175E+02  0.70706602599E+03  0.98425670552E+03  0.50400001928E-02 0. -1.
</event>
<event>
 5   0  0.1414796E-03  0.1377861E+04  0.7818609E-02  0.8970002E-01
       -2   -1    0    0    0  501  0.00000000000E+00  0.00000000000E+00  0.10329001768E+04  0.10329001768E+04  0.25500000920E-02 0.  1.
        2   -1    0    0  501    0  0.00000000000E+00  0.00000000000E+00 -0.45950742411E+03  0.45950742412E+03  0.25500000920E-02 0. -1.
    10030    2    1    2    0    0  0.00000000000E+00  0.00000000000E+00  0.57339275269E+03  0.14924076009E+04  0.13778610955E+04 0.  0.
        4    1    3    3  502    0 -0.29485692937E+03  0.60656974004E+03  0.43893821958E+03  0.80469611149E+03  0.12699999809E+01 0.  1.
       -4    1    3    3    0  502  0.29485692937E+03 -0.60656974004E+03  0.13445453311E+03  0.68771148944E+03  0.12699999809E+01 0. -1.
</event>
<event>
 5   0  0.7601145E-04  0.1618297E+04  0.7818609E-02  0.8809385E-01
       -1   -1    0    0    0  501  0.00000000000E+00  0.00000000000E+00  0.68543838874E+03  0.68543838876E+03  0.50400001928E-02 0. -1.
        1   -1    0    0  501    0  0.00000000000E+00  0.00000000000E+00 -0.95518653638E+03  0.95518653640E+03  0.50400001928E-02 0.  1.
    10030    2    1    2    0    0  0.00000000000E+00  0.00000000000E+00 -0.26974814765E+03  0.16406249252E+04  0.16182972786E+04 0.  0.
        4    1    3    3  502    0  0.55297034506E+03 -0.34174818055E+03 -0.62334318932E+03  0.90062554149E+03  0.12699999809E+01 0.  1.
       -4    1    3    3    0  502 -0.55297034506E+03  0.34174818055E+03  0.35359504167E+03  0.73999938366E+03  0.12699999809E+01 0. -1.
</event>
<event>
 5   0  0.1414796E-03  0.1868004E+04  0.7818609E-02  0.8670949E-01
        2   -1    0    0  501    0  0.00000000000E+00  0.00000000000E+00  0.12513583387E+04  0.12513583387E+04  0.25500000920E-02 0. -1.
       -2   -1    0    0    0  501  0.00000000000E+00  0.00000000000E+00 -0.69713024571E+03  0.69713024572E+03  0.25500000920E-02 0.  1.
    10030    2    1    2    0    0  0.00000000000E+00  0.00000000000E+00  0.55422809299E+03  0.19484885844E+04  0.18680040109E+04 0.  0.
        4    1    3    3  502    0  0.20421759326E+03 -0.60101267344E+03 -0.43756122293E+03  0.77096205857E+03  0.12699999809E+01 0.  1.
       -4    1    3    3    0  502 -0.20421759326E+03  0.60101267344E+03  0.99178931592E+03  0.11775265259E+04  0.12699999809E+01 0. -1.
</event>
<event>
 5   0  0.7124495E-04  0.1579902E+04  0.7818609E-02  0.8832991E-01
       -1   -1    0    0    0  501  0.00000000000E+00  0.00000000000E+00  0.82265827488E+03  0.82265827490E+03  0.50400001928E-02 0.  1.
        1   -1    0    0  501    0  0.00000000000E+00  0.00000000000E+00 -0.75854379083E+03  0.75854379084E+03  0.50400001928E-02 0. -1.
    10030    2    1    2    0    0  0.00000000000E+00  0.00000000000E+00  0.64114484055E+02  0.15812020657E+04  0.15799016759E+04 0.  0.
        2    1    3    3  502    0  0.74892372216E+03  0.11777203407E+03  0.25419788450E+03  0.79960837797E+03  0.25500000920E-02 0.  1.
       -2    1    3    3    0  502 -0.74892372216E+03 -0.11777203407E+03 -0.19008340045E+03  0.78159368777E+03  0.25500000920E-02 0. -1.
</event>
<event>
 5   0  0.1375777E-03  0.1563831E+04  0.7818609E-02  0.8843081E-01
        2   -1    0    0  501    0  0.00000000000E+00  0.00000000000E+00  0.26590056070E+04  0.26590056070E+04  0.25500000920E-02 0.  1.
       -2   -1    0    0    0  501  0.00000000000E+00  0.00000000000E+00 -0.22993253604E+03  0.22993253606E+03  0.25500000920E-02 0. -1.
    10030    2    1    2    0    0  0.00000000000E+00  0.00000000000E+00  0.24290730709E+04  0.28889381430E+04  0.15638310684E+04 0.  0.
        1    1    3    3  502    0 -0.75103319966E+03 -0.18638236785E+03  0.10071505913E+04  0.12700951018E+04  0.50400001928E-02 0. -1.
       -1    1    3    3    0  502  0.75103319966E+03  0.18638236785E+03  0.14219224796E+04  0.16188430412E+04  0.50400001928E-02 0.  1.
</event>
<event>
 5   0  0.7499834E-04  0.1562774E+04  0.7818609E-02  0.8843749E-01
        1   -1    0    0  501    0  0.00000000000E+00  0.00000000000E+00  0.14044143195E+04  0.14044143195E+04  0.50400001928E-02 0.  1.
       -1   -1    0    0    0  501  0.00000000000E+00  0.00000000000E+00 -0.43474757522E+03  0.43474757525E+03  0.50400001928E-02 0. -1.
    10030    2    1    2    0    0  0.00000000000E+00  0.00000000000E+00  0.96966674430E+03  0.18391618948E+04  0.15627740976E+04 0.  0.
        3    1    3    3  502    0 -0.37168805118E+03 -0.18447311194E+02 -0.32375691545E+03  0.49326550780E+03  0.10100000352E+00 0. -1.
       -3    1    3    3    0  502  0.37168805118E+03  0.18447311194E+02  0.12934236597E+04  0.13458963870E+04  0.10100000352E+00 0.  1.
</event>
<event>
 5   0  0.7633213E-04  0.1614268E+04  0.7818609E-02  0.8811831E-01
        1   -1    0    0  501    0  0.00000000000E+00  0.00000000000E+00  0.78123406717E+03  0.78123406719E+03  0.50400001928E-02 0. -1.
       -1   -1    0    0    0  501  0.00000000000E+00  0.00000000000E+00 -0.83389216340E+03  0.83389216342E+03  0.50400001928E-02 0.  1.
    10030    2    1    2    0    0  0.00000000000E+00  0.00000000000E+00 -0.52658096232E+02  0.16151262306E+04  0.16142675942E+04 0.  0.
        1    1    3    3  502    0  0.38214889236E+03 -0.50650172493E+03 -0.52547634879E+03  0.82383685670E+03  0.50400001928E-02 0.  1.
       -1    1    3    3    0  502 -0.38214889236E+03  0.50650172493E+03  0.47281825256E+03  0.79128937391E+03  0.50400001928E-02 0. -1.
</event>
<event>
 5   0  0.7499834E-04  0.1627461E+04  0.7818609E-02  0.8803853E-01
        1   -1    0    0  501    0  0.00000000000E+00  0.00000000000E+00  0.18640721082E+04  0.18640721082E+04  0.50400001928E-02 0.  1.
       -1   -1    0    0    0  501  0.00000000000E+00  0.00000000000E+00 -0.35522101557E+03  0.35522101561E+03  0.50400001928E-02 0. -1.
    10030    2    1    2    0    0  0.00000000000E+00  0.00000000000E+00  0.15088510927E+04  0.22192931239E+04  0.16274613205E+04 0.  0.
        3    1    3    3  502    0  0.36185203164E+02 -0.20281745234E+02  0.18626293684E+04  0.18630912195E+04  0.10100000352E+00 0.  1.
       -3    1    3    3    0  502 -0.36185203164E+02  0.20281745234E+02 -0.35377827569E+03  0.35620190436E+03  0.10100000352E+00 0. -1.
</event>
<event>
 5   0  0.1354766E-03  0.1583153E+04  0.7818609E-02  0.8830965E-01
        2   -1    0    0  501    0  0.00000000000E+00  0.00000000000E+00  0.19965971204E+04  0.19965971204E+04  0.25500000920E-02 0. -1.
       -2   -1    0    0    0  501  0.00000000000E+00  0.00000000000E+00 -0.31383048199E+03  0.31383048200E+03  0.25500000920E-02 0.  1.
    10030    2    1    2    0    0  0.00000000000E+00  0.00000000000E+00  0.16827666384E+04  0.23104276024E+04  0.15831525974E+04 0.  0.
        3    1    3    3  502    0  0.62288179094E+03 -0.30617930290E+03  0.28592417004E+03  0.75065313709E+03  0.10100000352E+00 0.  1.
       -3    1    3    3    0  502 -0.62288179094E+03  0.30617930290E+03  0.13968424683E+04  0.15597744653E+04  0.10100000352E+00 0. -1.
</event>
<event>
 5   0  0.1414751E-03  0.1577760E+04  0.7818609E-02  0.8834329E-01
       -2   -1    0    0    0  501  0.00000000000E+00  0.00000000000E+00  0.40878438365E+03  0.40878438365E+03  0.25500000920E-02 0.  1.
        2   -1    0    0  501    0  0.00000000000E+00  0.00000000000E+00 -0.15223954661E+04  0.15223954661E+04  0.25500000920E-02 0. -1.
    10030    2    1    2    0    0  0.00000000000E+00  0.00000000000E+00 -0.11136110825E+04  0.19311798498E+04  0.15777597945E+04 0.  0.
        2    1    3    3  502    0 -0.14477749649E+03  0.74680170320E+03 -0.30105611132E+03  0.81811251644E+03  0.25500000920E-02 0.  1.
       -2    1    3    3    0  502  0.14477749649E+03 -0.74680170320E+03 -0.81255497116E+03  0.11130673333E+04  0.25500000920E-02 0. -1.
</event>
<event>
 5   0  0.7601145E-04  0.1664335E+04  0.7818609E-02  0.8781971E-01
       -1   -1    0    0    0  501  0.00000000000E+00  0.00000000000E+00  0.34844590465E+03  0.34844590468E+03  0.50400001928E-02 0. -1.
        1   -1    0    0  501    0  0.00000000000E+00  0.00000000000E+00 -0.19874028249E+04  0.19874028249E+04  0.50400001928E-02 0.  1.
    10030    2    1    2    0    0  0.00000000000E+00  0.00000000000E+00 -0.16389569203E+04  0.23358487296E+04  0.16643345520E+04 0.  0.
        4    1    3    3  502    0 -0.37123690956E+03  0.56453087413E+03 -0.13768977183E+03  0.68954480422E+03  0.12699999809E+01 0. -1.
       -4    1    3    3    0  502  0.37123690956E+03 -0.56453087413E+03 -0.15012671484E+04  0.16463039254E+04  0.12699999809E+01 0.  1.
</event>
<event>
 5   0  0.1375777E-03  0.1625501E+04  0.7818609E-02  0.8805033E-01
        2   -1    0    0  501    0  0.00000000000E+00  0.00000000000E+00  0.87651723628E+03  0.87651723629E+03  0.25500000920E-02 0.  1.
       -2   -1    0    0    0  501  0.00000000000E+00  0.00000000000E+00 -0.75362254356E+03  0.75362254357E+03  0.25500000920E-02 0. -1.
    10030    2    1    2    0    0  0.00000000000E+00  0.00000000000E+00  0.12289469272E+03  0.16301397799E+04  0.16255007217E+04 0.  0.
        1    1    3    3  502    0 -0.62009065040E+03 -0.46732809353E+03  0.30224756269E+03  0.83322358997E+03  0.50400001928E-02 0.  1.
       -1    1    3    3    0  502  0.62009065040E+03  0.46732809353E+03 -0.17935286996E+03  0.79691618988E+03  0.50400001928E-02 0. -1.
</event>
<event>
 5   0  0.1339162E-03  0.1641836E+04  0.7818609E-02  0.8795251E-01
       -2   -1    0    0    0  501  0.00000000000E+00  0.00000000000E+00  0.52020084961E+03  0.52020084962E+03  0.25500000920E-02 0.  1.
        2   -1    0    0  501    0  0.00000000000E+00  0.00000000000E+00 -0.12954727383E+04  0.12954727383E+04  0.25500000920E-02 0. -1.
    10030    2    1    2    0    0  0.00000000000E+00  0.00000000000E+00 -0.77527188868E+03  0.18156735879E+04  0.16418355814E+04 0.  0.
        5    1    3    3  502    0 -0.12476343944E+03 -0.46267625146E+03 -0.11247270919E+04  0.12225662970E+04  0.46999998093E+01 0. -1.
       -5    1    3    3    0  502  0.12476343944E+03  0.46267625146E+03  0.34945520317E+03  0.59310729089E+03  0.46999998093E+01 0.  1.
</event>
<event>
 5   0  0.7601145E-04  0.1594864E+04  0.7818609E-02  0.8823710E-01
        1   -1    0    0  501    0  0.00000000000E+00  0.00000000000E+00  0.17643434588E+04  0.17643434588E+04  0.50400001928E-02 0.  1.
       -1   -1    0    0    0  501  0.00000000000E+00  0.00000000000E+00 -0.36041592338E+03  0.36041592342E+03  0.50400001928E-02 0. -1.
    10030    2    1    2    0    0  0.00000000000E+00  0.00000000000E+00  0.14039275354E+04  0.21247593823E+04  0.15948636016E+04 0.  0.
        4    1    3    3  502    0 -0.11755888714E+03 -0.64630326142E+03  0.99691987607E+02  0.66443066076E+03  0.12699999809E+01 0. -1.
       -4    1    3    3    0  502  0.11755888714E+03  0.64630326142E+03  0.13042355478E+04  0.14603287215E+04  0.12699999809E+01 0.  1.
</event>
<event>
 5   0  0.1375777E-03  0.1588056E+04  0.7818609E-02  0.8827919E-01
       -2   -1    0    0    0  501  0.00000000000E+00  0.00000000000E+00  0.61509902890E+03  0.61509902891E+03  0.25500000920E-02 0.  1.
        2   -1    0    0  501    0  0.00000000000E+00  0.00000000000E+00 -0.10250067933E+04  0.10250067933E+04  0.25500000920E-02 0. -1.
    10030    2    1    2    0    0  0.00000000000E+00  0.00000000000E+00 -0.40990776439E+03  0.16401058222E+04  0.15880562750E+04 0.  0.
        1    1    3    3  502    0 -0.46961086034E+03 -0.11393452453E+03  0.44574824407E+03  0.65742446954E+03  0.50400001928E-02 0.  1.
       -1    1    3    3    0  502  0.46961086034E+03  0.11393452453E+03 -0.85565600846E+03  0.98268135266E+03  0.50400001928E-02 0. -1.
</event>
<event>
 5   0  0.7633213E-04  0.9883726E+03  0.7818609E-02  0.9321390E-01
        1   -1    0    0  501    0  0.00000000000E+00  0.00000000000E+00  0.51067585399E+03  0.51067585402E+03  0.50400001928E-02 0.  1.
       -1   -1    0    0    0  501  0.00000000000E+00  0.00000000000E+00 -0.47822914794E+03  0.47822914797E+03  0.50400001928E-02 0. -1.
    10030    2    1    2    0    0  0.00000000000E+00  0.00000000000E+00  0.32446706052E+02  0.98890500199E+03  0.98837255841E+03 0.  0.
        1    1    3    3  502    0  0.36361852372E+03 -0.29268372305E+03 -0.14615358644E+03  0.48912479326E+03  0.50400001928E-02 0. -1.
       -1    1    3    3    0  502 -0.36361852372E+03  0.29268372305E+03  0.17860029250E+03  0.49978020872E+03  0.50400001928E-02 0.  1.
</event>
<event>
 5   0  0.1375777E-03  0.1528419E+04  0.7818609E-02  0.8865772E-01
       -2   -1    0    0    0  501  0.00000000000E+00  0.00000000000E+00  0.24642822617E+03  0.24642822618E+03  0.25500000920E-02 0.  1.
        2   -1    0    0  501    0  0.00000000000E+00  0.00000000000E+00 -0.23699230884E+04  0.23699230884E+04  0.25500000920E-02 0. -1.
    10030    2    1    2    0    0  0.00000000000E+00  0.00000000000E+00 -0.21234948622E+04  0.26163513146E+04  0.15284187160E+04 0.  0.
        1    1    3    3  502    0 -0.70191085228E+03  0.28372995121E+03 -0.12399263857E+04  0.14527900646E+04  0.50400001928E-02 0. -1.
       -1    1    3    3    0  502  0.70191085228E+03 -0.28372995121E+03 -0.88356847647E+03  0.11635612500E+04  0.50400001928E-02 0.  1.
</event>
<event>
 5   0  0.7601145E-04  0.1662790E+04  0.7818609E-02  0.8782876E-01
       -1   -1    0    0    0  501  0.00000000000E+00  0.00000000000E+00  0.50459260703E+03  0.50459260706E+03  0.50400001928E-02 0. -1.
        1   -1    0    0  501    0  0.00000000000E+00  0.00000000000E+00 -0.13698521105E+04  0.13698521106E+04  0.50400001928E-02 0.  1.
    10030    2    1    2    0    0  0.00000000000E+00  0.00000000000E+00 -0.86525950351E+03  0.18744447176E+04  0.16627895209E+04 0.  0.
        4    1    3    3  502    0  0.78208516052E+03  0.22760806521E+03 -0.62042749366E+03  0.10239113816E+04  0.12699999809E+01 0.  1.
       -4    1    3    3    0  502 -0.78208516052E+03 -0.22760806521E+03 -0.24483200985E+03  0.85053333597E+03  0.12699999809E+01 0. -1.
</event>
<event>
 5   0  0.1414751E-03  0.1653721E+04  0.7818609E-02  0.8788208E-01
       -2   -1    0    0    0  501  0.00000000000E+00  0.00000000000E+00  0.52808377098E+03  0.52808377099E+03  0.25500000920E-02 0.  1.
        2   -1    0    0  501    0  0.00000000000E+00  0.00000000000E+00 -0.12946777548E+04  0.12946777548E+04  0.25500000920E-02 0. -1.
    10030    2    1    2    0    0  0.00000000000E+00  0.00000000000E+00 -0.76659398385E+03  0.18227615258E+04  0.16537210297E+04 0.  0.
        2    1    3    3  502    0  0.12859643872E+03 -0.37570043921E+03  0.41610419493E+03  0.57517872450E+03  0.25500000920E-02 0.  1.
       -2    1    3    3    0  502 -0.12859643872E+03  0.37570043921E+03 -0.11826981788E+04  0.12475828013E+04  0.25500000920E-02 0. -1.
</event>
<event>
 5   0  0.1414751E-03  0.1605180E+04  0.7818609E-02  0.8817372E-01
       -2   -1    0    0    0  501  0.00000000000E+00  0.00000000000E+00  0.41571565086E+03  0.41571565087E+03  0.25500000920E-02 0.  1.
        2   -1    0    0  501    0  0.00000000000E+00  0.00000000000E+00 -0.15494992256E+04  0.15494992256E+04  0.25500000920E-02 0. -1.
    10030    2    1    2    0    0  0.00000000000E+00  0.00000000000E+00 -0.11337835748E+04  0.19652148765E+04  0.16051804623E+04 0.  0.
        2    1    3    3  502    0  0.15382679765E+02  0.45689123854E+03 -0.13745229751E+04  0.14485508758E+04  0.25500000920E-02 0. -1.
       -2    1    3    3    0  502 -0.15382679765E+02 -0.45689123854E+03  0.24073940037E+03  0.51666400067E+03  0.25500000920E-02 0.  1.
</event>
<event>
 5   0  0.7601145E-04  0.8684728E+03  0.7818609E-02  0.9465873E-01
       -1   -1    0    0    0  501  0.00000000000E+00  0.00000000000E+00  0.64533088480E+03  0.64533088481E+03  0.50400001928E-02 0.  1.
        1   -1    0    0  501    0  0.00000000000E+00  0.00000000000E+00 -0.29219314436E+03  0.29219314440E+03  0.50400001928E-02 0. -1.
    10030    2    1    2    0    0  0.00000000000E+00  0.00000000000E+00  0.35313774044E+03  0.93752402921E+03  0.86847282147E+03 0.  0.
        4    1    3    3  502    0  0.36802181043E+03 -0.30797025825E+02  0.42313949171E+03  0.56163791903E+03  0.12699999809E+01 0.  1.
       -4    1    3    3    0  502 -0.36802181043E+03  0.30797025825E+02 -0.70001751268E+02  0.37588611018E+03  0.12699999809E+01 0. -1.
</event>
<event>
 5   0  0.7302027E-04  0.1513439E+04  0.7818609E-02  0.8875565E-01
        1   -1    0    0  501    0  0.00000000000E+00  0.00000000000E+00  0.14368152312E+04  0.14368152312E+04  0.50400001928E-02 0. -1.
       -1   -1    0    0    0  501  0.00000000000E+00  0.00000000000E+00 -0.39853745087E+03  0.39853745090E+03  0.50400001928E-02 0.  1.
    10030    2    1    2    0    0  0.00000000000E+00  0.00000000000E+00  0.10382777803E+04  0.18353526821E+04  0.15134393673E+04 0.  0.
        5    1    3    3  502    0  0.49405171162E+03  0.50346743298E+03  0.18694667027E+03  0.72975180531E+03  0.46999998093E+01 0.  1.
       -5    1    3    3    0  502 -0.49405171162E+03 -0.50346743298E+03  0.85133111005E+03  0.11056008768E+04  0.46999998093E+01 0. -1.
</event>
<event>
 5   0  0.7124495E-04  0.1529160E+04  0.7818609E-02  0.8865290E-01
       -1   -1    0    0    0  501  0.00000000000E+00  0.00000000000E+00  0.70017092124E+03  0.70017092126E+03  0.50400001928E-02 0.  1.
        1   -1    0    0  501    0  0.00000000000E+00  0.00000000000E+00 -0.83491360544E+03  0.83491360545E+03  0.50400001928E-02 0. -1.
    10030    2    1    2    0    0  0.00000000000E+00  0.00000000000E+00 -0.13474268419E+03  0.15350845267E+04  0.15291595447E+04 0.  0.
        2    1    3    3  502    0  0.12621820722E+03 -0.70311440796E+03  0.20623068192E+03  0.74352673165E+03  0.25500000920E-02 0. -1.
       -2    1    3    3    0  502 -0.12621820722E+03  0.70311440796E+03 -0.34097336612E+03  0.79155779506E+03  0.25500000920E-02 0.  1.
</event>
<event>
 5   0  0.1354766E-03  0.1576087E+04  0.7818609E-02  0.8835375E-01
        2   -1    0    0  501    0  0.00000000000E+00  0.00000000000E+00  0.12903316306E+04  0.12903316306E+04  0.25500000920E-02 0. -1.
       -2   -1    0    0    0  501  0.00000000000E+00  0.00000000000E+00 -0.48128163680E+03  0.48128163681E+03  0.25500000920E-02 0.  1.
    10030    2    1    2    0    0  0.00000000000E+00  0.00000000000E+00  0.80904999378E+03  0.17716132674E+04  0.15760874585E+04 0.  0.
        3    1    3    3  502    0 -0.33971203525E+03  0.70897921577E+03  0.34339946908E+03  0.85789218487E+03  0.10100000352E+00 0.  1.
       -3    1    3    3    0  502  0.33971203525E+03 -0.70897921577E+03  0.46565052470E+03  0.91372108252E+03  0.10100000352E+00 0. -1.
</event>
<event>
 5   0  0.7124495E-04  0.1568234E+04  0.7818609E-02  0.8840305E-01
        1   -1    0    0  501    0  0.00000000000E+00  0.00000000000E+00  0.12721904791E+04  0.12721904791E+04  0.50400001928E-02 0. -1.
       -1   -1    0    0    0  501  0.00000000000E+00  0.00000000000E+00 -0.48329171451E+03  0.48329171453E+03  0.50400001928E-02 0.  1.
    10030    2    1    2    0    0  0.00000000000E+00  0.00000000000E+00  0.78889876459E+03  0.17554821936E+04  0.15682335513E+04 0.  0.
        2    1    3    3  502    0 -0.36456466604E+03 -0.57486448315E+03  0.83009998284E+03  0.10735187708E+04  0.25500000920E-02 0. -1.
       -2    1    3    3    0  502  0.36456466604E+03  0.57486448315E+03 -0.41201218251E+02  0.68196342285E+03  0.25500000920E-02 0.  1.
</event>
<event>
 5   0  0.7633213E-04  0.1581989E+04  0.7818609E-02  0.8831690E-01
       -1   -1    0    0    0  501  0.00000000000E+00  0.00000000000E+00  0.79261822784E+03  0.79261822785E+03  0.50400001928E-02 0. -1.
        1   -1    0    0  501    0  0.00000000000E+00  0.00000000000E+00 -0.78937423554E+03  0.78937423555E+03  0.50400001928E-02 0.  1.
    10030    2    1    2    0    0  0.00000000000E+00  0.00000000000E+00  0.32439923026E+01  0.15819924634E+04  0.15819891374E+04 0.  0.
        1    1    3    3  502    0  0.44966926666E+02 -0.66635770170E+03 -0.42219229317E+03  0.79012716922E+03  0.50400001928E-02 0.  1.
       -1    1    3    3    0  502 -0.44966926666E+02  0.66635770170E+03  0.42543628547E+03  0.79186529418E+03  0.50400001928E-02 0. -1.
</event>
<event>
 5   0  0.1375777E-03  0.1705108E+04  0.7818609E-02  0.8758457E-01
        2   -1    0    0  501    0  0.00000000000E+00  0.00000000000E+00  0.59168282900E+03  0.59168282901E+03  0.25500000920E-02 0. -1.
       -2   -1    0    0    0  501  0.00000000000E+00  0.00000000000E+00 -0.12284417889E+04  0.12284417889E+04  0.25500000920E-02 0.  1.
    10030    2    1    2    0    0  0.00000000000E+00  0.00000000000E+00 -0.63675895985E+03  0.18201246179E+04  0.17051075191E+04 0.  0.
        1    1    3    3  502    0  0.37997543914E+03  0.17038812441E+03  0.47573379314E+03  0.63224685784E+03  0.50400001928E-02 0. -1.
       -1    1    3    3    0  502 -0.37997543914E+03 -0.17038812441E+03 -0.11124927530E+04  0.11878777600E+04  0.50400001928E-02 0.  1.
</event>
<event>
 5   0  0.5095750E-04  0.1583751E+04  0.7818609E-02  0.8830593E-01
       -3   -1    0    0    0  501  0.00000000000E+00  0.00000000000E+00  0.63791030160E+03  0.63791030959E+03  0.10100000352E+00 0.  1.
        3   -1    0    0  501    0  0.00000000000E+00  0.00000000000E+00 -0.98300211854E+03  0.98300212373E+03  0.10100000352E+00 0. -1.
    10030    2    1    2    0    0  0.00000000000E+00  0.00000000000E+00 -0.34509181695E+03  0.16209124333E+04  0.15837514813E+04 0.  0.
        2    1    3    3  502    0 -0.78386474550E+03 -0.75156216308E+02 -0.87071094252E+02  0.79225865192E+03  0.25500000920E-02 0.  1.
       -2    1    3    3    0  502  0.78386474550E+03  0.75156216308E+02 -0.25802072269E+03  0.82865378140E+03  0.25500000920E-02 0. -1.
</event>
<event>
 5   0  0.7302027E-04  0.1616294E+04  0.7818609E-02  0.8810600E-01
        1   -1    0    0  501    0  0.00000000000E+00  0.00000000000E+00  0.15857488500E+04  0.15857488500E+04  0.50400001928E-02 0. -1.
       -1   -1    0    0    0  501  0.00000000000E+00  0.00000000000E+00 -0.41185689642E+03  0.41185689645E+03  0.50400001928E-02 0.  1.
    10030    2    1    2    0    0  0.00000000000E+00  0.00000000000E+00  0.11738919536E+04  0.19976057465E+04  0.16162940325E+04 0.  0.
        5    1    3    3  502    0 -0.30658029011E+03 -0.68061417724E+03  0.20430554881E+03  0.77394442941E+03  0.46999998093E+01 0.  1.
       -5    1    3    3    0  502  0.30658029011E+03  0.68061417724E+03  0.96958640478E+03  0.12236613171E+04  0.46999998093E+01 0. -1.
</event>
<event>
 5   0  0.1414751E-03  0.1624365E+04  0.7818609E-02  0.8805718E-01
        2   -1    0    0  501    0  0.00000000000E+00  0.00000000000E+00  0.17995430226E+04  0.17995430226E+04  0.25500000920E-02 0. -1.
       -2   -1    0    0    0  501  0.00000000000E+00  0.00000000000E+00 -0.36655985447E+03  0.36655985448E+03  0.25500000920E-02 0.  1.
    10030    2    1    2    0    0  0.00000000000E+00  0.00000000000E+00  0.14329831681E+04  0.21661028771E+04  0.16243647724E+04 0.  0.
        2    1    3    3  502    0 -0.45339488884E+03 -0.16855644397E+03 -0.15352588312E+03  0.50749226282E+03  0.25500000920E-02 0.  1.
       -2    1    3    3    0  502  0.45339488884E+03  0.16855644397E+03  0.15865090513E+04  0.16586106143E+04  0.25500000920E-02 0. -1.
</event>
<event>
 5   0  0.1414751E-03  0.1595509E+04  0.7818609E-02  0.8823312E-01
       -2   -1    0    0    0  501  0.00000000000E+00  0.00000000000E+00  0.55355143433E+03  0.55355143434E+03  0.25500000920E-02 0.  1.
        2   -1    0    0  501    0  0.00000000000E+00  0.00000000000E+00 -0.11496889601E+04  0.11496889601E+04  0.25500000920E-02 0. -1.
    10030    2    1    2    0    0  0.00000000000E+00  0.00000000000E+00 -0.59613752581E+03  0.17032403945E+04  0.15955086624E+04 0.  0.
        2    1    3    3  502    0  0.61730571791E+03  0.43082050494E+03 -0.57998210097E+03  0.95029042629E+03  0.25500000920E-02 0. -1.
       -2    1    3    3    0  502 -0.61730571791E+03 -0.43082050494E+03 -0.16155424842E+02  0.75294996819E+03  0.25500000920E-02 0.  1.
</event>
<event>
 5   0  0.7499834E-04  0.1610842E+04  0.7818609E-02  0.8813915E-01
        1   -1    0    0  501    0  0.00000000000E+00  0.00000000000E+00  0.19305126302E+04  0.19305126302E+04  0.50400001928E-02 0.  1.
       -1   -1    0    0    0  501  0.00000000000E+00  0.00000000000E+00 -0.33602634610E+03  0.33602634613E+03  0.50400001928E-02 0. -1.
    10030    2    1    2    0    0  0.00000000000E+00  0.00000000000E+00  0.15944862841E+04  0.22665389764E+04  0.16108421466E+04 0.  0.
        3    1    3    3  502    0  0.28326074908E+02  0.76391841028E+03  0.11541171577E+04  0.13843265973E+04  0.10100000352E+00 0.  1.
       -3    1    3    3    0  502 -0.28326074908E+02 -0.76391841028E+03  0.44036912642E+03  0.88221237907E+03  0.10100000352E+00 0. -1.
</event>
<event>
 5   0  0.1339162E-03  0.1649265E+04  0.7818609E-02  0.8790841E-01
       -2   -1    0    0    0  501  0.00000000000E+00  0.00000000000E+00  0.85843429508E+03  0.85843429509E+03  0.25500000920E-02 0.  1.
        2   -1    0    0  501    0  0.00000000000E+00  0.00000000000E+00 -0.79216181388E+03  0.79216181389E+03  0.25500000920E-02 0. -1.
    10030    2    1    2    0    0  0.00000000000E+00  0.00000000000E+00  0.66272481199E+02  0.16505961090E+04  0.16492651313E+04 0.  0.
        5    1    3    3  502    0  0.34259721666E+03 -0.55149463065E+03  0.54195345285E+03  0.84572738844E+03  0.46999998093E+01 0.  1.
       -5    1    3    3    0  502 -0.34259721666E+03  0.55149463065E+03 -0.47568097165E+03  0.80486872053E+03  0.46999998093E+01 0. -1.
</event>
<event>
 5   0  0.7601145E-04  0.1616213E+04  0.7818609E-02  0.8810649E-01
        1   -1    0    0  501    0  0.00000000000E+00  0.00000000000E+00  0.16406125073E+04  0.16406125073E+04  0.50400001928E-02 0. -1.
       -1   -1    0    0    0  501  0.00000000000E+00  0.00000000000E+00 -0.39804401798E+03  0.39804401802E+03  0.50400001928E-02 0.  1.
    10030    2    1    2    0    0  0.00000000000E+00  0.00000000000E+00  0.12425684894E+04  0.20386565254E+04  0.16162128504E+04 0.  0.
        4    1    3    3  502    0 -0.49854620651E+03 -0.22811756784E+03  0.13701316002E+04  0.14757534210E+04  0.12699999809E+01 0. -1.
       -4    1    3    3    0  502  0.49854620651E+03  0.22811756784E+03 -0.12756311084E+03  0.56290310439E+03  0.12699999809E+01 0.  1.
</event>
<event>
 5   0  0.1414751E-03  0.1548201E+04  0.7818609E-02  0.8853018E-01
        2   -1    0    0  501    0  0.00000000000E+00  0.00000000000E+00  0.63491971646E+03  0.63491971646E+03  0.25500000920E-02 0. -1.
       -2   -1    0    0    0  501  0.00000000000E+00  0.00000000000E+00 -0.94379124416E+03  0.94379124416E+03  0.25500000920E-02 0.  1.
    10030    2    1    2    0    0  0.00000000000E+00  0.00000000000E+00 -0.30887152770E+03  0.15787109606E+04  0.15482011099E+04 0.  0.
        2    1    3    3  502    0  0.30859174078E+03 -0.28135571298E+03 -0.81907940521E+03  0.91939163132E+03  0.25500000920E-02 0.  1.
       -2    1    3    3    0  502 -0.30859174078E+03  0.28135571298E+03  0.51020787751E+03  0.65931932930E+03  0.25500000920E-02 0. -1.
</event>
<event>
 5   0  0.7302027E-04  0.1473736E+04  0.7818609E-02  0.8902108E-01
       -1   -1    0    0    0  501  0.00000000000E+00  0.00000000000E+00  0.13292754812E+04  0.13292754812E+04  0.50400001928E-02 0. -1.
        1   -1    0    0  501    0  0.00000000000E+00  0.00000000000E+00 -0.40847396554E+03  0.40847396557E+03  0.50400001928E-02 0.  1.
    10030    2    1    2    0    0  0.00000000000E+00  0.00000000000E+00  0.92080151570E+03  0.17377494468E+04  0.14737359698E+04 0.  0.
        5    1    3    3  502    0  0.27096731221E+02 -0.52495618087E+02  0.13264608582E+04  0.13277840642E+04  0.46999998093E+01 0. -1.
       -5    1    3    3    0  502 -0.27096731221E+02  0.52495618087E+02 -0.40565934252E+03  0.40996538261E+03  0.46999998093E+01 0.  1.
</event>
<event>
 5   0  0.5095750E-04  0.1585083E+04  0.7818609E-02  0.8829765E-01
       -3   -1    0    0    0  501  0.00000000000E+00  0.00000000000E+00  0.78209361032E+03  0.78209361685E+03  0.10100000352E+00 0.  1.
        3   -1    0    0  501    0  0.00000000000E+00  0.00000000000E+00 -0.80312854213E+03  0.80312854849E+03  0.10100000352E+00 0. -1.
    10030    2    1    2    0    0  0.00000000000E+00  0.00000000000E+00 -0.21034931810E+02  0.15852221653E+04  0.15850825988E+04 0.  0.
        4    1    3    3  502    0  0.68656782253E+03  0.27943209037E+03  0.26997546338E+03  0.78888911248E+03  0.12699999809E+01 0.  1.
       -4    1    3    3    0  502 -0.68656782253E+03 -0.27943209037E+03 -0.29101039519E+03  0.79633305285E+03  0.12699999809E+01 0. -1.
</event>
<event>
 5   0  0.7124495E-04  0.1638097E+04  0.7818609E-02  0.8797479E-01
       -1   -1    0    0    0  501  0.00000000000E+00  0.00000000000E+00  0.66763691807E+03  0.66763691808E+03  0.50400001928E-02 0. -1.
        1   -1    0    0  501    0  0.00000000000E+00  0.00000000000E+00 -0.10047982710E+04  0.10047982710E+04  0.50400001928E-02 0.  1.
    10030    2    1    2    0    0  0.00000000000E+00  0.00000000000E+00 -0.33716135291E+03  0.16724351891E+04  0.16380969702E+04 0.  0.
        2    1    3    3  502    0  0.58088343541E+03  0.48486116767E+03 -0.48872114097E+03  0.90075760951E+03  0.25500000920E-02 0.  1.
       -2    1    3    3    0  502 -0.58088343541E+03 -0.48486116767E+03  0.15155978806E+03  0.77167757957E+03  0.25500000920E-02 0. -1.
</event>
<event>
 5   0  0.7302027E-04  0.1575497E+04  0.7818609E-02  0.8835744E-01
        1   -1    0    0  501    0  0.00000000000E+00  0.00000000000E+00  0.97948229057E+03  0.97948229058E+03  0.50400001928E-02 0. -1.
       -1   -1    0    0    0  501  0.00000000000E+00  0.00000000000E+00 -0.63354626194E+03  0.63354626196E+03  0.50400001928E-02 0.  1.
    10030    2    1    2    0    0  0.00000000000E+00  0.00000000000E+00  0.34593602863E+03  0.16130285525E+04  0.15754965488E+04 0.  0.
        5    1    3    3  502    0  0.42837929450E+03 -0.40606358403E+03  0.70705482330E+03  0.92105649522E+03  0.46999998093E+01 0. -1.
       -5    1    3    3    0  502 -0.42837929450E+03  0.40606358403E+03 -0.36111879468E+03  0.69197205731E+03  0.46999998093E+01 0.  1.
</event>
<event>
 5   0  0.1414751E-03  0.1597008E+04  0.7818609E-02  0.8822388E-01
       -2   -1    0    0    0  501  0.00000000000E+00  0.00000000000E+00  0.56756855307E+03  0.56756855308E+03  0.25500000920E-02 0.  1.
        2   -1    0    0  501    0  0.00000000000E+00  0.00000000000E+00 -0.11234034630E+04  0.11234034630E+04  0.25500000920E-02 0. -1.
    10030    2    1    2    0    0  0.00000000000E+00  0.00000000000E+00 -0.55583490995E+03  0.16909720161E+04  0.15970077996E+04 0.  0.
        2    1    3    3  502    0 -0.61918550629E+03 -0.97534326714E+02 -0.80169956965E+03  0.10176570326E+04  0.25500000920E-02 0. -1.
       -2    1    3    3    0  502  0.61918550629E+03  0.97534326714E+02  0.24586465969E+03  0.67331498348E+03  0.25500000920E-02 0.  1.
</event>
<event>
 5   0  0.1414751E-03  0.1577219E+04  0.7818609E-02  0.8834667E-01
       -2   -1    0    0    0  501  0.00000000000E+00  0.00000000000E+00  0.92832026681E+03  0.92832026681E+03  0.25500000920E-02 0.  1.
        2   -1    0    0  501    0  0.00000000000E+00  0.00000000000E+00 -0.66992481173E+03  0.66992481174E+03  0.25500000920E-02 0. -1.
    10030    2    1    2    0    0  0.00000000000E+00  0.00000000000E+00  0.25839545508E+03  0.15982450786E+04  0.15772187927E+04 0.  0.
        2    1    3    3  502    0 -0.36113373231E+03  0.60672439761E+03 -0.22672931809E+03  0.74157821634E+03  0.25500000920E-02 0. -1.
       -2    1    3    3    0  502  0.36113373231E+03 -0.60672439761E+03  0.48512477317E+03  0.85666686221E+03  0.25500000920E-02 0.  1.
</event>
<event>
 5   0  0.7601145E-04  0.1597959E+04  0.7818609E-02  0.8821803E-01
        1   -1    0    0  501    0  0.00000000000E+00  0.00000000000E+00  0.85950185311E+03  0.85950185312E+03  0.50400001928E-02 0.  1.
       -1   -1    0    0    0  501  0.00000000000E+00  0.00000000000E+00 -0.74271882408E+03  0.74271882410E+03  0.50400001928E-02 0. -1.
    10030    2    1    2    0    0  0.00000000000E+00  0.00000000000E+00  0.11678302902E+03  0.16022206772E+04  0.15979589552E+04 0.  0.
        4    1    3    3  502    0 -0.60610119274E+02  0.12760563695E+03 -0.73009613751E+03  0.74363886938E+03  0.12699999809E+01 0. -1.
       -4    1    3    3    0  502  0.60610119274E+02 -0.12760563695E+03  0.84687916654E+03  0.85858180784E+03  0.12699999809E+01 0.  1.
</event>
<event>
 5   0  0.1414796E-03  0.1538266E+04  0.7818609E-02  0.8859398E-01
       -2   -1    0    0    0  501  0.00000000000E+00  0.00000000000E+00  0.81096256109E+03  0.81096256110E+03  0.25500000920E-02 0.  1.
        2   -1    0    0  501    0  0.00000000000E+00  0.00000000000E+00 -0.72946064838E+03  0.72946064838E+03  0.25500000920E-02 0. -1.
    10030    2    1    2    0    0  0.00000000000E+00  0.00000000000E+00  0.81501912713E+02  0.15404232095E+04  0.15382656151E+04 0.  0.
        4    1    3    3  502    0 -0.71831735437E+03 -0.16966441244E+03  0.25738243843E+03  0.78167331217E+03  0.12699999809E+01 0.  1.
       -4    1    3    3    0  502  0.71831735437E+03  0.16966441244E+03 -0.17588052571E+03  0.75874989731E+03  0.12699999809E+01 0. -1.
</event>
<event>
 5   0  0.5095750E-04  0.1498023E+04  0.7818609E-02  0.8885769E-01
       -3   -1    0    0    0  501  0.00000000000E+00  0.00000000000E+00  0.86981484214E+03  0.86981484800E+03  0.10100000352E+00 0. -1.
        3   -1    0    0  501    0  0.00000000000E+00  0.00000000000E+00 -0.64498588440E+03  0.64498589231E+03  0.10100000352E+00 0.  1.
    10030    2    1    2    0    0  0.00000000000E+00  0.00000000000E+00  0.22482895774E+03  0.15148007403E+04  0.14980231048E+04 0.  0.
        3    1    3    3  502    0  0.60659251230E+03  0.23726851787E+03 -0.26154832156E+03  0.70189626033E+03  0.10100000352E+00 0.  1.
       -3    1    3    3    0  502 -0.60659251230E+03 -0.23726851787E+03  0.48637727929E+03  0.81290447998E+03  0.10100000352E+00 0. -1.
</event>
<event>
 5   0  0.5095750E-04  0.1552072E+04  0.7818609E-02  0.8850546E-01
        3   -1    0    0  501    0  0.00000000000E+00  0.00000000000E+00  0.82191798077E+03  0.82191798698E+03  0.10100000352E+00 0.  1.
       -3   -1    0    0    0  501  0.00000000000E+00  0.00000000000E+00 -0.73271490535E+03  0.73271491231E+03  0.10100000352E+00 0. -1.
    10030    2    1    2    0    0  0.00000000000E+00  0.00000000000E+00  0.89203075426E+02  0.15546328993E+04  0.15520716037E+04 0.  0.
        4    1    3    3  502    0 -0.44411081450E+03 -0.61862230090E+03  0.19418647757E+03  0.78589946411E+03  0.12699999809E+01 0.  1.
       -4    1    3    3    0  502  0.44411081450E+03  0.61862230090E+03 -0.10498340214E+03  0.76873343517E+03  0.12699999809E+01 0. -1.
</event>
<event>
 5   0  0.7499834E-04  0.1596227E+04  0.7818609E-02  0.8822869E-01
        1   -1    0    0  501    0  0.00000000000E+00  0.00000000000E+00  0.53900247695E+03  0.53900247697E+03  0.50400001928E-02 0. -1.
       -1   -1    0    0    0  501  0.00000000000E+00  0.00000000000E+00 -0.11817851742E+04  0.11817851742E+04  0.50400001928E-02 0.  1.
    10030    2    1    2    0    0  0.00000000000E+00  0.00000000000E+00 -0.64278269726E+03  0.17207876512E+04  0.15962269715E+04 0.  0.
        3    1    3    3  502    0  0.76906187510E+03 -0.10123914592E+03 -0.52387707879E+03  0.93603030736E+03  0.10100000352E+00 0.  1.
       -3    1    3    3    0  502 -0.76906187510E+03  0.10123914592E+03 -0.11890561847E+03  0.78475734384E+03  0.10100000352E+00 0. -1.
</event>
<event>
 5   0  0.1414751E-03  0.1654596E+04  0.7818609E-02  0.8787692E-01
        2   -1    0    0  501    0  0.00000000000E+00  0.00000000000E+00  0.11220899749E+04  0.11220899749E+04  0.25500000920E-02 0.  1.
       -2   -1    0    0    0  501  0.00000000000E+00  0.00000000000E+00 -0.60995315806E+03  0.60995315806E+03  0.25500000920E-02 0. -1.
    10030    2    1    2    0    0  0.00000000000E+00  0.00000000000E+00  0.51213681686E+03  0.17320431330E+04  0.16545964146E+04 0.  0.
        2    1    3    3  502    0 -0.76391508072E+03  0.59793953153E+02  0.58256608389E+03  0.96256158737E+03  0.25500000920E-02 0.  1.
       -2    1    3    3    0  502  0.76391508072E+03 -0.59793953153E+02 -0.70429267024E+02  0.76948154561E+03  0.25500000920E-02 0. -1.
</event>
<event>
 5   0  0.7633213E-04  0.9377793E+03  0.7818609E-02  0.9379550E-01
        1   -1    0    0  501    0  0.00000000000E+00  0.00000000000E+00  0.13277308340E+04  0.13277308340E+04  0.50400001928E-02 0.  1.
       -1   -1    0    0    0  501  0.00000000000E+00  0.00000000000E+00 -0.16558890226E+03  0.16558890234E+03  0.50400001928E-02 0. -1.
    10030    2    1    2    0    0  0.00000000000E+00  0.00000000000E+00  0.11621419318E+04  0.14933197364E+04  0.93777927333E+03 0.  0.
        1    1    3    3  502    0  0.27561449590E+02 -0.37817281182E+03  0.14183640022E+03  0.40483561300E+03  0.50400001928E-02 0. -1.
       -1    1    3    3    0  502 -0.27561449590E+02  0.37817281182E+03  0.10203055316E+04  0.10884841234E+04  0.50400001928E-02 0.  1.
</event>
<event>
 5   0  0.1414751E-03  0.1593441E+04  0.7818609E-02  0.8824588E-01
        2   -1    0    0  501    0  0.00000000000E+00  0.00000000000E+00  0.87493423756E+03  0.87493423756E+03  0.25500000920E-02 0.  1.
       -2   -1    0    0    0  501  0.00000000000E+00  0.00000000000E+00 -0.72549861025E+03  0.72549861026E+03  0.25500000920E-02 0. -1.
    10030    2    1    2    0    0  0.00000000000E+00  0.00000000000E+00  0.14943562730E+03  0.16004328478E+04  0.15934410230E+04 0.  0.
        2    1    3    3  502    0  0.71192645954E+03 -0.32911232164E+03  0.21536572139E+03  0.81334900136E+03  0.25500000920E-02 0.  1.
       -2    1    3    3    0  502 -0.71192645954E+03  0.32911232164E+03 -0.65930094088E+02  0.78708384646E+03  0.25500000920E-02 0. -1.
</event>
<event>
 5   0  0.1414751E-03  0.1639052E+04  0.7818609E-02  0.8796910E-01
       -2   -1    0    0    0  501  0.00000000000E+00  0.00000000000E+00  0.46421070527E+03  0.46421070528E+03  0.25500000920E-02 0. -1.
        2   -1    0    0  501    0  0.00000000000E+00  0.00000000000E+00 -0.14468062668E+04  0.14468062668E+04  0.25500000920E-02 0.  1.
    10030    2    1    2    0    0  0.00000000000E+00  0.00000000000E+00 -0.98259556155E+03  0.19110169721E+04  0.16390521133E+04 0.  0.
        2    1    3    3  502    0  0.61339288678E+03 -0.54026203595E+03 -0.56016709863E+03  0.99091931025E+03  0.25500000920E-02 0.  1.
       -2    1    3    3    0  502 -0.61339288678E+03  0.54026203595E+03 -0.42242846292E+03  0.92009766185E+03  0.25500000920E-02 0. -1.
</event>
<event>
 5   0  0.7499834E-04  0.1588670E+04  0.7818609E-02  0.8827539E-01
       -1   -1    0    0    0  501  0.00000000000E+00  0.00000000000E+00  0.74263144859E+03  0.74263144861E+03  0.50400001928E-02 0. -1.
        1   -1    0    0  501    0  0.00000000000E+00  0.00000000000E+00 -0.84963844081E+03  0.84963844082E+03  0.50400001928E-02 0.  1.
    10030    2    1    2    0    0  0.00000000000E+00  0.00000000000E+00 -0.10700699221E+03  0.15922698894E+04  0.15886701685E+04 0.  0.
        3    1    3    3  502    0  0.27016791664E+03 -0.41172373669E+03 -0.67818219495E+03  0.83811588595E+03  0.10100000352E+00 0.  1.
       -3    1    3    3    0  502 -0.27016791664E+03  0.41172373669E+03  0.57117520274E+03  0.75415400348E+03  0.10100000352E+00 0. -1.
</event>
<event>
 5   0  0.7633213E-04  0.1636707E+04  0.7818609E-02  0.8798310E-01
        1   -1    0    0  501    0  0.00000000000E+00  0.00000000000E+00  0.97006913756E+03  0.97006913758E+03  0.50400001928E-02 0. -1.
       -1   -1    0    0    0  501  0.00000000000E+00  0.00000000000E+00 -0.69036542602E+03  0.69036542604E+03  0.50400001928E-02 0.  1.
    10030    2    1    2    0    0  0.00000000000E+00  0.00000000000E+00  0.27970371154E+03  0.16604345636E+04  0.16367066853E+04 0.  0.
        1    1    3    3  502    0 -0.77925383263E+03  0.21203693251E+03  0.56234803999E+01  0.80760622829E+03  0.50400001928E-02 0. -1.
       -1    1    3    3    0  502  0.77925383263E+03 -0.21203693251E+03  0.27408023114E+03  0.85282833533E+03  0.50400001928E-02 0.  1.
</event>
<event>
 5   0  0.7499834E-04  0.1590722E+04  0.7818609E-02  0.8826268E-01
       -1   -1    0    0    0  501  0.00000000000E+00  0.00000000000E+00  0.41419274689E+03  0.41419274692E+03  0.50400001928E-02 0. -1.
        1   -1    0    0  501    0  0.00000000000E+00  0.00000000000E+00 -0.15273063668E+04  0.15273063668E+04  0.50400001928E-02 0.  1.
    10030    2    1    2    0    0  0.00000000000E+00  0.00000000000E+00 -0.11131136199E+04  0.19414991137E+04  0.15907221246E+04 0.  0.
        3    1    3    3  502    0 -0.78945973326E+02 -0.12234816469E+03 -0.15109004079E+04  0.15179003896E+04  0.10100000352E+00 0.  1.
       -3    1    3    3    0  502  0.78945973326E+02  0.12234816469E+03  0.39778678801E+03  0.42359872406E+03  0.10100000352E+00 0. -1.
</event>
<event>
 5   0  0.5095750E-04  0.1550186E+04  0.7818609E-02  0.8851749E-01
        3   -1    0    0  501    0  0.00000000000E+00  0.00000000000E+00  0.71793911600E+03  0.71793912311E+03  0.10100000352E+00 0.  1.
       -3   -1    0    0    0  501  0.00000000000E+00  0.00000000000E+00 -0.83679644050E+03  0.83679644660E+03  0.10100000352E+00 0. -1.
    10030    2    1    2    0    0  0.00000000000E+00  0.00000000000E+00 -0.11885732450E+03  0.15547355697E+04  0.15501856754E+04 0.  0.
        1    1    3    3  502    0 -0.22936143396E+03  0.71434649877E+03  0.13574806551E+03  0.76244680143E+03  0.50400001928E-02 0.  1.
       -1    1    3    3    0  502  0.22936143396E+03 -0.71434649877E+03 -0.25460539001E+03  0.79228876828E+03  0.50400001928E-02 0. -1.
</event>
<event>
 5   0  0.7601145E-04  0.1647773E+04  0.7818609E-02  0.8791725E-01
        1   -1    0    0  501    0  0.00000000000E+00  0.00000000000E+00  0.10720452081E+04  0.10720452081E+04  0.50400001928E-02 0.  1.
       -1   -1    0    0    0  501  0.00000000000E+00  0.00000000000E+00 -0.63317184224E+03  0.63317184226E+03  0.50400001928E-02 0. -1.
    10030    2    1    2    0    0  0.00000000000E+00  0.00000000000E+00  0.43887336590E+03  0.17052170504E+04  0.16477728477E+04 0.  0.
        4    1    3    3  502    0 -0.75585157143E+03  0.88335198998E+01  0.55857714479E+03  0.93989343475E+03  0.12699999809E+01 0.  1.
       -4    1    3    3    0  502  0.75585157143E+03 -0.88335198998E+01 -0.11970377889E+03  0.76532361566E+03  0.12699999809E+01 0. -1.
</event>
<event>
 5   0  0.7601145E-04  0.1639823E+04  0.7818609E-02  0.8796450E-01
       -1   -1    0    0    0  501  0.00000000000E+00  0.00000000000E+00  0.55323690801E+03  0.55323690803E+03  0.50400001928E-02 0. -1.
        1   -1    0    0  501    0  0.00000000000E+00  0.00000000000E+00 -0.12151301211E+04  0.12151301211E+04  0.50400001928E-02 0.  1.
    10030    2    1    2    0    0  0.00000000000E+00  0.00000000000E+00 -0.66189321307E+03  0.17683670291E+04  0.16398229551E+04 0.  0.
        4    1    3    3  502    0 -0.16650727114E+03 -0.25388167385E+03 -0.11522746264E+04  0.11916035428E+04  0.12699999809E+01 0.  1.
       -4    1    3    3    0  502  0.16650727114E+03  0.25388167385E+03  0.49038141336E+03  0.57676348630E+03  0.12699999809E+01 0. -1.
</event>
<event>
 5   0  0.1375777E-03  0.1557257E+04  0.7818609E-02  0.8847246E-01
        2   -1    0    0  501    0  0.00000000000E+00  0.00000000000E+00  0.22986990327E+04  0.22986990327E+04  0.25500000920E-02 0.  1.
       -2   -1    0    0    0  501  0.00000000000E+00  0.00000000000E+00 -0.26374143233E+03  0.26374143234E+03  0.25500000920E-02 0. -1.
    10030    2    1    2    0    0  0.00000000000E+00  0.00000000000E+00  0.20349576003E+04  0.25624404650E+04  0.15572567873E+04 0.  0.
        1    1    3    3  502    0 -0.18026843793E+03  0.46159626589E+03  0.20057206083E+04  0.20660307309E+04  0.50400001928E-02 0.  1.
       -1    1    3    3    0  502  0.18026843793E+03 -0.46159626589E+03  0.29236992035E+02  0.49640973411E+03  0.50400001928E-02 0. -1.
</event>
<event>
 5   0  0.1354766E-03  0.1274028E+04  0.7818609E-02  0.9050419E-01
       -2   -1    0    0    0  501  0.00000000000E+00  0.00000000000E+00  0.10405173867E+04  0.10405173867E+04  0.25500000920E-02 0. -1.
        2   -1    0    0  501    0  0.00000000000E+00  0.00000000000E+00 -0.38998564730E+03  0.38998564731E+03  0.25500000920E-02 0.  1.
    10030    2    1    2    0    0  0.00000000000E+00  0.00000000000E+00  0.65053173944E+03  0.14305030341E+04  0.12740280163E+04 0.  0.
        3    1    3    3  502    0 -0.60630278498E+03  0.70200401744E+02  0.53002471653E+03  0.80836710337E+03  0.10100000352E+00 0. -1.
       -3    1    3    3    0  502  0.60630278498E+03 -0.70200401744E+02  0.12050702292E+03  0.62213593069E+03  0.10100000352E+00 0.  1.
</event>
<event>
 5   0  0.5095750E-04  0.1586650E+04  0.7818609E-02  0.8828792E-01
       -3   -1    0    0    0  501  0.00000000000E+00  0.00000000000E+00  0.70021279063E+03  0.70021279792E+03  0.10100000352E+00 0. -1.
        3   -1    0    0  501    0  0.00000000000E+00  0.00000000000E+00 -0.89881844203E+03  0.89881844771E+03  0.10100000352E+00 0.  1.
    10030    2    1    2    0    0  0.00000000000E+00  0.00000000000E+00 -0.19860565140E+03  0.15990312456E+04  0.15866495264E+04 0.  0.
        4    1    3    3  502    0  0.69316462020E+03 -0.38025968785E+03 -0.33309410457E+02  0.79131899422E+03  0.12699999809E+01 0. -1.
       -4    1    3    3    0  502 -0.69316462020E+03  0.38025968785E+03 -0.16529624094E+03  0.80771225140E+03  0.12699999809E+01 0.  1.
</event>
<event>
 5   0  0.1414751E-03  0.1535541E+04  0.7818609E-02  0.8861157E-01
        2   -1    0    0  501    0  0.00000000000E+00  0.00000000000E+00  0.14154275143E+04  0.14154275143E+04  0.25500000920E-02 0.  1.
       -2   -1    0    0    0  501  0.00000000000E+00  0.00000000000E+00 -0.41646189396E+03  0.41646189396E+03  0.25500000920E-02 0. -1.
    10030    2    1    2    0    0  0.00000000000E+00  0.00000000000E+00  0.99896562037E+03  0.18318894083E+04  0.15355411077E+04 0.  0.
        2    1    3    3  502    0  0.36394581343E+03 -0.64309953753E+03  0.25084167486E+03  0.78035576255E+03  0.25500000920E-02 0. -1.
       -2    1    3    3    0  502 -0.36394581343E+03  0.64309953753E+03  0.74812394551E+03  0.10515336457E+04  0.25500000920E-02 0.  1.
</event>
<event>
 5   0  0.1414796E-03  0.1603507E+04  0.7818609E-02  0.8818396E-01
       -2   -1    0    0    0  501  0.00000000000E+00  0.00000000000E+00  0.82209477850E+03  0.82209477851E+03  0.25500000920E-02 0. -1.
        2   -1    0    0  501    0  0.00000000000E+00  0.00000000000E+00 -0.78191540587E+03  0.78191540587E+03  0.25500000920E-02 0.  1.
    10030    2    1    2    0    0  0.00000000000E+00  0.00000000000E+00  0.40179372635E+02  0.16040101844E+04  0.16035068723E+04 0.  0.
        4    1    3    3  502    0 -0.29990990923E+03  0.67829872143E+03 -0.28459063522E+03  0.79437305575E+03  0.12699999809E+01 0.  1.
       -4    1    3    3    0  502  0.29990990923E+03 -0.67829872143E+03  0.32477000785E+03  0.80963712863E+03  0.12699999809E+01 0. -1.
</event>
<event>
 5   0  0.7601145E-04  0.1645884E+04  0.7818609E-02  0.8792845E-01
       -1   -1    0    0    0  501  0.00000000000E+00  0.00000000000E+00  0.95915389927E+03  0.95915389929E+03  0.50400001928E-02 0.  1.
        1   -1    0    0  501    0  0.00000000000E+00  0.00000000000E+00 -0.70607397597E+03  0.70607397599E+03  0.50400001928E-02 0. -1.
    10030    2    1    2    0    0  0.00000000000E+00  0.00000000000E+00  0.25307992330E+03  0.16652278753E+04  0.16458840874E+04 0.  0.
        4    1    3    3  502    0  0.97927596537E+02 -0.50829026814E+03  0.77381129945E+03  0.93098568781E+03  0.12699999809E+01 0.  1.
       -4    1    3    3    0  502 -0.97927596537E+02  0.50829026814E+03 -0.52073137615E+03  0.73424218747E+03  0.12699999809E+01 0. -1.
</event>
<event>
 5   0  0.1339162E-03  0.1572706E+04  0.7818609E-02  0.8837494E-01
       -2   -1    0    0    0  501  0.00000000000E+00  0.00000000000E+00  0.43053261060E+03  0.43053261061E+03  0.25500000920E-02 0.  1.
        2   -1    0    0  501    0  0.00000000000E+00  0.00000000000E+00 -0.14362463278E+04  0.14362463278E+04  0.25500000920E-02 0. -1.
    10030    2    1    2    0    0  0.00000000000E+00  0.00000000000E+00 -0.10057137172E+04  0.18667789384E+04  0.15727057970E+04 0.  0.
        5    1    3    3  502    0 -0.53273457133E+03  0.36969591611E+03  0.25115024274E+02  0.64894841730E+03  0.46999998093E+01 0.  1.
       -5    1    3    3    0  502  0.53273457133E+03 -0.36969591611E+03 -0.10308287414E+04  0.12178305211E+04  0.46999998093E+01 0. -1.
</event>
<event>
 5   0  0.1354766E-03  0.1607959E+04  0.7818609E-02  0.8815673E-01
        2   -1    0    0  501    0  0.00000000000E+00  0.00000000000E+00  0.15358586109E+04  0.15358586109E+04  0.25500000920E-02 0.  1.
       -2   -1    0    0    0  501  0.00000000000E+00  0.00000000000E+00 -0.42086119741E+03  0.42086119742E+03  0.25500000920E-02 0. -1.
    10030    2    1    2    0    0  0.00000000000E+00  0.00000000000E+00  0.11149974135E+04  0.19567198083E+04  0.16079593204E+04 0.  0.
        3    1    3    3  502    0 -0.47706651276E+03 -0.64847479698E+02 -0.22604045362E+03  0.53187587847E+03  0.10100000352E+00 0. -1.
       -3    1    3    3    0  502  0.47706651276E+03  0.64847479698E+02  0.13410378671E+04  0.14248439299E+04  0.10100000352E+00 0.  1.
</event>
<event>
 5   0  0.7601145E-04  0.1575822E+04  0.7818609E-02  0.8835541E-01
        1   -1    0    0  501    0  0.00000000000E+00  0.00000000000E+00  0.11291786881E+04  0.11291786881E+04  0.50400001928E-02 0.  1.
       -1   -1    0    0    0  501  0.00000000000E+00  0.00000000000E+00 -0.54978359964E+03  0.54978359967E+03  0.50400001928E-02 0. -1.
    10030    2    1    2    0    0  0.00000000000E+00  0.00000000000E+00  0.57939508841E+03  0.16789622877E+04  0.15758222283E+04 0.  0.
        4    1    3    3  502    0 -0.72876011188E+03 -0.14874077369E+03  0.12706375790E+02  0.74389393283E+03  0.12699999809E+01 0. -1.
       -4    1    3    3    0  502  0.72876011188E+03  0.14874077369E+03  0.56668871262E+03  0.93506835490E+03  0.12699999809E+01 0.  1.
</event>
<event>
 5   0  0.7499834E-04  0.1603073E+04  0.7818609E-02  0.8818662E-01
       -1   -1    0    0    0  501  0.00000000000E+00  0.00000000000E+00  0.43424344606E+03  0.43424344609E+03  0.50400001928E-02 0. -1.
        1   -1    0    0  501    0  0.00000000000E+00  0.00000000000E+00 -0.14794947407E+04  0.14794947407E+04  0.50400001928E-02 0.  1.
    10030    2    1    2    0    0  0.00000000000E+00  0.00000000000E+00 -0.10452512947E+04  0.19137381868E+04  0.16030731670E+04 0.  0.
        3    1    3    3  502    0 -0.26985211781E+03 -0.74339817785E+03 -0.67827666156E+03  0.10418830338E+04  0.10100000352E+00 0. -1.
       -3    1    3    3    0  502  0.26985211781E+03  0.74339817785E+03 -0.36697463312E+03  0.87185515303E+03  0.10100000352E+00 0.  1.
</event>
<event>
 5   0  0.1414796E-03  0.1530000E+04  0.7818609E-02  0.8864745E-01
        2   -1    0    0  501    0  0.00000000000E+00  0.00000000000E+00  0.61034468180E+03  0.61034468181E+03  0.25500000920E-02 0.  1.
       -2   -1    0    0    0  501  0.00000000000E+00  0.00000000000E+00 -0.95884377180E+03  0.95884377180E+03  0.25500000920E-02 0. -1.
    10030    2    1    2    0    0  0.00000000000E+00  0.00000000000E+00 -0.34849908999E+03  0.15691884536E+04  0.15300002573E+04 0.  0.
        4    1    3    3  502    0  0.16565377694E+03 -0.62461066264E+03 -0.59418013960E+03  0.87785608439E+03  0.12699999809E+01 0. -1.
       -4    1    3    3    0  502 -0.16565377694E+03  0.62461066264E+03  0.24568104960E+03  0.69133236922E+03  0.12699999809E+01 0.  1.
</event>
<event>
 5   0  0.1354766E-03  0.1613404E+04  0.7818609E-02  0.8812356E-01
        2   -1    0    0  501    0  0.00000000000E+00  0.00000000000E+00  0.80000424939E+03  0.80000424940E+03  0.25500000920E-02 0.  1.
       -2   -1    0    0    0  501  0.00000000000E+00  0.00000000000E+00 -0.81345564995E+03  0.81345564995E+03  0.25500000920E-02 0. -1.
    10030    2    1    2    0    0  0.00000000000E+00  0.00000000000E+00 -0.13451400555E+02  0.16134598993E+04  0.16134038263E+04 0.  0.
        3    1    3    3  502    0 -0.18512226031E+03 -0.10446884279E+03  0.77149410824E+03  0.80024193819E+03  0.10100000352E+00 0.  1.
       -3    1    3    3    0  502  0.18512226031E+03  0.10446884279E+03 -0.78494550880E+03  0.81321796116E+03  0.10100000352E+00 0. -1.
</event>
<event>
 5   0  0.1414751E-03  0.1748982E+04  0.7818609E-02  0.8733911E-01
       -2   -1    0    0    0  501  0.00000000000E+00  0.00000000000E+00  0.28666585753E+03  0.28666585754E+03  0.25500000920E-02 0. -1.
        2   -1    0    0  501    0  0.00000000000E+00  0.00000000000E+00 -0.26676868361E+04  0.26676868361E+04  0.25500000920E-02 0.  1.
    10030    2    1    2    0    0  0.00000000000E+00  0.00000000000E+00 -0.23810209786E+04  0.29543526937E+04  0.17489822578E+04 0.  0.
        2    1    3    3  502    0 -0.68884901041E+03 -0.17411937267E+03 -0.32935097971E+03  0.78313637569E+03  0.25500000920E-02 0. -1.
       -2    1    3    3    0  502  0.68884901041E+03  0.17411937267E+03 -0.20516699989E+04  0.21712163180E+04  0.25500000920E-02 0.  1.
</event>
<event>
 5   0  0.1414751E-03  0.1684477E+04  0.7818609E-02  0.8770268E-01
        2   -1    0    0  501    0  0.00000000000E+00  0.00000000000E+00  0.16126496884E+04  0.16126496884E+04  0.25500000920E-02 0. -1.
       -2   -1    0    0    0  501  0.00000000000E+00  0.00000000000E+00 -0.43987582284E+03  0.43987582284E+03  0.25500000920E-02 0.  1.
    10030    2    1    2    0    0  0.00000000000E+00  0.00000000000E+00  0.11727738655E+04  0.20525255112E+04  0.16844769023E+04 0.  0.
        2    1    3    3  502    0  0.38335614776E+02  0.77001685438E+03  0.17322925102E+03  0.79019234925E+03  0.25500000920E-02 0.  1.
       -2    1    3    3    0  502 -0.38335614776E+02 -0.77001685438E+03  0.99954461451E+03  0.12623331620E+04  0.25500000920E-02 0. -1.
</event>
<event>
 5   0  0.1414796E-03  0.1609423E+04  0.7818609E-02  0.8814780E-01
        2   -1    0    0  501    0  0.00000000000E+00  0.00000000000E+00  0.15663479733E+04  0.15663479733E+04  0.25500000920E-02 0. -1.
       -2   -1    0    0    0  501  0.00000000000E+00  0.00000000000E+00 -0.41342087318E+03  0.41342087319E+03  0.25500000920E-02 0.  1.
    10030    2    1    2    0    0  0.00000000000E+00  0.00000000000E+00  0.11529271001E+04  0.19797688465E+04  0.16094234332E+04 0.  0.
        4    1    3    3  502    0 -0.48568810115E+03  0.20543385576E+03  0.13241677800E+04  0.14253132720E+04  0.12699999809E+01 0. -1.
       -4    1    3    3    0  502  0.48568810115E+03 -0.20543385576E+03 -0.17124067995E+03  0.55445557447E+03  0.12699999809E+01 0.  1.
</event>
<event>
 5   0  0.1339162E-03  0.1624125E+04  0.7818609E-02  0.8805862E-01
       -2   -1    0    0    0  501  0.00000000000E+00  0.00000000000E+00  0.47295477346E+03  0.47295477346E+03  0.25500000920E-02 0.  1.
        2   -1    0    0  501    0  0.00000000000E+00  0.00000000000E+00 -0.13943106203E+04  0.13943106203E+04  0.25500000920E-02 0. -1.
    10030    2    1    2    0    0  0.00000000000E+00  0.00000000000E+00 -0.92135584687E+03  0.18672653938E+04  0.16241254429E+04 0.  0.
        5    1    3    3  502    0 -0.68886795994E+03 -0.33600194965E+03 -0.15220665863E+03  0.78142519368E+03  0.46999998093E+01 0.  1.
       -5    1    3    3    0  502  0.68886795994E+03  0.33600194965E+03 -0.76914918825E+03  0.10858402001E+04  0.46999998093E+01 0. -1.
</event>
<event>
 5   0  0.1339162E-03  0.1564477E+04  0.7818609E-02  0.8842673E-01
       -2   -1    0    0    0  501  0.00000000000E+00  0.00000000000E+00  0.34139108419E+03  0.34139108420E+03  0.25500000920E-02 0. -1.
        2   -1    0    0  501    0  0.00000000000E+00  0.00000000000E+00 -0.17923635131E+04  0.17923635131E+04  0.25500000920E-02 0.  1.
    10030    2    1    2    0    0  0.00000000000E+00  0.00000000000E+00 -0.14509724289E+04  0.21337545973E+04  0.15644768110E+04 0.  0.
        5    1    3    3  502    0  0.29536256007E+03  0.69314606041E+03 -0.43879823962E+03  0.87192688228E+03  0.46999998093E+01 0. -1.
       -5    1    3    3    0  502 -0.29536256007E+03 -0.69314606041E+03 -0.10121741893E+04  0.12618277150E+04  0.46999998093E+01 0.  1.
</event>
<event>
 5   0  0.1354766E-03  0.1455903E+04  0.7818609E-02  0.8914318E-01
       -2   -1    0    0    0  501  0.00000000000E+00  0.00000000000E+00  0.37463627325E+03  0.37463627326E+03  0.25500000920E-02 0.  1.
        2   -1    0    0  501    0  0.00000000000E+00  0.00000000000E+00 -0.14144741574E+04  0.14144741574E+04  0.25500000920E-02 0. -1.
    10030    2    1    2    0    0  0.00000000000E+00  0.00000000000E+00 -0.10398378842E+04  0.17891104307E+04  0.14559029184E+04 0.  0.
        3    1    3    3  502    0  0.19674615693E+03  0.22626452111E+03 -0.13350648071E+04  0.13683211367E+04  0.10100000352E+00 0. -1.
       -3    1    3    3    0  502 -0.19674615693E+03 -0.22626452111E+03  0.29522692288E+03  0.42078929403E+03  0.10100000352E+00 0.  1.
</event>
<event>
 5   0  0.7633213E-04  0.1610698E+04  0.7818609E-02  0.8814002E-01
        1   -1    0    0  501    0  0.00000000000E+00  0.00000000000E+00  0.91783352262E+03  0.91783352264E+03  0.50400001928E-02 0.  1.
       -1   -1    0    0    0  501  0.00000000000E+00  0.00000000000E+00 -0.70665027988E+03  0.70665027990E+03  0.50400001928E-02 0. -1.
    10030    2    1    2    0    0  0.00000000000E+00  0.00000000000E+00  0.21118324274E+03  0.16244838025E+04  0.16106983773E+04 0.  0.
        1    1    3    3  502    0  0.30918190371E+03  0.28191629868E+03 -0.58842357906E+03  0.72201977636E+03  0.50400001928E-02 0. -1.
       -1    1    3    3    0  502 -0.30918190371E+03 -0.28191629868E+03  0.79960682180E+03  0.90246402617E+03  0.50400001928E-02 0.  1.
</event>
<event>
 5   0  0.7633213E-04  0.1593278E+04  0.7818609E-02  0.8824688E-01
       -1   -1    0    0    0  501  0.00000000000E+00  0.00000000000E+00  0.79265398406E+03  0.79265398408E+03  0.50400001928E-02 0.  1.
        1   -1    0    0  501    0  0.00000000000E+00  0.00000000000E+00 -0.80064387290E+03  0.80064387291E+03  0.50400001928E-02 0. -1.
    10030    2    1    2    0    0  0.00000000000E+00  0.00000000000E+00 -0.79898888364E+01  0.15932978570E+04  0.15932778235E+04 0.  0.
        1    1    3    3  502    0 -0.35656611627E+03  0.48240669734E+02 -0.71475489122E+03  0.80021316662E+03  0.50400001928E-02 0. -1.
       -1    1    3    3    0  502  0.35656611627E+03 -0.48240669734E+02  0.70676500238E+03  0.79308469037E+03  0.50400001928E-02 0.  1.
</event>
<event>
 5   0  0.1414751E-03  0.1621126E+04  0.7818609E-02  0.8807674E-01
        2   -1    0    0  501    0  0.00000000000E+00  0.00000000000E+00  0.16250684764E+04  0.16250684764E+04  0.25500000920E-02 0. -1.
       -2   -1    0    0    0  501  0.00000000000E+00  0.00000000000E+00 -0.40429812950E+03  0.40429812950E+03  0.25500000920E-02 0.  1.
    10030    2    1    2    0    0  0.00000000000E+00  0.00000000000E+00  0.12207703469E+04  0.20293666059E+04  0.16211257142E+04 0.  0.
        2    1    3    3  502    0  0.18436373741E+03  0.34920159962E+03 -0.27574499599E+03  0.48162957515E+03  0.25500000920E-02 0.  1.
       -2    1    3    3    0  502 -0.18436373741E+03 -0.34920159962E+03  0.14965153428E+04  0.15477370307E+04  0.25500000920E-02 0. -1.
</event>
<event>
 5   0  0.1414796E-03  0.1583094E+04  0.7818609E-02  0.8831002E-01
       -2   -1    0    0    0  501  0.00000000000E+00  0.00000000000E+00  0.33725887469E+03  0.33725887470E+03  0.25500000920E-02 0. -1.
        2   -1    0    0  501    0  0.00000000000E+00  0.00000000000E+00 -0.18577625154E+04  0.18577625154E+04  0.25500000920E-02 0.  1.
    10030    2    1    2    0    0  0.00000000000E+00  0.00000000000E+00 -0.15205036408E+04  0.21950213901E+04  0.15830943060E+04 0.  0.
        4    1    3    3  502    0 -0.98503543670E+01  0.46576253350E+03  0.12703920679E+03  0.48287921891E+03  0.12699999809E+01 0. -1.
       -4    1    3    3    0  502  0.98503543670E+01 -0.46576253350E+03 -0.16475428475E+04  0.17121421712E+04  0.12699999809E+01 0.  1.
</event>
<event>
 5   0  0.7302027E-04  0.1390555E+04  0.7818609E-02  0.8960684E-01
       -1   -1    0    0    0  501  0.00000000000E+00  0.00000000000E+00  0.50590136852E+03  0.50590136854E+03  0.50400001928E-02 0.  1.
        1   -1    0    0  501    0  0.00000000000E+00  0.00000000000E+00 -0.95554348172E+03  0.95554348174E+03  0.50400001928E-02 0. -1.
    10030    2    1    2    0    0  0.00000000000E+00  0.00000000000E+00 -0.44964211321E+03  0.14614448503E+04  0.13905549325E+04 0.  0.
        5    1    3    3  502    0 -0.19955396375E+03  0.64323737853E+03 -0.43355634206E+02  0.67489103610E+03  0.46999998093E+01 0. -1.
       -5    1    3    3    0  502  0.19955396375E+03 -0.64323737853E+03 -0.40628647900E+03  0.78655381418E+03  0.46999998093E+01 0.  1.
</event>
<event>
 5   0  0.1375777E-03  0.1636140E+04  0.7818609E-02  0.8798648E-01
        2   -1    0    0  501    0  0.00000000000E+00  0.00000000000E+00  0.30501485858E+04  0.30501485858E+04  0.25500000920E-02 0.  1.
       -2   -1    0    0    0  501  0.00000000000E+00  0.00000000000E+00 -0.21941182125E+03  0.21941182127E+03  0.25500000920E-02 0. -1.
    10030    2    1    2    0    0  0.00000000000E+00  0.00000000000E+00  0.28307367645E+04  0.32695604071E+04  0.16361401607E+04 0.  0.
        1    1    3    3  502    0  0.71011832356E+03  0.76665334021E+02  0.61830205245E+03  0.94469203182E+03  0.50400001928E-02 0. -1.
       -1    1    3    3    0  502 -0.71011832356E+03 -0.76665334021E+02  0.22124347121E+04  0.23248683752E+04  0.50400001928E-02 0.  1.
</event>
<event>
 5   0  0.7302027E-04  0.1547500E+04  0.7818609E-02  0.8853466E-01
        1   -1    0    0  501    0  0.00000000000E+00  0.00000000000E+00  0.71055694182E+03  0.71055694184E+03  0.50400001928E-02 0.  1.
       -1   -1    0    0    0  501  0.00000000000E+00  0.00000000000E+00 -0.84256261404E+03  0.84256261406E+03  0.50400001928E-02 0. -1.
    10030    2    1    2    0    0  0.00000000000E+00  0.00000000000E+00 -0.13200567223E+03  0.15531195559E+04  0.15474995500E+04 0.  0.
        5    1    3    3  502    0 -0.38164753093E+02 -0.29794313523E+03  0.64963648721E+03  0.71573480824E+03  0.46999998093E+01 0.  1.
       -5    1    3    3    0  502  0.38164753093E+02  0.29794313523E+03 -0.78164215943E+03  0.83738474766E+03  0.46999998093E+01 0. -1.
</event>
<event>
 5   0  0.7601145E-04  0.1664747E+04  0.7818609E-02  0.8781730E-01
       -1   -1    0    0    0  501  0.00000000000E+00  0.00000000000E+00  0.54168006083E+03  0.54168006085E+03  0.50400001928E-02 0.  1.
        1   -1    0    0  501    0  0.00000000000E+00  0.00000000000E+00 -0.12790687198E+04  0.12790687198E+04  0.50400001928E-02 0. -1.
    10030    2    1    2    0    0  0.00000000000E+00  0.00000000000E+00 -0.73738865901E+03  0.18207487807E+04  0.16647474547E+04 0.  0.
        4    1    3    3  502    0  0.80590025700E+02  0.38285969326E+03 -0.11722302213E+04  0.12357999845E+04  0.12699999809E+01 0. -1.
       -4    1    3    3    0  502 -0.80590025700E+02 -0.38285969326E+03  0.43484156232E+03  0.58494879621E+03  0.12699999809E+01 0.  1.
</event>
<event>
 5   0  0.7633213E-04  0.1614234E+04  0.7818609E-02  0.8811851E-01
       -1   -1    0    0    0  501  0.00000000000E+00  0.00000000000E+00  0.35828773477E+03  0.35828773481E+03  0.50400001928E-02 0.  1.
        1   -1    0    0  501    0  0.00000000000E+00  0.00000000000E+00 -0.18181981588E+04  0.18181981588E+04  0.50400001928E-02 0. -1.
    10030    2    1    2    0    0  0.00000000000E+00  0.00000000000E+00 -0.14599104240E+04  0.21764858936E+04  0.16142343073E+04 0.  0.
        1    1    3    3  502    0  0.21294924941E+03 -0.71261117679E+03 -0.30727386733E+03  0.80472312113E+03  0.50400001928E-02 0.  1.
       -1    1    3    3    0  502 -0.21294924941E+03  0.71261117679E+03 -0.11526365567E+04  0.13717627725E+04  0.50400001928E-02 0. -1.
</event>
<event>
 5   0  0.7633213E-04  0.1713793E+04  0.7818609E-02  0.8753537E-01
        1   -1    0    0  501    0  0.00000000000E+00  0.00000000000E+00  0.12289923669E+04  0.12289923669E+04  0.50400001928E-02 0. -1.
       -1   -1    0    0    0  501  0.00000000000E+00  0.00000000000E+00 -0.59745798904E+03  0.59745798906E+03  0.50400001928E-02 0.  1.
    10030    2    1    2    0    0  0.00000000000E+00  0.00000000000E+00  0.63153437789E+03  0.18264503560E+04  0.17137926457E+04 0.  0.
        1    1    3    3  502    0  0.11364305460E+03  0.83976991816E+03  0.45117458213E+03  0.96004518794E+03  0.50400001928E-02 0.  1.
       -1    1    3    3    0  502 -0.11364305460E+03 -0.83976991816E+03  0.18035979576E+03  0.86640516806E+03  0.50400001928E-02 0. -1.
</event>
<event>
 5   0  0.7633213E-04  0.8535412E+03  0.7818609E-02  0.9485596E-01
        1   -1    0    0  501    0  0.00000000000E+00  0.00000000000E+00  0.33090977692E+03  0.33090977696E+03  0.50400001928E-02 0.  1.
       -1   -1    0    0    0  501  0.00000000000E+00  0.00000000000E+00 -0.55040123438E+03  0.55040123440E+03  0.50400001928E-02 0. -1.
    10030    2    1    2    0    0  0.00000000000E+00  0.00000000000E+00 -0.21949145746E+03  0.88131101136E+03  0.85354121098E+03 0.  0.
        1    1    3    3  502    0 -0.32997536952E+03 -0.26862536579E+03 -0.14383217300E+03  0.44914477137E+03  0.50400001928E-02 0. -1.
       -1    1    3    3    0  502  0.32997536952E+03  0.26862536579E+03 -0.75659284460E+02  0.43216623999E+03  0.50400001928E-02 0.  1.
</event>
<event>
 5   0  0.7124495E-04  0.1596163E+04  0.7818609E-02  0.8822909E-01
        1   -1    0    0  501    0  0.00000000000E+00  0.00000000000E+00  0.84481472023E+03  0.84481472025E+03  0.50400001928E-02 0.  1.
       -1   -1    0    0    0  501  0.00000000000E+00  0.00000000000E+00 -0.75393328274E+03  0.75393328275E+03  0.50400001928E-02 0. -1.
    10030    2    1    2    0    0  0.00000000000E+00  0.00000000000E+00  0.90881437496E+02  0.15987480030E+04  0.15961628180E+04 0.  0.
        2    1    3    3  502    0  0.46036689243E+02  0.50510874021E+03  0.66262026522E+03  0.83445780725E+03  0.25500000920E-02 0.  1.
       -2    1    3    3    0  502 -0.46036689243E+02 -0.50510874021E+03 -0.57173882772E+03  0.76429019575E+03  0.25500000920E-02 0. -1.
</event>
<event>
 5   0  0.7302027E-04  0.1638756E+04  0.7818609E-02  0.8797086E-01
        1   -1    0    0  501    0  0.00000000000E+00  0.00000000000E+00  0.49802269368E+03  0.49802269371E+03  0.50400001928E-02 0. -1.
       -1   -1    0    0    0  501  0.00000000000E+00  0.00000000000E+00 -0.13480914919E+04  0.13480914919E+04  0.50400001928E-02 0.  1.
    10030    2    1    2    0    0  0.00000000000E+00  0.00000000000E+00 -0.85006879817E+03  0.18461141856E+04  0.16387558160E+04 0.  0.
        5    1    3    3  502    0 -0.14762515025E+03  0.45777031581E+03  0.32223326261E+03  0.57896736743E+03  0.46999998093E+01 0. -1.
       -5    1    3    3    0  502  0.14762515025E+03 -0.45777031581E+03 -0.11723020608E+04  0.12671468181E+04  0.46999998093E+01 0.  1.
</event>
<event>
 5   0  0.1354766E-03  0.1563216E+04  0.7818609E-02  0.8843470E-01
       -2   -1    0    0    0  501  0.00000000000E+00  0.00000000000E+00  0.14557188259E+04  0.14557188259E+04  0.25500000920E-02 0. -1.
        2   -1    0    0  501    0  0.00000000000E+00  0.00000000000E+00 -0.41966285223E+03  0.41966285224E+03  0.25500000920E-02 0.  1.
    10030    2    1    2    0    0  0.00000000000E+00  0.00000000000E+00  0.10360559736E+04  0.18753816781E+04  0.15632160625E+04 0.  0.
        3    1    3    3  502    0  0.99904326301E+02 -0.48879316031E+03  0.12398528366E+04  0.13364635029E+04  0.10100000352E+00 0. -1.
       -3    1    3    3    0  502 -0.99904326301E+02  0.48879316031E+03 -0.20379686298E+03  0.53891817518E+03  0.10100000352E+00 0.  1.
</event>
<event>
 5   0  0.7499834E-04  0.1582382E+04  0.7818609E-02  0.8831445E-01
       -1   -1    0    0    0  501  0.00000000000E+00  0.00000000000E+00  0.74995286685E+03  0.74995286686E+03  0.50400001928E-02 0. -1.
        1   -1    0    0  501    0  0.00000000000E+00  0.00000000000E+00 -0.83469675941E+03  0.83469675943E+03  0.50400001928E-02 0.  1.
    10030    2    1    2    0    0  0.00000000000E+00  0.00000000000E+00 -0.84743892566E+02  0.15846496263E+04  0.15823820369E+04 0.  0.
        3    1    3    3  502    0  0.33571459521E+03  0.16715352930E+03  0.65528887740E+03  0.75501530768E+03  0.10100000352E+00 0. -1.
       -3    1    3    3    0  502 -0.33571459521E+03 -0.16715352930E+03 -0.74003276996E+03  0.82963431861E+03  0.10100000352E+00 0.  1.
</event>
<event>
 5   0  0.7124495E-04  0.1631148E+04  0.7818609E-02  0.8801638E-01
       -1   -1    0    0    0  501  0.00000000000E+00  0.00000000000E+00  0.82957872129E+03  0.82957872130E+03  0.50400001928E-02 0. -1.
        1   -1    0    0  501    0  0.00000000000E+00  0.00000000000E+00 -0.80180542669E+03  0.80180542671E+03  0.50400001928E-02 0.  1.
    10030    2    1    2    0    0  0.00000000000E+00  0.00000000000E+00  0.27773294598E+02  0.16313841480E+04  0.16311477194E+04 0.  0.
        2    1    3    3  502    0 -0.19828230913E+03  0.23219074538E+03  0.77025832516E+03  0.82856882867E+03  0.25500000920E-02 0. -1.
       -2    1    3    3    0  502  0.19828230913E+03 -0.23219074538E+03 -0.74248503056E+03  0.80281531934E+03  0.25500000920E-02 0.  1.
</event>
<event>
 5   0  0.1339162E-03  0.1646532E+04  0.7818609E-02  0.8792461E-01
        2   -1    0    0  501    0  0.00000000000E+00  0.00000000000E+00  0.16129132665E+04  0.16129132665E+04  0.25500000920E-02 0.  1.
       -2   -1    0    0    0  501  0.00000000000E+00  0.00000000000E+00 -0.42021269455E+03  0.42021269456E+03  0.25500000920E-02 0. -1.
    10030    2    1    2    0    0  0.00000000000E+00  0.00000000000E+00  0.11927005720E+04  0.20331259611E+04  0.16465316636E+04 0.  0.
        5    1    3    3  502    0 -0.19718141223E+03  0.40613759794E+03 -0.25370077540E+03  0.51789422783E+03  0.46999998093E+01 0. -1.
       -5    1    3    3    0  502  0.19718141223E+03 -0.40613759794E+03  0.14464013474E+04  0.15152317333E+04  0.46999998093E+01 0.  1.
</event>
<event>
 5   0  0.1354766E-03  0.1329969E+04  0.7818609E-02  0.9006131E-01
       -2   -1    0    0    0  501  0.00000000000E+00  0.00000000000E+00  0.79583692997E+03  0.79583692998E+03  0.25500000920E-02 0. -1.
        2   -1    0    0  501    0  0.00000000000E+00  0.00000000000E+00 -0.55564706735E+03  0.55564706735E+03  0.25500000920E-02 0.  1.
    10030    2    1    2    0    0  0.00000000000E+00  0.00000000000E+00  0.24018986263E+03  0.13514839973E+04  0.13299691068E+04 0.  0.
        3    1    3    3  502    0 -0.25518063344E+03  0.39312543952E+03 -0.35927753227E+03  0.59054646072E+03  0.10100000352E+00 0.  1.
       -3    1    3    3    0  502  0.25518063344E+03 -0.39312543952E+03  0.59946739490E+03  0.76093753661E+03  0.10100000352E+00 0. -1.
</event>
<event>
 5   0  0.7633213E-04  0.1608674E+04  0.7818609E-02  0.8815237E-01
        1   -1    0    0  501    0  0.00000000000E+00  0.00000000000E+00  0.10321286224E+04  0.10321286224E+04  0.50400001928E-02 0. -1.
       -1   -1    0    0    0  501  0.00000000000E+00  0.00000000000E+00 -0.62681929789E+03  0.62681929792E+03  0.50400001928E-02 0.  1.
    10030    2    1    2    0    0  0.00000000000E+00  0.00000000000E+00  0.40530932453E+03  0.16589479204E+04  0.16086741603E+04 0.  0.
        1    1    3    3  502    0 -0.73908981184E+03 -0.99276159813E+02  0.51348533178E+03  0.90541520412E+03  0.50400001928E-02 0. -1.
       -1    1    3    3    0  502  0.73908981184E+03  0.99276159813E+02 -0.10817600725E+03  0.75353271624E+03  0.50400001928E-02 0.  1.
</event>
<event>
 5   0  0.1414796E-03  0.1588493E+04  0.7818609E-02  0.8827648E-01
        2   -1    0    0  501    0  0.00000000000E+00  0.00000000000E+00  0.85718521478E+03  0.85718521478E+03  0.25500000920E-02 0.  1.
       -2   -1    0    0    0  501  0.00000000000E+00  0.00000000000E+00 -0.73592926319E+03  0.73592926320E+03  0.25500000920E-02 0. -1.
    10030    2    1    2    0    0  0.00000000000E+00  0.00000000000E+00  0.12125595159E+03  0.15931144780E+04  0.15884932276E+04 0.  0.
        4    1    3    3  502    0 -0.24310017286E+03  0.52009532229E+03  0.61106821430E+03  0.83845263059E+03  0.12699999809E+01 0.  1.
       -4    1    3    3    0  502  0.24310017286E+03 -0.52009532229E+03 -0.48981226271E+03  0.75466184739E+03  0.12699999809E+01 0. -1.
</event>
<event>
 5   0  0.1375777E-03  0.1583625E+04  0.7818609E-02  0.8830672E-01
       -2   -1    0    0    0  501  0.00000000000E+00  0.00000000000E+00  0.10086208204E+04  0.10086208204E+04  0.25500000920E-02 0.  1.
        2   -1    0    0  501    0  0.00000000000E+00  0.00000000000E+00 -0.62160804661E+03  0.62160804661E+03  0.25500000920E-02 0. -1.
    10030    2    1    2    0    0  0.00000000000E+00  0.00000000000E+00  0.38701277383E+03  0.16302288671E+04  0.15836247257E+04 0.  0.
        1    1    3    3  502    0 -0.51208592585E+02  0.26866963164E+03  0.95844964160E+03  0.99671029212E+03  0.50400001928E-02 0.  1.
       -1    1    3    3    0  502  0.51208592585E+02 -0.26866963164E+03 -0.57143686776E+03  0.63351857493E+03  0.50400001928E-02 0. -1.
</event>
<event>
 5   0  0.1354766E-03  0.1599984E+04  0.7818609E-02  0.8820558E-01
       -2   -1    0    0    0  501  0.00000000000E+00  0.00000000000E+00  0.81186490816E+03  0.81186490816E+03  0.25500000920E-02 0. -1.
        2   -1    0    0  501    0  0.00000000000E+00  0.00000000000E+00 -0.78829226619E+03  0.78829226619E+03  0.25500000920E-02 0.  1.
    10030    2    1    2    0    0  0.00000000000E+00  0.00000000000E+00  0.23572641972E+02  0.16001571744E+04  0.15999835353E+04 0.  0.
        3    1    3    3  502    0  0.20076296581E+01  0.28960931772E+03 -0.73402192599E+03  0.78909174722E+03  0.10100000352E+00 0.  1.
       -3    1    3    3    0  502 -0.20076296581E+01 -0.28960931772E+03  0.75759456796E+03  0.81106542714E+03  0.10100000352E+00 0. -1.
</event>
<event>
 5   0  0.7302027E-04  0.1543383E+04  0.7818609E-02  0.8856105E-01
       -1   -1    0    0    0  501  0.00000000000E+00  0.00000000000E+00  0.59314635626E+03  0.59314635628E+03  0.50400001928E-02 0. -1.
        1   -1    0    0  501    0  0.00000000000E+00  0.00000000000E+00 -0.10039816877E+04  0.10039816877E+04  0.50400001928E-02 0.  1.
    10030    2    1    2    0    0  0.00000000000E+00  0.00000000000E+00 -0.41083533141E+03  0.15971280440E+04  0.15433834000E+04 0.  0.
        5    1    3    3  502    0  0.37194584258E+03 -0.15871429954E+03  0.47469941340E+03  0.62361491465E+03  0.46999998093E+01 0. -1.
       -5    1    3    3    0  502 -0.37194584258E+03  0.15871429954E+03 -0.88553474481E+03  0.97351312931E+03  0.46999998093E+01 0.  1.
</event>
<event>
 5   0  0.7124495E-04  0.1643665E+04  0.7818609E-02  0.8794163E-01
       -1   -1    0    0    0  501  0.00000000000E+00  0.00000000000E+00  0.92855081655E+03  0.92855081656E+03  0.50400001928E-02 0. -1.
        1   -1    0    0  501    0  0.00000000000E+00  0.00000000000E+00 -0.72737958165E+03  0.72737958167E+03  0.50400001928E-02 0.  1.
    10030    2    1    2    0    0  0.00000000000E+00  0.00000000000E+00  0.20117123490E+03  0.16559303982E+04  0.16436652999E+04 0.  0.
        2    1    3    3  502    0 -0.43111343319E+03  0.20102182912E+03 -0.57459461996E+03  0.74594071168E+03  0.25500000920E-02 0.  1.
       -2    1    3    3    0  502  0.43111343319E+03 -0.20102182912E+03  0.77576585486E+03  0.90998968655E+03  0.25500000920E-02 0. -1.
</event>
<event>
 5   0  0.7499834E-04  0.1579667E+04  0.7818609E-02  0.8833138E-01
       -1   -1    0    0    0  501  0.00000000000E+00  0.00000000000E+00  0.66959704369E+03  0.66959704371E+03  0.50400001928E-02 0. -1.
        1   -1    0    0  501    0  0.00000000000E+00  0.00000000000E+00 -0.93166028657E+03  0.93166028659E+03  0.50400001928E-02 0.  1.
    10030    2    1    2    0    0  0.00000000000E+00  0.00000000000E+00 -0.26206324288E+03  0.16012573303E+04  0.15796670202E+04 0.  0.
        3    1    3    3  502    0  0.71432144466E+03 -0.22710299873E+03  0.12138192904E+03  0.75931843204E+03  0.10100000352E+00 0. -1.
       -3    1    3    3    0  502 -0.71432144466E+03  0.22710299873E+03 -0.38344517192E+03  0.84193889826E+03  0.10100000352E+00 0.  1.
</event>
<event>
 5   0  0.1414751E-03  0.1635230E+04  0.7818609E-02  0.8799192E-01
        2   -1    0    0  501    0  0.00000000000E+00  0.00000000000E+00  0.84114037380E+03  0.84114037380E+03  0.25500000920E-02 0.  1.
       -2   -1    0    0    0  501  0.00000000000E+00  0.00000000000E+00 -0.79474791788E+03  0.79474791789E+03  0.25500000920E-02 0. -1.
    10030    2    1    2    0    0  0.00000000000E+00  0.00000000000E+00  0.46392455920E+02  0.16358882917E+04  0.16352303333E+04 0.  0.
        2    1    3    3  502    0 -0.66053251532E+03  0.46108558092E+03  0.16322198615E+03  0.82191516199E+03  0.25500000920E-02 0. -1.
       -2    1    3    3    0  502  0.66053251532E+03 -0.46108558092E+03 -0.11682953023E+03  0.81397312970E+03  0.25500000920E-02 0.  1.
</event>
<event>
 5   0  0.1414796E-03  0.1613943E+04  0.7818609E-02  0.8812028E-01
        2   -1    0    0  501    0  0.00000000000E+00  0.00000000000E+00  0.11180183657E+04  0.11180183658E+04  0.25500000920E-02 0. -1.
       -2   -1    0    0    0  501  0.00000000000E+00  0.00000000000E+00 -0.58246215464E+03  0.58246215464E+03  0.25500000920E-02 0.  1.
    10030    2    1    2    0    0  0.00000000000E+00  0.00000000000E+00  0.53555621111E+03  0.17004805204E+04  0.16139434764E+04 0.  0.
        4    1    3    3  502    0  0.59941324223E+03  0.81295764086E+02  0.83054895117E+03  0.10274815859E+04  0.12699999809E+01 0. -1.
       -4    1    3    3    0  502 -0.59941324223E+03 -0.81295764086E+02 -0.29499274006E+03  0.67299893447E+03  0.12699999809E+01 0.  1.
</event>
<event>
 5   0  0.7124495E-04  0.1477156E+04  0.7818609E-02  0.8899788E-01
       -1   -1    0    0    0  501  0.00000000000E+00  0.00000000000E+00  0.33943204239E+03  0.33943204243E+03  0.50400001928E-02 0.  1.
        1   -1    0    0  501    0  0.00000000000E+00  0.00000000000E+00 -0.16070881065E+04  0.16070881066E+04  0.50400001928E-02 0. -1.
    10030    2    1    2    0    0  0.00000000000E+00  0.00000000000E+00 -0.12676560642E+04  0.19465201490E+04  0.14771556429E+04 0.  0.
        2    1    3    3  502    0 -0.95069652602E+02  0.44416366483E+03  0.13361513916E+03  0.47346869529E+03  0.25500000920E-02 0.  1.
       -2    1    3    3    0  502  0.95069652602E+02 -0.44416366483E+03 -0.14012712033E+04  0.14730514537E+04  0.25500000920E-02 0. -1.
</event>
<event>
 5   0  0.7302027E-04  0.1667896E+04  0.7818609E-02  0.8779890E-01
        1   -1    0    0  501    0  0.00000000000E+00  0.00000000000E+00  0.88125813652E+03  0.88125813653E+03  0.50400001928E-02 0.  1.
       -1   -1    0    0    0  501  0.00000000000E+00  0.00000000000E+00 -0.78917726485E+03  0.78917726487E+03  0.50400001928E-02 0. -1.
    10030    2    1    2    0    0  0.00000000000E+00  0.00000000000E+00  0.92080871663E+02  0.16704354014E+04  0.16678955433E+04 0.  0.
        5    1    3    3  502    0 -0.55612149912E+02  0.63221756327E+03 -0.49575936251E+03  0.80535159654E+03  0.46999998093E+01 0. -1.
       -5    1    3    3    0  502  0.55612149912E+02 -0.63221756327E+03  0.58784023418E+03  0.86508380486E+03  0.46999998093E+01 0.  1.
</event>
<event>
 5   0  0.7124495E-04  0.1650601E+04  0.7818609E-02  0.8790051E-01
        1   -1    0    0  501    0  0.00000000000E+00  0.00000000000E+00  0.78677297436E+03  0.78677297437E+03  0.50400001928E-02 0.  1.
       -1   -1    0    0    0  501  0.00000000000E+00  0.00000000000E+00 -0.86571479812E+03  0.86571479813E+03  0.50400001928E-02 0. -1.
    10030    2    1    2    0    0  0.00000000000E+00  0.00000000000E+00 -0.78941823758E+02  0.16524877725E+04  0.16506011107E+04 0.  0.
        2    1    3    3  502    0 -0.13138522415E+03 -0.32557416081E+03  0.70828333235E+03  0.79052254250E+03  0.25500000920E-02 0.  1.
       -2    1    3    3    0  502  0.13138522415E+03  0.32557416081E+03 -0.78722515611E+03  0.86196523000E+03  0.25500000920E-02 0. -1.
</event>
<event>
 5   0  0.1414751E-03  0.1574921E+04  0.7818609E-02  0.8836105E-01
        2   -1    0    0  501    0  0.00000000000E+00  0.00000000000E+00  0.20226382500E+04  0.20226382500E+04  0.25500000920E-02 0. -1.
       -2   -1    0    0    0  501  0.00000000000E+00  0.00000000000E+00 -0.30657699942E+03  0.30657699943E+03  0.25500000920E-02 0.  1.
    10030    2    1    2    0    0  0.00000000000E+00  0.00000000000E+00  0.17160612506E+04  0.23292152494E+04  0.15749214147E+04 0.  0.
        2    1    3    3  502    0  0.56391688256E+03  0.29556849395E+03  0.15433586549E+04  0.16695265565E+04  0.25500000920E-02 0. -1.
       -2    1    3    3    0  502 -0.56391688256E+03 -0.29556849395E+03  0.17270259567E+03  0.65968869296E+03  0.25500000920E-02 0.  1.
</event>
<event>
 5   0  0.1354766E-03  0.1572746E+04  0.7818609E-02  0.8837468E-01
       -2   -1    0    0    0  501  0.00000000000E+00  0.00000000000E+00  0.37412732578E+03  0.37412732579E+03  0.25500000920E-02 0. -1.
        2   -1    0    0  501    0  0.00000000000E+00  0.00000000000E+00 -0.16528660422E+04  0.16528660422E+04  0.25500000920E-02 0.  1.
    10030    2    1    2    0    0  0.00000000000E+00  0.00000000000E+00 -0.12787387164E+04  0.20269933680E+04  0.15727458183E+04 0.  0.
        3    1    3    3  502    0  0.59799799671E+02  0.16706845833E+03 -0.16267254095E+04  0.16363750957E+04  0.10100000352E+00 0.  1.
       -3    1    3    3    0  502 -0.59799799671E+02 -0.16706845833E+03  0.34798669312E+03  0.39061827222E+03  0.10100000352E+00 0. -1.
</event>
<event>
 5   0  0.1414751E-03  0.1595957E+04  0.7818609E-02  0.8823036E-01
        2   -1    0    0  501    0  0.00000000000E+00  0.00000000000E+00  0.13024516996E+04  0.13024516996E+04  0.25500000920E-02 0. -1.
       -2   -1    0    0    0  501  0.00000000000E+00  0.00000000000E+00 -0.48890070821E+03  0.48890070822E+03  0.25500000920E-02 0.  1.
    10030    2    1    2    0    0  0.00000000000E+00  0.00000000000E+00  0.81355099138E+03  0.17913524078E+04  0.15959568395E+04 0.  0.
        2    1    3    3  502    0  0.42792298328E+03  0.64231129072E+03  0.17925751559E+03  0.79234785966E+03  0.25500000920E-02 0.  1.
       -2    1    3    3    0  502 -0.42792298328E+03 -0.64231129072E+03  0.63429347579E+03  0.99900454816E+03  0.25500000920E-02 0. -1.
</event>
<event>
 5   0  0.7499834E-04  0.1262124E+04  0.7818609E-02  0.9060152E-01
       -1   -1    0    0    0  501  0.00000000000E+00  0.00000000000E+00  0.26136322742E+03  0.26136322747E+03  0.50400001928E-02 0. -1.
        1   -1    0    0  501    0  0.00000000000E+00  0.00000000000E+00 -0.15237008307E+04  0.15237008307E+04  0.50400001928E-02 0.  1.
    10030    2    1    2    0    0  0.00000000000E+00  0.00000000000E+00 -0.12623376033E+04  0.17850640582E+04  0.12621241885E+04 0.  0.
        3    1    3    3  502    0  0.39969366589E+02  0.40796022112E+03 -0.13097691174E+04  0.13724154777E+04  0.10100000352E+00 0.  1.
       -3    1    3    3    0  502 -0.39969366589E+02 -0.40796022112E+03  0.47431514086E+02  0.41264858053E+03  0.10100000352E+00 0. -1.
</event>
<event>
 5   0  0.7302027E-04  0.1656150E+04  0.7818609E-02  0.8786777E-01
       -1   -1    0    0    0  501  0.00000000000E+00  0.00000000000E+00  0.39871832293E+03  0.39871832296E+03  0.50400001928E-02 0. -1.
        1   -1    0    0  501    0  0.00000000000E+00  0.00000000000E+00 -0.17197805401E+04  0.17197805401E+04  0.50400001928E-02 0.  1.
    10030    2    1    2    0    0  0.00000000000E+00  0.00000000000E+00 -0.13210622172E+04  0.21184988631E+04  0.16561497671E+04 0.  0.
        5    1    3    3  502    0  0.45343115227E+01 -0.69080421405E+03 -0.12445604712E+04  0.14234408588E+04  0.46999998093E+01 0.  1.
       -5    1    3    3    0  502 -0.45343115227E+01  0.69080421405E+03 -0.76501745990E+02  0.69505800425E+03  0.46999998093E+01 0. -1.
</event>
<event>
 5   0  0.1339162E-03  0.1579012E+04  0.7818609E-02  0.8833546E-01
       -2   -1    0    0    0  501  0.00000000000E+00  0.00000000000E+00  0.13744801891E+04  0.13744801891E+04  0.25500000920E-02 0. -1.
        2   -1    0    0  501    0  0.00000000000E+00  0.00000000000E+00 -0.45349509879E+03  0.45349509879E+03  0.25500000920E-02 0.  1.
    10030    2    1    2    0    0  0.00000000000E+00  0.00000000000E+00  0.92098509031E+03  0.18279752879E+04  0.15790123865E+04 0.  0.
        5    1    3    3  502    0 -0.21906652645E+03 -0.39943590774E+03 -0.28596563800E+03  0.53790112802E+03  0.46999998093E+01 0.  1.
       -5    1    3    3    0  502  0.21906652645E+03  0.39943590774E+03  0.12069507283E+04  0.12900741599E+04  0.46999998093E+01 0. -1.
</event>
<event>
 5   0  0.7302027E-04  0.1556055E+04  0.7818609E-02  0.8848010E-01
        1   -1    0    0  501    0  0.00000000000E+00  0.00000000000E+00  0.60952965047E+03  0.60952965049E+03  0.50400001928E-02 0. -1.
       -1   -1    0    0    0  501  0.00000000000E+00  0.00000000000E+00 -0.99310447168E+03  0.99310447170E+03  0.50400001928E-02 0.  1.
    10030    2    1    2    0    0  0.00000000000E+00  0.00000000000E+00 -0.38357482121E+03  0.16026341222E+04  0.15560547825E+04 0.  0.
        5    1    3    3  502    0 -0.51742217634E+03 -0.17539035583E+02  0.40634747752E+03  0.65815931872E+03  0.46999998093E+01 0. -1.
       -5    1    3    3    0  502  0.51742217634E+03  0.17539035583E+02 -0.78992229874E+03  0.94447480346E+03  0.46999998093E+01 0.  1.
</event>
<event>
 5   0  0.7124495E-04  0.1611920E+04  0.7818609E-02  0.8813258E-01
       -1   -1    0    0    0  501  0.00000000000E+00  0.00000000000E+00  0.39863559677E+03  0.39863559680E+03  0.50400001928E-02 0.  1.
        1   -1    0    0  501    0  0.00000000000E+00  0.00000000000E+00 -0.16294872566E+04  0.16294872566E+04  0.50400001928E-02 0. -1.
    10030    2    1    2    0    0  0.00000000000E+00  0.00000000000E+00 -0.12308516598E+04  0.20281228534E+04  0.16119201283E+04 0.  0.
        2    1    3    3  502    0  0.69887270003E+03 -0.12887719876E+03 -0.10937734598E+04  0.13043668060E+04  0.25500000920E-02 0. -1.
       -2    1    3    3    0  502 -0.69887270003E+03  0.12887719876E+03 -0.13707819999E+03  0.72375604738E+03  0.25500000920E-02 0.  1.
</event>
<event>
 5   0  0.1339162E-03  0.1648711E+04  0.7818609E-02  0.8791169E-01
        2   -1    0    0  501    0  0.00000000000E+00  0.00000000000E+00  0.21033524589E+04  0.21033524589E+04  0.25500000920E-02 0. -1.
       -2   -1    0    0    0  501  0.00000000000E+00  0.00000000000E+00 -0.32308524636E+03  0.32308524637E+03  0.25500000920E-02 0.  1.
    10030    2    1    2    0    0  0.00000000000E+00  0.00000000000E+00  0.17802672126E+04  0.24264377053E+04  0.16487111905E+04 0.  0.
        5    1    3    3  502    0  0.24418465830E+03  0.19710192123E+03  0.20119888509E+04  0.20363193613E+04  0.46999998093E+01 0. -1.
       -5    1    3    3    0  502 -0.24418465830E+03 -0.19710192123E+03 -0.23172163836E+03  0.39011834407E+03  0.46999998093E+01 0.  1.
</event>
<event>
 5   0  0.7633213E-04  0.1543612E+04  0.7818609E-02  0.8855958E-01
       -1   -1    0    0    0  501  0.00000000000E+00  0.00000000000E+00  0.48363957881E+03  0.48363957883E+03  0.50400001928E-02 0.  1.
        1   -1    0    0  501    0  0.00000000000E+00  0.00000000000E+00 -0.12316700194E+04  0.12316700194E+04  0.50400001928E-02 0. -1.
    10030    2    1    2    0    0  0.00000000000E+00  0.00000000000E+00 -0.74803044060E+03  0.17153095982E+04  0.15436118287E+04 0.  0.
        1    1    3    3  502    0  0.51834022866E+03 -0.49402920961E+03 -0.53982729348E+02  0.71809162903E+03  0.50400001928E-02 0.  1.
       -1    1    3    3    0  502 -0.51834022866E+03  0.49402920961E+03 -0.69404771125E+03  0.99721796921E+03  0.50400001928E-02 0. -1.
</event>
<event>
 5   0  0.1354766E-03  0.1590405E+04  0.7818609E-02  0.8826464E-01
        2   -1    0    0  501    0  0.00000000000E+00  0.00000000000E+00  0.18822271587E+04  0.18822271587E+04  0.25500000920E-02 0. -1.
       -2   -1    0    0    0  501  0.00000000000E+00  0.00000000000E+00 -0.33595683914E+03  0.33595683915E+03  0.25500000920E-02 0.  1.
    10030    2    1    2    0    0  0.00000000000E+00  0.00000000000E+00  0.15462703196E+04  0.22181839979E+04  0.15904050890E+04 0.  0.
        3    1    3    3  502    0 -0.30364371214E+03 -0.52851851100E+02 -0.24926323063E+03  0.39638994744E+03  0.10100000352E+00 0.  1.
       -3    1    3    3    0  502  0.30364371214E+03  0.52851851100E+02  0.17955335502E+04  0.18217940505E+04  0.10100000352E+00 0. -1.
</event>
<event>
 5   0  0.1375777E-03  0.1615458E+04  0.7818609E-02  0.8811108E-01
       -2   -1    0    0    0  501  0.00000000000E+00  0.00000000000E+00  0.45843942256E+03  0.45843942257E+03  0.25500000920E-02 0.  1.
        2   -1    0    0  501    0  0.00000000000E+00  0.00000000000E+00 -0.14231454382E+04  0.14231454382E+04  0.25500000920E-02 0. -1.
    10030    2    1    2    0    0  0.00000000000E+00  0.00000000000E+00 -0.96470601567E+03  0.18815848608E+04  0.16154577963E+04 0.  0.
        1    1    3    3  502    0  0.63215560989E+03  0.29512077945E+03 -0.95648713920E+03  0.11838853986E+04  0.50400001928E-02 0. -1.
       -1    1    3    3    0  502 -0.63215560989E+03 -0.29512077945E+03 -0.82188764753E+01  0.69769946219E+03  0.50400001928E-02 0.  1.
</event>
<event>
 5   0  0.1354766E-03  0.1619516E+04  0.7818609E-02  0.8808647E-01
       -2   -1    0    0    0  501  0.00000000000E+00  0.00000000000E+00  0.47114161319E+03  0.47114161320E+03  0.25500000920E-02 0. -1.
        2   -1    0    0  501    0  0.00000000000E+00  0.00000000000E+00 -0.13917437323E+04  0.13917437323E+04  0.25500000920E-02 0.  1.
    10030    2    1    2    0    0  0.00000000000E+00  0.00000000000E+00 -0.92060211915E+03  0.18628853455E+04  0.16195164553E+04 0.  0.
        3    1    3    3  502    0  0.29564979124E+03 -0.13914565325E+03 -0.13125420817E+04  0.13526037994E+04  0.10100000352E+00 0.  1.
       -3    1    3    3    0  502 -0.29564979124E+03  0.13914565325E+03  0.39193996253E+03  0.51028154611E+03  0.10100000352E+00 0. -1.
</event>
<event>
 5   0  0.7124495E-04  0.1596788E+04  0.7818609E-02  0.8822524E-01
        1   -1    0    0  501    0  0.00000000000E+00  0.00000000000E+00  0.60040921384E+03  0.60040921386E+03  0.50400001928E-02 0. -1.
       -1   -1    0    0    0  501  0.00000000000E+00  0.00000000000E+00 -0.10616637467E+04  0.10616637467E+04  0.50400001928E-02 0.  1.
    10030    2    1    2    0    0  0.00000000000E+00  0.00000000000E+00 -0.46125453284E+03  0.16620729605E+04  0.15967876447E+04 0.  0.
        2    1    3    3  502    0  0.39943990599E+03  0.29501673615E+03 -0.88136430192E+03  0.10116274738E+04  0.25500000920E-02 0.  1.
       -2    1    3    3    0  502 -0.39943990599E+03 -0.29501673615E+03  0.42010976908E+03  0.65044548671E+03  0.25500000920E-02 0. -1.
</event>
<event>
 5   0  0.1414796E-03  0.1597105E+04  0.7818609E-02  0.8822329E-01
       -2   -1    0    0    0  501  0.00000000000E+00  0.00000000000E+00  0.50040721326E+03  0.50040721326E+03  0.25500000920E-02 0. -1.
        2   -1    0    0  501    0  0.00000000000E+00  0.00000000000E+00 -0.12743342856E+04  0.12743342856E+04  0.25500000920E-02 0.  1.
    10030    2    1    2    0    0  0.00000000000E+00  0.00000000000E+00 -0.77392707238E+03  0.17747414989E+04  0.15971049667E+04 0.  0.
        4    1    3    3  502    0  0.56002205117E+02  0.37667272217E+03  0.39300643458E+03  0.54724241166E+03  0.12699999809E+01 0. -1.
       -4    1    3    3    0  502 -0.56002205117E+02 -0.37667272217E+03 -0.11669335070E+04  0.12274990872E+04  0.12699999809E+01 0.  1.
</event>
<event>
 5   0  0.7302027E-04  0.9375746E+03  0.7818609E-02  0.9379793E-01
        1   -1    0    0  501    0  0.00000000000E+00  0.00000000000E+00  0.39280099672E+03  0.39280099675E+03  0.50400001928E-02 0. -1.
       -1   -1    0    0    0  501  0.00000000000E+00  0.00000000000E+00 -0.55947289434E+03  0.55947289436E+03  0.50400001928E-02 0.  1.
    10030    2    1    2    0    0  0.00000000000E+00  0.00000000000E+00 -0.16667189762E+03  0.95227389111E+03  0.93757455290E+03 0.  0.
        5    1    3    3  502    0  0.40290513508E+03  0.23054487956E+03 -0.14959624381E+03  0.48773416481E+03  0.46999998093E+01 0.  1.
       -5    1    3    3    0  502 -0.40290513508E+03 -0.23054487956E+03 -0.17075653810E+02  0.46453972630E+03  0.46999998093E+01 0. -1.
</event>
<event>
 5   0  0.5095750E-04  0.1549258E+04  0.7818609E-02  0.8852342E-01
       -4   -1    0    0    0  501  0.00000000000E+00  0.00000000000E+00  0.51711373746E+03  0.51711529698E+03  0.12699999809E+01 0. -1.
        4   -1    0    0  501    0  0.00000000000E+00  0.00000000000E+00 -0.11603791998E+04  0.11603798948E+04  0.12699999809E+01 0.  1.
    10030    2    1    2    0    0  0.00000000000E+00  0.00000000000E+00 -0.64326546237E+03  0.16774951918E+04  0.15492577782E+04 0.  0.
        5    1    3    3  502    0  0.58543603871E+03  0.19179856254E+03  0.18681649361E+03  0.64377366853E+03  0.46999998093E+01 0. -1.
       -5    1    3    3    0  502 -0.58543603871E+03 -0.19179856254E+03 -0.83008195598E+03  0.10337215233E+04  0.46999998093E+01 0.  1.
</event>
<event>
 5   0  0.5095750E-04  0.1426812E+04  0.7818609E-02  0.8934636E-01
       -3   -1    0    0    0  501  0.00000000000E+00  0.00000000000E+00  0.90014413843E+03  0.90014414409E+03  0.10100000352E+00 0. -1.
        3   -1    0    0  501    0  0.00000000000E+00  0.00000000000E+00 -0.56540759834E+03  0.56540760736E+03  0.10100000352E+00 0.  1.
    10030    2    1    2    0    0  0.00000000000E+00  0.00000000000E+00  0.33473654009E+03  0.14655517515E+04  0.14268123159E+04 0.  0.
        5    1    3    3  502    0 -0.33787021407E+03  0.39008477637E+03 -0.33855324229E+03  0.61722184195E+03  0.46999998093E+01 0.  1.
       -5    1    3    3    0  502  0.33787021407E+03 -0.39008477637E+03  0.67328978237E+03  0.84832990951E+03  0.46999998093E+01 0. -1.
</event>
<event>
 5   0  0.7124495E-04  0.1518767E+04  0.7818609E-02  0.8872068E-01
        1   -1    0    0  501    0  0.00000000000E+00  0.00000000000E+00  0.18628205345E+04  0.18628205345E+04  0.50400001928E-02 0. -1.
       -1   -1    0    0    0  501  0.00000000000E+00  0.00000000000E+00 -0.30956453036E+03  0.30956453040E+03  0.50400001928E-02 0.  1.
    10030    2    1    2    0    0  0.00000000000E+00  0.00000000000E+00  0.15532560041E+04  0.21723850649E+04  0.15187668208E+04 0.  0.
        2    1    3    3  502    0 -0.62604914756E+03  0.42250493201E+03  0.66386317626E+03  0.10055656466E+04  0.25500000920E-02 0. -1.
       -2    1    3    3    0  502  0.62604914756E+03 -0.42250493201E+03  0.88939282784E+03  0.11668194183E+04  0.25500000920E-02 0.  1.
</event>
<event>
 5   0  0.7499834E-04  0.1523479E+04  0.7818609E-02  0.8868988E-01
       -1   -1    0    0    0  501  0.00000000000E+00  0.00000000000E+00  0.72551913683E+03  0.72551913685E+03  0.50400001928E-02 0. -1.
        1   -1    0    0  501    0  0.00000000000E+00  0.00000000000E+00 -0.79976843384E+03  0.79976843386E+03  0.50400001928E-02 0.  1.
    10030    2    1    2    0    0  0.00000000000E+00  0.00000000000E+00 -0.74249297008E+02  0.15252875707E+04  0.15234793124E+04 0.  0.
        3    1    3    3  502    0  0.71800805604E+03  0.56794708241E+02 -0.28538284428E+03  0.77472871731E+03  0.10100000352E+00 0.  1.
       -3    1    3    3    0  502 -0.71800805604E+03 -0.56794708241E+02  0.21113354727E+03  0.75055885339E+03  0.10100000352E+00 0. -1.
</event>
<event>
 5   0  0.7302027E-04  0.1649877E+04  0.7818609E-02  0.8790479E-01
        1   -1    0    0  501    0  0.00000000000E+00  0.00000000000E+00  0.16963308033E+04  0.16963308033E+04  0.50400001928E-02 0.  1.
       -1   -1    0    0    0  501  0.00000000000E+00  0.00000000000E+00 -0.40117402786E+03  0.40117402789E+03  0.50400001928E-02 0. -1.
    10030    2    1    2    0    0  0.00000000000E+00  0.00000000000E+00  0.12951567755E+04  0.20975048312E+04  0.16498774027E+04 0.  0.
        5    1    3    3  502    0  0.28386788424E+03  0.28350828112E+03  0.15639305302E+04  0.16145769459E+04  0.46999998093E+01 0.  1.
       -5    1    3    3    0  502 -0.28386788424E+03 -0.28350828112E+03 -0.26877375470E+03  0.48292788528E+03  0.46999998093E+01 0. -1.
</event>
<event>
 5   0  0.1339162E-03  0.1581271E+04  0.7818609E-02  0.8832137E-01
       -2   -1    0    0    0  501  0.00000000000E+00  0.00000000000E+00  0.29335597002E+03  0.29335597003E+03  0.25500000920E-02 0. -1.
        2   -1    0    0  501    0  0.00000000000E+00  0.00000000000E+00 -0.21308731577E+04  0.21308731577E+04  0.25500000920E-02 0.  1.
    10030    2    1    2    0    0  0.00000000000E+00  0.00000000000E+00 -0.18375171877E+04  0.24242291278E+04  0.15812708334E+04 0.  0.
        5    1    3    3  502    0 -0.49540937242E+03  0.58507414654E+03 -0.12150062769E+04  0.14366643819E+04  0.46999998093E+01 0.  1.
       -5    1    3    3    0  502  0.49540937242E+03 -0.58507414654E+03 -0.62251091079E+03  0.98756474587E+03  0.46999998093E+01 0. -1.
</event>
<event>
 5   0  0.7633213E-04  0.1605543E+04  0.7818609E-02  0.8817150E-01
       -1   -1    0    0    0  501  0.00000000000E+00  0.00000000000E+00  0.12884065077E+04  0.12884065077E+04  0.50400001928E-02 0. -1.
        1   -1    0    0  501    0  0.00000000000E+00  0.00000000000E+00 -0.50018532161E+03  0.50018532164E+03  0.50400001928E-02 0.  1.
    10030    2    1    2    0    0  0.00000000000E+00  0.00000000000E+00  0.78822118612E+03  0.17885918294E+04  0.16055429281E+04 0.  0.
        1    1    3    3  502    0  0.67644387661E+03  0.27255311296E+03  0.76789477478E+03  0.10590202561E+04  0.50400001928E-02 0.  1.
       -1    1    3    3    0  502 -0.67644387661E+03 -0.27255311296E+03  0.20326411341E+02  0.72957157333E+03  0.50400001928E-02 0. -1.
</event>
<event>
 5   0  0.7302027E-04  0.8740842E+03  0.7818609E-02  0.9458570E-01
       -1   -1    0    0    0  501  0.00000000000E+00  0.00000000000E+00  0.29743035682E+03  0.29743035687E+03  0.50400001928E-02 0. -1.
        1   -1    0    0  501    0  0.00000000000E+00  0.00000000000E+00 -0.64218659746E+03  0.64218659748E+03  0.50400001928E-02 0.  1.
    10030    2    1    2    0    0  0.00000000000E+00  0.00000000000E+00 -0.34475624064E+03  0.93961695435E+03  0.87408418098E+03 0.  0.
        5    1    3    3  502    0  0.18609876778E+03 -0.10354699710E+03 -0.58260250125E+03  0.62032450898E+03  0.46999998093E+01 0.  1.
       -5    1    3    3    0  502 -0.18609876778E+03  0.10354699710E+03  0.23784626062E+03  0.31929244536E+03  0.46999998093E+01 0. -1.
</event>
<event>
 5   0  0.7601145E-04  0.1625971E+04  0.7818609E-02  0.8804750E-01
        1   -1    0    0  501    0  0.00000000000E+00  0.00000000000E+00  0.11059745930E+04  0.11059745931E+04  0.50400001928E-02 0. -1.
       -1   -1    0    0    0  501  0.00000000000E+00  0.00000000000E+00 -0.59761359107E+03  0.59761359109E+03  0.50400001928E-02 0.  1.
    10030    2    1    2    0    0  0.00000000000E+00  0.00000000000E+00  0.50836100198E+03  0.17035881842E+04  0.16259710308E+04 0.  0.
        4    1    3    3  502    0 -0.59725776244E+03  0.46046434609E+03 -0.63958052556E+02  0.75685962649E+03  0.12699999809E+01 0. -1.
       -4    1    3    3    0  502  0.59725776244E+03 -0.46046434609E+03  0.57231905453E+03  0.94672855766E+03  0.12699999809E+01 0.  1.
</event>
<event>
 5   0  0.7124495E-04  0.1559936E+04  0.7818609E-02  0.8845546E-01
       -1   -1    0    0    0  501  0.00000000000E+00  0.00000000000E+00  0.44039640886E+03  0.44039640889E+03  0.50400001928E-02 0.  1.
        1   -1    0    0  501    0  0.00000000000E+00  0.00000000000E+00 -0.13813700116E+04  0.13813700117E+04  0.50400001928E-02 0. -1.
    10030    2    1    2    0    0  0.00000000000E+00  0.00000000000E+00 -0.94097360278E+03  0.18217664205E+04  0.15599363993E+04 0.  0.
        2    1    3    3  502    0 -0.73234224997E+03  0.10973479551E+03 -0.75651028243E+03  0.10586192440E+04  0.25500000920E-02 0. -1.
       -2    1    3    3    0  502  0.73234224997E+03 -0.10973479551E+03 -0.18446332035E+03  0.76314717650E+03  0.25500000920E-02 0.  1.
</event>
<event>
 5   0  0.1414751E-03  0.1609025E+04  0.7818609E-02  0.8815023E-01
       -2   -1    0    0    0  501  0.00000000000E+00  0.00000000000E+00  0.45169893244E+03  0.45169893244E+03  0.25500000920E-02 0.  1.
        2   -1    0    0  501    0  0.00000000000E+00  0.00000000000E+00 -0.14329016284E+04  0.14329016284E+04  0.25500000920E-02 0. -1.
    10030    2    1    2    0    0  0.00000000000E+00  0.00000000000E+00 -0.98120269593E+03  0.18846005608E+04  0.16090247181E+04 0.  0.
        2    1    3    3  502    0 -0.17061458571E+02  0.17371316690E+02 -0.14324699676E+04  0.14326768875E+04  0.25500000920E-02 0. -1.
       -2    1    3    3    0  502  0.17061458571E+02 -0.17371316690E+02  0.45126727165E+03  0.45192367329E+03  0.25500000920E-02 0.  1.
</event>
<event>
 5   0  0.1354766E-03  0.1608185E+04  0.7818609E-02  0.8815535E-01
       -2   -1    0    0    0  501  0.00000000000E+00  0.00000000000E+00  0.40439252150E+03  0.40439252150E+03  0.25500000920E-02 0.  1.
        2   -1    0    0  501    0  0.00000000000E+00  0.00000000000E+00 -0.15988542835E+04  0.15988542835E+04  0.25500000920E-02 0. -1.
    10030    2    1    2    0    0  0.00000000000E+00  0.00000000000E+00 -0.11944617620E+04  0.20032468050E+04  0.16081849586E+04 0.  0.
        3    1    3    3  502    0 -0.49283878041E+03 -0.62381271290E+03 -0.44706673531E+03  0.91208609258E+03  0.10100000352E+00 0. -1.
       -3    1    3    3    0  502  0.49283878041E+03  0.62381271290E+03 -0.74739502673E+03  0.10911607125E+04  0.10100000352E+00 0.  1.
</event>
<event>
 5   0  0.1414796E-03  0.1865332E+04  0.7818609E-02  0.8672308E-01
       -2   -1    0    0    0  501  0.00000000000E+00  0.00000000000E+00  0.45069659815E+03  0.45069659816E+03  0.25500000920E-02 0. -1.
        2   -1    0    0  501    0  0.00000000000E+00  0.00000000000E+00 -0.19300470424E+04  0.19300470424E+04  0.25500000920E-02 0.  1.
    10030    2    1    2    0    0  0.00000000000E+00  0.00000000000E+00 -0.14793504442E+04  0.23807436405E+04  0.18653317520E+04 0.  0.
        4    1    3    3  502    0  0.29226293481E+03 -0.35047150458E+03  0.29847354035E+03  0.54528521507E+03  0.12699999809E+01 0. -1.
       -4    1    3    3    0  502 -0.29226293481E+03  0.35047150458E+03 -0.17778239846E+04  0.18354584255E+04  0.12699999809E+01 0.  1.
</event>
<event>
 5   0  0.7302027E-04  0.1603233E+04  0.7818609E-02  0.8818564E-01
        1   -1    0    0  501    0  0.00000000000E+00  0.00000000000E+00  0.44408036320E+03  0.44408036322E+03  0.50400001928E-02 0.  1.
       -1   -1    0    0    0  501  0.00000000000E+00  0.00000000000E+00 -0.14470106953E+04  0.14470106953E+04  0.50400001928E-02 0. -1.
    10030    2    1    2    0    0  0.00000000000E+00  0.00000000000E+00 -0.10029303321E+04  0.18910910586E+04  0.16032330276E+04 0.  0.
        5    1    3    3  502    0  0.78164183252E+03 -0.13194576978E+03 -0.64199144705E+03  0.10200729134E+04  0.46999998093E+01 0. -1.
       -5    1    3    3    0  502 -0.78164183252E+03  0.13194576978E+03 -0.36093888509E+03  0.87101814520E+03  0.46999998093E+01 0.  1.
</event>
<event>
 5   0  0.1375777E-03  0.1608562E+04  0.7818609E-02  0.8815305E-01
       -2   -1    0    0    0  501  0.00000000000E+00  0.00000000000E+00  0.39507227910E+03  0.39507227911E+03  0.25500000920E-02 0.  1.
        2   -1    0    0  501    0  0.00000000000E+00  0.00000000000E+00 -0.16373415198E+04  0.16373415198E+04  0.25500000920E-02 0. -1.
    10030    2    1    2    0    0  0.00000000000E+00  0.00000000000E+00 -0.12422692407E+04  0.20324137989E+04  0.16085623966E+04 0.  0.
        1    1    3    3  502    0  0.11612095088E+03  0.77574825952E+03 -0.84573452954E+03  0.11534887654E+04  0.50400001928E-02 0.  1.
       -1    1    3    3    0  502 -0.11612095088E+03 -0.77574825952E+03 -0.39653471114E+03  0.87892503351E+03  0.50400001928E-02 0. -1.
</event>
<event>
 5   0  0.1339162E-03  0.1541649E+04  0.7818609E-02  0.8857220E-01
        2   -1    0    0  501    0  0.00000000000E+00  0.00000000000E+00  0.18746290351E+04  0.18746290351E+04  0.25500000920E-02 0.  1.
       -2   -1    0    0    0  501  0.00000000000E+00  0.00000000000E+00 -0.31695345210E+03  0.31695345211E+03  0.25500000920E-02 0. -1.
    10030    2    1    2    0    0  0.00000000000E+00  0.00000000000E+00  0.15576755830E+04  0.21915824872E+04  0.15416486553E+04 0.  0.
        5    1    3    3  502    0 -0.43091856168E+02 -0.24067449656E+03 -0.26034560867E+03  0.35718769200E+03  0.46999998093E+01 0. -1.
       -5    1    3    3    0  502  0.43091856168E+02  0.24067449656E+03  0.18180211916E+04  0.18343947952E+04  0.46999998093E+01 0.  1.
</event>
<event>
 5   0  0.7601145E-04  0.1575484E+04  0.7818609E-02  0.8835752E-01
        1   -1    0    0  501    0  0.00000000000E+00  0.00000000000E+00  0.56543473101E+03  0.56543473103E+03  0.50400001928E-02 0.  1.
       -1   -1    0    0    0  501  0.00000000000E+00  0.00000000000E+00 -0.10974523979E+04  0.10974523979E+04  0.50400001928E-02 0. -1.
    10030    2    1    2    0    0  0.00000000000E+00  0.00000000000E+00 -0.53201766691E+03  0.16628871290E+04  0.15754843083E+04 0.  0.
        4    1    3    3  502    0 -0.51726048013E+03 -0.16836657071E+03  0.33536326055E+03  0.63904290612E+03  0.12699999809E+01 0.  1.
       -4    1    3    3    0  502  0.51726048013E+03  0.16836657071E+03 -0.86738092746E+03  0.10238442228E+04  0.12699999809E+01 0. -1.
</event>
<event>
 5   0  0.7124495E-04  0.1533272E+04  0.7818609E-02  0.8862624E-01
        1   -1    0    0  501    0  0.00000000000E+00  0.00000000000E+00  0.11710316931E+04  0.11710316931E+04  0.50400001928E-02 0.  1.
       -1   -1    0    0    0  501  0.00000000000E+00  0.00000000000E+00 -0.50189146000E+03  0.50189146002E+03  0.50400001928E-02 0. -1.
    10030    2    1    2    0    0  0.00000000000E+00  0.00000000000E+00  0.66914023310E+03  0.16729231531E+04  0.15332720648E+04 0.  0.
        2    1    3    3  502    0  0.39951257118E+03 -0.65429918904E+03  0.33851658003E+03  0.83804009348E+03  0.25500000920E-02 0. -1.
       -2    1    3    3    0  502 -0.39951257118E+03  0.65429918904E+03  0.33062365306E+03  0.83488305965E+03  0.25500000920E-02 0.  1.
</event>
<event>
 5   0  0.7124495E-04  0.1627091E+04  0.7818609E-02  0.8804076E-01
       -1   -1    0    0    0  501  0.00000000000E+00  0.00000000000E+00  0.49146479970E+03  0.49146479972E+03  0.50400001928E-02 0. -1.
        1   -1    0    0  501    0  0.00000000000E+00  0.00000000000E+00 -0.13467004852E+04  0.13467004852E+04  0.50400001928E-02 0.  1.
    10030    2    1    2    0    0  0.00000000000E+00  0.00000000000E+00 -0.85523568548E+03  0.18381652849E+04  0.16270905128E+04 0.  0.
        2    1    3    3  502    0 -0.26859437674E+03  0.60632753796E+03 -0.96000483545E+03  0.11667841731E+04  0.25500000920E-02 0.  1.
       -2    1    3    3    0  502  0.26859437674E+03 -0.60632753796E+03  0.10476914997E+03  0.67138111181E+03  0.25500000920E-02 0. -1.
</event>
<event>
 5   0  0.7302027E-04  0.1579653E+04  0.7818609E-02  0.8833146E-01
        1   -1    0    0  501    0  0.00000000000E+00  0.00000000000E+00  0.14308776150E+04  0.14308776150E+04  0.50400001928E-02 0. -1.
       -1   -1    0    0    0  501  0.00000000000E+00  0.00000000000E+00 -0.43597446717E+03  0.43597446720E+03  0.50400001928E-02 0.  1.
    10030    2    1    2    0    0  0.00000000000E+00  0.00000000000E+00  0.99490314778E+03  0.18668520822E+04  0.15796532604E+04 0.  0.
        5    1    3    3  502    0  0.36809997933E+03  0.51698153597E+01  0.13232660131E+04  0.13735280679E+04  0.46999998093E+01 0. -1.
       -5    1    3    3    0  502 -0.36809997933E+03 -0.51698153597E+01 -0.32836286531E+03  0.49332401430E+03  0.46999998093E+01 0.  1.
</event>
<event>
 5   0  0.7124495E-04  0.1476622E+04  0.7818609E-02  0.8900149E-01
        1   -1    0    0  501    0  0.00000000000E+00  0.00000000000E+00  0.95467219525E+03  0.95467219526E+03  0.50400001928E-02 0. -1.
       -1   -1    0    0    0  501  0.00000000000E+00  0.00000000000E+00 -0.57098480807E+03  0.57098480810E+03  0.50400001928E-02 0.  1.
    10030    2    1    2    0    0  0.00000000000E+00  0.00000000000E+00  0.38368738718E+03  0.15256570034E+04  0.14766222539E+04 0.  0.
        2    1    3    3  502    0 -0.47217692902E+03 -0.21457162721E+03 -0.35106847515E+03  0.62629155332E+03  0.25500000920E-02 0.  1.
       -2    1    3    3    0  502  0.47217692902E+03  0.21457162721E+03  0.73475586232E+03  0.89936545004E+03  0.25500000920E-02 0. -1.
</event>
<event>
 5   0  0.1414751E-03  0.1623794E+04  0.7818609E-02  0.8806062E-01
        2   -1    0    0  501    0  0.00000000000E+00  0.00000000000E+00  0.14264980945E+04  0.14264980945E+04  0.25500000920E-02 0. -1.
       -2   -1    0    0    0  501  0.00000000000E+00  0.00000000000E+00 -0.46209443651E+03  0.46209443652E+03  0.25500000920E-02 0.  1.
    10030    2    1    2    0    0  0.00000000000E+00  0.00000000000E+00  0.96440365798E+03  0.18885925310E+04  0.16237941165E+04 0.  0.
        2    1    3    3  502    0  0.50535232607E+03  0.17982126075E+02 -0.25657671767E+03  0.56704139388E+03  0.25500000920E-02 0.  1.
       -2    1    3    3    0  502 -0.50535232607E+03 -0.17982126075E+02  0.12209803756E+04  0.13215511371E+04  0.25500000920E-02 0. -1.
</event>
<event>
 5   0  0.1414751E-03  0.1567095E+04  0.7818609E-02  0.8841022E-01
        2   -1    0    0  501    0  0.00000000000E+00  0.00000000000E+00  0.10099587356E+04  0.10099587356E+04  0.25500000920E-02 0.  1.
       -2   -1    0    0    0  501  0.00000000000E+00  0.00000000000E+00 -0.60789298140E+03  0.60789298140E+03  0.25500000920E-02 0. -1.
    10030    2    1    2    0    0  0.00000000000E+00  0.00000000000E+00  0.40206575418E+03  0.16178517170E+04  0.15670951814E+04 0.  0.
        2    1    3    3  502    0 -0.73551856996E+03  0.26823719173E+03  0.16825442168E+03  0.80077981256E+03  0.25500000920E-02 0. -1.
       -2    1    3    3    0  502  0.73551856996E+03 -0.26823719173E+03  0.23381133250E+03  0.81707190442E+03  0.25500000920E-02 0.  1.
</event>
<event>
 5   0  0.1354766E-03  0.1468543E+04  0.7818609E-02  0.8905645E-01
       -2   -1    0    0    0  501  0.00000000000E+00  0.00000000000E+00  0.29696624721E+03  0.29696624722E+03  0.25500000920E-02 0. -1.
        2   -1    0    0  501    0  0.00000000000E+00  0.00000000000E+00 -0.18155426292E+04  0.18155426292E+04  0.25500000920E-02 0.  1.
    10030    2    1    2    0    0  0.00000000000E+00  0.00000000000E+00 -0.15185763820E+04  0.21125088764E+04  0.14685433344E+04 0.  0.
        3    1    3    3  502    0 -0.14007474142E+03 -0.15043051693E+03 -0.17733123065E+04  0.17851853742E+04  0.10100000352E+00 0.  1.
       -3    1    3    3    0  502  0.14007474142E+03  0.15043051693E+03  0.25473592457E+03  0.32732350218E+03  0.10100000352E+00 0. -1.
</event>
<event>
 5   0  0.7633213E-04  0.1603042E+04  0.7818609E-02  0.8818681E-01
        1   -1    0    0  501    0  0.00000000000E+00  0.00000000000E+00  0.23950201378E+04  0.23950201378E+04  0.50400001928E-02 0.  1.
       -1   -1    0    0    0  501  0.00000000000E+00  0.00000000000E+00 -0.26823827255E+03  0.26823827260E+03  0.50400001928E-02 0. -1.
    10030    2    1    2    0    0  0.00000000000E+00  0.00000000000E+00  0.21267818653E+04  0.26632584104E+04  0.16030421886E+04 0.  0.
        1    1    3    3  502    0  0.61689838236E+03  0.51077889110E+03  0.10114512942E+04  0.12901520880E+04  0.50400001928E-02 0. -1.
       -1    1    3    3    0  502 -0.61689838236E+03 -0.51077889110E+03  0.11153305711E+04  0.13731063224E+04  0.50400001928E-02 0.  1.
</event>
<event>
 5   0  0.7124495E-04  0.1602994E+04  0.7818609E-02  0.8818711E-01
       -1   -1    0    0    0  501  0.00000000000E+00  0.00000000000E+00  0.58545833759E+03  0.58545833762E+03  0.50400001928E-02 0.  1.
        1   -1    0    0  501    0  0.00000000000E+00  0.00000000000E+00 -0.10972560206E+04  0.10972560206E+04  0.50400001928E-02 0. -1.
    10030    2    1    2    0    0  0.00000000000E+00  0.00000000000E+00 -0.51179768298E+03  0.16827143582E+04  0.16029943054E+04 0.  0.
        2    1    3    3  502    0 -0.54708529369E+03  0.55632533623E+03 -0.44831069407E+03  0.89987925675E+03  0.25500000920E-02 0. -1.
       -2    1    3    3    0  502  0.54708529369E+03 -0.55632533623E+03 -0.63486988916E+02  0.78283510146E+03  0.25500000920E-02 0.  1.
</event>
<event>
 5   0  0.7124495E-04  0.1619612E+04  0.7818609E-02  0.8808589E-01
       -1   -1    0    0    0  501  0.00000000000E+00  0.00000000000E+00  0.40062411737E+03  0.40062411740E+03  0.50400001928E-02 0. -1.
        1   -1    0    0  501    0  0.00000000000E+00  0.00000000000E+00 -0.16369102481E+04  0.16369102481E+04  0.50400001928E-02 0.  1.
    10030    2    1    2    0    0  0.00000000000E+00  0.00000000000E+00 -0.12362861307E+04  0.20375343655E+04  0.16196119577E+04 0.  0.
        2    1    3    3  502    0 -0.53187953157E+03 -0.20171067879E+03 -0.13432391162E+04  0.14587235370E+04  0.25500000920E-02 0.  1.
       -2    1    3    3    0  502  0.53187953157E+03  0.20171067879E+03  0.10695298552E+03  0.57881082848E+03  0.25500000920E-02 0. -1.
</event>
<event>
 5   0  0.1354766E-03  0.1570402E+04  0.7818609E-02  0.8838941E-01
        2   -1    0    0  501    0  0.00000000000E+00  0.00000000000E+00  0.90175914747E+03  0.90175914747E+03  0.25500000920E-02 0.  1.
       -2   -1    0    0    0  501  0.00000000000E+00  0.00000000000E+00 -0.68370830919E+03  0.68370830919E+03  0.25500000920E-02 0. -1.
    10030    2    1    2    0    0  0.00000000000E+00  0.00000000000E+00  0.21805083828E+03  0.15854674567E+04  0.15704015054E+04 0.  0.
        3    1    3    3  502    0 -0.15098105633E+02  0.25270154357E+03  0.85942876997E+03  0.89593741063E+03  0.10100000352E+00 0.  1.
       -3    1    3    3    0  502  0.15098105633E+02 -0.25270154357E+03 -0.64137793169E+03  0.68953004603E+03  0.10100000352E+00 0. -1.
</event>
<event>
 5   0  0.1414751E-03  0.1416338E+04  0.7818609E-02  0.8942076E-01
        2   -1    0    0  501    0  0.00000000000E+00  0.00000000000E+00  0.17657660527E+04  0.17657660527E+04  0.25500000920E-02 0. -1.
       -2   -1    0    0    0  501  0.00000000000E+00  0.00000000000E+00 -0.28401466630E+03  0.28401466631E+03  0.25500000920E-02 0.  1.
    10030    2    1    2    0    0  0.00000000000E+00  0.00000000000E+00  0.14817513864E+04  0.20497807190E+04  0.14163381746E+04 0.  0.
        2    1    3    3  502    0 -0.53831049565E+03  0.22258183934E+03  0.13237065820E+04  0.14462088300E+04  0.25500000920E-02 0. -1.
       -2    1    3    3    0  502  0.53831049565E+03 -0.22258183934E+03  0.15804480443E+03  0.60357188897E+03  0.25500000920E-02 0.  1.
</event>
<event>
 5   0  0.1414751E-03  0.1600814E+04  0.7818609E-02  0.8820048E-01
       -2   -1    0    0    0  501  0.00000000000E+00  0.00000000000E+00  0.35737215777E+03  0.35737215778E+03  0.25500000920E-02 0. -1.
        2   -1    0    0  501    0  0.00000000000E+00  0.00000000000E+00 -0.17926734285E+04  0.17926734285E+04  0.25500000920E-02 0.  1.
    10030    2    1    2    0    0  0.00000000000E+00  0.00000000000E+00 -0.14353012708E+04  0.21500455863E+04  0.16008142570E+04 0.  0.
        2    1    3    3  502    0  0.15346002423E+03 -0.16152675984E+02  0.33720549082E+03  0.37083477591E+03  0.25500000920E-02 0. -1.
       -2    1    3    3    0  502 -0.15346002423E+03  0.16152675984E+02 -0.17725067616E+04  0.17792108104E+04  0.25500000920E-02 0.  1.
</event>
<event>
 5   0  0.7601145E-04  0.1561361E+04  0.7818609E-02  0.8844644E-01
        1   -1    0    0  501    0  0.00000000000E+00  0.00000000000E+00  0.20499750198E+04  0.20499750198E+04  0.50400001928E-02 0. -1.
       -1   -1    0    0    0  501  0.00000000000E+00  0.00000000000E+00 -0.29730202105E+03  0.29730202109E+03  0.50400001928E-02 0.  1.
    10030    2    1    2    0    0  0.00000000000E+00  0.00000000000E+00  0.17526729987E+04  0.23472770409E+04  0.15613605817E+04 0.  0.
        4    1    3    3  502    0  0.20298386058E+03 -0.94442942974E+02 -0.24800534748E+03  0.33411103306E+03  0.12699999809E+01 0.  1.
       -4    1    3    3    0  502 -0.20298386058E+03  0.94442942974E+02  0.20006783462E+04  0.20131660078E+04  0.12699999809E+01 0. -1.
</event>
<event>
 5   0  0.5095750E-04  0.1395382E+04  0.7818609E-02  0.8957168E-01
       -3   -1    0    0    0  501  0.00000000000E+00  0.00000000000E+00  0.10858103997E+04  0.10858104044E+04  0.10100000352E+00 0.  1.
        3   -1    0    0  501    0  0.00000000000E+00  0.00000000000E+00 -0.44830335937E+03  0.44830337075E+03  0.10100000352E+00 0. -1.
    10030    2    1    2    0    0  0.00000000000E+00  0.00000000000E+00  0.63750704029E+03  0.15341137751E+04  0.13953816140E+04 0.  0.
        1    1    3    3  502    0  0.24490868467E+03 -0.33531915881E+00 -0.39949171256E+03  0.46858724342E+03  0.50400001928E-02 0. -1.
       -1    1    3    3    0  502 -0.24490868467E+03  0.33531915881E+00  0.10369987529E+04  0.10655265317E+04  0.50400001928E-02 0.  1.
</event>
<event>
 5   0  0.1375777E-03  0.1574137E+04  0.7818609E-02  0.8836596E-01
       -2   -1    0    0    0  501  0.00000000000E+00  0.00000000000E+00  0.59034355875E+03  0.59034355876E+03  0.25500000920E-02 0.  1.
        2   -1    0    0  501    0  0.00000000000E+00  0.00000000000E+00 -0.10493495345E+04  0.10493495345E+04  0.25500000920E-02 0. -1.
    10030    2    1    2    0    0  0.00000000000E+00  0.00000000000E+00 -0.45900597579E+03  0.16396930933E+04  0.15741368919E+04 0.  0.
        1    1    3    3  502    0  0.30623189190E+03 -0.42552870690E+03  0.38199197517E+03  0.64866826740E+03  0.50400001928E-02 0.  1.
       -1    1    3    3    0  502 -0.30623189190E+03  0.42552870690E+03 -0.84099795096E+03  0.99102482591E+03  0.50400001928E-02 0. -1.
</event>
<event>
 5   0  0.1354766E-03  0.1592502E+04  0.7818609E-02  0.8825167E-01
        2   -1    0    0  501    0  0.00000000000E+00  0.00000000000E+00  0.18522473214E+04  0.18522473214E+04  0.25500000920E-02 0.  1.
       -2   -1    0    0    0  501  0.00000000000E+00  0.00000000000E+00 -0.34229547328E+03  0.34229547329E+03  0.25500000920E-02 0. -1.
    10030    2    1    2    0    0  0.00000000000E+00  0.00000000000E+00  0.15099518481E+04  0.21945427947E+04  0.15925022744E+04 0.  0.
        3    1    3    3  502    0  0.25724039733E+03 -0.44346374412E+03  0.15945482577E+04  0.16749378707E+04  0.10100000352E+00 0.  1.
       -3    1    3    3    0  502 -0.25724039733E+03  0.44346374412E+03 -0.84596409544E+02  0.51960492403E+03  0.10100000352E+00 0. -1.
</event>
<event>
 5   0  0.7124495E-04  0.1648025E+04  0.7818609E-02  0.8791576E-01
        1   -1    0    0  501    0  0.00000000000E+00  0.00000000000E+00  0.10825751203E+04  0.10825751203E+04  0.50400001928E-02 0.  1.
       -1   -1    0    0    0  501  0.00000000000E+00  0.00000000000E+00 -0.62720497421E+03  0.62720497423E+03  0.50400001928E-02 0. -1.
    10030    2    1    2    0    0  0.00000000000E+00  0.00000000000E+00  0.45537014611E+03  0.17097800946E+04  0.16480248790E+04 0.  0.
        2    1    3    3  502    0 -0.24279343484E+03 -0.24792719532E+02 -0.58884789001E+03  0.63742071548E+03  0.25500000920E-02 0. -1.
       -2    1    3    3    0  502  0.24279343484E+03  0.24792719532E+02  0.10442180361E+04  0.10723593791E+04  0.25500000920E-02 0.  1.
</event>
<event>
 5   0  0.1354766E-03  0.1584546E+04  0.7818609E-02  0.8830099E-01
        2   -1    0    0  501    0  0.00000000000E+00  0.00000000000E+00  0.23560436413E+04  0.23560436413E+04  0.25500000920E-02 0.  1.
       -2   -1    0    0    0  501  0.00000000000E+00  0.00000000000E+00 -0.26641967034E+03  0.26641967036E+03  0.25500000920E-02 0. -1.
    10030    2    1    2    0    0  0.00000000000E+00  0.00000000000E+00  0.20896239710E+04  0.26224633117E+04  0.15845458280E+04 0.  0.
        3    1    3    3  502    0 -0.19330988460E+03 -0.76635208881E+03  0.95367846745E+03  0.12386148978E+04  0.10100000352E+00 0. -1.
       -3    1    3    3    0  502  0.19330988460E+03  0.76635208881E+03  0.11359455036E+04  0.13838484139E+04  0.10100000352E+00 0.  1.
</event>
<event>
 5   0  0.1414751E-03  0.1622216E+04  0.7818609E-02  0.8807015E-01
        2   -1    0    0  501    0  0.00000000000E+00  0.00000000000E+00  0.14040480214E+04  0.14040480214E+04  0.25500000920E-02 0. -1.
       -2   -1    0    0    0  501  0.00000000000E+00  0.00000000000E+00 -0.46857090363E+03  0.46857090364E+03  0.25500000920E-02 0.  1.
    10030    2    1    2    0    0  0.00000000000E+00  0.00000000000E+00  0.93547711773E+03  0.18726189250E+04  0.16222158304E+04 0.  0.
        2    1    3    3  502    0  0.71563097962E+03  0.17751180747E+03  0.77541573671E+02  0.74138440531E+03  0.25500000920E-02 0.  1.
       -2    1    3    3    0  502 -0.71563097962E+03 -0.17751180747E+03  0.85793554406E+03  0.11312345197E+04  0.25500000920E-02 0. -1.
</event>
<event>
 5   0  0.1339162E-03  0.1614739E+04  0.7818609E-02  0.8811544E-01
       -2   -1    0    0    0  501  0.00000000000E+00  0.00000000000E+00  0.29707989295E+03  0.29707989296E+03  0.25500000920E-02 0.  1.
        2   -1    0    0  501    0  0.00000000000E+00  0.00000000000E+00 -0.21941761940E+04  0.21941761940E+04  0.25500000920E-02 0. -1.
    10030    2    1    2    0    0  0.00000000000E+00  0.00000000000E+00 -0.18970963011E+04  0.24912560870E+04  0.16147391478E+04 0.  0.
        5    1    3    3  502    0 -0.56451468866E+03 -0.51317342191E+03 -0.54093994903E+03  0.93523361420E+03  0.46999998093E+01 0.  1.
       -5    1    3    3    0  502  0.56451468866E+03  0.51317342191E+03 -0.13561563521E+04  0.15560224728E+04  0.46999998093E+01 0. -1.
</event>
<event>
 5   0  0.7302027E-04  0.1635033E+04  0.7818609E-02  0.8799310E-01
        1   -1    0    0  501    0  0.00000000000E+00  0.00000000000E+00  0.12104688339E+04  0.12104688339E+04  0.50400001928E-02 0.  1.
       -1   -1    0    0    0  501  0.00000000000E+00  0.00000000000E+00 -0.55212756482E+03  0.55212756485E+03  0.50400001928E-02 0. -1.
    10030    2    1    2    0    0  0.00000000000E+00  0.00000000000E+00  0.65834126904E+03  0.17625963987E+04  0.16350329777E+04 0.  0.
        5    1    3    3  502    0 -0.17671112832E+03 -0.73323417846E+03  0.66913467586E+03  0.10082769896E+04  0.46999998093E+01 0.  1.
       -5    1    3    3    0  502  0.17671112832E+03  0.73323417846E+03 -0.10793406824E+02  0.75431940911E+03  0.46999998093E+01 0. -1.
</event>
<event>
 5   0  0.7302027E-04  0.1589719E+04  0.7818609E-02  0.8826889E-01
       -1   -1    0    0    0  501  0.00000000000E+00  0.00000000000E+00  0.42952425923E+03  0.42952425926E+03  0.50400001928E-02 0.  1.
        1   -1    0    0  501    0  0.00000000000E+00  0.00000000000E+00 -0.14709331124E+04  0.14709331124E+04  0.50400001928E-02 0. -1.
    10030    2    1    2    0    0  0.00000000000E+00  0.00000000000E+00 -0.10414088532E+04  0.19004573717E+04  0.15897187871E+04 0.  0.
        5    1    3    3  502    0  0.64220922157E+03 -0.30130887772E+03 -0.94934191559E+03  0.11851126051E+04  0.46999998093E+01 0. -1.
       -5    1    3    3    0  502 -0.64220922157E+03  0.30130887772E+03 -0.92066937581E+02  0.71534476657E+03  0.46999998093E+01 0.  1.
</event>
<event>
 5   0  0.1375777E-03  0.1633973E+04  0.7818609E-02  0.8799944E-01
        2   -1    0    0  501    0  0.00000000000E+00  0.00000000000E+00  0.71968908167E+03  0.71968908168E+03  0.25500000920E-02 0.  1.
       -2   -1    0    0    0  501  0.00000000000E+00  0.00000000000E+00 -0.92743842712E+03  0.92743842713E+03  0.25500000920E-02 0. -1.
    10030    2    1    2    0    0  0.00000000000E+00  0.00000000000E+00 -0.20774934545E+03  0.16471275088E+04  0.16339734514E+04 0.  0.
        1    1    3    3  502    0  0.13351498768E+03 -0.27820030745E+03 -0.86643371179E+03  0.91974400784E+03  0.50400001928E-02 0. -1.
       -1    1    3    3    0  502 -0.13351498768E+03  0.27820030745E+03  0.65868436633E+03  0.72738350097E+03  0.50400001928E-02 0.  1.
</event>
<event>
 5   0  0.7124495E-04  0.1590165E+04  0.7818609E-02  0.8826613E-01
        1   -1    0    0  501    0  0.00000000000E+00  0.00000000000E+00  0.16134951545E+04  0.16134951545E+04  0.50400001928E-02 0.  1.
       -1   -1    0    0    0  501  0.00000000000E+00  0.00000000000E+00 -0.39179302622E+03  0.39179302626E+03  0.50400001928E-02 0. -1.
    10030    2    1    2    0    0  0.00000000000E+00  0.00000000000E+00  0.12217021283E+04  0.20052881808E+04  0.15901649593E+04 0.  0.
        2    1    3    3  502    0  0.57711960496E+03  0.21838899037E+03  0.12431365951E+04  0.13878578398E+04  0.25500000920E-02 0.  1.
       -2    1    3    3    0  502 -0.57711960496E+03 -0.21838899037E+03 -0.21434466799E+02  0.61743034094E+03  0.25500000920E-02 0. -1.
</event>
<event>
 5   0  0.1414751E-03  0.1592654E+04  0.7818609E-02  0.8825074E-01
       -2   -1    0    0    0  501  0.00000000000E+00  0.00000000000E+00  0.53438589711E+03  0.53438589712E+03  0.25500000920E-02 0.  1.
        2   -1    0    0  501    0  0.00000000000E+00  0.00000000000E+00 -0.11866636062E+04  0.11866636062E+04  0.25500000920E-02 0. -1.
    10030    2    1    2    0    0  0.00000000000E+00  0.00000000000E+00 -0.65227770908E+03  0.17210495033E+04  0.15926535038E+04 0.  0.
        2    1    3    3  502    0  0.50846705741E+03 -0.43760682712E+03  0.13751766901E+03  0.68479894342E+03  0.25500000920E-02 0.  1.
       -2    1    3    3    0  502 -0.50846705741E+03  0.43760682712E+03 -0.78979537809E+03  0.10362505599E+04  0.25500000920E-02 0. -1.
</event>
<event>
 5   0  0.7633213E-04  0.1588428E+04  0.7818609E-02  0.8827689E-01
        1   -1    0    0  501    0  0.00000000000E+00  0.00000000000E+00  0.18956430228E+04  0.18956430228E+04  0.50400001928E-02 0. -1.
       -1   -1    0    0    0  501  0.00000000000E+00  0.00000000000E+00 -0.33275037684E+03  0.33275037687E+03  0.50400001928E-02 0.  1.
    10030    2    1    2    0    0  0.00000000000E+00  0.00000000000E+00  0.15628926459E+04  0.22283933997E+04  0.15884280660E+04 0.  0.
        1    1    3    3  502    0 -0.89618567253E+02  0.71895624138E+03  0.32502882425E+03  0.79408645703E+03  0.50400001928E-02 0.  1.
       -1    1    3    3    0  502  0.89618567253E+02 -0.71895624138E+03  0.12378638217E+04  0.14343069426E+04  0.50400001928E-02 0. -1.
</event>
<event>
 5   0  0.1414796E-03  0.1917055E+04  0.7818609E-02  0.8646413E-01
       -2   -1    0    0    0  501  0.00000000000E+00  0.00000000000E+00  0.79769930221E+03  0.79769930222E+03  0.25500000920E-02 0. -1.
        2   -1    0    0  501    0  0.00000000000E+00  0.00000000000E+00 -0.11517808907E+04  0.11517808907E+04  0.25500000920E-02 0.  1.
    10030    2    1    2    0    0  0.00000000000E+00  0.00000000000E+00 -0.35408158850E+03  0.19494801929E+04  0.19170548379E+04 0.  0.
        4    1    3    3  502    0 -0.91063744661E+03 -0.10152381375E+03  0.10915425337E+03  0.92275885683E+03  0.12699999809E+01 0. -1.
       -4    1    3    3    0  502  0.91063744661E+03  0.10152381375E+03 -0.46323584187E+03  0.10267213361E+04  0.12699999809E+01 0.  1.
</event>
<event>
 5   0  0.7601145E-04  0.1648851E+04  0.7818609E-02  0.8791087E-01
       -1   -1    0    0    0  501  0.00000000000E+00  0.00000000000E+00  0.12219168668E+04  0.12219168669E+04  0.50400001928E-02 0. -1.
        1   -1    0    0  501    0  0.00000000000E+00  0.00000000000E+00 -0.55623843954E+03  0.55623843957E+03  0.50400001928E-02 0.  1.
    10030    2    1    2    0    0  0.00000000000E+00  0.00000000000E+00  0.66567842730E+03  0.17781553064E+04  0.16488506679E+04 0.  0.
        4    1    3    3  502    0  0.10519908614E+03  0.19111349594E+03 -0.52454576033E+03  0.56810305723E+03  0.12699999809E+01 0.  1.
       -4    1    3    3    0  502 -0.10519908614E+03 -0.19111349594E+03  0.11902241876E+04  0.12100522492E+04  0.12699999809E+01 0. -1.
</event>
<event>
 5   0  0.1339162E-03  0.1639595E+04  0.7818609E-02  0.8796586E-01
       -2   -1    0    0    0  501  0.00000000000E+00  0.00000000000E+00  0.37622313212E+03  0.37622313213E+03  0.25500000920E-02 0.  1.
        2   -1    0    0  501    0  0.00000000000E+00  0.00000000000E+00 -0.17863542891E+04  0.17863542891E+04  0.25500000920E-02 0. -1.
    10030    2    1    2    0    0  0.00000000000E+00  0.00000000000E+00 -0.14101311570E+04  0.21625774212E+04  0.16395948350E+04 0.  0.
        5    1    3    3  502    0  0.49534839394E+02 -0.68352101130E+03 -0.12984426578E+04  0.14682064224E+04  0.46999998093E+01 0. -1.
       -5    1    3    3    0  502 -0.49534839394E+02  0.68352101130E+03 -0.11168849921E+03  0.69437099886E+03  0.46999998093E+01 0.  1.
</event>
<event>
 5   0  0.7601145E-04  0.1601561E+04  0.7818609E-02  0.8819590E-01
       -1   -1    0    0    0  501  0.00000000000E+00  0.00000000000E+00  0.10219836606E+04  0.10219836606E+04  0.50400001928E-02 0.  1.
        1   -1    0    0  501    0  0.00000000000E+00  0.00000000000E+00 -0.62745557415E+03  0.62745557417E+03  0.50400001928E-02 0. -1.
    10030    2    1    2    0    0  0.00000000000E+00  0.00000000000E+00  0.39452808642E+03  0.16494392348E+04  0.16015609193E+04 0.  0.
        4    1    3    3  502    0 -0.19060851086E+02 -0.26485334091E+03 -0.58079206947E+03  0.63861698153E+03  0.12699999809E+01 0. -1.
       -4    1    3    3    0  502  0.19060851086E+02  0.26485334091E+03  0.97532015589E+03  0.10108222532E+04  0.12699999809E+01 0.  1.
</event>
<event>
 5   0  0.7302027E-04  0.9949071E+03  0.7818609E-02  0.9314148E-01
       -1   -1    0    0    0  501  0.00000000000E+00  0.00000000000E+00  0.18468707576E+03  0.18468707583E+03  0.50400001928E-02 0.  1.
        1   -1    0    0  501    0  0.00000000000E+00  0.00000000000E+00 -0.13398882799E+04  0.13398882799E+04  0.50400001928E-02 0. -1.
    10030    2    1    2    0    0  0.00000000000E+00  0.00000000000E+00 -0.11552012041E+04  0.15245753557E+04  0.99490712797E+03 0.  0.
        5    1    3    3  502    0 -0.14837814297E+02 -0.18424589700E+03  0.13007220383E+03  0.22606985536E+03  0.46999998093E+01 0.  1.
       -5    1    3    3    0  502  0.14837814297E+02  0.18424589700E+03 -0.12852734080E+04  0.12985055004E+04  0.46999998093E+01 0. -1.
</event>
<event>
 5   0  0.1375777E-03  0.1592006E+04  0.7818609E-02  0.8825474E-01
        2   -1    0    0  501    0  0.00000000000E+00  0.00000000000E+00  0.18265239359E+04  0.18265239359E+04  0.25500000920E-02 0.  1.
       -2   -1    0    0    0  501  0.00000000000E+00  0.00000000000E+00 -0.34689997891E+03  0.34689997892E+03  0.25500000920E-02 0. -1.
    10030    2    1    2    0    0  0.00000000000E+00  0.00000000000E+00  0.14796239570E+04  0.21734239148E+04  0.15920064257E+04 0.  0.
        1    1    3    3  502    0  0.15155335255E+03 -0.72069326546E+03  0.32740559979E+03  0.80595386242E+03  0.50400001928E-02 0. -1.
       -1    1    3    3    0  502 -0.15155335255E+03  0.72069326546E+03  0.11522183572E+04  0.13674700524E+04  0.50400001928E-02 0.  1.
</event>
<event>
 5   0  0.7302027E-04  0.1296688E+04  0.7818609E-02  0.9032196E-01
        1   -1    0    0  501    0  0.00000000000E+00  0.00000000000E+00  0.11961409802E+04  0.11961409802E+04  0.50400001928E-02 0. -1.
       -1   -1    0    0    0  501  0.00000000000E+00  0.00000000000E+00 -0.35142149039E+03  0.35142149043E+03  0.50400001928E-02 0.  1.
    10030    2    1    2    0    0  0.00000000000E+00  0.00000000000E+00  0.84471948982E+03  0.15475624707E+04  0.12966875430E+04 0.  0.
        5    1    3    3  502    0  0.61997756412E+03 -0.10423761620E+03  0.23331601574E+03  0.67059385163E+03  0.46999998093E+01 0.  1.
       -5    1    3    3    0  502 -0.61997756412E+03  0.10423761620E+03  0.61140347408E+03  0.87696861902E+03  0.46999998093E+01 0. -1.
</event>
<event>
 5   0  0.1375777E-03  0.1616312E+04  0.7818609E-02  0.8810589E-01
        2   -1    0    0  501    0  0.00000000000E+00  0.00000000000E+00  0.14074663673E+04  0.14074663673E+04  0.25500000920E-02 0.  1.
       -2   -1    0    0    0  501  0.00000000000E+00  0.00000000000E+00 -0.46403672590E+03  0.46403672591E+03  0.25500000920E-02 0. -1.
    10030    2    1    2    0    0  0.00000000000E+00  0.00000000000E+00  0.94342964141E+03  0.18715030932E+04  0.16163119562E+04 0.  0.
        1    1    3    3  502    0 -0.63898627703E+03 -0.32599554494E+03  0.90268995586E+03  0.11530072480E+04  0.50400001928E-02 0.  1.
       -1    1    3    3    0  502  0.63898627703E+03  0.32599554494E+03  0.40739685553E+02  0.71849584520E+03  0.50400001928E-02 0. -1.
</event>
<event>
 5   0  0.7499834E-04  0.1591816E+04  0.7818609E-02  0.8825592E-01
       -1   -1    0    0    0  501  0.00000000000E+00  0.00000000000E+00  0.29952034619E+03  0.29952034623E+03  0.50400001928E-02 0.  1.
        1   -1    0    0  501    0  0.00000000000E+00  0.00000000000E+00 -0.21149453212E+04  0.21149453212E+04  0.50400001928E-02 0. -1.
    10030    2    1    2    0    0  0.00000000000E+00  0.00000000000E+00 -0.18154249750E+04  0.24144656674E+04  0.15918155105E+04 0.  0.
        3    1    3    3  502    0 -0.22599342968E+03  0.53694379838E+03 -0.85154423961E+02  0.58875543224E+03  0.10100000352E+00 0.  1.
       -3    1    3    3    0  502  0.22599342968E+03 -0.53694379838E+03 -0.17302705510E+04  0.18257102352E+04  0.10100000352E+00 0. -1.
</event>
<event>
 5   0  0.7302027E-04  0.1590178E+04  0.7818609E-02  0.8826605E-01
       -1   -1    0    0    0  501  0.00000000000E+00  0.00000000000E+00  0.38868483882E+03  0.38868483885E+03  0.50400001928E-02 0.  1.
        1   -1    0    0  501    0  0.00000000000E+00  0.00000000000E+00 -0.16264239451E+04  0.16264239451E+04  0.50400001928E-02 0. -1.
    10030    2    1    2    0    0  0.00000000000E+00  0.00000000000E+00 -0.12377391063E+04  0.20151087839E+04  0.15901777624E+04 0.  0.
        5    1    3    3  502    0 -0.20344454779E+02 -0.56130738181E+03  0.94233699617E+02  0.56954539227E+03  0.46999998093E+01 0.  1.
       -5    1    3    3    0  502  0.20344454779E+02  0.56130738181E+03 -0.13319728059E+04  0.14455633917E+04  0.46999998093E+01 0. -1.
</event>
<event>
 5   0  0.1414796E-03  0.1591120E+04  0.7818609E-02  0.8826022E-01
       -2   -1    0    0    0  501  0.00000000000E+00  0.00000000000E+00  0.81092810110E+03  0.81092810110E+03  0.25500000920E-02 0.  1.
        2   -1    0    0  501    0  0.00000000000E+00  0.00000000000E+00 -0.78048270529E+03  0.78048270530E+03  0.25500000920E-02 0. -1.
    10030    2    1    2    0    0  0.00000000000E+00  0.00000000000E+00  0.30445395806E+02  0.15914108064E+04  0.15911195532E+04 0.  0.
        4    1    3    3  502    0  0.76076976739E+03  0.16223167326E+03  0.18205847857E+03  0.79889715064E+03  0.12699999809E+01 0.  1.
       -4    1    3    3    0  502 -0.76076976739E+03 -0.16223167326E+03 -0.15161308277E+03  0.79251365575E+03  0.12699999809E+01 0. -1.
</event>
<event>
 5   0  0.1414751E-03  0.1587828E+04  0.7818609E-02  0.8828061E-01
       -2   -1    0    0    0  501  0.00000000000E+00  0.00000000000E+00  0.77142858021E+03  0.77142858022E+03  0.25500000920E-02 0. -1.
        2   -1    0    0  501    0  0.00000000000E+00  0.00000000000E+00 -0.81705486561E+03  0.81705486561E+03  0.25500000920E-02 0.  1.
    10030    2    1    2    0    0  0.00000000000E+00  0.00000000000E+00 -0.45626285395E+02  0.15884834458E+04  0.15878280448E+04 0.  0.
        2    1    3    3  502    0 -0.17795794646E+03  0.58183647286E+03 -0.53302047846E+03  0.80889649667E+03  0.25500000920E-02 0.  1.
       -2    1    3    3    0  502  0.17795794646E+03 -0.58183647286E+03  0.48739419306E+03  0.77958694916E+03  0.25500000920E-02 0. -1.
</event>
<event>
 5   0  0.7601145E-04  0.1586499E+04  0.7818609E-02  0.8828885E-01
        1   -1    0    0  501    0  0.00000000000E+00  0.00000000000E+00  0.81451224351E+03  0.81451224353E+03  0.50400001928E-02 0. -1.
       -1   -1    0    0    0  501  0.00000000000E+00  0.00000000000E+00 -0.77254184204E+03  0.77254184206E+03  0.50400001928E-02 0.  1.
    10030    2    1    2    0    0  0.00000000000E+00  0.00000000000E+00  0.41970401467E+02  0.15870540856E+04  0.15864990249E+04 0.  0.
        4    1    3    3  502    0 -0.63182692722E+01 -0.40683800754E+03 -0.66019803683E+03  0.77551282752E+03  0.12699999809E+01 0.  1.
       -4    1    3    3    0  502  0.63182692722E+01  0.40683800754E+03  0.70216843830E+03  0.81154125807E+03  0.12699999809E+01 0. -1.
</event>
<event>
 5   0  0.1339162E-03  0.1444700E+04  0.7818609E-02  0.8922083E-01
       -2   -1    0    0    0  501  0.00000000000E+00  0.00000000000E+00  0.50573620305E+03  0.50573620306E+03  0.25500000920E-02 0. -1.
        2   -1    0    0  501    0  0.00000000000E+00  0.00000000000E+00 -0.10317422900E+04  0.10317422900E+04  0.25500000920E-02 0.  1.
    10030    2    1    2    0    0  0.00000000000E+00  0.00000000000E+00 -0.52600608692E+03  0.15374784930E+04  0.14446998695E+04 0.  0.
        5    1    3    3  502    0 -0.52759094692E+03  0.24540497862E+03 -0.71849856123E+03  0.92457454177E+03  0.46999998093E+01 0.  1.
       -5    1    3    3    0  502  0.52759094692E+03 -0.24540497862E+03  0.19249247431E+03  0.61290395126E+03  0.46999998093E+01 0. -1.
</event>
<event>
 5   0  0.7633213E-04  0.1700124E+04  0.7818609E-02  0.8761293E-01
       -1   -1    0    0    0  501  0.00000000000E+00  0.00000000000E+00  0.10146860536E+04  0.10146860536E+04  0.50400001928E-02 0.  1.
        1   -1    0    0  501    0  0.00000000000E+00  0.00000000000E+00 -0.71214706528E+03  0.71214706530E+03  0.50400001928E-02 0. -1.
    10030    2    1    2    0    0  0.00000000000E+00  0.00000000000E+00  0.30253898830E+03  0.17268331189E+04  0.17001243428E+04 0.  0.
        1    1    3    3  502    0  0.13940761210E+03 -0.37806447325E+03  0.91151899928E+03  0.99661131557E+03  0.50400001928E-02 0.  1.
       -1    1    3    3    0  502 -0.13940761210E+03  0.37806447325E+03 -0.60898001098E+03  0.73022180332E+03  0.50400001928E-02 0. -1.
</event>
<event>
 5   0  0.1414796E-03  0.1648515E+04  0.7818609E-02  0.8791285E-01
       -2   -1    0    0    0  501  0.00000000000E+00  0.00000000000E+00  0.13774061156E+04  0.13774061156E+04  0.25500000920E-02 0.  1.
        2   -1    0    0  501    0  0.00000000000E+00  0.00000000000E+00 -0.49324624443E+03  0.49324624444E+03  0.25500000920E-02 0. -1.
    10030    2    1    2    0    0  0.00000000000E+00  0.00000000000E+00  0.88415987119E+03  0.18706523601E+04  0.16485149603E+04 0.  0.
        4    1    3    3  502    0  0.29529613764E+03 -0.31627729516E+03  0.12381599537E+04  0.13115917125E+04  0.12699999809E+01 0.  1.
       -4    1    3    3    0  502 -0.29529613764E+03  0.31627729516E+03 -0.35400008254E+03  0.55906064758E+03  0.12699999809E+01 0. -1.
</event>
<event>
 5   0  0.7124495E-04  0.1596734E+04  0.7818609E-02  0.8822557E-01
        1   -1    0    0  501    0  0.00000000000E+00  0.00000000000E+00  0.10885960763E+04  0.10885960764E+04  0.50400001928E-02 0. -1.
       -1   -1    0    0    0  501  0.00000000000E+00  0.00000000000E+00 -0.58551563554E+03  0.58551563556E+03  0.50400001928E-02 0.  1.
    10030    2    1    2    0    0  0.00000000000E+00  0.00000000000E+00  0.50308044080E+03  0.16741117119E+04  0.15967341964E+04 0.  0.
        2    1    3    3  502    0  0.44462401989E+02  0.62809085848E+03 -0.26307629699E+03  0.68241055805E+03  0.25500000920E-02 0.  1.
       -2    1    3    3    0  502 -0.44462401989E+02 -0.62809085848E+03  0.76615673779E+03  0.99170115386E+03  0.25500000920E-02 0. -1.
</event>
<event>
 5   0  0.7124495E-04  0.1593782E+04  0.7818609E-02  0.8824377E-01
       -1   -1    0    0    0  501  0.00000000000E+00  0.00000000000E+00  0.60905841445E+03  0.60905841447E+03  0.50400001928E-02 0. -1.
        1   -1    0    0  501    0  0.00000000000E+00  0.00000000000E+00 -0.10426511949E+04  0.10426511949E+04  0.50400001928E-02 0.  1.
    10030    2    1    2    0    0  0.00000000000E+00  0.00000000000E+00 -0.43359278047E+03  0.16517096094E+04  0.15937822733E+04 0.  0.
        2    1    3    3  502    0  0.44411877979E+03  0.35514866635E+03  0.36176256189E+03  0.67397642167E+03  0.25500000920E-02 0.  1.
       -2    1    3    3    0  502 -0.44411877979E+03 -0.35514866635E+03 -0.79535534236E+03  0.97773318774E+03  0.25500000920E-02 0. -1.
</event>
<event>
 5   0  0.1414751E-03  0.1596706E+04  0.7818609E-02  0.8822574E-01
        2   -1    0    0  501    0  0.00000000000E+00  0.00000000000E+00  0.92156085139E+03  0.92156085139E+03  0.25500000920E-02 0.  1.
       -2   -1    0    0    0  501  0.00000000000E+00  0.00000000000E+00 -0.69161731982E+03  0.69161731982E+03  0.25500000920E-02 0. -1.
    10030    2    1    2    0    0  0.00000000000E+00  0.00000000000E+00  0.22994353157E+03  0.16131781712E+04  0.15967059167E+04 0.  0.
        2    1    3    3  502    0 -0.56994967814E+03 -0.27589747279E+03 -0.37625960504E+03  0.73656862647E+03  0.25500000920E-02 0. -1.
       -2    1    3    3    0  502  0.56994967814E+03  0.27589747279E+03  0.60620313661E+03  0.87660954475E+03  0.25500000920E-02 0.  1.
</event>
<event>
 5   0  0.7302027E-04  0.1580553E+04  0.7818609E-02  0.8832585E-01
       -1   -1    0    0    0  501  0.00000000000E+00  0.00000000000E+00  0.31975622300E+03  0.31975622304E+03  0.50400001928E-02 0. -1.
        1   -1    0    0  501    0  0.00000000000E+00  0.00000000000E+00 -0.19531648933E+04  0.19531648933E+04  0.50400001928E-02 0.  1.
    10030    2    1    2    0    0  0.00000000000E+00  0.00000000000E+00 -0.16334086703E+04  0.22729211164E+04  0.15805525986E+04 0.  0.
        5    1    3    3  502    0  0.60460004893E+03 -0.48108033424E+03 -0.57807809210E+03  0.96497454771E+03  0.46999998093E+01 0.  1.
       -5    1    3    3    0  502 -0.60460004893E+03  0.48108033424E+03 -0.10553305782E+04  0.13079465687E+04  0.46999998093E+01 0. -1.
</event>
<event>
 5   0  0.7601145E-04  0.1633362E+04  0.7818609E-02  0.8800310E-01
        1   -1    0    0  501    0  0.00000000000E+00  0.00000000000E+00  0.27208061114E+04  0.27208061114E+04  0.50400001928E-02 0. -1.
       -1   -1    0    0    0  501  0.00000000000E+00  0.00000000000E+00 -0.24513626014E+03  0.24513626019E+03  0.50400001928E-02 0.  1.
    10030    2    1    2    0    0  0.00000000000E+00  0.00000000000E+00  0.24756698512E+04  0.29659423716E+04  0.16333624641E+04 0.  0.
        4    1    3    3  502    0  0.75891740234E+02 -0.24581468116E+03  0.26453033770E+04  0.26577840362E+04  0.12699999809E+01 0. -1.
       -4    1    3    3    0  502 -0.75891740234E+02  0.24581468116E+03 -0.16963352576E+03  0.30815833540E+03  0.12699999809E+01 0.  1.
</event>
<event>
 5   0  0.7302027E-04  0.1622625E+04  0.7818609E-02  0.8806768E-01
       -1   -1    0    0    0  501  0.00000000000E+00  0.00000000000E+00  0.62935111217E+03  0.62935111219E+03  0.50400001928E-02 0.  1.
        1   -1    0    0  501    0  0.00000000000E+00  0.00000000000E+00 -0.10458837455E+04  0.10458837455E+04  0.50400001928E-02 0. -1.
    10030    2    1    2    0    0  0.00000000000E+00  0.00000000000E+00 -0.41653263332E+03  0.16752348577E+04  0.16226251551E+04 0.  0.
        5    1    3    3  502    0  0.43830629117E+03 -0.67255355923E+03 -0.87136641974E+02  0.80749958469E+03  0.46999998093E+01 0.  1.
       -5    1    3    3    0  502 -0.43830629117E+03  0.67255355923E+03 -0.32939599134E+03  0.86773527300E+03  0.46999998093E+01 0. -1.
</event>
<event>
 5   0  0.1414751E-03  0.1598152E+04  0.7818609E-02  0.8821684E-01
        2   -1    0    0  501    0  0.00000000000E+00  0.00000000000E+00  0.13371227240E+04  0.13371227240E+04  0.25500000920E-02 0. -1.
       -2   -1    0    0    0  501  0.00000000000E+00  0.00000000000E+00 -0.47753481315E+03  0.47753481315E+03  0.25500000920E-02 0.  1.
    10030    2    1    2    0    0  0.00000000000E+00  0.00000000000E+00  0.85958791083E+03  0.18146575371E+04  0.15981522458E+04 0.  0.
        2    1    3    3  502    0 -0.21850098627E+03  0.69776193611E+03  0.63776715226E+02  0.73394950092E+03  0.25500000920E-02 0.  1.
       -2    1    3    3    0  502  0.21850098627E+03 -0.69776193611E+03  0.79581119560E+03  0.10807080362E+04  0.25500000920E-02 0. -1.
</event>
<event>
 5   0  0.1414751E-03  0.1395689E+04  0.7818609E-02  0.8956945E-01
        2   -1    0    0  501    0  0.00000000000E+00  0.00000000000E+00  0.11117106818E+04  0.11117106818E+04  0.25500000920E-02 0. -1.
       -2   -1    0    0    0  501  0.00000000000E+00  0.00000000000E+00 -0.43805170554E+03  0.43805170555E+03  0.25500000920E-02 0.  1.
    10030    2    1    2    0    0  0.00000000000E+00  0.00000000000E+00  0.67365897623E+03  0.15497623873E+04  0.13956887335E+04 0.  0.
        2    1    3    3  502    0  0.25853626326E+03 -0.17819921911E+03 -0.35517834453E+03  0.47407553991E+03  0.25500000920E-02 0.  1.
       -2    1    3    3    0  502 -0.25853626326E+03  0.17819921911E+03  0.10288373208E+04  0.10756868474E+04  0.25500000920E-02 0. -1.
</event>
<event>
 5   0  0.7633213E-04  0.1667925E+04  0.7818609E-02  0.8779873E-01
       -1   -1    0    0    0  501  0.00000000000E+00  0.00000000000E+00  0.12187650557E+04  0.12187650557E+04  0.50400001928E-02 0.  1.
        1   -1    0    0  501    0  0.00000000000E+00  0.00000000000E+00 -0.57065402984E+03  0.57065402986E+03  0.50400001928E-02 0. -1.
    10030    2    1    2    0    0  0.00000000000E+00  0.00000000000E+00  0.64811102587E+03  0.17894190856E+04  0.16679246871E+04 0.  0.
        1    1    3    3  502    0 -0.41080241868E+03 -0.59602514379E+03 -0.12022088768E+03  0.73379674372E+03  0.50400001928E-02 0. -1.
       -1    1    3    3    0  502  0.41080241868E+03  0.59602514379E+03  0.76833191355E+03  0.10556223419E+04  0.50400001928E-02 0.  1.
</event>
<event>
 5   0  0.1354766E-03  0.1533691E+04  0.7818609E-02  0.8862353E-01
        2   -1    0    0  501    0  0.00000000000E+00  0.00000000000E+00  0.59340757711E+03  0.59340757711E+03  0.25500000920E-02 0. -1.
       -2   -1    0    0    0  501  0.00000000000E+00  0.00000000000E+00 -0.99097544819E+03  0.99097544819E+03  0.25500000920E-02 0.  1.
    10030    2    1    2    0    0  0.00000000000E+00  0.00000000000E+00 -0.39756787108E+03  0.15843830253E+04  0.15336914158E+04 0.  0.
        3    1    3    3  502    0 -0.56628216809E+03 -0.72165874544E+02  0.33016384396E+03  0.65946310087E+03  0.10100000352E+00 0. -1.
       -3    1    3    3    0  502  0.56628216809E+03  0.72165874544E+02 -0.72773171504E+03  0.92491992444E+03  0.10100000352E+00 0.  1.
</event>
<event>
 5   0  0.1354766E-03  0.1596335E+04  0.7818609E-02  0.8822803E-01
       -2   -1    0    0    0  501  0.00000000000E+00  0.00000000000E+00  0.43245249176E+03  0.43245249177E+03  0.25500000920E-02 0. -1.
        2   -1    0    0  501    0  0.00000000000E+00  0.00000000000E+00 -0.14731584641E+04  0.14731584641E+04  0.25500000920E-02 0.  1.
    10030    2    1    2    0    0  0.00000000000E+00  0.00000000000E+00 -0.10407059723E+04  0.19056109559E+04  0.15963346123E+04 0.  0.
        3    1    3    3  502    0  0.48602806325E+03  0.20567345928E+03  0.19444425177E+03  0.56243526504E+03  0.10100000352E+00 0. -1.
       -3    1    3    3    0  502 -0.48602806325E+03 -0.20567345928E+03 -0.12351502241E+04  0.13431756908E+04  0.10100000352E+00 0.  1.
</event>
<event>
 5   0  0.1414796E-03  0.1576047E+04  0.7818609E-02  0.8835400E-01
       -2   -1    0    0    0  501  0.00000000000E+00  0.00000000000E+00  0.84880336597E+03  0.84880336597E+03  0.25500000920E-02 0.  1.
        2   -1    0    0  501    0  0.00000000000E+00  0.00000000000E+00 -0.73159586479E+03  0.73159586479E+03  0.25500000920E-02 0. -1.
    10030    2    1    2    0    0  0.00000000000E+00  0.00000000000E+00  0.11720750119E+03  0.15803992308E+04  0.15760469949E+04 0.  0.
        4    1    3    3  502    0  0.69949743401E+03  0.35617366135E+03  0.12824394728E+03  0.79536435685E+03  0.12699999809E+01 0. -1.
       -4    1    3    3    0  502 -0.69949743401E+03 -0.35617366135E+03 -0.11036446092E+02  0.78503487392E+03  0.12699999809E+01 0.  1.
</event>
<event>
 5   0  0.7601145E-04  0.1536959E+04  0.7818609E-02  0.8860241E-01
        1   -1    0    0  501    0  0.00000000000E+00  0.00000000000E+00  0.46387729447E+03  0.46387729450E+03  0.50400001928E-02 0.  1.
       -1   -1    0    0    0  501  0.00000000000E+00  0.00000000000E+00 -0.12730970965E+04  0.12730970965E+04  0.50400001928E-02 0. -1.
    10030    2    1    2    0    0  0.00000000000E+00  0.00000000000E+00 -0.80921980200E+03  0.17369743910E+04  0.15369591234E+04 0.  0.
        4    1    3    3  502    0 -0.44520511076E+03 -0.55656449430E+03 -0.72938932919E+03  0.10197950938E+04  0.12699999809E+01 0. -1.
       -4    1    3    3    0  502  0.44520511076E+03  0.55656449430E+03 -0.79830472806E+02  0.71717929714E+03  0.12699999809E+01 0.  1.
</event>
<event>
 5   0  0.7601145E-04  0.8199779E+03  0.7818609E-02  0.9531542E-01
       -1   -1    0    0    0  501  0.00000000000E+00  0.00000000000E+00  0.13072864562E+03  0.13072864572E+03  0.50400001928E-02 0. -1.
        1   -1    0    0  501    0  0.00000000000E+00  0.00000000000E+00 -0.12858004490E+04  0.12858004490E+04  0.50400001928E-02 0.  1.
    10030    2    1    2    0    0  0.00000000000E+00  0.00000000000E+00 -0.11550718033E+04  0.14165290947E+04  0.81997792973E+03 0.  0.
        4    1    3    3  502    0 -0.19145182139E+03  0.30928140819E+00 -0.12038318213E+04  0.12189612637E+04  0.12699999809E+01 0.  1.
       -4    1    3    3    0  502  0.19145182139E+03 -0.30928140819E+00  0.48760017998E+02  0.19756783094E+03  0.12699999809E+01 0. -1.
</event>
<event>
 5   0  0.1339162E-03  0.1611958E+04  0.7818609E-02  0.8813235E-01
       -2   -1    0    0    0  501  0.00000000000E+00  0.00000000000E+00  0.10025734566E+04  0.10025734566E+04  0.25500000920E-02 0.  1.
        2   -1    0    0  501    0  0.00000000000E+00  0.00000000000E+00 -0.64793477839E+03  0.64793477839E+03  0.25500000920E-02 0. -1.
    10030    2    1    2    0    0  0.00000000000E+00  0.00000000000E+00  0.35463867821E+03  0.16505082350E+04  0.16119580769E+04 0.  0.
        5    1    3    3  502    0  0.21972732301E+03  0.78608005453E+02  0.96720916430E+03  0.99497486024E+03  0.46999998093E+01 0.  1.
       -5    1    3    3    0  502 -0.21972732301E+03 -0.78608005453E+02 -0.61257048609E+03  0.65553337476E+03  0.46999998093E+01 0. -1.
</event>
<event>
 5   0  0.7601145E-04  0.1592936E+04  0.7818609E-02  0.8824900E-01
       -1   -1    0    0    0  501  0.00000000000E+00  0.00000000000E+00  0.10733915021E+04  0.10733915022E+04  0.50400001928E-02 0. -1.
        1   -1    0    0  501    0  0.00000000000E+00  0.00000000000E+00 -0.59098764258E+03  0.59098764260E+03  0.50400001928E-02 0.  1.
    10030    2    1    2    0    0  0.00000000000E+00  0.00000000000E+00  0.48240385956E+03  0.16643791448E+04  0.15929357971E+04 0.  0.
        4    1    3    3  502    0  0.82428815976E+02 -0.63850080108E+03 -0.24874445102E+03  0.69018345206E+03  0.12699999809E+01 0.  1.
       -4    1    3    3    0  502 -0.82428815976E+02  0.63850080108E+03  0.73114831058E+03  0.97419569269E+03  0.12699999809E+01 0. -1.
</event>
<event>
 5   0  0.1354766E-03  0.1630186E+04  0.7818609E-02  0.8802215E-01
       -2   -1    0    0    0  501  0.00000000000E+00  0.00000000000E+00  0.92227591075E+03  0.92227591076E+03  0.25500000920E-02 0. -1.
        2   -1    0    0  501    0  0.00000000000E+00  0.00000000000E+00 -0.72036633887E+03  0.72036633888E+03  0.25500000920E-02 0.  1.
    10030    2    1    2    0    0  0.00000000000E+00  0.00000000000E+00  0.20190957188E+03  0.16426422496E+04  0.16301859051E+04 0.  0.
        3    1    3    3  502    0  0.58504152726E+03  0.28095631465E+03 -0.39593229102E+03  0.76024497935E+03  0.10100000352E+00 0.  1.
       -3    1    3    3    0  502 -0.58504152726E+03 -0.28095631465E+03  0.59784186290E+03  0.88239727028E+03  0.10100000352E+00 0. -1.
</event>
<event>
 5   0  0.1339162E-03  0.1590025E+04  0.7818609E-02  0.8826699E-01
        2   -1    0    0  501    0  0.00000000000E+00  0.00000000000E+00  0.45886716026E+03  0.45886716027E+03  0.25500000920E-02 0. -1.
       -2   -1    0    0    0  501  0.00000000000E+00  0.00000000000E+00 -0.13774029769E+04  0.13774029769E+04  0.25500000920E-02 0.  1.
    10030    2    1    2    0    0  0.00000000000E+00  0.00000000000E+00 -0.91853581662E+03  0.18362701371E+04  0.15900251476E+04 0.  0.
        5    1    3    3  502    0  0.62769010918E+03 -0.39724020142E+03 -0.13215608437E+03  0.75450776764E+03  0.46999998093E+01 0. -1.
       -5    1    3    3    0  502 -0.62769010918E+03  0.39724020142E+03 -0.78637973225E+03  0.10817623695E+04  0.46999998093E+01 0.  1.
</event>
<event>
 5   0  0.7601145E-04  0.1589327E+04  0.7818609E-02  0.8827132E-01
       -1   -1    0    0    0  501  0.00000000000E+00  0.00000000000E+00  0.26228309446E+03  0.26228309451E+03  0.50400001928E-02 0.  1.
        1   -1    0    0  501    0  0.00000000000E+00  0.00000000000E+00 -0.24076652897E+04  0.24076652897E+04  0.50400001928E-02 0. -1.
    10030    2    1    2    0    0  0.00000000000E+00  0.00000000000E+00 -0.21453821952E+04  0.26699483842E+04  0.15893267791E+04 0.  0.
        4    1    3    3  502    0 -0.13782512868E+03  0.70951509903E+03 -0.16275261843E+04  0.17808005322E+04  0.12699999809E+01 0. -1.
       -4    1    3    3    0  502  0.13782512868E+03 -0.70951509903E+03 -0.51785601091E+03  0.88914785203E+03  0.12699999809E+01 0.  1.
</event>
<event>
 5   0  0.7499834E-04  0.8059833E+03  0.7818609E-02  0.9551397E-01
        1   -1    0    0  501    0  0.00000000000E+00  0.00000000000E+00  0.87711964679E+03  0.87711964681E+03  0.50400001928E-02 0.  1.
       -1   -1    0    0    0  501  0.00000000000E+00  0.00000000000E+00 -0.18515405808E+03  0.18515405814E+03  0.50400001928E-02 0. -1.
    10030    2    1    2    0    0  0.00000000000E+00  0.00000000000E+00  0.69196558872E+03  0.10622737049E+04  0.80598328038E+03 0.  0.
        3    1    3    3  502    0  0.25210181945E+03  0.28333425042E+03  0.16638529098E+03  0.41414695469E+03  0.10100000352E+00 0. -1.
       -3    1    3    3    0  502 -0.25210181945E+03 -0.28333425042E+03  0.52558029774E+03  0.64812675026E+03  0.10100000352E+00 0.  1.
</event>
<event>
 5   0  0.7601145E-04  0.1605757E+04  0.7818609E-02  0.8817019E-01
       -1   -1    0    0    0  501  0.00000000000E+00  0.00000000000E+00  0.15765271653E+04  0.15765271653E+04  0.50400001928E-02 0. -1.
        1   -1    0    0  501    0  0.00000000000E+00  0.00000000000E+00 -0.40888201743E+03  0.40888201746E+03  0.50400001928E-02 0.  1.
    10030    2    1    2    0    0  0.00000000000E+00  0.00000000000E+00  0.11676451478E+04  0.19854091827E+04  0.16057566539E+04 0.  0.
        4    1    3    3  502    0 -0.55852150412E+03  0.56505550821E+03  0.72683238874E+03  0.10768105368E+04  0.12699999809E+01 0. -1.
       -4    1    3    3    0  502  0.55852150412E+03 -0.56505550821E+03  0.44081275911E+03  0.90859864595E+03  0.12699999809E+01 0.  1.
</event>
<event>
 5   0  0.1339162E-03  0.1554058E+04  0.7818609E-02  0.8849280E-01
       -2   -1    0    0    0  501  0.00000000000E+00  0.00000000000E+00  0.57039941077E+03  0.57039941078E+03  0.25500000920E-02 0.  1.
        2   -1    0    0  501    0  0.00000000000E+00  0.00000000000E+00 -0.10585107195E+04  0.10585107195E+04  0.25500000920E-02 0. -1.
    10030    2    1    2    0    0  0.00000000000E+00  0.00000000000E+00 -0.48811130869E+03  0.16289101302E+04  0.15540577733E+04 0.  0.
        5    1    3    3  502    0 -0.21189638956E+03 -0.63081658772E+03 -0.66452843021E+03  0.94045189765E+03  0.46999998093E+01 0. -1.
       -5    1    3    3    0  502  0.21189638956E+03  0.63081658772E+03  0.17641712152E+03  0.68845823258E+03  0.46999998093E+01 0.  1.
</event>
<event>
 5   0  0.7601145E-04  0.1733493E+04  0.7818609E-02  0.8742489E-01
        1   -1    0    0  501    0  0.00000000000E+00  0.00000000000E+00  0.42802580586E+03  0.42802580589E+03  0.50400001928E-02 0. -1.
       -1   -1    0    0    0  501  0.00000000000E+00  0.00000000000E+00 -0.17551502924E+04  0.17551502924E+04  0.50400001928E-02 0.  1.
    10030    2    1    2    0    0  0.00000000000E+00  0.00000000000E+00 -0.13271244865E+04  0.21831760983E+04  0.17334931420E+04 0.  0.
        4    1    3    3  502    0 -0.29941485947E+03  0.13304273043E+03 -0.16741529637E+04  0.17059130649E+04  0.12699999809E+01 0.  1.
       -4    1    3    3    0  502  0.29941485947E+03 -0.13304273043E+03  0.34702847716E+03  0.47726303340E+03  0.12699999809E+01 0. -1.
</event>
<event>
 5   0  0.7124495E-04  0.1551058E+04  0.7818609E-02  0.8851192E-01
       -1   -1    0    0    0  501  0.00000000000E+00  0.00000000000E+00  0.91517062711E+03  0.91517062713E+03  0.50400001928E-02 0.  1.
        1   -1    0    0  501    0  0.00000000000E+00  0.00000000000E+00 -0.65719448062E+03  0.65719448064E+03  0.50400001928E-02 0. -1.
    10030    2    1    2    0    0  0.00000000000E+00  0.00000000000E+00  0.25797614649E+03  0.15723651078E+04  0.15510578132E+04 0.  0.
        2    1    3    3  502    0  0.58496522650E+03  0.31922606741E+03 -0.27314181884E+03  0.72020556200E+03  0.25500000920E-02 0. -1.
       -2    1    3    3    0  502 -0.58496522650E+03 -0.31922606741E+03  0.53111796534E+03  0.85215954577E+03  0.25500000920E-02 0.  1.
</event>
<event>
 5   0  0.7302027E-04  0.1570154E+04  0.7818609E-02  0.8839096E-01
        1   -1    0    0  501    0  0.00000000000E+00  0.00000000000E+00  0.15809264681E+04  0.15809264681E+04  0.50400001928E-02 0. -1.
       -1   -1    0    0    0  501  0.00000000000E+00  0.00000000000E+00 -0.38986364307E+03  0.38986364310E+03  0.50400001928E-02 0.  1.
    10030    2    1    2    0    0  0.00000000000E+00  0.00000000000E+00  0.11910628250E+04  0.19707901112E+04  0.15701538171E+04 0.  0.
        5    1    3    3  502    0  0.70680939656E+03  0.32721799194E+03  0.71897487814E+03  0.10599991051E+04  0.46999998093E+01 0.  1.
       -5    1    3    3    0  502 -0.70680939656E+03 -0.32721799194E+03  0.47208794689E+03  0.91079100617E+03  0.46999998093E+01 0. -1.
</event>
<event>
 5   0  0.1414751E-03  0.1553438E+04  0.7818609E-02  0.8849675E-01
        2   -1    0    0  501    0  0.00000000000E+00  0.00000000000E+00  0.11442397370E+04  0.11442397370E+04  0.25500000920E-02 0.  1.
       -2   -1    0    0    0  501  0.00000000000E+00  0.00000000000E+00 -0.52724322475E+03  0.52724322476E+03  0.25500000920E-02 0. -1.
    10030    2    1    2    0    0  0.00000000000E+00  0.00000000000E+00  0.61699651228E+03  0.16714829618E+04  0.15534383140E+04 0.  0.
        2    1    3    3  502    0  0.20420937635E+03  0.38603766226E+03 -0.38262373610E+03  0.58062679021E+03  0.25500000920E-02 0. -1.
       -2    1    3    3    0  502 -0.20420937635E+03 -0.38603766226E+03  0.99962024838E+03  0.10908561716E+04  0.25500000920E-02 0.  1.
</event>
<event>
 5   0  0.1414796E-03  0.1542612E+04  0.7818609E-02  0.8856601E-01
        2   -1    0    0  501    0  0.00000000000E+00  0.00000000000E+00  0.98524381870E+03  0.98524381870E+03  0.25500000920E-02 0.  1.
       -2   -1    0    0    0  501  0.00000000000E+00  0.00000000000E+00 -0.60382276972E+03  0.60382276973E+03  0.25500000920E-02 0. -1.
    10030    2    1    2    0    0  0.00000000000E+00  0.00000000000E+00  0.38142104898E+03  0.15890665884E+04  0.15426116186E+04 0.  0.
        4    1    3    3  502    0  0.32533729747E+03 -0.10770177103E+03 -0.52108816356E+03  0.62368142165E+03  0.12699999809E+01 0. -1.
       -4    1    3    3    0  502 -0.32533729747E+03  0.10770177103E+03  0.90250921254E+03  0.96538516678E+03  0.12699999809E+01 0.  1.
</event>
<event>
 5   0  0.1354766E-03  0.1584059E+04  0.7818609E-02  0.8830401E-01
        2   -1    0    0  501    0  0.00000000000E+00  0.00000000000E+00  0.89262592184E+03  0.89262592184E+03  0.25500000920E-02 0.  1.
       -2   -1    0    0    0  501  0.00000000000E+00  0.00000000000E+00 -0.70277036314E+03  0.70277036314E+03  0.25500000920E-02 0. -1.
    10030    2    1    2    0    0  0.00000000000E+00  0.00000000000E+00  0.18985555870E+03  0.15953962850E+04  0.15840593969E+04 0.  0.
        3    1    3    3  502    0  0.26131938083E+03 -0.11392246334E+03  0.83916482943E+03  0.88626393789E+03  0.10100000352E+00 0.  1.
       -3    1    3    3    0  502 -0.26131938083E+03  0.11392246334E+03 -0.64930927073E+03  0.70913234710E+03  0.10100000352E+00 0. -1.
</event>
<event>
 5   0  0.7633213E-04  0.1547649E+04  0.7818609E-02  0.8853371E-01
       -1   -1    0    0    0  501  0.00000000000E+00  0.00000000000E+00  0.14487962048E+04  0.14487962048E+04  0.50400001928E-02 0. -1.
        1   -1    0    0  501    0  0.00000000000E+00  0.00000000000E+00 -0.41331172963E+03  0.41331172966E+03  0.50400001928E-02 0.  1.
    10030    2    1    2    0    0  0.00000000000E+00  0.00000000000E+00  0.10354844752E+04  0.18621079345E+04  0.15476491403E+04 0.  0.
        1    1    3    3  502    0  0.37737536677E+03  0.67486342847E+03  0.48062538487E+03  0.91041395812E+03  0.50400001928E-02 0.  1.
       -1    1    3    3    0  502 -0.37737536677E+03 -0.67486342847E+03  0.55485909032E+03  0.95169397637E+03  0.50400001928E-02 0. -1.
</event>
<event>
 5   0  0.7499834E-04  0.1490466E+04  0.7818609E-02  0.8890818E-01
        1   -1    0    0  501    0  0.00000000000E+00  0.00000000000E+00  0.14484699287E+04  0.14484699287E+04  0.50400001928E-02 0.  1.
       -1   -1    0    0    0  501  0.00000000000E+00  0.00000000000E+00 -0.38342009881E+03  0.38342009884E+03  0.50400001928E-02 0. -1.
    10030    2    1    2    0    0  0.00000000000E+00  0.00000000000E+00  0.10650498298E+04  0.18318900275E+04  0.14904663474E+04 0.  0.
        3    1    3    3  502    0 -0.33384582730E+02  0.73670864253E+03  0.66443310713E+03  0.99263564231E+03  0.10100000352E+00 0.  1.
       -3    1    3    3    0  502  0.33384582730E+02 -0.73670864253E+03  0.40061672271E+03  0.83925438519E+03  0.10100000352E+00 0. -1.
</event>
<event>
 5   0  0.7302027E-04  0.1569235E+04  0.7818609E-02  0.8839674E-01
        1   -1    0    0  501    0  0.00000000000E+00  0.00000000000E+00  0.77365973679E+03  0.77365973681E+03  0.50400001928E-02 0.  1.
       -1   -1    0    0    0  501  0.00000000000E+00  0.00000000000E+00 -0.79573056496E+03  0.79573056497E+03  0.50400001928E-02 0. -1.
    10030    2    1    2    0    0  0.00000000000E+00  0.00000000000E+00 -0.22070828169E+02  0.15693903018E+04  0.15692350996E+04 0.  0.
        5    1    3    3  502    0 -0.52341194696E+03 -0.22583236978E+03 -0.55020123057E+03  0.79227760892E+03  0.46999998093E+01 0. -1.
       -5    1    3    3    0  502  0.52341194696E+03  0.22583236978E+03  0.52813040241E+03  0.77711269286E+03  0.46999998093E+01 0.  1.
</event>
<event>
 5   0  0.7302027E-04  0.1652064E+04  0.7818609E-02  0.8789187E-01
        1   -1    0    0  501    0  0.00000000000E+00  0.00000000000E+00  0.54624499584E+03  0.54624499586E+03  0.50400001928E-02 0.  1.
       -1   -1    0    0    0  501  0.00000000000E+00  0.00000000000E+00 -0.12491253782E+04  0.12491253782E+04  0.50400001928E-02 0. -1.
    10030    2    1    2    0    0  0.00000000000E+00  0.00000000000E+00 -0.70288038237E+03  0.17953703741E+04  0.16520635424E+04 0.  0.
        5    1    3    3  502    0 -0.46800156906E+03  0.61172458522E+03 -0.67578181595E+03  0.10246636470E+04  0.46999998093E+01 0. -1.
       -5    1    3    3    0  502  0.46800156906E+03 -0.61172458522E+03 -0.27098566420E+02  0.77070672704E+03  0.46999998093E+01 0.  1.
</event>
<event>
 5   0  0.1414751E-03  0.1606679E+04  0.7818609E-02  0.8816455E-01
       -2   -1    0    0    0  501  0.00000000000E+00  0.00000000000E+00  0.29749251770E+03  0.29749251771E+03  0.25500000920E-02 0.  1.
        2   -1    0    0  501    0  0.00000000000E+00  0.00000000000E+00 -0.21693127314E+04  0.21693127314E+04  0.25500000920E-02 0. -1.
    10030    2    1    2    0    0  0.00000000000E+00  0.00000000000E+00 -0.18718202137E+04  0.24668052491E+04  0.16066789426E+04 0.  0.
        2    1    3    3  502    0  0.39172484719E+03  0.54875603612E+03 -0.16065107213E+04  0.17422566518E+04  0.25500000920E-02 0. -1.
       -2    1    3    3    0  502 -0.39172484719E+03 -0.54875603612E+03 -0.26530949238E+03  0.72454859729E+03  0.25500000920E-02 0.  1.
</event>
<event>
 5   0  0.1414751E-03  0.1435726E+04  0.7818609E-02  0.8928356E-01
        2   -1    0    0  501    0  0.00000000000E+00  0.00000000000E+00  0.41031000332E+03  0.41031000333E+03  0.25500000920E-02 0.  1.
       -2   -1    0    0    0  501  0.00000000000E+00  0.00000000000E+00 -0.12559465318E+04  0.12559465318E+04  0.25500000920E-02 0. -1.
    10030    2    1    2    0    0  0.00000000000E+00  0.00000000000E+00 -0.84563652847E+03  0.16662565351E+04  0.14357261934E+04 0.  0.
        2    1    3    3  502    0  0.53808208149E+03 -0.37543191951E+03 -0.76087209316E+03  0.10046928858E+04  0.25500000920E-02 0.  1.
       -2    1    3    3    0  502 -0.53808208149E+03  0.37543191951E+03 -0.84764435309E+02  0.66156364932E+03  0.25500000920E-02 0. -1.
</event>
<event>
 5   0  0.7499834E-04  0.1236160E+04  0.7818609E-02  0.9081782E-01
        1   -1    0    0  501    0  0.00000000000E+00  0.00000000000E+00  0.68835534312E+03  0.68835534314E+03  0.50400001928E-02 0. -1.
       -1   -1    0    0    0  501  0.00000000000E+00  0.00000000000E+00 -0.55497881287E+03  0.55497881290E+03  0.50400001928E-02 0.  1.
    10030    2    1    2    0    0  0.00000000000E+00  0.00000000000E+00  0.13337653024E+03  0.12433341560E+04  0.12361595871E+04 0.  0.
        3    1    3    3  502    0  0.19330638134E+03  0.17513676173E+03 -0.49690521536E+03  0.56120855805E+03  0.10100000352E+00 0.  1.
       -3    1    3    3    0  502 -0.19330638134E+03 -0.17513676173E+03  0.63028174561E+03  0.68212559798E+03  0.10100000352E+00 0. -1.
</event>
<event>
 5   0  0.7633213E-04  0.1518398E+04  0.7818609E-02  0.8872310E-01
        1   -1    0    0  501    0  0.00000000000E+00  0.00000000000E+00  0.10451314137E+04  0.10451314137E+04  0.50400001928E-02 0.  1.
       -1   -1    0    0    0  501  0.00000000000E+00  0.00000000000E+00 -0.55149362185E+03  0.55149362188E+03  0.50400001928E-02 0. -1.
    10030    2    1    2    0    0  0.00000000000E+00  0.00000000000E+00  0.49363779183E+03  0.15966250356E+04  0.15183982464E+04 0.  0.
        1    1    3    3  502    0  0.89921002337E+02 -0.19969049746E+03  0.10111954705E+04  0.10346392420E+04  0.50400001928E-02 0.  1.
       -1    1    3    3    0  502 -0.89921002337E+02  0.19969049746E+03 -0.51755767867E+03  0.56198579360E+03  0.50400001928E-02 0. -1.
</event>
<event>
 5   0  0.1354766E-03  0.1615302E+04  0.7818609E-02  0.8811202E-01
       -2   -1    0    0    0  501  0.00000000000E+00  0.00000000000E+00  0.71877037375E+03  0.71877037376E+03  0.25500000920E-02 0.  1.
        2   -1    0    0  501    0  0.00000000000E+00  0.00000000000E+00 -0.90752184342E+03  0.90752184343E+03  0.25500000920E-02 0. -1.
    10030    2    1    2    0    0  0.00000000000E+00  0.00000000000E+00 -0.18875146967E+03  0.16262922172E+04  0.16153015998E+04 0.  0.
        3    1    3    3  502    0  0.47524774360E+03 -0.62750450263E+03  0.87623380740E+02  0.79202284416E+03  0.10100000352E+00 0.  1.
       -3    1    3    3    0  502 -0.47524774360E+03  0.62750450263E+03 -0.27637485041E+03  0.83426937302E+03  0.10100000352E+00 0. -1.
</event>
<event>
 5   0  0.1339162E-03  0.1578761E+04  0.7818609E-02  0.8833703E-01
       -2   -1    0    0    0  501  0.00000000000E+00  0.00000000000E+00  0.36242262395E+03  0.36242262396E+03  0.25500000920E-02 0. -1.
        2   -1    0    0  501    0  0.00000000000E+00  0.00000000000E+00 -0.17193227369E+04  0.17193227369E+04  0.25500000920E-02 0.  1.
    10030    2    1    2    0    0  0.00000000000E+00  0.00000000000E+00 -0.13569001129E+04  0.20817453609E+04  0.15787608530E+04 0.  0.
        5    1    3    3  502    0  0.72002108447E+02  0.15349823627E+03  0.33811134564E+03  0.37826893106E+03  0.46999998093E+01 0. -1.
       -5    1    3    3    0  502 -0.72002108447E+02 -0.15349823627E+03 -0.16950114586E+04  0.17034764298E+04  0.46999998093E+01 0.  1.
</event>
<event>
 5   0  0.7124495E-04  0.1606767E+04  0.7818609E-02  0.8816401E-01
        1   -1    0    0  501    0  0.00000000000E+00  0.00000000000E+00  0.13333761258E+04  0.13333761258E+04  0.50400001928E-02 0.  1.
       -1   -1    0    0    0  501  0.00000000000E+00  0.00000000000E+00 -0.48405350889E+03  0.48405350891E+03  0.50400001928E-02 0. -1.
    10030    2    1    2    0    0  0.00000000000E+00  0.00000000000E+00  0.84932261694E+03  0.18174296347E+04  0.16067674286E+04 0.  0.
        2    1    3    3  502    0 -0.32313050916E+03  0.73116168936E+03  0.33406905062E+03  0.86637917365E+03  0.25500000920E-02 0. -1.
       -2    1    3    3    0  502  0.32313050916E+03 -0.73116168936E+03  0.51525356631E+03  0.95105046109E+03  0.25500000920E-02 0.  1.
</event>
<event>
 5   0  0.7124495E-04  0.1546117E+04  0.7818609E-02  0.8854352E-01
        1   -1    0    0  501    0  0.00000000000E+00  0.00000000000E+00  0.20696137380E+04  0.20696137380E+04  0.50400001928E-02 0.  1.
       -1   -1    0    0    0  501  0.00000000000E+00  0.00000000000E+00 -0.28875894349E+03  0.28875894353E+03  0.50400001928E-02 0. -1.
    10030    2    1    2    0    0  0.00000000000E+00  0.00000000000E+00  0.17808547945E+04  0.23583726815E+04  0.15461170415E+04 0.  0.
        2    1    3    3  502    0 -0.26383751820E+03 -0.71336199554E+03  0.11013671066E+04  0.13384711713E+04  0.25500000920E-02 0.  1.
       -2    1    3    3    0  502  0.26383751820E+03  0.71336199554E+03  0.67948768784E+03  0.10199015103E+04  0.25500000920E-02 0. -1.
</event>
<event>
 5   0  0.7499834E-04  0.1574593E+04  0.7818609E-02  0.8836311E-01
        1   -1    0    0  501    0  0.00000000000E+00  0.00000000000E+00  0.65482897229E+03  0.65482897231E+03  0.50400001928E-02 0. -1.
       -1   -1    0    0    0  501  0.00000000000E+00  0.00000000000E+00 -0.94656078982E+03  0.94656078983E+03  0.50400001928E-02 0.  1.
    10030    2    1    2    0    0  0.00000000000E+00  0.00000000000E+00 -0.29173181753E+03  0.16013897621E+04  0.15745925559E+04 0.  0.
        3    1    3    3  502    0  0.45942407430E+03  0.25693317806E+03 -0.74127815598E+03  0.90916360066E+03  0.10100000352E+00 0.  1.
       -3    1    3    3    0  502 -0.45942407430E+03 -0.25693317806E+03  0.44954633845E+03  0.69222616149E+03  0.10100000352E+00 0. -1.
</event>
<event>
 5   0  0.1354766E-03  0.1616007E+04  0.7818609E-02  0.8810774E-01
       -2   -1    0    0    0  501  0.00000000000E+00  0.00000000000E+00  0.56649777033E+03  0.56649777034E+03  0.25500000920E-02 0. -1.
        2   -1    0    0  501    0  0.00000000000E+00  0.00000000000E+00 -0.11524667058E+04  0.11524667058E+04  0.25500000920E-02 0.  1.
    10030    2    1    2    0    0  0.00000000000E+00  0.00000000000E+00 -0.58596893544E+03  0.17189644761E+04  0.16160072020E+04 0.  0.
        3    1    3    3  502    0 -0.13305297200E+03 -0.95945577335E+02  0.54859920977E+03  0.57259911834E+03  0.10100000352E+00 0. -1.
       -3    1    3    3    0  502  0.13305297200E+03  0.95945577335E+02 -0.11345681452E+04  0.11463653578E+04  0.10100000352E+00 0.  1.
</event>
<event>
 5   0  0.7302027E-04  0.1376066E+04  0.7818609E-02  0.8971327E-01
        1   -1    0    0  501    0  0.00000000000E+00  0.00000000000E+00  0.75649223145E+03  0.75649223146E+03  0.50400001928E-02 0.  1.
       -1   -1    0    0    0  501  0.00000000000E+00  0.00000000000E+00 -0.62576943723E+03  0.62576943725E+03  0.50400001928E-02 0. -1.
    10030    2    1    2    0    0  0.00000000000E+00  0.00000000000E+00  0.13072279422E+03  0.13822616687E+04  0.13760664489E+04 0.  0.
        5    1    3    3  502    0  0.39415205318E+02 -0.21713252248E+03 -0.58923768283E+03  0.62922430626E+03  0.46999998093E+01 0. -1.
       -5    1    3    3    0  502 -0.39415205318E+02  0.21713252248E+03  0.71996047705E+03  0.75303736245E+03  0.46999998093E+01 0.  1.
</event>
<event>
 5   0  0.7124495E-04  0.1581221E+04  0.7818609E-02  0.8832169E-01
       -1   -1    0    0    0  501  0.00000000000E+00  0.00000000000E+00  0.84887561141E+03  0.84887561143E+03  0.50400001928E-02 0. -1.
        1   -1    0    0  501    0  0.00000000000E+00  0.00000000000E+00 -0.73634437401E+03  0.73634437403E+03  0.50400001928E-02 0.  1.
    10030    2    1    2    0    0  0.00000000000E+00  0.00000000000E+00  0.11253123740E+03  0.15852199855E+04  0.15812207698E+04 0.  0.
        2    1    3    3  502    0  0.32974455847E+03  0.31988766414E+03  0.70132533472E+03  0.83840134579E+03  0.25500000920E-02 0. -1.
       -2    1    3    3    0  502 -0.32974455847E+03 -0.31988766414E+03 -0.58879409732E+03  0.74681863966E+03  0.25500000920E-02 0.  1.
</event>
<event>
 5   0  0.1354766E-03  0.1535546E+04  0.7818609E-02  0.8861153E-01
       -2   -1    0    0    0  501  0.00000000000E+00  0.00000000000E+00  0.26757758233E+03  0.26757758234E+03  0.25500000920E-02 0. -1.
        2   -1    0    0  501    0  0.00000000000E+00  0.00000000000E+00 -0.22030075808E+04  0.22030075808E+04  0.25500000920E-02 0.  1.
    10030    2    1    2    0    0  0.00000000000E+00  0.00000000000E+00 -0.19354299984E+04  0.24705851631E+04  0.15355460818E+04 0.  0.
        3    1    3    3  502    0  0.46569664613E+03 -0.44695977413E+03 -0.16365905418E+04  0.17592825292E+04  0.10100000352E+00 0.  1.
       -3    1    3    3    0  502 -0.46569664613E+03  0.44695977413E+03 -0.29883945662E+03  0.71130263387E+03  0.10100000352E+00 0. -1.
</event>
<event>
 5   0  0.1339162E-03  0.1577239E+04  0.7818609E-02  0.8834654E-01
        2   -1    0    0  501    0  0.00000000000E+00  0.00000000000E+00  0.46243183152E+03  0.46243183153E+03  0.25500000920E-02 0. -1.
       -2   -1    0    0    0  501  0.00000000000E+00  0.00000000000E+00 -0.13448921641E+04  0.13448921642E+04  0.25500000920E-02 0.  1.
    10030    2    1    2    0    0  0.00000000000E+00  0.00000000000E+00 -0.88246033263E+03  0.18073239957E+04  0.15772392928E+04 0.  0.
        5    1    3    3  502    0 -0.34008665691E+03 -0.68255967904E+03 -0.67141254482E+03  0.10160529243E+04  0.46999998093E+01 0. -1.
       -5    1    3    3    0  502  0.34008665691E+03  0.68255967904E+03 -0.21104778781E+03  0.79127107137E+03  0.46999998093E+01 0.  1.
</event>
<event>
 5   0  0.1339162E-03  0.1626394E+04  0.7818609E-02  0.8804495E-01
        2   -1    0    0  501    0  0.00000000000E+00  0.00000000000E+00  0.13766799577E+04  0.13766799577E+04  0.25500000920E-02 0.  1.
       -2   -1    0    0    0  501  0.00000000000E+00  0.00000000000E+00 -0.48035095780E+03  0.48035095780E+03  0.25500000920E-02 0. -1.
    10030    2    1    2    0    0  0.00000000000E+00  0.00000000000E+00  0.89632899992E+03  0.18570309155E+04  0.16263942158E+04 0.  0.
        5    1    3    3  502    0  0.41232218098E+03 -0.42095233673E+02 -0.35068209178E+03  0.54293794224E+03  0.46999998093E+01 0. -1.
       -5    1    3    3    0  502 -0.41232218098E+03  0.42095233673E+02  0.12470110917E+04  0.13140929733E+04  0.46999998093E+01 0.  1.
</event>
<event>
 5   0  0.1339162E-03  0.1616815E+04  0.7818609E-02  0.8810284E-01
       -2   -1    0    0    0  501  0.00000000000E+00  0.00000000000E+00  0.72083589002E+03  0.72083589003E+03  0.25500000920E-02 0. -1.
        2   -1    0    0  501    0  0.00000000000E+00  0.00000000000E+00 -0.90661826472E+03  0.90661826472E+03  0.25500000920E-02 0.  1.
    10030    2    1    2    0    0  0.00000000000E+00  0.00000000000E+00 -0.18578237470E+03  0.16274541547E+04  0.16168153683E+04 0.  0.
        5    1    3    3  502    0 -0.50084489128E+02  0.28363990513E+03 -0.85320294064E+03  0.90052062706E+03  0.46999998093E+01 0.  1.
       -5    1    3    3    0  502  0.50084489128E+02 -0.28363990513E+03  0.66742056595E+03  0.72693352769E+03  0.46999998093E+01 0. -1.
</event>
<event>
 5   0  0.1414751E-03  0.1621609E+04  0.7818609E-02  0.8807381E-01
       -2   -1    0    0    0  501  0.00000000000E+00  0.00000000000E+00  0.56878036314E+03  0.56878036314E+03  0.25500000920E-02 0.  1.
        2   -1    0    0  501    0  0.00000000000E+00  0.00000000000E+00 -0.11558137753E+04  0.11558137753E+04  0.25500000920E-02 0. -1.
    10030    2    1    2    0    0  0.00000000000E+00  0.00000000000E+00 -0.58703341212E+03  0.17245941384E+04  0.16216092980E+04 0.  0.
        2    1    3    3  502    0  0.17839636780E+03  0.48222518374E+03 -0.96025873564E+03  0.10892489299E+04  0.25500000920E-02 0. -1.
       -2    1    3    3    0  502 -0.17839636780E+03 -0.48222518374E+03  0.37322532352E+03  0.63534520852E+03  0.25500000920E-02 0.  1.
</event>
<event>
 5   0  0.1414796E-03  0.1621706E+04  0.7818609E-02  0.8807323E-01
       -2   -1    0    0    0  501  0.00000000000E+00  0.00000000000E+00  0.65930220725E+03  0.65930220725E+03  0.25500000920E-02 0.  1.
        2   -1    0    0  501    0  0.00000000000E+00  0.00000000000E+00 -0.99724021199E+03  0.99724021200E+03  0.25500000920E-02 0. -1.
    10030    2    1    2    0    0  0.00000000000E+00  0.00000000000E+00 -0.33793800474E+03  0.16565424192E+04  0.16217061052E+04 0.  0.
        4    1    3    3  502    0  0.69785814966E+03 -0.22313308098E+03 -0.52383149593E+03  0.90066387620E+03  0.12699999809E+01 0. -1.
       -4    1    3    3    0  502 -0.69785814966E+03  0.22313308098E+03  0.18589349119E+03  0.75587854304E+03  0.12699999809E+01 0.  1.
</event>
<event>
 5   0  0.1339162E-03  0.1571281E+04  0.7818609E-02  0.8838388E-01
       -2   -1    0    0    0  501  0.00000000000E+00  0.00000000000E+00  0.71467853367E+03  0.71467853368E+03  0.25500000920E-02 0.  1.
        2   -1    0    0  501    0  0.00000000000E+00  0.00000000000E+00 -0.86364792183E+03  0.86364792183E+03  0.25500000920E-02 0. -1.
    10030    2    1    2    0    0  0.00000000000E+00  0.00000000000E+00 -0.14896938816E+03  0.15783264555E+04  0.15712805356E+04 0.  0.
        5    1    3    3  502    0  0.15119725120E+03  0.75243178513E+03 -0.24314934602E+03  0.80508253894E+03  0.46999998093E+01 0. -1.
       -5    1    3    3    0  502 -0.15119725120E+03 -0.75243178513E+03  0.94179957862E+02  0.77324391656E+03  0.46999998093E+01 0.  1.
</event>
<event>
 5   0  0.1339162E-03  0.1087855E+04  0.7818609E-02  0.9217111E-01
       -2   -1    0    0    0  501  0.00000000000E+00  0.00000000000E+00  0.31333710389E+03  0.31333710390E+03  0.25500000920E-02 0.  1.
        2   -1    0    0  501    0  0.00000000000E+00  0.00000000000E+00 -0.94421360760E+03  0.94421360761E+03  0.25500000920E-02 0. -1.
    10030    2    1    2    0    0  0.00000000000E+00  0.00000000000E+00 -0.63087650371E+03  0.12575507115E+04  0.10878550589E+04 0.  0.
        5    1    3    3  502    0 -0.76316946014E+02 -0.35992282594E+03 -0.77850805255E+03  0.86108396499E+03  0.46999998093E+01 0. -1.
       -5    1    3    3    0  502  0.76316946014E+02  0.35992282594E+03  0.14763154884E+03  0.39646674652E+03  0.46999998093E+01 0.  1.
</event>
<event>
 5   0  0.1375777E-03  0.1584161E+04  0.7818609E-02  0.8830338E-01
        2   -1    0    0  501    0  0.00000000000E+00  0.00000000000E+00  0.10471435414E+04  0.10471435414E+04  0.25500000920E-02 0.  1.
       -2   -1    0    0    0  501  0.00000000000E+00  0.00000000000E+00 -0.59914573459E+03  0.59914573460E+03  0.25500000920E-02 0. -1.
    10030    2    1    2    0    0  0.00000000000E+00  0.00000000000E+00  0.44799780681E+03  0.16462892760E+04  0.15841610857E+04 0.  0.
        1    1    3    3  502    0  0.65660708876E+03 -0.30531705054E+03 -0.10958891908E+03  0.73236678077E+03  0.50400001928E-02 0.  1.
       -1    1    3    3    0  502 -0.65660708876E+03  0.30531705054E+03  0.55758672589E+03  0.91392249522E+03  0.50400001928E-02 0. -1.
</event>
<event>
 5   0  0.5095750E-04  0.1574723E+04  0.7818609E-02  0.8836229E-01
       -3   -1    0    0    0  501  0.00000000000E+00  0.00000000000E+00  0.39479138460E+03  0.39479139752E+03  0.10100000352E+00 0. -1.
        3   -1    0    0  501    0  0.00000000000E+00  0.00000000000E+00 -0.15702935955E+04  0.15702935988E+04  0.10100000352E+00 0.  1.
    10030    2    1    2    0    0  0.00000000000E+00  0.00000000000E+00 -0.11755022109E+04  0.19650849963E+04  0.15747233391E+04 0.  0.
        5    1    3    3  502    0  0.26189508587E+03  0.82195343587E+02  0.33313179676E+03  0.43167579793E+03  0.46999998093E+01 0. -1.
       -5    1    3    3    0  502 -0.26189508587E+03 -0.82195343587E+02 -0.15086340077E+04  0.15334091984E+04  0.46999998093E+01 0.  1.
</event>
<event>
 5   0  0.1375777E-03  0.1573395E+04  0.7818609E-02  0.8837061E-01
       -2   -1    0    0    0  501  0.00000000000E+00  0.00000000000E+00  0.81467120992E+03  0.81467120992E+03  0.25500000920E-02 0. -1.
        2   -1    0    0  501    0  0.00000000000E+00  0.00000000000E+00 -0.75968473534E+03  0.75968473535E+03  0.25500000920E-02 0.  1.
    10030    2    1    2    0    0  0.00000000000E+00  0.00000000000E+00  0.54986474573E+02  0.15743559453E+04  0.15733954144E+04 0.  0.
        1    1    3    3  502    0 -0.67147905591E+03 -0.40921000732E+03  0.38921921210E+01  0.78635367475E+03  0.50400001928E-02 0. -1.
       -1    1    3    3    0  502  0.67147905591E+03  0.40921000732E+03  0.51094282452E+02  0.78800227052E+03  0.50400001928E-02 0.  1.
</event>
<event>
 5   0  0.7124495E-04  0.1555224E+04  0.7818609E-02  0.8848538E-01
       -1   -1    0    0    0  501  0.00000000000E+00  0.00000000000E+00  0.52048545074E+03  0.52048545076E+03  0.50400001928E-02 0.  1.
        1   -1    0    0  501    0  0.00000000000E+00  0.00000000000E+00 -0.11617624363E+04  0.11617624363E+04  0.50400001928E-02 0. -1.
    10030    2    1    2    0    0  0.00000000000E+00  0.00000000000E+00 -0.64127698552E+03  0.16822478870E+04  0.15552240293E+04 0.  0.
        2    1    3    3  502    0 -0.14709145308E+03 -0.12310015570E+03 -0.11357733949E+04  0.11518553505E+04  0.25500000920E-02 0. -1.
       -2    1    3    3    0  502  0.14709145308E+03  0.12310015570E+03  0.49449640939E+03  0.53039253653E+03  0.25500000920E-02 0.  1.
</event>
<event>
 5   0  0.1354766E-03  0.1579411E+04  0.7818609E-02  0.8833298E-01
       -2   -1    0    0    0  501  0.00000000000E+00  0.00000000000E+00  0.45844860838E+03  0.45844860839E+03  0.25500000920E-02 0.  1.
        2   -1    0    0  501    0  0.00000000000E+00  0.00000000000E+00 -0.13603151063E+04  0.13603151063E+04  0.25500000920E-02 0. -1.
    10030    2    1    2    0    0  0.00000000000E+00  0.00000000000E+00 -0.90186649795E+03  0.18187637147E+04  0.15794107350E+04 0.  0.
        3    1    3    3  502    0 -0.61511675016E+03  0.48356693054E+03 -0.57404078527E+03  0.97042692975E+03  0.10100000352E+00 0.  1.
       -3    1    3    3    0  502  0.61511675016E+03 -0.48356693054E+03 -0.32782571268E+03  0.84833678497E+03  0.10100000352E+00 0. -1.
</event>
<event>
 5   0  0.7601145E-04  0.1608094E+04  0.7818609E-02  0.8815591E-01
       -1   -1    0    0    0  501  0.00000000000E+00  0.00000000000E+00  0.68291555852E+03  0.68291555854E+03  0.50400001928E-02 0.  1.
        1   -1    0    0  501    0  0.00000000000E+00  0.00000000000E+00 -0.94666423794E+03  0.94666423795E+03  0.50400001928E-02 0. -1.
    10030    2    1    2    0    0  0.00000000000E+00  0.00000000000E+00 -0.26374867942E+03  0.16295797965E+04  0.16080941972E+04 0.  0.
        4    1    3    3  502    0 -0.64844570267E+03 -0.11558891983E+03  0.33542404907E+03  0.73915731296E+03  0.12699999809E+01 0.  1.
       -4    1    3    3    0  502  0.64844570267E+03  0.11558891983E+03 -0.59917272849E+03  0.89042248353E+03  0.12699999809E+01 0. -1.
</event>
<event>
 5   0  0.7633213E-04  0.1614002E+04  0.7818609E-02  0.8811992E-01
        1   -1    0    0  501    0  0.00000000000E+00  0.00000000000E+00  0.17404271081E+04  0.17404271081E+04  0.50400001928E-02 0.  1.
       -1   -1    0    0    0  501  0.00000000000E+00  0.00000000000E+00 -0.37419029638E+03  0.37419029642E+03  0.50400001928E-02 0. -1.
    10030    2    1    2    0    0  0.00000000000E+00  0.00000000000E+00  0.13662368117E+04  0.21146174045E+04  0.16140023983E+04 0.  0.
        1    1    3    3  502    0 -0.65449331303E+03  0.25635812547E+03  0.12025308907E+04  0.13928968118E+04  0.50400001928E-02 0.  1.
       -1    1    3    3    0  502  0.65449331303E+03 -0.25635812547E+03  0.16370592100E+03  0.72172059268E+03  0.50400001928E-02 0. -1.
</event>
<event>
 5   0  0.7302027E-04  0.1575667E+04  0.7818609E-02  0.8835638E-01
       -1   -1    0    0    0  501  0.00000000000E+00  0.00000000000E+00  0.24241680052E+03  0.24241680057E+03  0.50400001928E-02 0.  1.
        1   -1    0    0  501    0  0.00000000000E+00  0.00000000000E+00 -0.25603895819E+04  0.25603895819E+04  0.50400001928E-02 0. -1.
    10030    2    1    2    0    0  0.00000000000E+00  0.00000000000E+00 -0.23179727814E+04  0.28028063825E+04  0.15756667803E+04 0.  0.
        5    1    3    3  502    0  0.66729884716E+03 -0.41863626771E+03 -0.11780855509E+04  0.14171985504E+04  0.46999998093E+01 0.  1.
       -5    1    3    3    0  502 -0.66729884716E+03  0.41863626771E+03 -0.11398872305E+04  0.13856078321E+04  0.46999998093E+01 0. -1.
</event>
<event>
 5   0  0.1414796E-03  0.1634728E+04  0.7818609E-02  0.8799493E-01
        2   -1    0    0  501    0  0.00000000000E+00  0.00000000000E+00  0.87272892812E+03  0.87272892812E+03  0.25500000920E-02 0.  1.
       -2   -1    0    0    0  501  0.00000000000E+00  0.00000000000E+00 -0.76551104144E+03  0.76551104144E+03  0.25500000920E-02 0. -1.
    10030    2    1    2    0    0  0.00000000000E+00  0.00000000000E+00  0.10721788668E+03  0.16382399696E+04  0.16347276601E+04 0.  0.
        4    1    3    3  502    0  0.49114302394E+03  0.64479115278E+03 -0.51997341979E+02  0.81220837052E+03  0.12699999809E+01 0.  1.
       -4    1    3    3    0  502 -0.49114302394E+03 -0.64479115278E+03  0.15921522866E+03  0.82603159904E+03  0.12699999809E+01 0. -1.
</event>
<event>
 5   0  0.7124495E-04  0.1624741E+04  0.7818609E-02  0.8805491E-01
        1   -1    0    0  501    0  0.00000000000E+00  0.00000000000E+00  0.66693101111E+03  0.66693101113E+03  0.50400001928E-02 0.  1.
       -1   -1    0    0    0  501  0.00000000000E+00  0.00000000000E+00 -0.98952670835E+03  0.98952670837E+03  0.50400001928E-02 0. -1.
    10030    2    1    2    0    0  0.00000000000E+00  0.00000000000E+00 -0.32259569724E+03  0.16564577195E+04  0.16247412694E+04 0.  0.
        2    1    3    3  502    0  0.77407150516E+03 -0.21595081369E+03 -0.40130889609E+02  0.80463155379E+03  0.25500000920E-02 0.  1.
       -2    1    3    3    0  502 -0.77407150516E+03  0.21595081369E+03 -0.28246480763E+03  0.85182616571E+03  0.25500000920E-02 0. -1.
</event>
<event>
 5   0  0.1414751E-03  0.1657528E+04  0.7818609E-02  0.8785965E-01
       -2   -1    0    0    0  501  0.00000000000E+00  0.00000000000E+00  0.35768240956E+03  0.35768240957E+03  0.25500000920E-02 0.  1.
        2   -1    0    0  501    0  0.00000000000E+00  0.00000000000E+00 -0.19202793720E+04  0.19202793720E+04  0.25500000920E-02 0. -1.
    10030    2    1    2    0    0  0.00000000000E+00  0.00000000000E+00 -0.15625969624E+04  0.22779617815E+04  0.16575284647E+04 0.  0.
        2    1    3    3  502    0  0.66964267862E+03 -0.44438301799E+03 -0.50318245591E+03  0.94820365305E+03  0.25500000920E-02 0. -1.
       -2    1    3    3    0  502 -0.66964267862E+03  0.44438301799E+03 -0.10594145065E+04  0.13297581285E+04  0.25500000920E-02 0.  1.
</event>
<event>
 5   0  0.1375777E-03  0.1573050E+04  0.7818609E-02  0.8837278E-01
       -2   -1    0    0    0  501  0.00000000000E+00  0.00000000000E+00  0.12378960830E+04  0.12378960830E+04  0.25500000920E-02 0.  1.
        2   -1    0    0  501    0  0.00000000000E+00  0.00000000000E+00 -0.49973608665E+03  0.49973608666E+03  0.25500000920E-02 0. -1.
    10030    2    1    2    0    0  0.00000000000E+00  0.00000000000E+00  0.73815999630E+03  0.17376321696E+04  0.15730497057E+04 0.  0.
        1    1    3    3  502    0 -0.10022491516E+03  0.25170233661E+02  0.12303647358E+04  0.12346967067E+04  0.50400001928E-02 0.  1.
       -1    1    3    3    0  502  0.10022491516E+03 -0.25170233661E+02 -0.49220473951E+03  0.50293546296E+03  0.50400001928E-02 0. -1.
</event>
<event>
 5   0  0.1339162E-03  0.1589135E+04  0.7818609E-02  0.8827250E-01
       -2   -1    0    0    0  501  0.00000000000E+00  0.00000000000E+00  0.14431548876E+04  0.14431548876E+04  0.25500000920E-02 0.  1.
        2   -1    0    0  501    0  0.00000000000E+00  0.00000000000E+00 -0.43747064114E+03  0.43747064115E+03  0.25500000920E-02 0. -1.
    10030    2    1    2    0    0  0.00000000000E+00  0.00000000000E+00  0.10056842465E+04  0.18806255288E+04  0.15891354807E+04 0.  0.
        5    1    3    3  502    0  0.30991165907E+03 -0.71350729631E+03  0.31136854565E+03  0.83792025846E+03  0.46999998093E+01 0. -1.
       -5    1    3    3    0  502 -0.30991165907E+03  0.71350729631E+03  0.69431570085E+03  0.10427052703E+04  0.46999998093E+01 0.  1.
</event>
<event>
 5   0  0.7124495E-04  0.1109399E+04  0.7818609E-02  0.9196079E-01
        1   -1    0    0  501    0  0.00000000000E+00  0.00000000000E+00  0.89784657283E+03  0.89784657285E+03  0.50400001928E-02 0.  1.
       -1   -1    0    0    0  501  0.00000000000E+00  0.00000000000E+00 -0.34269960800E+03  0.34269960803E+03  0.50400001928E-02 0. -1.
    10030    2    1    2    0    0  0.00000000000E+00  0.00000000000E+00  0.55514696484E+03  0.12405461809E+04  0.11093992403E+04 0.  0.
        2    1    3    3  502    0 -0.48439664156E+03  0.28502638868E+02 -0.22972841970E+02  0.48577799276E+03  0.25500000920E-02 0.  1.
       -2    1    3    3    0  502  0.48439664156E+03 -0.28502638868E+02  0.57811980681E+03  0.75476818812E+03  0.25500000920E-02 0. -1.
</event>
<event>
 5   0  0.7601145E-04  0.1519813E+04  0.7818609E-02  0.8871384E-01
       -1   -1    0    0    0  501  0.00000000000E+00  0.00000000000E+00  0.28197755978E+03  0.28197755982E+03  0.50400001928E-02 0.  1.
        1   -1    0    0  501    0  0.00000000000E+00  0.00000000000E+00 -0.20478849316E+04  0.20478849316E+04  0.50400001928E-02 0. -1.
    10030    2    1    2    0    0  0.00000000000E+00  0.00000000000E+00 -0.17659073718E+04  0.23298624914E+04  0.15198126145E+04 0.  0.
        4    1    3    3  502    0  0.34309822435E+03  0.66993337404E+03 -0.72269270785E+03  0.10434622562E+04  0.12699999809E+01 0.  1.
       -4    1    3    3    0  502 -0.34309822435E+03 -0.66993337404E+03 -0.10432146640E+04  0.12864002352E+04  0.12699999809E+01 0. -1.
</event>
<event>
 5   0  0.1414796E-03  0.1572143E+04  0.7818609E-02  0.8837847E-01
        2   -1    0    0  501    0  0.00000000000E+00  0.00000000000E+00  0.74841718956E+03  0.74841718956E+03  0.25500000920E-02 0.  1.
       -2   -1    0    0    0  501  0.00000000000E+00  0.00000000000E+00 -0.82562069681E+03  0.82562069681E+03  0.25500000920E-02 0. -1.
    10030    2    1    2    0    0  0.00000000000E+00  0.00000000000E+00 -0.77203507248E+02  0.15740378864E+04  0.15721434051E+04 0.  0.
        4    1    3    3  502    0 -0.11827351543E+03  0.45099341849E+03 -0.67223357764E+03  0.81809735594E+03  0.12699999809E+01 0. -1.
       -4    1    3    3    0  502  0.11827351543E+03 -0.45099341849E+03  0.59503007040E+03  0.75594053043E+03  0.12699999809E+01 0.  1.
</event>
<event>
 5   0  0.1354766E-03  0.1606477E+04  0.7818609E-02  0.8816579E-01
        2   -1    0    0  501    0  0.00000000000E+00  0.00000000000E+00  0.56620507229E+03  0.56620507230E+03  0.25500000920E-02 0.  1.
       -2   -1    0    0    0  501  0.00000000000E+00  0.00000000000E+00 -0.11395018918E+04  0.11395018918E+04  0.25500000920E-02 0. -1.
    10030    2    1    2    0    0  0.00000000000E+00  0.00000000000E+00 -0.57329681948E+03  0.17057069641E+04  0.16064765806E+04 0.  0.
        3    1    3    3  502    0 -0.27325685755E+03  0.14092847227E+03 -0.10745508010E+04  0.11176714986E+04  0.10100000352E+00 0. -1.
       -3    1    3    3    0  502  0.27325685755E+03 -0.14092847227E+03  0.50125398155E+03  0.58803546552E+03  0.10100000352E+00 0.  1.
</event>
<event>
 5   0  0.7633213E-04  0.1671582E+04  0.7818609E-02  0.8777740E-01
       -1   -1    0    0    0  501  0.00000000000E+00  0.00000000000E+00  0.10439878784E+04  0.10439878784E+04  0.50400001928E-02 0.  1.
        1   -1    0    0  501    0  0.00000000000E+00  0.00000000000E+00 -0.66911399368E+03  0.66911399370E+03  0.50400001928E-02 0. -1.
    10030    2    1    2    0    0  0.00000000000E+00  0.00000000000E+00  0.37487388475E+03  0.17131018721E+04  0.16715823626E+04 0.  0.
        1    1    3    3  502    0 -0.56701122793E+03 -0.84506425849E+02  0.81074081279E+03  0.99294699464E+03  0.50400001928E-02 0.  1.
       -1    1    3    3    0  502  0.56701122793E+03  0.84506425849E+02 -0.43586692804E+03  0.72015487750E+03  0.50400001928E-02 0. -1.
</event>
<event>
 5   0  0.7499834E-04  0.1410341E+04  0.7818609E-02  0.8946367E-01
       -1   -1    0    0    0  501  0.00000000000E+00  0.00000000000E+00  0.48937149205E+03  0.48937149207E+03  0.50400001928E-02 0.  1.
        1   -1    0    0  501    0  0.00000000000E+00  0.00000000000E+00 -0.10161306171E+04  0.10161306171E+04  0.50400001928E-02 0. -1.
    10030    2    1    2    0    0  0.00000000000E+00  0.00000000000E+00 -0.52675912508E+03  0.15055021092E+04  0.14103408896E+04 0.  0.
        3    1    3    3  502    0 -0.93484371941E+02 -0.65162900894E+03 -0.53323235040E+03  0.84716966589E+03  0.10100000352E+00 0. -1.
       -3    1    3    3    0  502  0.93484371941E+02  0.65162900894E+03  0.64732253193E+01  0.65833244333E+03  0.10100000352E+00 0.  1.
</event>
<event>
 5   0  0.7124495E-04  0.1612611E+04  0.7818609E-02  0.8812838E-01
       -1   -1    0    0    0  501  0.00000000000E+00  0.00000000000E+00  0.41857038800E+03  0.41857038803E+03  0.50400001928E-02 0.  1.
        1   -1    0    0  501    0  0.00000000000E+00  0.00000000000E+00 -0.15532118835E+04  0.15532118835E+04  0.50400001928E-02 0. -1.
    10030    2    1    2    0    0  0.00000000000E+00  0.00000000000E+00 -0.11346414955E+04  0.19717822715E+04  0.16126109274E+04 0.  0.
        2    1    3    3  502    0 -0.60127354815E+03  0.48519027228E+03 -0.84931506498E+03  0.11481618177E+04  0.25500000920E-02 0. -1.
       -2    1    3    3    0  502  0.60127354815E+03 -0.48519027228E+03 -0.28532643052E+03  0.82362045384E+03  0.25500000920E-02 0.  1.
</event>
<event>
 5   0  0.7124495E-04  0.1564898E+04  0.7818609E-02  0.8842407E-01
        1   -1    0    0  501    0  0.00000000000E+00  0.00000000000E+00  0.32652339043E+04  0.32652339043E+04  0.50400001928E-02 0. -1.
       -1   -1    0    0    0  501  0.00000000000E+00  0.00000000000E+00 -0.18749850608E+03  0.18749850615E+03  0.50400001928E-02 0.  1.
    10030    2    1    2    0    0  0.00000000000E+00  0.00000000000E+00  0.30777353982E+04  0.34527324105E+04  0.15648980532E+04 0.  0.
        2    1    3    3  502    0 -0.61005439745E+03 -0.53007334200E+02  0.26135504723E+04  0.26843290068E+04  0.25500000920E-02 0. -1.
       -2    1    3    3    0  502  0.61005439745E+03  0.53007334200E+02  0.46418492591E+03  0.76840340367E+03  0.25500000920E-02 0.  1.
</event>
<event>
 5   0  0.1339162E-03  0.1588541E+04  0.7818609E-02  0.8827619E-01
       -2   -1    0    0    0  501  0.00000000000E+00  0.00000000000E+00  0.40990898928E+03  0.40990898929E+03  0.25500000920E-02 0. -1.
        2   -1    0    0  501    0  0.00000000000E+00  0.00000000000E+00 -0.15390378117E+04  0.15390378117E+04  0.25500000920E-02 0.  1.
    10030    2    1    2    0    0  0.00000000000E+00  0.00000000000E+00 -0.11291288224E+04  0.19489468009E+04  0.15885407566E+04 0.  0.
        5    1    3    3  502    0  0.53699619872E+03  0.57584299795E+03 -0.69255595788E+03  0.10486257295E+04  0.46999998093E+01 0.  1.
       -5    1    3    3    0  502 -0.53699619872E+03 -0.57584299795E+03 -0.43657286450E+03  0.90032107147E+03  0.46999998093E+01 0. -1.
</event>
<event>
 5   0  0.7302027E-04  0.1544795E+04  0.7818609E-02  0.8855199E-01
       -1   -1    0    0    0  501  0.00000000000E+00  0.00000000000E+00  0.73223106634E+03  0.73223106635E+03  0.50400001928E-02 0.  1.
        1   -1    0    0  501    0  0.00000000000E+00  0.00000000000E+00 -0.81476709995E+03  0.81476709996E+03  0.50400001928E-02 0. -1.
    10030    2    1    2    0    0  0.00000000000E+00  0.00000000000E+00 -0.82536033613E+02  0.15469981663E+04  0.15447948504E+04 0.  0.
        5    1    3    3  502    0  0.36453739131E+03  0.45966288146E+03 -0.54437706526E+03  0.80034114816E+03  0.46999998093E+01 0. -1.
       -5    1    3    3    0  502 -0.36453739131E+03 -0.45966288146E+03  0.46184103165E+03  0.74665701816E+03  0.46999998093E+01 0.  1.
</event>
<event>
 5   0  0.7499834E-04  0.1610466E+04  0.7818609E-02  0.8814144E-01
        1   -1    0    0  501    0  0.00000000000E+00  0.00000000000E+00  0.25318596842E+04  0.25318596842E+04  0.50400001928E-02 0.  1.
       -1   -1    0    0    0  501  0.00000000000E+00  0.00000000000E+00 -0.25609648978E+03  0.25609648983E+03  0.50400001928E-02 0. -1.
    10030    2    1    2    0    0  0.00000000000E+00  0.00000000000E+00  0.22757631944E+04  0.27879561740E+04  0.16104662403E+04 0.  0.
        3    1    3    3  502    0  0.26955909928E+02  0.80119521754E+03  0.10064970085E+04  0.12867309882E+04  0.10100000352E+00 0. -1.
       -3    1    3    3    0  502 -0.26955909928E+02 -0.80119521754E+03  0.12692661859E+04  0.15012251858E+04  0.10100000352E+00 0.  1.
</event>
<event>
 5   0  0.7302027E-04  0.1616644E+04  0.7818609E-02  0.8810388E-01
        1   -1    0    0  501    0  0.00000000000E+00  0.00000000000E+00  0.35130106343E+03  0.35130106347E+03  0.50400001928E-02 0. -1.
       -1   -1    0    0    0  501  0.00000000000E+00  0.00000000000E+00 -0.18598982770E+04  0.18598982770E+04  0.50400001928E-02 0.  1.
    10030    2    1    2    0    0  0.00000000000E+00  0.00000000000E+00 -0.15085972136E+04  0.22111993405E+04  0.16166437364E+04 0.  0.
        5    1    3    3  502    0 -0.25382560789E+02 -0.22380264201E+03  0.30749238933E+03  0.38118965943E+03  0.46999998093E+01 0. -1.
       -5    1    3    3    0  502  0.25382560789E+02  0.22380264201E+03 -0.18160896029E+04  0.18300096811E+04  0.46999998093E+01 0.  1.
</event>
<event>
 5   0  0.7633213E-04  0.1555373E+04  0.7818609E-02  0.8848443E-01
       -1   -1    0    0    0  501  0.00000000000E+00  0.00000000000E+00  0.61795460641E+03  0.61795460643E+03  0.50400001928E-02 0.  1.
        1   -1    0    0  501    0  0.00000000000E+00  0.00000000000E+00 -0.97870630557E+03  0.97870630559E+03  0.50400001928E-02 0. -1.
    10030    2    1    2    0    0  0.00000000000E+00  0.00000000000E+00 -0.36075169917E+03  0.15966609120E+04  0.15553727140E+04 0.  0.
        1    1    3    3  502    0  0.48959957794E+03  0.84835053050E+02  0.43374495550E+03  0.65957518101E+03  0.50400001928E-02 0.  1.
       -1    1    3    3    0  502 -0.48959957794E+03 -0.84835053050E+02 -0.79449665467E+03  0.93708573101E+03  0.50400001928E-02 0. -1.
</event>
<event>
 5   0  0.1414751E-03  0.1634032E+04  0.7818609E-02  0.8799910E-01
        2   -1    0    0  501    0  0.00000000000E+00  0.00000000000E+00  0.11060828979E+04  0.11060828979E+04  0.25500000920E-02 0.  1.
       -2   -1    0    0    0  501  0.00000000000E+00  0.00000000000E+00 -0.60349449080E+03  0.60349449080E+03  0.25500000920E-02 0. -1.
    10030    2    1    2    0    0  0.00000000000E+00  0.00000000000E+00  0.50258840707E+03  0.17095773887E+04  0.16340317442E+04 0.  0.
        2    1    3    3  502    0  0.23358649959E+03 -0.68482707899E+03  0.64826216861E+03  0.97149092644E+03  0.25500000920E-02 0.  1.
       -2    1    3    3    0  502 -0.23358649959E+03  0.68482707899E+03 -0.14567376154E+03  0.73808646222E+03  0.25500000920E-02 0. -1.
</event>
<event>
 5   0  0.1375777E-03  0.1589806E+04  0.7818609E-02  0.8826835E-01
       -2   -1    0    0    0  501  0.00000000000E+00  0.00000000000E+00  0.46028223879E+03  0.46028223880E+03  0.25500000920E-02 0.  1.
        2   -1    0    0  501    0  0.00000000000E+00  0.00000000000E+00 -0.13727898629E+04  0.13727898629E+04  0.25500000920E-02 0. -1.
    10030    2    1    2    0    0  0.00000000000E+00  0.00000000000E+00 -0.91250762410E+03  0.18330721017E+04  0.15898060152E+04 0.  0.
        1    1    3    3  502    0 -0.69695962952E+03  0.11359415035E+03 -0.35419583472E+02  0.70704377735E+03  0.50400001928E-02 0. -1.
       -1    1    3    3    0  502  0.69695962952E+03 -0.11359415035E+03 -0.87708804063E+03  0.11260283243E+04  0.50400001928E-02 0.  1.
</event>
<event>
 5   0  0.5095750E-04  0.1584658E+04  0.7818609E-02  0.8830029E-01
       -3   -1    0    0    0  501  0.00000000000E+00  0.00000000000E+00  0.81334099731E+03  0.81334100359E+03  0.10100000352E+00 0. -1.
        3   -1    0    0  501    0  0.00000000000E+00  0.00000000000E+00 -0.77186005999E+03  0.77186006660E+03  0.10100000352E+00 0.  1.
    10030    2    1    2    0    0  0.00000000000E+00  0.00000000000E+00  0.41480937326E+02  0.15852010702E+04  0.15846582486E+04 0.  0.
        2    1    3    3  502    0 -0.78968375415E+03 -0.48216145783E+02  0.63885428333E+02  0.79372953595E+03  0.25500000920E-02 0.  1.
       -2    1    3    3    0  502  0.78968375415E+03  0.48216145783E+02 -0.22404491006E+02  0.79147153423E+03  0.25500000920E-02 0. -1.
</event>
<event>
 5   0  0.7124495E-04  0.1167906E+04  0.7818609E-02  0.9141421E-01
        1   -1    0    0  501    0  0.00000000000E+00  0.00000000000E+00  0.82936249949E+03  0.82936249951E+03  0.50400001928E-02 0.  1.
       -1   -1    0    0    0  501  0.00000000000E+00  0.00000000000E+00 -0.41116061087E+03  0.41116061090E+03  0.50400001928E-02 0. -1.
    10030    2    1    2    0    0  0.00000000000E+00  0.00000000000E+00  0.41820188862E+03  0.12405231104E+04  0.11679061468E+04 0.  0.
        2    1    3    3  502    0  0.23335347016E+03 -0.10992176554E+03  0.76556875693E+03  0.80785652078E+03  0.25500000920E-02 0.  1.
       -2    1    3    3    0  502 -0.23335347016E+03  0.10992176554E+03 -0.34736686831E+03  0.43266658963E+03  0.25500000920E-02 0. -1.
</event>
<event>
 5   0  0.7499834E-04  0.1569003E+04  0.7818609E-02  0.8839820E-01
       -1   -1    0    0    0  501  0.00000000000E+00  0.00000000000E+00  0.91287620607E+03  0.91287620609E+03  0.50400001928E-02 0.  1.
        1   -1    0    0  501    0  0.00000000000E+00  0.00000000000E+00 -0.67418003702E+03  0.67418003704E+03  0.50400001928E-02 0. -1.
    10030    2    1    2    0    0  0.00000000000E+00  0.00000000000E+00  0.23869616905E+03  0.15870562431E+04  0.15690033963E+04 0.  0.
        3    1    3    3  502    0 -0.45886427883E+03  0.33749758331E+02  0.76207031345E+03  0.89019472331E+03  0.10100000352E+00 0.  1.
       -3    1    3    3    0  502  0.45886427883E+03 -0.33749758331E+02 -0.52337414439E+03  0.69686151981E+03  0.10100000352E+00 0. -1.
</event>
<event>
 5   0  0.1414751E-03  0.1555898E+04  0.7818609E-02  0.8848109E-01
       -2   -1    0    0    0  501  0.00000000000E+00  0.00000000000E+00  0.74131279956E+03  0.74131279956E+03  0.25500000920E-02 0. -1.
        2   -1    0    0  501    0  0.00000000000E+00  0.00000000000E+00 -0.81639623147E+03  0.81639623147E+03  0.25500000920E-02 0.  1.
    10030    2    1    2    0    0  0.00000000000E+00  0.00000000000E+00 -0.75083431908E+02  0.15577090310E+04  0.15558984233E+04 0.  0.
        2    1    3    3  502    0 -0.27271395164E+03  0.26113064287E+03  0.64342836456E+03  0.74603094600E+03  0.25500000920E-02 0. -1.
       -2    1    3    3    0  502  0.27271395164E+03 -0.26113064287E+03 -0.71851179646E+03  0.81167808504E+03  0.25500000920E-02 0.  1.
</event>
<event>
 5   0  0.1354766E-03  0.1670557E+04  0.7818609E-02  0.8778337E-01
        2   -1    0    0  501    0  0.00000000000E+00  0.00000000000E+00  0.19095296314E+04  0.19095296314E+04  0.25500000920E-02 0. -1.
       -2   -1    0    0    0  501  0.00000000000E+00  0.00000000000E+00 -0.36537271662E+03  0.36537271663E+03  0.25500000920E-02 0.  1.
    10030    2    1    2    0    0  0.00000000000E+00  0.00000000000E+00  0.15441569147E+04  0.22749023480E+04  0.16705568280E+04 0.  0.
        3    1    3    3  502    0  0.27438713001E+03 -0.63542869577E+03  0.13534383898E+03  0.70524881388E+03  0.10100000352E+00 0.  1.
       -3    1    3    3    0  502 -0.27438713001E+03  0.63542869577E+03  0.14088130758E+04  0.15696535341E+04  0.10100000352E+00 0. -1.
</event>
<event>
 5   0  0.7633213E-04  0.1109591E+04  0.7818609E-02  0.9195894E-01
       -1   -1    0    0    0  501  0.00000000000E+00  0.00000000000E+00  0.68584142033E+03  0.68584142035E+03  0.50400001928E-02 0. -1.
        1   -1    0    0  501    0  0.00000000000E+00  0.00000000000E+00 -0.44878857555E+03  0.44878857558E+03  0.50400001928E-02 0.  1.
    10030    2    1    2    0    0  0.00000000000E+00  0.00000000000E+00  0.23705284478E+03  0.11346299959E+04  0.11095905445E+04 0.  0.
        1    1    3    3  502    0 -0.72581029553E+02  0.51630959916E+03  0.31242125909E+03  0.60782452336E+03  0.50400001928E-02 0. -1.
       -1    1    3    3    0  502  0.72581029553E+02 -0.51630959916E+03 -0.75368414312E+02  0.52680547258E+03  0.50400001928E-02 0.  1.
</event>
<event>
 5   0  0.1414751E-03  0.9763751E+03  0.7818609E-02  0.9334843E-01
        2   -1    0    0  501    0  0.00000000000E+00  0.00000000000E+00  0.21949086357E+04  0.21949086357E+04  0.25500000920E-02 0.  1.
       -2   -1    0    0    0  501  0.00000000000E+00  0.00000000000E+00 -0.10858177027E+03  0.10858177030E+03  0.25500000920E-02 0. -1.
    10030    2    1    2    0    0  0.00000000000E+00  0.00000000000E+00  0.20863268654E+04  0.23034904060E+04  0.97637506171E+03 0.  0.
        2    1    3    3  502    0  0.57097512937E+02 -0.71964437857E+02 -0.88006717337E+02  0.12721709242E+03  0.25500000920E-02 0. -1.
       -2    1    3    3    0  502 -0.57097512937E+02  0.71964437857E+02  0.21743335827E+04  0.21762733135E+04  0.25500000920E-02 0.  1.
</event>
<event>
 5   0  0.7601145E-04  0.1620973E+04  0.7818609E-02  0.8807766E-01
       -1   -1    0    0    0  501  0.00000000000E+00  0.00000000000E+00  0.62535301962E+03  0.62535301964E+03  0.50400001928E-02 0.  1.
        1   -1    0    0  501    0  0.00000000000E+00  0.00000000000E+00 -0.10504275017E+04  0.10504275017E+04  0.50400001928E-02 0. -1.
    10030    2    1    2    0    0  0.00000000000E+00  0.00000000000E+00 -0.42507448208E+03  0.16757805213E+04  0.16209725600E+04 0.  0.
        4    1    3    3  502    0 -0.65650023744E+03 -0.44981894383E+03 -0.53865644733E+02  0.79764200277E+03  0.12699999809E+01 0. -1.
       -4    1    3    3    0  502  0.65650023744E+03  0.44981894383E+03 -0.37120883735E+03  0.87813851858E+03  0.12699999809E+01 0.  1.
</event>
<event>
 5   0  0.7499834E-04  0.1614574E+04  0.7818609E-02  0.8811644E-01
        1   -1    0    0  501    0  0.00000000000E+00  0.00000000000E+00  0.18499801049E+04  0.18499801049E+04  0.50400001928E-02 0. -1.
       -1   -1    0    0    0  501  0.00000000000E+00  0.00000000000E+00 -0.35228069649E+03  0.35228069653E+03  0.50400001928E-02 0.  1.
    10030    2    1    2    0    0  0.00000000000E+00  0.00000000000E+00  0.14976994084E+04  0.22022608014E+04  0.16145739746E+04 0.  0.
        3    1    3    3  502    0  0.87127016683E+02  0.78570886702E+03  0.52562707763E+03  0.94932258779E+03  0.10100000352E+00 0. -1.
       -3    1    3    3    0  502 -0.87127016683E+02 -0.78570886702E+03  0.97207233077E+03  0.12529382136E+04  0.10100000352E+00 0.  1.
</event>
<event>
 5   0  0.1339162E-03  0.1574055E+04  0.7818609E-02  0.8836647E-01
        2   -1    0    0  501    0  0.00000000000E+00  0.00000000000E+00  0.97005643404E+03  0.97005643404E+03  0.25500000920E-02 0. -1.
       -2   -1    0    0    0  501  0.00000000000E+00  0.00000000000E+00 -0.63853231361E+03  0.63853231362E+03  0.25500000920E-02 0.  1.
    10030    2    1    2    0    0  0.00000000000E+00  0.00000000000E+00  0.33152412042E+03  0.16085887477E+04  0.15740551187E+04 0.  0.
        5    1    3    3  502    0  0.60233800264E+02 -0.27824124061E+03 -0.58405449527E+03  0.64975998808E+03  0.46999998093E+01 0.  1.
       -5    1    3    3    0  502 -0.60233800264E+02  0.27824124061E+03  0.91557861569E+03  0.95882875957E+03  0.46999998093E+01 0. -1.
</event>
<event>
 5   0  0.1414751E-03  0.1612125E+04  0.7818609E-02  0.8813133E-01
       -2   -1    0    0    0  501  0.00000000000E+00  0.00000000000E+00  0.53464457948E+03  0.53464457948E+03  0.25500000920E-02 0.  1.
        2   -1    0    0  501    0  0.00000000000E+00  0.00000000000E+00 -0.12152692615E+04  0.12152692615E+04  0.25500000920E-02 0. -1.
    10030    2    1    2    0    0  0.00000000000E+00  0.00000000000E+00 -0.68062468200E+03  0.17499138410E+04  0.16121254582E+04 0.  0.
        2    1    3    3  502    0  0.74769621955E+03  0.25352448970E+03 -0.51672315867E+03  0.94357147388E+03  0.25500000920E-02 0. -1.
       -2    1    3    3    0  502 -0.74769621955E+03 -0.25352448970E+03 -0.16390152333E+03  0.80634236709E+03  0.25500000920E-02 0.  1.
</event>
<event>
 5   0  0.5095750E-04  0.1565846E+04  0.7818609E-02  0.8841809E-01
       -3   -1    0    0    0  501  0.00000000000E+00  0.00000000000E+00  0.69602747207E+03  0.69602747940E+03  0.10100000352E+00 0. -1.
        3   -1    0    0  501    0  0.00000000000E+00  0.00000000000E+00 -0.88066698602E+03  0.88066699181E+03  0.10100000352E+00 0.  1.
    10030    2    1    2    0    0  0.00000000000E+00  0.00000000000E+00 -0.18463951395E+03  0.15766944712E+04  0.15658460031E+04 0.  0.
        3    1    3    3  502    0  0.49779574256E+03 -0.49067917820E+03 -0.44746970636E+03  0.82993722988E+03  0.10100000352E+00 0.  1.
       -3    1    3    3    0  502 -0.49779574256E+03  0.49067917820E+03  0.26283019241E+03  0.74675724133E+03  0.10100000352E+00 0. -1.
</event>
<event>
 5   0  0.7302027E-04  0.1626081E+04  0.7818609E-02  0.8804684E-01
       -1   -1    0    0    0  501  0.00000000000E+00  0.00000000000E+00  0.11184406816E+04  0.11184406816E+04  0.50400001928E-02 0. -1.
        1   -1    0    0  501    0  0.00000000000E+00  0.00000000000E+00 -0.59103226873E+03  0.59103226875E+03  0.50400001928E-02 0.  1.
    10030    2    1    2    0    0  0.00000000000E+00  0.00000000000E+00  0.52740841285E+03  0.17094729503E+04  0.16260806050E+04 0.  0.
        5    1    3    3  502    0 -0.20286109618E+02  0.66817510686E+02  0.11152680400E+04  0.11174618548E+04  0.46999998093E+01 0. -1.
       -5    1    3    3    0  502  0.20286109618E+02 -0.66817510686E+02 -0.58785962714E+03  0.59201109550E+03  0.46999998093E+01 0.  1.
</event>
<event>
 5   0  0.7124495E-04  0.1211918E+04  0.7818609E-02  0.9102488E-01
       -1   -1    0    0    0  501  0.00000000000E+00  0.00000000000E+00  0.29506043320E+03  0.29506043324E+03  0.50400001928E-02 0.  1.
        1   -1    0    0  501    0  0.00000000000E+00  0.00000000000E+00 -0.12444447076E+04  0.12444447076E+04  0.50400001928E-02 0. -1.
    10030    2    1    2    0    0  0.00000000000E+00  0.00000000000E+00 -0.94938427441E+03  0.15395051409E+04  0.12119181401E+04 0.  0.
        2    1    3    3  502    0 -0.46994480819E+02 -0.30794190062E+03 -0.11349447090E+04  0.11769180889E+04  0.25500000920E-02 0. -1.
       -2    1    3    3    0  502  0.46994480819E+02  0.30794190062E+03  0.18556043460E+03  0.36258705200E+03  0.25500000920E-02 0.  1.
</event>
<event>
 5   0  0.7633213E-04  0.1622458E+04  0.7818609E-02  0.8806869E-01
       -1   -1    0    0    0  501  0.00000000000E+00  0.00000000000E+00  0.50178506889E+03  0.50178506891E+03  0.50400001928E-02 0.  1.
        1   -1    0    0  501    0  0.00000000000E+00  0.00000000000E+00 -0.13115026135E+04  0.13115026135E+04  0.50400001928E-02 0. -1.
    10030    2    1    2    0    0  0.00000000000E+00  0.00000000000E+00 -0.80971754460E+03  0.18132876824E+04  0.16224579246E+04 0.  0.
        1    1    3    3  502    0  0.29707387725E+03 -0.57060520719E+03 -0.95720307328E+03  0.11532913398E+04  0.50400001928E-02 0. -1.
       -1    1    3    3    0  502 -0.29707387725E+03  0.57060520719E+03  0.14748552868E+03  0.65999634257E+03  0.50400001928E-02 0.  1.
</event>
<event>
 5   0  0.1414751E-03  0.1605549E+04  0.7818609E-02  0.8817147E-01
       -2   -1    0    0    0  501  0.00000000000E+00  0.00000000000E+00  0.45426856432E+03  0.45426856432E+03  0.25500000920E-02 0. -1.
        2   -1    0    0  501    0  0.00000000000E+00  0.00000000000E+00 -0.14186465760E+04  0.14186465760E+04  0.25500000920E-02 0.  1.
    10030    2    1    2    0    0  0.00000000000E+00  0.00000000000E+00 -0.96437801168E+03  0.18729151403E+04  0.16055485584E+04 0.  0.
        2    1    3    3  502    0 -0.50521551045E+02 -0.34405847624E+03 -0.13262239268E+04  0.13710574628E+04  0.25500000920E-02 0.  1.
       -2    1    3    3    0  502  0.50521551045E+02  0.34405847624E+03  0.36184591514E+03  0.50185767754E+03  0.25500000920E-02 0. -1.
</event>
<event>
 5   0  0.7633213E-04  0.1826845E+04  0.7818609E-02  0.8692152E-01
        1   -1    0    0  501    0  0.00000000000E+00  0.00000000000E+00  0.21901826450E+04  0.21901826450E+04  0.50400001928E-02 0.  1.
       -1   -1    0    0    0  501  0.00000000000E+00  0.00000000000E+00 -0.38094574984E+03  0.38094574987E+03  0.50400001928E-02 0. -1.
    10030    2    1    2    0    0  0.00000000000E+00  0.00000000000E+00  0.18092368952E+04  0.25711283949E+04  0.18268451166E+04 0.  0.
        1    1    3    3  502    0  0.98604168119E+02 -0.19315791780E+03 -0.34418580828E+03  0.40681277490E+03  0.50400001928E-02 0. -1.
       -1    1    3    3    0  502 -0.98604168119E+02  0.19315791780E+03  0.21534227035E+04  0.21643156200E+04  0.50400001928E-02 0.  1.
</event>
<event>
 5   0  0.1339162E-03  0.1593533E+04  0.7818609E-02  0.8824531E-01
        2   -1    0    0  501    0  0.00000000000E+00  0.00000000000E+00  0.15365527989E+04  0.15365527989E+04  0.25500000920E-02 0. -1.
       -2   -1    0    0    0  501  0.00000000000E+00  0.00000000000E+00 -0.41315671095E+03  0.41315671096E+03  0.25500000920E-02 0.  1.
    10030    2    1    2    0    0  0.00000000000E+00  0.00000000000E+00  0.11233960879E+04  0.19497095098E+04  0.15935333076E+04 0.  0.
        5    1    3    3  502    0  0.67063863841E+03 -0.13889685468E+03  0.63551482626E+02  0.68782948505E+03  0.46999998093E+01 0.  1.
       -5    1    3    3    0  502 -0.67063863841E+03  0.13889685468E+03  0.10598446053E+04  0.12618800248E+04  0.46999998093E+01 0. -1.
</event>
<event>
 5   0  0.7499834E-04  0.1557605E+04  0.7818609E-02  0.8847025E-01
       -1   -1    0    0    0  501  0.00000000000E+00  0.00000000000E+00  0.73878721003E+03  0.73878721005E+03  0.50400001928E-02 0.  1.
        1   -1    0    0  501    0  0.00000000000E+00  0.00000000000E+00 -0.82098473981E+03  0.82098473983E+03  0.50400001928E-02 0. -1.
    10030    2    1    2    0    0  0.00000000000E+00  0.00000000000E+00 -0.82197529783E+02  0.15597719499E+04  0.15576046038E+04 0.  0.
        3    1    3    3  502    0 -0.53965426917E+03 -0.39358764047E+02  0.51982096370E+03  0.75032638701E+03  0.10100000352E+00 0.  1.
       -3    1    3    3    0  502  0.53965426917E+03  0.39358764047E+02 -0.60201849348E+03  0.80944556286E+03  0.10100000352E+00 0. -1.
</event>
<event>
 5   0  0.5095750E-04  0.1701994E+04  0.7818609E-02  0.8760228E-01
        3   -1    0    0  501    0  0.00000000000E+00  0.00000000000E+00  0.73596831843E+03  0.73596832536E+03  0.10100000352E+00 0. -1.
       -3   -1    0    0    0  501  0.00000000000E+00  0.00000000000E+00 -0.98400386939E+03  0.98400387457E+03  0.10100000352E+00 0.  1.
    10030    2    1    2    0    0  0.00000000000E+00  0.00000000000E+00 -0.24803555096E+03  0.17199721999E+04  0.17019937526E+04 0.  0.
        1    1    3    3  502    0 -0.24748339876E+03 -0.15647033482E+03  0.68346246939E+03  0.74354014379E+03  0.50400001928E-02 0. -1.
       -1    1    3    3    0  502  0.24748339876E+03  0.15647033482E+03 -0.93149802035E+03  0.97643205615E+03  0.50400001928E-02 0.  1.
</event>
<event>
 5   0  0.7302027E-04  0.1653275E+04  0.7818609E-02  0.8788472E-01
       -1   -1    0    0    0  501  0.00000000000E+00  0.00000000000E+00  0.47446940214E+03  0.47446940217E+03  0.50400001928E-02 0.  1.
        1   -1    0    0  501    0  0.00000000000E+00  0.00000000000E+00 -0.14401967091E+04  0.14401967092E+04  0.50400001928E-02 0. -1.
    10030    2    1    2    0    0  0.00000000000E+00  0.00000000000E+00 -0.96572730700E+03  0.19146661113E+04  0.16532746555E+04 0.  0.
        5    1    3    3  502    0  0.82423899902E+03 -0.62339552797E+02 -0.47459035164E+03  0.95316013304E+03  0.46999998093E+01 0.  1.
       -5    1    3    3    0  502 -0.82423899902E+03  0.62339552797E+02 -0.49113695537E+03  0.96150597829E+03  0.46999998093E+01 0. -1.
</event>
<event>
 5   0  0.1414751E-03  0.1575656E+04  0.7818609E-02  0.8835644E-01
        2   -1    0    0  501    0  0.00000000000E+00  0.00000000000E+00  0.13273627430E+04  0.13273627430E+04  0.25500000920E-02 0.  1.
       -2   -1    0    0    0  501  0.00000000000E+00  0.00000000000E+00 -0.46759886195E+03  0.46759886196E+03  0.25500000920E-02 0. -1.
    10030    2    1    2    0    0  0.00000000000E+00  0.00000000000E+00  0.85976388109E+03  0.17949616050E+04  0.15756564448E+04 0.  0.
        2    1    3    3  502    0 -0.73635022275E+03 -0.13950123809E+03  0.70659110805E+03  0.10300209901E+04  0.25500000920E-02 0.  1.
       -2    1    3    3    0  502  0.73635022275E+03  0.13950123809E+03  0.15317277303E+03  0.76494061494E+03  0.25500000920E-02 0. -1.
</event>
<event>
 5   0  0.5095750E-04  0.1551030E+04  0.7818609E-02  0.8851210E-01
        3   -1    0    0  501    0  0.00000000000E+00  0.00000000000E+00  0.83296896659E+03  0.83296897272E+03  0.10100000352E+00 0.  1.
       -3   -1    0    0    0  501  0.00000000000E+00  0.00000000000E+00 -0.72202399571E+03  0.72202400277E+03  0.10100000352E+00 0. -1.
    10030    2    1    2    0    0  0.00000000000E+00  0.00000000000E+00  0.11094497089E+03  0.15549929755E+04  0.15510300988E+04 0.  0.
        1    1    3    3  502    0  0.30758420085E+03 -0.42382528828E+03 -0.51799219430E+03  0.73658117610E+03  0.50400001928E-02 0. -1.
       -1    1    3    3    0  502 -0.30758420085E+03  0.42382528828E+03  0.62893716519E+03  0.81841179939E+03  0.50400001928E-02 0.  1.
</event>
<event>
 5   0  0.7633213E-04  0.1591735E+04  0.7818609E-02  0.8825641E-01
       -1   -1    0    0    0  501  0.00000000000E+00  0.00000000000E+00  0.64236593957E+03  0.64236593959E+03  0.50400001928E-02 0.  1.
        1   -1    0    0  501    0  0.00000000000E+00  0.00000000000E+00 -0.98605066852E+03  0.98605066853E+03  0.50400001928E-02 0. -1.
    10030    2    1    2    0    0  0.00000000000E+00  0.00000000000E+00 -0.34368472894E+03  0.16284166081E+04  0.15917353601E+04 0.  0.
        1    1    3    3  502    0  0.18888034362E+03 -0.23352859311E+03 -0.92584372838E+03  0.97334372007E+03  0.50400001928E-02 0. -1.
       -1    1    3    3    0  502 -0.18888034362E+03  0.23352859311E+03  0.58215899943E+03  0.65507288805E+03  0.50400001928E-02 0.  1.
</event>
<event>
 5   0  0.1414751E-03  0.1572193E+04  0.7818609E-02  0.8837815E-01
       -2   -1    0    0    0  501  0.00000000000E+00  0.00000000000E+00  0.27206285000E+03  0.27206285001E+03  0.25500000920E-02 0.  1.
        2   -1    0    0  501    0  0.00000000000E+00  0.00000000000E+00 -0.22713420825E+04  0.22713420825E+04  0.25500000920E-02 0. -1.
    10030    2    1    2    0    0  0.00000000000E+00  0.00000000000E+00 -0.19992792325E+04  0.25434049325E+04  0.15721931183E+04 0.  0.
        2    1    3    3  502    0 -0.29513605529E+03  0.70169558360E+03 -0.68235639985E+03  0.10222975299E+04  0.25500000920E-02 0.  1.
       -2    1    3    3    0  502  0.29513605529E+03 -0.70169558360E+03 -0.13169228326E+04  0.15211074026E+04  0.25500000920E-02 0. -1.
</event>
<event>
 5   0  0.7124495E-04  0.1589894E+04  0.7818609E-02  0.8826781E-01
       -1   -1    0    0    0  501  0.00000000000E+00  0.00000000000E+00  0.73185010891E+03  0.73185010893E+03  0.50400001928E-02 0.  1.
        1   -1    0    0  501    0  0.00000000000E+00  0.00000000000E+00 -0.86348335080E+03  0.86348335081E+03  0.50400001928E-02 0. -1.
    10030    2    1    2    0    0  0.00000000000E+00  0.00000000000E+00 -0.13163324189E+03  0.15953334597E+04  0.15898935617E+04 0.  0.
        2    1    3    3  502    0  0.69502071328E+03 -0.26266825030E+03 -0.34943542609E+03  0.82106852249E+03  0.25500000920E-02 0. -1.
       -2    1    3    3    0  502 -0.69502071328E+03  0.26266825030E+03  0.21780218420E+03  0.77426493725E+03  0.25500000920E-02 0.  1.
</event>
<event>
 5   0  0.7124495E-04  0.1589115E+04  0.7818609E-02  0.8827263E-01
        1   -1    0    0  501    0  0.00000000000E+00  0.00000000000E+00  0.18131730409E+04  0.18131730409E+04  0.50400001928E-02 0.  1.
       -1   -1    0    0    0  501  0.00000000000E+00  0.00000000000E+00 -0.34818592140E+03  0.34818592144E+03  0.50400001928E-02 0. -1.
    10030    2    1    2    0    0  0.00000000000E+00  0.00000000000E+00  0.14649871195E+04  0.21613589623E+04  0.15891146289E+04 0.  0.
        2    1    3    3  502    0 -0.52189827906E+03 -0.18857799226E+03 -0.40951550731E+02  0.55643193866E+03  0.25500000920E-02 0. -1.
       -2    1    3    3    0  502  0.52189827906E+03  0.18857799226E+03  0.15059386702E+04  0.16049270237E+04  0.25500000920E-02 0.  1.
</event>
<event>
 5   0  0.7601145E-04  0.1681481E+04  0.7818609E-02  0.8771998E-01
        1   -1    0    0  501    0  0.00000000000E+00  0.00000000000E+00  0.15280206887E+04  0.15280206887E+04  0.50400001928E-02 0.  1.
       -1   -1    0    0    0  501  0.00000000000E+00  0.00000000000E+00 -0.46258814993E+03  0.46258814996E+03  0.50400001928E-02 0. -1.
    10030    2    1    2    0    0  0.00000000000E+00  0.00000000000E+00  0.10654325388E+04  0.19906088387E+04  0.16814806136E+04 0.  0.
        4    1    3    3  502    0  0.34252330300E+03  0.73750405094E+03  0.78553869198E+03  0.11306224338E+04  0.12699999809E+01 0.  1.
       -4    1    3    3    0  502 -0.34252330300E+03 -0.73750405094E+03  0.27989384680E+03  0.85998640491E+03  0.12699999809E+01 0. -1.
</event>
<event>
 5   0  0.7601145E-04  0.9465460E+03  0.7818609E-02  0.9369197E-01
       -1   -1    0    0    0  501  0.00000000000E+00  0.00000000000E+00  0.76436386805E+03  0.76436386807E+03  0.50400001928E-02 0.  1.
        1   -1    0    0  501    0  0.00000000000E+00  0.00000000000E+00 -0.29303758609E+03  0.29303758614E+03  0.50400001928E-02 0. -1.
    10030    2    1    2    0    0  0.00000000000E+00  0.00000000000E+00  0.47132628196E+03  0.10574014542E+04  0.94654602175E+03 0.  0.
        4    1    3    3  502    0 -0.45599417017E+03  0.66843946375E+02  0.11541387708E+03  0.47510080227E+03  0.12699999809E+01 0. -1.
       -4    1    3    3    0  502  0.45599417017E+03 -0.66843946375E+02  0.35591240488E+03  0.58230065193E+03  0.12699999809E+01 0.  1.
</event>
<event>
 5   0  0.7302027E-04  0.1119307E+04  0.7818609E-02  0.9186576E-01
       -1   -1    0    0    0  501  0.00000000000E+00  0.00000000000E+00  0.27053383457E+03  0.27053383462E+03  0.50400001928E-02 0. -1.
        1   -1    0    0  501    0  0.00000000000E+00  0.00000000000E+00 -0.11577556005E+04  0.11577556006E+04  0.50400001928E-02 0.  1.
    10030    2    1    2    0    0  0.00000000000E+00  0.00000000000E+00 -0.88722176598E+03  0.14282894352E+04  0.11193070395E+04 0.  0.
        5    1    3    3  502    0  0.47041437279E+03 -0.20088290992E+03 -0.73332251541E+03  0.89410716764E+03  0.46999998093E+01 0.  1.
       -5    1    3    3    0  502 -0.47041437279E+03  0.20088290992E+03 -0.15389925057E+03  0.53418226754E+03  0.46999998093E+01 0. -1.
</event>
<event>
 5   0  0.7499834E-04  0.1580897E+04  0.7818609E-02  0.8832371E-01
       -1   -1    0    0    0  501  0.00000000000E+00  0.00000000000E+00  0.43002657557E+03  0.43002657560E+03  0.50400001928E-02 0.  1.
        1   -1    0    0  501    0  0.00000000000E+00  0.00000000000E+00 -0.14529533491E+04  0.14529533491E+04  0.50400001928E-02 0. -1.
    10030    2    1    2    0    0  0.00000000000E+00  0.00000000000E+00 -0.10229267735E+04  0.18829799247E+04  0.15808966484E+04 0.  0.
        3    1    3    3  502    0 -0.24446045361E+03 -0.28289635015E+03 -0.13409718457E+04  0.13921195205E+04  0.10100000352E+00 0. -1.
       -3    1    3    3    0  502  0.24446045361E+03  0.28289635015E+03  0.31804507213E+03  0.49086040420E+03  0.10100000352E+00 0.  1.
</event>
<event>
 5   0  0.1339162E-03  0.1639013E+04  0.7818609E-02  0.8796933E-01
        2   -1    0    0  501    0  0.00000000000E+00  0.00000000000E+00  0.76883241213E+03  0.76883241213E+03  0.25500000920E-02 0.  1.
       -2   -1    0    0    0  501  0.00000000000E+00  0.00000000000E+00 -0.87352009368E+03  0.87352009368E+03  0.25500000920E-02 0. -1.
    10030    2    1    2    0    0  0.00000000000E+00  0.00000000000E+00 -0.10468768155E+03  0.16423525058E+04  0.16390125816E+04 0.  0.
        5    1    3    3  502    0 -0.33520006920E+03 -0.30591021166E+03  0.63141630971E+03  0.77759166030E+03  0.46999998093E+01 0.  1.
       -5    1    3    3    0  502  0.33520006920E+03  0.30591021166E+03 -0.73610399126E+03  0.86476084552E+03  0.46999998093E+01 0. -1.
</event>
<event>
 5   0  0.7302027E-04  0.1548569E+04  0.7818609E-02  0.8852782E-01
        1   -1    0    0  501    0  0.00000000000E+00  0.00000000000E+00  0.46952720048E+03  0.46952720051E+03  0.50400001928E-02 0. -1.
       -1   -1    0    0    0  501  0.00000000000E+00  0.00000000000E+00 -0.12768513677E+04  0.12768513677E+04  0.50400001928E-02 0.  1.
    10030    2    1    2    0    0  0.00000000000E+00  0.00000000000E+00 -0.80732416718E+03  0.17463785682E+04  0.15485689499E+04 0.  0.
        5    1    3    3  502    0 -0.36586059276E+03  0.10545319272E+03 -0.11639609610E+04  0.12246638551E+04  0.46999998093E+01 0.  1.
       -5    1    3    3    0  502  0.36586059276E+03 -0.10545319272E+03  0.35663679380E+03  0.52171471312E+03  0.46999998093E+01 0. -1.
</event>
<event>
 5   0  0.1375777E-03  0.1630154E+04  0.7818609E-02  0.8802234E-01
        2   -1    0    0  501    0  0.00000000000E+00  0.00000000000E+00  0.20236095121E+04  0.20236095121E+04  0.25500000920E-02 0. -1.
       -2   -1    0    0    0  501  0.00000000000E+00  0.00000000000E+00 -0.32829987248E+03  0.32829987249E+03  0.25500000920E-02 0.  1.
    10030    2    1    2    0    0  0.00000000000E+00  0.00000000000E+00  0.16953096396E+04  0.23519093846E+04  0.16301542808E+04 0.  0.
        1    1    3    3  502    0 -0.16347574306E+03  0.45939047955E+03  0.17899687027E+04  0.18551959163E+04  0.50400001928E-02 0. -1.
       -1    1    3    3    0  502  0.16347574306E+03 -0.45939047955E+03 -0.94659063116E+02  0.49671346824E+03  0.50400001928E-02 0.  1.
</event>
<event>
 5   0  0.7499834E-04  0.1608622E+04  0.7818609E-02  0.8815269E-01
        1   -1    0    0  501    0  0.00000000000E+00  0.00000000000E+00  0.70726157414E+03  0.70726157416E+03  0.50400001928E-02 0.  1.
       -1   -1    0    0    0  501  0.00000000000E+00  0.00000000000E+00 -0.91467718014E+03  0.91467718016E+03  0.50400001928E-02 0. -1.
    10030    2    1    2    0    0  0.00000000000E+00  0.00000000000E+00 -0.20741560600E+03  0.16219387543E+04  0.16086217980E+04 0.  0.
        3    1    3    3  502    0 -0.13270340417E+03  0.77011135248E+03 -0.29563679369E+03  0.83551350239E+03  0.10100000352E+00 0. -1.
       -3    1    3    3    0  502  0.13270340417E+03 -0.77011135248E+03  0.88221187686E+02  0.78642525192E+03  0.10100000352E+00 0.  1.
</event>
<event>
 5   0  0.7124495E-04  0.1610105E+04  0.7818609E-02  0.8814364E-01
        1   -1    0    0  501    0  0.00000000000E+00  0.00000000000E+00  0.10749720688E+04  0.10749720688E+04  0.50400001928E-02 0. -1.
       -1   -1    0    0    0  501  0.00000000000E+00  0.00000000000E+00 -0.60290827055E+03  0.60290827057E+03  0.50400001928E-02 0.  1.
    10030    2    1    2    0    0  0.00000000000E+00  0.00000000000E+00  0.47206379826E+03  0.16778803394E+04  0.16101050288E+04 0.  0.
        2    1    3    3  502    0  0.43588422830E+03  0.15397248418E+03 -0.45080745078E+03  0.64570112595E+03  0.25500000920E-02 0.  1.
       -2    1    3    3    0  502 -0.43588422830E+03 -0.15397248418E+03  0.92287124904E+03  0.10321792135E+04  0.25500000920E-02 0. -1.
</event>
<event>
 5   0  0.1375777E-03  0.1226592E+04  0.7818609E-02  0.9089894E-01
       -2   -1    0    0    0  501  0.00000000000E+00  0.00000000000E+00  0.39789948332E+03  0.39789948333E+03  0.25500000920E-02 0.  1.
        2   -1    0    0  501    0  0.00000000000E+00  0.00000000000E+00 -0.94529350176E+03  0.94529350176E+03  0.25500000920E-02 0. -1.
    10030    2    1    2    0    0  0.00000000000E+00  0.00000000000E+00 -0.54739401844E+03  0.13431929851E+04  0.12265916940E+04 0.  0.
        1    1    3    3  502    0 -0.32299959288E+03 -0.51649288960E+03 -0.35142440386E+03  0.70327288705E+03  0.50400001928E-02 0.  1.
       -1    1    3    3    0  502  0.32299959288E+03  0.51649288960E+03 -0.19596961458E+03  0.63992009804E+03  0.50400001928E-02 0. -1.
</event>
<event>
 5   0  0.1354766E-03  0.1472180E+04  0.7818609E-02  0.8903167E-01
        2   -1    0    0  501    0  0.00000000000E+00  0.00000000000E+00  0.13814647647E+04  0.13814647647E+04  0.25500000920E-02 0.  1.
       -2   -1    0    0    0  501  0.00000000000E+00  0.00000000000E+00 -0.39221281388E+03  0.39221281389E+03  0.25500000920E-02 0. -1.
    10030    2    1    2    0    0  0.00000000000E+00  0.00000000000E+00  0.98925195085E+03  0.17736775786E+04  0.14721795851E+04 0.  0.
        3    1    3    3  502    0 -0.61400177942E+03 -0.15883471944E+03  0.44474210382E+02  0.63577088548E+03  0.10100000352E+00 0. -1.
       -3    1    3    3    0  502  0.61400177942E+03  0.15883471944E+03  0.94477774047E+03  0.11379066931E+04  0.10100000352E+00 0.  1.
</event>
<event>
 5   0  0.1375777E-03  0.1595436E+04  0.7818609E-02  0.8823357E-01
       -2   -1    0    0    0  501  0.00000000000E+00  0.00000000000E+00  0.32403728702E+03  0.32403728703E+03  0.25500000920E-02 0. -1.
        2   -1    0    0  501    0  0.00000000000E+00  0.00000000000E+00 -0.19638285185E+04  0.19638285185E+04  0.25500000920E-02 0.  1.
    10030    2    1    2    0    0  0.00000000000E+00  0.00000000000E+00 -0.16397912314E+04  0.22878658055E+04  0.15954355710E+04 0.  0.
        1    1    3    3  502    0  0.16016794024E+02  0.66918376253E+03 -0.14421459773E+04  0.15899208992E+04  0.50400001928E-02 0.  1.
       -1    1    3    3    0  502 -0.16016794024E+02 -0.66918376253E+03 -0.19764525410E+03  0.69794490629E+03  0.50400001928E-02 0. -1.
</event>
<event>
 5   0  0.1354766E-03  0.1595547E+04  0.7818609E-02  0.8823288E-01
       -2   -1    0    0    0  501  0.00000000000E+00  0.00000000000E+00  0.76382413843E+03  0.76382413844E+03  0.25500000920E-02 0.  1.
        2   -1    0    0  501    0  0.00000000000E+00  0.00000000000E+00 -0.83323230100E+03  0.83323230100E+03  0.25500000920E-02 0. -1.
    10030    2    1    2    0    0  0.00000000000E+00  0.00000000000E+00 -0.69408162568E+02  0.15970564394E+04  0.15955474853E+04 0.  0.
        3    1    3    3  502    0 -0.39583136435E+03 -0.18779577743E+02 -0.72775169896E+03  0.82864810811E+03  0.10100000352E+00 0. -1.
       -3    1    3    3    0  502  0.39583136435E+03  0.18779577743E+02  0.65834353639E+03  0.76840833132E+03  0.10100000352E+00 0.  1.
</event>
<event>
 5   0  0.1414751E-03  0.1616794E+04  0.7818609E-02  0.8810296E-01
       -2   -1    0    0    0  501  0.00000000000E+00  0.00000000000E+00  0.92448645533E+03  0.92448645534E+03  0.25500000920E-02 0. -1.
        2   -1    0    0  501    0  0.00000000000E+00  0.00000000000E+00 -0.70688547600E+03  0.70688547600E+03  0.25500000920E-02 0.  1.
    10030    2    1    2    0    0  0.00000000000E+00  0.00000000000E+00  0.21760097934E+03  0.16313719313E+04  0.16167944186E+04 0.  0.
        2    1    3    3  502    0 -0.44523350050E+03 -0.45038333917E+03 -0.39815166111E+03  0.74806601809E+03  0.25500000920E-02 0.  1.
       -2    1    3    3    0  502  0.44523350050E+03  0.45038333917E+03  0.61575264044E+03  0.88330591325E+03  0.25500000920E-02 0. -1.
</event>
<event>
 5   0  0.1375777E-03  0.1032687E+04  0.7818609E-02  0.9273404E-01
       -2   -1    0    0    0  501  0.00000000000E+00  0.00000000000E+00  0.59612424517E+03  0.59612424517E+03  0.25500000920E-02 0.  1.
        2   -1    0    0  501    0  0.00000000000E+00  0.00000000000E+00 -0.44723984617E+03  0.44723984617E+03  0.25500000920E-02 0. -1.
    10030    2    1    2    0    0  0.00000000000E+00  0.00000000000E+00  0.14888439900E+03  0.10433640913E+04  0.10326868174E+04 0.  0.
        1    1    3    3  502    0  0.20446381579E+03  0.31428404291E+03 -0.28423623181E+03  0.47049989064E+03  0.50400001928E-02 0. -1.
       -1    1    3    3    0  502 -0.20446381579E+03 -0.31428404291E+03  0.43312063080E+03  0.57286420070E+03  0.50400001928E-02 0.  1.
</event>
<event>
 5   0  0.7302027E-04  0.1611336E+04  0.7818609E-02  0.8813614E-01
       -1   -1    0    0    0  501  0.00000000000E+00  0.00000000000E+00  0.60231344325E+03  0.60231344327E+03  0.50400001928E-02 0.  1.
        1   -1    0    0  501    0  0.00000000000E+00  0.00000000000E+00 -0.10776794710E+04  0.10776794710E+04  0.50400001928E-02 0. -1.
    10030    2    1    2    0    0  0.00000000000E+00  0.00000000000E+00 -0.47536602776E+03  0.16799929143E+04  0.16113358842E+04 0.  0.
        5    1    3    3  502    0 -0.28960611315E+03 -0.61740811409E+03  0.20956365459E+03  0.71344480897E+03  0.46999998093E+01 0.  1.
       -5    1    3    3    0  502  0.28960611315E+03  0.61740811409E+03 -0.68492968235E+03  0.96654810532E+03  0.46999998093E+01 0. -1.
</event>
<event>
 5   0  0.7302027E-04  0.1551625E+04  0.7818609E-02  0.8850830E-01
        1   -1    0    0  501    0  0.00000000000E+00  0.00000000000E+00  0.71391757614E+03  0.71391757616E+03  0.50400001928E-02 0.  1.
       -1   -1    0    0    0  501  0.00000000000E+00  0.00000000000E+00 -0.84307387128E+03  0.84307387129E+03  0.50400001928E-02 0. -1.
    10030    2    1    2    0    0  0.00000000000E+00  0.00000000000E+00 -0.12915629513E+03  0.15569914475E+04  0.15516252830E+04 0.  0.
        5    1    3    3  502    0 -0.29521615770E+03  0.42735721482E+02 -0.78321429388E+03  0.83810837116E+03  0.46999998093E+01 0. -1.
       -5    1    3    3    0  502  0.29521615770E+03 -0.42735721482E+02  0.65405799875E+03  0.71888307630E+03  0.46999998093E+01 0.  1.
</event>
<event>
 5   0  0.1414751E-03  0.1034707E+04  0.7818609E-02  0.9271277E-01
        2   -1    0    0  501    0  0.00000000000E+00  0.00000000000E+00  0.91322427838E+03  0.91322427838E+03  0.25500000920E-02 0.  1.
       -2   -1    0    0    0  501  0.00000000000E+00  0.00000000000E+00 -0.29308731724E+03  0.29308731725E+03  0.25500000920E-02 0. -1.
    10030    2    1    2    0    0  0.00000000000E+00  0.00000000000E+00  0.62013696114E+03  0.12063115956E+04  0.10347066324E+04 0.  0.
        2    1    3    3  502    0  0.69260224625E+02 -0.43334179920E+03 -0.93663759636E+01  0.43894170758E+03  0.25500000920E-02 0. -1.
       -2    1    3    3    0  502 -0.69260224625E+02  0.43334179920E+03  0.62950333711E+03  0.76736988805E+03  0.25500000920E-02 0.  1.
</event>
<event>
 5   0  0.7499834E-04  0.1882256E+04  0.7818609E-02  0.8663739E-01
       -1   -1    0    0    0  501  0.00000000000E+00  0.00000000000E+00  0.12827283089E+04  0.12827283089E+04  0.50400001928E-02 0. -1.
        1   -1    0    0  501    0  0.00000000000E+00  0.00000000000E+00 -0.69049856378E+03  0.69049856380E+03  0.50400001928E-02 0.  1.
    10030    2    1    2    0    0  0.00000000000E+00  0.00000000000E+00  0.59222974510E+03  0.19732268727E+04  0.18822561516E+04 0.  0.
        3    1    3    3  502    0  0.10817548764E+03  0.65727577205E+03 -0.40085449252E+03  0.77743019689E+03  0.10100000352E+00 0.  1.
       -3    1    3    3    0  502 -0.10817548764E+03 -0.65727577205E+03  0.99308423762E+03  0.11957966758E+04  0.10100000352E+00 0. -1.
</event>
<event>
 5   0  0.7302027E-04  0.1589200E+04  0.7818609E-02  0.8827211E-01
        1   -1    0    0  501    0  0.00000000000E+00  0.00000000000E+00  0.60655153824E+03  0.60655153826E+03  0.50400001928E-02 0. -1.
       -1   -1    0    0    0  501  0.00000000000E+00  0.00000000000E+00 -0.10409486676E+04  0.10409486676E+04  0.50400001928E-02 0.  1.
    10030    2    1    2    0    0  0.00000000000E+00  0.00000000000E+00 -0.43439712937E+03  0.16475002059E+04  0.15891998183E+04 0.  0.
        5    1    3    3  502    0 -0.56479474030E+03 -0.30569904968E+03  0.26785711356E+03  0.69585525142E+03  0.46999998093E+01 0. -1.
       -5    1    3    3    0  502  0.56479474030E+03  0.30569904968E+03 -0.70225424293E+03  0.95164495447E+03  0.46999998093E+01 0.  1.
</event>
<event>
 5   0  0.5095750E-04  0.1616482E+04  0.7818609E-02  0.8810486E-01
        4   -1    0    0  501    0  0.00000000000E+00  0.00000000000E+00  0.95366832906E+03  0.95366917469E+03  0.12699999809E+01 0. -1.
       -4   -1    0    0    0  501  0.00000000000E+00  0.00000000000E+00 -0.68498828042E+03  0.68498945774E+03  0.12699999809E+01 0.  1.
    10030    2    1    2    0    0  0.00000000000E+00  0.00000000000E+00  0.26868004864E+03  0.16386586324E+04  0.16164817181E+04 0.  0.
        2    1    3    3  502    0  0.60963325282E+03 -0.49700540025E+03 -0.54185090608E+02  0.78841809649E+03  0.25500000920E-02 0. -1.
       -2    1    3    3    0  502 -0.60963325282E+03  0.49700540025E+03  0.32286513925E+03  0.85024053595E+03  0.25500000920E-02 0.  1.
</event>
<event>
 5   0  0.1354766E-03  0.1660480E+04  0.7818609E-02  0.8784231E-01
       -2   -1    0    0    0  501  0.00000000000E+00  0.00000000000E+00  0.55673100399E+03  0.55673100400E+03  0.25500000920E-02 0. -1.
        2   -1    0    0  501    0  0.00000000000E+00  0.00000000000E+00 -0.12381168919E+04  0.12381168919E+04  0.25500000920E-02 0.  1.
    10030    2    1    2    0    0  0.00000000000E+00  0.00000000000E+00 -0.68138588792E+03  0.17948478959E+04  0.16604795215E+04 0.  0.
        3    1    3    3  502    0  0.20511384678E+03  0.40421826636E+03  0.41117626085E+03  0.61198858216E+03  0.10100000352E+00 0. -1.
       -3    1    3    3    0  502 -0.20511384678E+03 -0.40421826636E+03 -0.10925621488E+04  0.11828593138E+04  0.10100000352E+00 0.  1.
</event>
<event>
 5   0  0.5095750E-04  0.1589255E+04  0.7818609E-02  0.8827177E-01
       -3   -1    0    0    0  501  0.00000000000E+00  0.00000000000E+00  0.57022403925E+03  0.57022404819E+03  0.10100000352E+00 0. -1.
        3   -1    0    0  501    0  0.00000000000E+00  0.00000000000E+00 -0.11073410466E+04  0.11073410513E+04  0.10100000352E+00 0.  1.
    10030    2    1    2    0    0  0.00000000000E+00  0.00000000000E+00 -0.53711700740E+03  0.16775650994E+04  0.15892545370E+04 0.  0.
        2    1    3    3  502    0 -0.20691193518E+03  0.26269440995E+03  0.49233756248E+03  0.59516147168E+03  0.25500000920E-02 0. -1.
       -2    1    3    3    0  502  0.20691193518E+03 -0.26269440995E+03 -0.10294545699E+04  0.10824036278E+04  0.25500000920E-02 0.  1.
</event>
<event>
 5   0  0.1414751E-03  0.1574571E+04  0.7818609E-02  0.8836324E-01
       -2   -1    0    0    0  501  0.00000000000E+00  0.00000000000E+00  0.46940971006E+03  0.46940971006E+03  0.25500000920E-02 0. -1.
        2   -1    0    0  501    0  0.00000000000E+00  0.00000000000E+00 -0.13204209164E+04  0.13204209164E+04  0.25500000920E-02 0.  1.
    10030    2    1    2    0    0  0.00000000000E+00  0.00000000000E+00 -0.85101120635E+03  0.17898306265E+04  0.15745709251E+04 0.  0.
        2    1    3    3  502    0  0.86154867047E+02 -0.61855168426E+03  0.11939193639E+03  0.63583274664E+03  0.25500000920E-02 0. -1.
       -2    1    3    3    0  502 -0.86154867047E+02  0.61855168426E+03 -0.97040314274E+03  0.11539978798E+04  0.25500000920E-02 0.  1.
</event>
<event>
 5   0  0.7633213E-04  0.1556183E+04  0.7818609E-02  0.8847928E-01
        1   -1    0    0  501    0  0.00000000000E+00  0.00000000000E+00  0.67711319958E+03  0.67711319959E+03  0.50400001928E-02 0.  1.
       -1   -1    0    0    0  501  0.00000000000E+00  0.00000000000E+00 -0.89412864459E+03  0.89412864460E+03  0.50400001928E-02 0. -1.
    10030    2    1    2    0    0  0.00000000000E+00  0.00000000000E+00 -0.21701544501E+03  0.15712418442E+04  0.15561829036E+04 0.  0.
        1    1    3    3  502    0  0.59905774008E+02  0.70284658937E+03 -0.44008208940E+03  0.83141702857E+03  0.50400001928E-02 0. -1.
       -1    1    3    3    0  502 -0.59905774008E+02 -0.70284658937E+03  0.22306664439E+03  0.73982481563E+03  0.50400001928E-02 0.  1.
</event>
<event>
 5   0  0.1354766E-03  0.1017743E+04  0.7818609E-02  0.9289296E-01
        2   -1    0    0  501    0  0.00000000000E+00  0.00000000000E+00  0.68080139453E+03  0.68080139454E+03  0.25500000920E-02 0.  1.
       -2   -1    0    0    0  501  0.00000000000E+00  0.00000000000E+00 -0.38036052199E+03  0.38036052200E+03  0.25500000920E-02 0. -1.
    10030    2    1    2    0    0  0.00000000000E+00  0.00000000000E+00  0.30044087254E+03  0.10611619165E+04  0.10177425486E+04 0.  0.
        3    1    3    3  502    0  0.37482713414E+02 -0.48151858420E+03  0.31732270631E+03  0.57789169477E+03  0.10100000352E+00 0.  1.
       -3    1    3    3    0  502 -0.37482713414E+02  0.48151858420E+03 -0.16881833767E+02  0.48327022177E+03  0.10100000352E+00 0. -1.
</event>
<event>
 5   0  0.7124495E-04  0.1616424E+04  0.7818609E-02  0.8810521E-01
       -1   -1    0    0    0  501  0.00000000000E+00  0.00000000000E+00  0.95622748254E+03  0.95622748255E+03  0.50400001928E-02 0. -1.
        1   -1    0    0  501    0  0.00000000000E+00  0.00000000000E+00 -0.68310816341E+03  0.68310816343E+03  0.50400001928E-02 0.  1.
    10030    2    1    2    0    0  0.00000000000E+00  0.00000000000E+00  0.27311931913E+03  0.16393356460E+04  0.16164242010E+04 0.  0.
        2    1    3    3  502    0  0.45630757531E+03  0.35530149171E+03  0.70914252511E+03  0.91506222423E+03  0.25500000920E-02 0. -1.
       -2    1    3    3    0  502 -0.45630757531E+03 -0.35530149171E+03 -0.43602320597E+03  0.72427342175E+03  0.25500000920E-02 0.  1.
</event>
<event>
 5   0  0.7499834E-04  0.1619363E+04  0.7818609E-02  0.8808740E-01
        1   -1    0    0  501    0  0.00000000000E+00  0.00000000000E+00  0.12190258117E+04  0.12190258117E+04  0.50400001928E-02 0. -1.
       -1   -1    0    0    0  501  0.00000000000E+00  0.00000000000E+00 -0.53779319697E+03  0.53779319699E+03  0.50400001928E-02 0.  1.
    10030    2    1    2    0    0  0.00000000000E+00  0.00000000000E+00  0.68123261469E+03  0.17568190087E+04  0.16193625764E+04 0.  0.
        3    1    3    3  502    0 -0.48424460897E+03 -0.10225381355E+03  0.10358182147E+04  0.11479843500E+04  0.10100000352E+00 0. -1.
       -3    1    3    3    0  502  0.48424460897E+03  0.10225381355E+03 -0.35458559999E+03  0.60883465869E+03  0.10100000352E+00 0.  1.
</event>
<event>
 5   0  0.7302027E-04  0.1472628E+04  0.7818609E-02  0.8902862E-01
       -1   -1    0    0    0  501  0.00000000000E+00  0.00000000000E+00  0.75460311028E+03  0.75460311029E+03  0.50400001928E-02 0.  1.
        1   -1    0    0  501    0  0.00000000000E+00  0.00000000000E+00 -0.71846798012E+03  0.71846798014E+03  0.50400001928E-02 0. -1.
    10030    2    1    2    0    0  0.00000000000E+00  0.00000000000E+00  0.36135130158E+02  0.14730710904E+04  0.14726278178E+04 0.  0.
        5    1    3    3  502    0  0.71914488839E+03 -0.99888371807E+02 -0.10439896147E+03  0.73353138343E+03  0.46999998093E+01 0.  1.
       -5    1    3    3    0  502 -0.71914488839E+03  0.99888371807E+02  0.14053409162E+03  0.73953970700E+03  0.46999998093E+01 0. -1.
</event>
<event>
 5   0  0.7124495E-04  0.1622127E+04  0.7818609E-02  0.8807069E-01
        1   -1    0    0  501    0  0.00000000000E+00  0.00000000000E+00  0.14429369688E+04  0.14429369688E+04  0.50400001928E-02 0.  1.
       -1   -1    0    0    0  501  0.00000000000E+00  0.00000000000E+00 -0.45589220825E+03  0.45589220828E+03  0.50400001928E-02 0. -1.
    10030    2    1    2    0    0  0.00000000000E+00  0.00000000000E+00  0.98704476057E+03  0.18988291771E+04  0.16221266549E+04 0.  0.
        2    1    3    3  502    0  0.18462717934E+03 -0.48966626431E+03  0.12188698371E+04  0.13264629378E+04  0.25500000920E-02 0.  1.
       -2    1    3    3    0  502 -0.18462717934E+03  0.48966626431E+03 -0.23182507649E+03  0.57236623927E+03  0.25500000920E-02 0. -1.
</event>
<event>
 5   0  0.1414796E-03  0.1596030E+04  0.7818609E-02  0.8822991E-01
       -2   -1    0    0    0  501  0.00000000000E+00  0.00000000000E+00  0.25188862255E+03  0.25188862256E+03  0.25500000920E-02 0.  1.
        2   -1    0    0  501    0  0.00000000000E+00  0.00000000000E+00 -0.25282127499E+04  0.25282127499E+04  0.25500000920E-02 0. -1.
    10030    2    1    2    0    0  0.00000000000E+00  0.00000000000E+00 -0.22763241273E+04  0.27801013725E+04  0.15960301089E+04 0.  0.
        4    1    3    3  502    0 -0.56622365756E+03 -0.25601653979E+03 -0.26604841215E+03  0.67597120466E+03  0.12699999809E+01 0.  1.
       -4    1    3    3    0  502  0.56622365756E+03  0.25601653979E+03 -0.20102757152E+04  0.21041301678E+04  0.12699999809E+01 0. -1.
</event>
<event>
 5   0  0.7601145E-04  0.1622013E+04  0.7818609E-02  0.8807137E-01
        1   -1    0    0  501    0  0.00000000000E+00  0.00000000000E+00  0.59216934606E+03  0.59216934608E+03  0.50400001928E-02 0.  1.
       -1   -1    0    0    0  501  0.00000000000E+00  0.00000000000E+00 -0.11107156810E+04  0.11107156810E+04  0.50400001928E-02 0. -1.
    10030    2    1    2    0    0  0.00000000000E+00  0.00000000000E+00 -0.51854633493E+03  0.17028850271E+04  0.16220132903E+04 0.  0.
        4    1    3    3  502    0 -0.77834162697E+03 -0.21876930293E+03 -0.32612263198E+03  0.87179887599E+03  0.12699999809E+01 0. -1.
       -4    1    3    3    0  502  0.77834162697E+03  0.21876930293E+03 -0.19242370295E+03  0.83108615109E+03  0.12699999809E+01 0.  1.
</event>
<event>
 5   0  0.7302027E-04  0.1600360E+04  0.7818609E-02  0.8820327E-01
       -1   -1    0    0    0  501  0.00000000000E+00  0.00000000000E+00  0.11321231165E+04  0.11321231165E+04  0.50400001928E-02 0. -1.
        1   -1    0    0  501    0  0.00000000000E+00  0.00000000000E+00 -0.56556385792E+03  0.56556385795E+03  0.50400001928E-02 0.  1.
    10030    2    1    2    0    0  0.00000000000E+00  0.00000000000E+00  0.56655925861E+03  0.16976869745E+04  0.16003598564E+04 0.  0.
        5    1    3    3  502    0 -0.36180986844E+03  0.43660298429E+03  0.88218250604E+03  0.10487118817E+04  0.46999998093E+01 0. -1.
       -5    1    3    3    0  502  0.36180986844E+03 -0.43660298429E+03 -0.31562324743E+03  0.64897509282E+03  0.46999998093E+01 0.  1.
</event>
<event>
 5   0  0.5095750E-04  0.1587673E+04  0.7818609E-02  0.8828157E-01
        4   -1    0    0  501    0  0.00000000000E+00  0.00000000000E+00  0.59134520129E+03  0.59134656504E+03  0.12699999809E+01 0. -1.
       -4   -1    0    0    0  501  0.00000000000E+00  0.00000000000E+00 -0.10656622305E+04  0.10656629873E+04  0.12699999809E+01 0.  1.
    10030    2    1    2    0    0  0.00000000000E+00  0.00000000000E+00 -0.47431702924E+03  0.16570095523E+04  0.15876725142E+04 0.  0.
        5    1    3    3  502    0  0.68360076969E+03  0.63915211187E+02  0.17868785688E+03  0.70946924298E+03  0.46999998093E+01 0. -1.
       -5    1    3    3    0  502 -0.68360076969E+03 -0.63915211187E+02 -0.65300488612E+03  0.94754030935E+03  0.46999998093E+01 0.  1.
</event>
<event>
 5   0  0.1375777E-03  0.1503846E+04  0.7818609E-02  0.8881900E-01
        2   -1    0    0  501    0  0.00000000000E+00  0.00000000000E+00  0.16998043389E+04  0.16998043389E+04  0.25500000920E-02 0. -1.
       -2   -1    0    0    0  501  0.00000000000E+00  0.00000000000E+00 -0.33261940301E+03  0.33261940302E+03  0.25500000920E-02 0.  1.
    10030    2    1    2    0    0  0.00000000000E+00  0.00000000000E+00  0.13671849359E+04  0.20324237420E+04  0.15038456097E+04 0.  0.
        1    1    3    3  502    0  0.47754634233E+03 -0.50464694780E+03  0.10721738284E+04  0.12776054826E+04  0.50400001928E-02 0. -1.
       -1    1    3    3    0  502 -0.47754634233E+03  0.50464694780E+03  0.29501110756E+03  0.75481825932E+03  0.50400001928E-02 0.  1.
</event>
<event>
 5   0  0.1354766E-03  0.1609027E+04  0.7818609E-02  0.8815022E-01
        2   -1    0    0  501    0  0.00000000000E+00  0.00000000000E+00  0.20604732118E+04  0.20604732118E+04  0.25500000920E-02 0. -1.
       -2   -1    0    0    0  501  0.00000000000E+00  0.00000000000E+00 -0.31412289064E+03  0.31412289065E+03  0.25500000920E-02 0.  1.
    10030    2    1    2    0    0  0.00000000000E+00  0.00000000000E+00  0.17463503212E+04  0.23745961025E+04  0.16090267883E+04 0.  0.
        3    1    3    3  502    0  0.45473915293E+03  0.63768995208E+03  0.11445195977E+04  0.13868530174E+04  0.10100000352E+00 0. -1.
       -3    1    3    3    0  502 -0.45473915293E+03 -0.63768995208E+03  0.60183072354E+03  0.98774308511E+03  0.10100000352E+00 0.  1.
</event>
<event>
 5   0  0.1354766E-03  0.1586577E+04  0.7818609E-02  0.8828837E-01
       -2   -1    0    0    0  501  0.00000000000E+00  0.00000000000E+00  0.45681708610E+03  0.45681708611E+03  0.25500000920E-02 0.  1.
        2   -1    0    0  501    0  0.00000000000E+00  0.00000000000E+00 -0.13775897148E+04  0.13775897148E+04  0.25500000920E-02 0. -1.
    10030    2    1    2    0    0  0.00000000000E+00  0.00000000000E+00 -0.92077262874E+03  0.18344068010E+04  0.15865768426E+04 0.  0.
        3    1    3    3  502    0  0.39379796018E+03  0.22048135059E+03  0.29391411575E+03  0.53858553363E+03  0.10100000352E+00 0.  1.
       -3    1    3    3    0  502 -0.39379796018E+03 -0.22048135059E+03 -0.12146867445E+04  0.12958212673E+04  0.10100000352E+00 0. -1.
</event>
<event>
 5   0  0.7601145E-04  0.1602145E+04  0.7818609E-02  0.8819231E-01
       -1   -1    0    0    0  501  0.00000000000E+00  0.00000000000E+00  0.87660338337E+03  0.87660338339E+03  0.50400001928E-02 0.  1.
        1   -1    0    0  501    0  0.00000000000E+00  0.00000000000E+00 -0.73204993168E+03  0.73204993169E+03  0.50400001928E-02 0. -1.
    10030    2    1    2    0    0  0.00000000000E+00  0.00000000000E+00  0.14455345170E+03  0.16086533151E+04  0.16021453703E+04 0.  0.
        4    1    3    3  502    0  0.17563284411E+03  0.35384104480E+03 -0.62745110057E+03  0.74144917387E+03  0.12699999809E+01 0. -1.
       -4    1    3    3    0  502 -0.17563284411E+03 -0.35384104480E+03  0.77200455227E+03  0.86720414122E+03  0.12699999809E+01 0.  1.
</event>
<event>
 5   0  0.1375777E-03  0.1482501E+04  0.7818609E-02  0.8896174E-01
       -2   -1    0    0    0  501  0.00000000000E+00  0.00000000000E+00  0.97676779278E+03  0.97676779278E+03  0.25500000920E-02 0.  1.
        2   -1    0    0  501    0  0.00000000000E+00  0.00000000000E+00 -0.56252062685E+03  0.56252062685E+03  0.25500000920E-02 0. -1.
    10030    2    1    2    0    0  0.00000000000E+00  0.00000000000E+00  0.41424716593E+03  0.15392884196E+04  0.14825006322E+04 0.  0.
        1    1    3    3  502    0  0.22153551015E+03 -0.39699132192E+02 -0.52618619963E+03  0.57229880313E+03  0.50400001928E-02 0. -1.
       -1    1    3    3    0  502 -0.22153551015E+03  0.39699132192E+02  0.94043336556E+03  0.96698961651E+03  0.50400001928E-02 0.  1.
</event>
<event>
 5   0  0.7124495E-04  0.1615495E+04  0.7818609E-02  0.8811085E-01
        1   -1    0    0  501    0  0.00000000000E+00  0.00000000000E+00  0.17231739913E+04  0.17231739913E+04  0.50400001928E-02 0. -1.
       -1   -1    0    0    0  501  0.00000000000E+00  0.00000000000E+00 -0.37863604601E+03  0.37863604604E+03  0.50400001928E-02 0.  1.
    10030    2    1    2    0    0  0.00000000000E+00  0.00000000000E+00  0.13445379453E+04  0.21018100373E+04  0.16154947065E+04 0.  0.
        2    1    3    3  502    0  0.43212111543E+03  0.10589306609E+03  0.15493938989E+04  0.16120060341E+04  0.25500000920E-02 0. -1.
       -2    1    3    3    0  502 -0.43212111543E+03 -0.10589306609E+03 -0.20485595365E+03  0.48980400325E+03  0.25500000920E-02 0.  1.
</event>
<event>
 5   0  0.7499834E-04  0.1563148E+04  0.7818609E-02  0.8843513E-01
       -1   -1    0    0    0  501  0.00000000000E+00  0.00000000000E+00  0.10438857077E+04  0.10438857077E+04  0.50400001928E-02 0. -1.
        1   -1    0    0  501    0  0.00000000000E+00  0.00000000000E+00 -0.58517714015E+03  0.58517714017E+03  0.50400001928E-02 0.  1.
    10030    2    1    2    0    0  0.00000000000E+00  0.00000000000E+00  0.45870856758E+03  0.16290628479E+04  0.15631481735E+04 0.  0.
        3    1    3    3  502    0  0.36702321571E+03 -0.42099076150E+03 -0.34043502084E+03  0.65409118306E+03  0.10100000352E+00 0.  1.
       -3    1    3    3    0  502 -0.36702321571E+03  0.42099076150E+03  0.79914358842E+03  0.97497166485E+03  0.10100000352E+00 0. -1.
</event>
<event>
 5   0  0.7302027E-04  0.1328605E+04  0.7818609E-02  0.9007184E-01
       -1   -1    0    0    0  501  0.00000000000E+00  0.00000000000E+00  0.30405439904E+03  0.30405439908E+03  0.50400001928E-02 0. -1.
        1   -1    0    0  501    0  0.00000000000E+00  0.00000000000E+00 -0.14513771349E+04  0.14513771349E+04  0.50400001928E-02 0.  1.
    10030    2    1    2    0    0  0.00000000000E+00  0.00000000000E+00 -0.11473227358E+04  0.17554315340E+04  0.13286046855E+04 0.  0.
        5    1    3    3  502    0 -0.20113452465E+03  0.18707416566E+03 -0.13728034822E+04  0.14000226181E+04  0.46999998093E+01 0.  1.
       -5    1    3    3    0  502  0.20113452465E+03 -0.18707416566E+03  0.22548074639E+03  0.35540891583E+03  0.46999998093E+01 0. -1.
</event>
<event>
 5   0  0.1414751E-03  0.1578941E+04  0.7818609E-02  0.8833591E-01
        2   -1    0    0  501    0  0.00000000000E+00  0.00000000000E+00  0.23109826348E+04  0.23109826348E+04  0.25500000920E-02 0.  1.
       -2   -1    0    0    0  501  0.00000000000E+00  0.00000000000E+00 -0.26969630950E+03  0.26969630951E+03  0.25500000920E-02 0. -1.
    10030    2    1    2    0    0  0.00000000000E+00  0.00000000000E+00  0.20412863253E+04  0.25806789443E+04  0.15789407689E+04 0.  0.
        2    1    3    3  502    0  0.17593231807E+03 -0.50717827189E+03  0.74529377203E+02  0.54197473013E+03  0.25500000920E-02 0. -1.
       -2    1    3    3    0  502 -0.17593231807E+03  0.50717827189E+03  0.19667569481E+04  0.20387042142E+04  0.25500000920E-02 0.  1.
</event>
<event>
 5   0  0.1375777E-03  0.1599331E+04  0.7818609E-02  0.8820959E-01
        2   -1    0    0  501    0  0.00000000000E+00  0.00000000000E+00  0.15590332777E+04  0.15590332777E+04  0.25500000920E-02 0.  1.
       -2   -1    0    0    0  501  0.00000000000E+00  0.00000000000E+00 -0.41016745622E+03  0.41016745623E+03  0.25500000920E-02 0. -1.
    10030    2    1    2    0    0  0.00000000000E+00  0.00000000000E+00  0.11488658215E+04  0.19692007339E+04  0.15993307521E+04 0.  0.
        1    1    3    3  502    0  0.25188363835E+03 -0.23907964875E+03  0.14613375135E+04  0.15020358764E+04  0.50400001928E-02 0.  1.
       -1    1    3    3    0  502 -0.25188363835E+03  0.23907964875E+03 -0.31247169203E+03  0.46716485748E+03  0.50400001928E-02 0. -1.
</event>
<event>
 5   0  0.1339162E-03  0.1561991E+04  0.7818609E-02  0.8844244E-01
        2   -1    0    0  501    0  0.00000000000E+00  0.00000000000E+00  0.95242321651E+03  0.95242321651E+03  0.25500000920E-02 0.  1.
       -2   -1    0    0    0  501  0.00000000000E+00  0.00000000000E+00 -0.64042360011E+03  0.64042360011E+03  0.25500000920E-02 0. -1.
    10030    2    1    2    0    0  0.00000000000E+00  0.00000000000E+00  0.31199961640E+03  0.15928468166E+04  0.15619914278E+04 0.  0.
        5    1    3    3  502    0 -0.23600363680E+03  0.57561356812E+03 -0.32545311499E+03  0.70211859144E+03  0.46999998093E+01 0. -1.
       -5    1    3    3    0  502  0.23600363680E+03 -0.57561356812E+03  0.63745273139E+03  0.89072822519E+03  0.46999998093E+01 0.  1.
</event>
<event>
 5   0  0.5095750E-04  0.1587486E+04  0.7818609E-02  0.8828273E-01
       -3   -1    0    0    0  501  0.00000000000E+00  0.00000000000E+00  0.45093422760E+03  0.45093423891E+03  0.10100000352E+00 0.  1.
        3   -1    0    0  501    0  0.00000000000E+00  0.00000000000E+00 -0.13971620559E+04  0.13971620595E+04  0.10100000352E+00 0. -1.
    10030    2    1    2    0    0  0.00000000000E+00  0.00000000000E+00 -0.94622782829E+03  0.18480962985E+04  0.15874863229E+04 0.  0.
        5    1    3    3  502    0 -0.11266325521E+03 -0.42576469305E+03 -0.12418487148E+04  0.13176414168E+04  0.46999998093E+01 0. -1.
       -5    1    3    3    0  502  0.11266325521E+03  0.42576469305E+03  0.29562088649E+03  0.53045488163E+03  0.46999998093E+01 0.  1.
</event>
<event>
 5   0  0.5095750E-04  0.1585195E+04  0.7818609E-02  0.8829695E-01
       -4   -1    0    0    0  501  0.00000000000E+00  0.00000000000E+00  0.41866456175E+03  0.41866648799E+03  0.12699999809E+01 0. -1.
        4   -1    0    0  501    0  0.00000000000E+00  0.00000000000E+00 -0.15005061100E+04  0.15005066475E+04  0.12699999809E+01 0.  1.
    10030    2    1    2    0    0  0.00000000000E+00  0.00000000000E+00 -0.10818415483E+04  0.19191731355E+04  0.15851953786E+04 0.  0.
        3    1    3    3  502    0 -0.58170229103E+03  0.52789959477E+03 -0.41304836759E+03  0.88750464884E+03  0.10100000352E+00 0. -1.
       -3    1    3    3    0  502  0.58170229103E+03 -0.52789959477E+03 -0.66879318068E+03  0.10316684866E+04  0.10100000352E+00 0.  1.
</event>
<event>
 5   0  0.1414796E-03  0.1318193E+04  0.7818609E-02  0.9015261E-01
        2   -1    0    0  501    0  0.00000000000E+00  0.00000000000E+00  0.12559387485E+04  0.12559387485E+04  0.25500000920E-02 0. -1.
       -2   -1    0    0    0  501  0.00000000000E+00  0.00000000000E+00 -0.34588332977E+03  0.34588332978E+03  0.25500000920E-02 0.  1.
    10030    2    1    2    0    0  0.00000000000E+00  0.00000000000E+00  0.91005541876E+03  0.16018220783E+04  0.13181931214E+04 0.  0.
        4    1    3    3  502    0 -0.41541512201E+03  0.51151922621E+03  0.47155668037E+03  0.81030176976E+03  0.12699999809E+01 0.  1.
       -4    1    3    3    0  502  0.41541512201E+03 -0.51151922621E+03  0.43849873840E+03  0.79152030855E+03  0.12699999809E+01 0. -1.
</event>
<event>
 5   0  0.1375777E-03  0.1615428E+04  0.7818609E-02  0.8811126E-01
        2   -1    0    0  501    0  0.00000000000E+00  0.00000000000E+00  0.84870995903E+03  0.84870995903E+03  0.25500000920E-02 0.  1.
       -2   -1    0    0    0  501  0.00000000000E+00  0.00000000000E+00 -0.76869787891E+03  0.76869787892E+03  0.25500000920E-02 0. -1.
    10030    2    1    2    0    0  0.00000000000E+00  0.00000000000E+00  0.80012080114E+02  0.16174078379E+04  0.16154275537E+04 0.  0.
        1    1    3    3  502    0  0.54828533572E+03  0.15416784874E+03 -0.53342373558E+03  0.78033673287E+03  0.50400001928E-02 0.  1.
       -1    1    3    3    0  502 -0.54828533572E+03 -0.15416784874E+03  0.61343581570E+03  0.83707110508E+03  0.50400001928E-02 0. -1.
</event>
<event>
 5   0  0.7633213E-04  0.1623463E+04  0.7818609E-02  0.8806262E-01
       -1   -1    0    0    0  501  0.00000000000E+00  0.00000000000E+00  0.56660141229E+03  0.56660141231E+03  0.50400001928E-02 0.  1.
        1   -1    0    0  501    0  0.00000000000E+00  0.00000000000E+00 -0.11629129909E+04  0.11629129909E+04  0.50400001928E-02 0. -1.
    10030    2    1    2    0    0  0.00000000000E+00  0.00000000000E+00 -0.59631157864E+03  0.17295144032E+04  0.16234631416E+04 0.  0.
        1    1    3    3  502    0  0.44341056096E+03  0.42439084765E+03 -0.86407017371E+03  0.10598763052E+04  0.50400001928E-02 0. -1.
       -1    1    3    3    0  502 -0.44341056096E+03 -0.42439084765E+03  0.26775859507E+03  0.66963809808E+03  0.50400001928E-02 0.  1.
</event>
<event>
 5   0  0.7302027E-04  0.1628040E+04  0.7818609E-02  0.8803505E-01
       -1   -1    0    0    0  501  0.00000000000E+00  0.00000000000E+00  0.78771710631E+03  0.78771710632E+03  0.50400001928E-02 0.  1.
        1   -1    0    0  501    0  0.00000000000E+00  0.00000000000E+00 -0.84120135213E+03  0.84120135214E+03  0.50400001928E-02 0. -1.
    10030    2    1    2    0    0  0.00000000000E+00  0.00000000000E+00 -0.53484245820E+02  0.16289184585E+04  0.16280401653E+04 0.  0.
        5    1    3    3  502    0  0.35323003461E+03 -0.45674369855E+03 -0.60082892127E+03  0.83330891399E+03  0.46999998093E+01 0. -1.
       -5    1    3    3    0  502 -0.35323003461E+03  0.45674369855E+03  0.54734467545E+03  0.79560954447E+03  0.46999998093E+01 0.  1.
</event>
<event>
 5   0  0.1339162E-03  0.1587347E+04  0.7818609E-02  0.8828359E-01
        2   -1    0    0  501    0  0.00000000000E+00  0.00000000000E+00  0.14582107271E+04  0.14582107271E+04  0.25500000920E-02 0.  1.
       -2   -1    0    0    0  501  0.00000000000E+00  0.00000000000E+00 -0.43197996800E+03  0.43197996801E+03  0.25500000920E-02 0. -1.
    10030    2    1    2    0    0  0.00000000000E+00  0.00000000000E+00  0.10262307591E+04  0.18901906951E+04  0.15873472502E+04 0.  0.
        5    1    3    3  502    0 -0.20393841481E+03  0.46947647525E+03 -0.20914970408E+03  0.55295996832E+03  0.46999998093E+01 0. -1.
       -5    1    3    3    0  502  0.20393841481E+03 -0.46947647525E+03  0.12353804631E+04  0.13372307267E+04  0.46999998093E+01 0.  1.
</event>
<event>
 5   0  0.1339162E-03  0.1593990E+04  0.7818609E-02  0.8824249E-01
        2   -1    0    0  501    0  0.00000000000E+00  0.00000000000E+00  0.52097370745E+03  0.52097370746E+03  0.25500000920E-02 0.  1.
       -2   -1    0    0    0  501  0.00000000000E+00  0.00000000000E+00 -0.12192574694E+04  0.12192574694E+04  0.25500000920E-02 0. -1.
    10030    2    1    2    0    0  0.00000000000E+00  0.00000000000E+00 -0.69828376198E+03  0.17402311769E+04  0.15939900680E+04 0.  0.
        5    1    3    3  502    0  0.62034221775E+02 -0.43510755247E+03  0.37669402138E+03  0.57886725821E+03  0.46999998093E+01 0.  1.
       -5    1    3    3    0  502 -0.62034221775E+02  0.43510755247E+03 -0.10749777834E+04  0.11613639187E+04  0.46999998093E+01 0. -1.
</event>
<event>
 5   0  0.1339162E-03  0.1666234E+04  0.7818609E-02  0.8780860E-01
       -2   -1    0    0    0  501  0.00000000000E+00  0.00000000000E+00  0.51186280966E+03  0.51186280967E+03  0.25500000920E-02 0. -1.
        2   -1    0    0  501    0  0.00000000000E+00  0.00000000000E+00 -0.13559960279E+04  0.13559960279E+04  0.25500000920E-02 0.  1.
    10030    2    1    2    0    0  0.00000000000E+00  0.00000000000E+00 -0.84413321827E+03  0.18678588376E+04  0.16662340013E+04 0.  0.
        5    1    3    3  502    0 -0.10901814824E+03 -0.18609172901E+03 -0.13241436425E+04  0.13416011197E+04  0.46999998093E+01 0.  1.
       -5    1    3    3    0  502  0.10901814824E+03  0.18609172901E+03  0.48001042427E+03  0.52625771791E+03  0.46999998093E+01 0. -1.
</event>
<event>
 5   0  0.1414796E-03  0.1568208E+04  0.7818609E-02  0.8840321E-01
       -2   -1    0    0    0  501  0.00000000000E+00  0.00000000000E+00  0.35561115821E+03  0.35561115821E+03  0.25500000920E-02 0. -1.
        2   -1    0    0  501    0  0.00000000000E+00  0.00000000000E+00 -0.17289086679E+04  0.17289086679E+04  0.25500000920E-02 0.  1.
    10030    2    1    2    0    0  0.00000000000E+00  0.00000000000E+00 -0.13732975097E+04  0.20845198261E+04  0.15682081671E+04 0.  0.
        4    1    3    3  502    0  0.46325654617E+03 -0.23545039779E+03 -0.14671428562E+04  0.15564553610E+04  0.12699999809E+01 0.  1.
       -4    1    3    3    0  502 -0.46325654617E+03  0.23545039779E+03  0.93845346480E+02  0.52806446514E+03  0.12699999809E+01 0. -1.
</event>
<event>
 5   0  0.1414796E-03  0.1625303E+04  0.7818609E-02  0.8805152E-01
        2   -1    0    0  501    0  0.00000000000E+00  0.00000000000E+00  0.40202792244E+03  0.40202792245E+03  0.25500000920E-02 0. -1.
       -2   -1    0    0    0  501  0.00000000000E+00  0.00000000000E+00 -0.16426788236E+04  0.16426788236E+04  0.25500000920E-02 0.  1.
    10030    2    1    2    0    0  0.00000000000E+00  0.00000000000E+00 -0.12406509012E+04  0.20447067461E+04  0.16253033621E+04 0.  0.
        4    1    3    3  502    0  0.28471548823E+03  0.11130999913E+03 -0.15675835584E+04  0.15971138502E+04  0.12699999809E+01 0.  1.
       -4    1    3    3    0  502 -0.28471548823E+03 -0.11130999913E+03  0.32693265722E+03  0.44759289583E+03  0.12699999809E+01 0. -1.
</event>
<event>
 5   0  0.7302027E-04  0.1577447E+04  0.7818609E-02  0.8834524E-01
        1   -1    0    0  501    0  0.00000000000E+00  0.00000000000E+00  0.15196174310E+04  0.15196174310E+04  0.50400001928E-02 0. -1.
       -1   -1    0    0    0  501  0.00000000000E+00  0.00000000000E+00 -0.40936945685E+03  0.40936945688E+03  0.50400001928E-02 0.  1.
    10030    2    1    2    0    0  0.00000000000E+00  0.00000000000E+00  0.11102479741E+04  0.19289868879E+04  0.15774472573E+04 0.  0.
        5    1    3    3  502    0  0.14608658482E+03 -0.11041766940E+03  0.14932443311E+04  0.15044381258E+04  0.46999998093E+01 0. -1.
       -5    1    3    3    0  502 -0.14608658482E+03  0.11041766940E+03 -0.38299635694E+03  0.42454876210E+03  0.46999998093E+01 0.  1.
</event>
<event>
 5   0  0.1354766E-03  0.1469796E+04  0.7818609E-02  0.8904790E-01
       -2   -1    0    0    0  501  0.00000000000E+00  0.00000000000E+00  0.34793971586E+03  0.34793971587E+03  0.25500000920E-02 0. -1.
        2   -1    0    0  501    0  0.00000000000E+00  0.00000000000E+00 -0.15522093282E+04  0.15522093282E+04  0.25500000920E-02 0.  1.
    10030    2    1    2    0    0  0.00000000000E+00  0.00000000000E+00 -0.12042696124E+04  0.19001490441E+04  0.14697962752E+04 0.  0.
        3    1    3    3  502    0 -0.56219337504E+03 -0.44622820698E+03 -0.80611130132E+03  0.10793500099E+04  0.10100000352E+00 0.  1.
       -3    1    3    3    0  502  0.56219337504E+03  0.44622820698E+03 -0.39815831106E+03  0.82079903418E+03  0.10100000352E+00 0. -1.
</event>
<event>
 5   0  0.1414751E-03  0.1507178E+04  0.7818609E-02  0.8879694E-01
       -2   -1    0    0    0  501  0.00000000000E+00  0.00000000000E+00  0.35878587109E+03  0.35878587109E+03  0.25500000920E-02 0. -1.
        2   -1    0    0  501    0  0.00000000000E+00  0.00000000000E+00 -0.15828283209E+04  0.15828283209E+04  0.25500000920E-02 0.  1.
    10030    2    1    2    0    0  0.00000000000E+00  0.00000000000E+00 -0.12240424498E+04  0.19416141920E+04  0.15071780756E+04 0.  0.
        2    1    3    3  502    0  0.28550120552E+02  0.60186632093E+03 -0.11950686867E+04  0.13383748891E+04  0.25500000920E-02 0.  1.
       -2    1    3    3    0  502 -0.28550120552E+02 -0.60186632093E+03 -0.28973763085E+02  0.60323930294E+03  0.25500000920E-02 0. -1.
</event>
<event>
 5   0  0.7499834E-04  0.1618821E+04  0.7818609E-02  0.8809068E-01
        1   -1    0    0  501    0  0.00000000000E+00  0.00000000000E+00  0.75273346159E+03  0.75273346160E+03  0.50400001928E-02 0.  1.
       -1   -1    0    0    0  501  0.00000000000E+00  0.00000000000E+00 -0.87035553324E+03  0.87035553326E+03  0.50400001928E-02 0. -1.
    10030    2    1    2    0    0  0.00000000000E+00  0.00000000000E+00 -0.11762207165E+03  0.16230889949E+04  0.16188214644E+04 0.  0.
        3    1    3    3  502    0 -0.24420854685E+03  0.19970946774E+03  0.68855591972E+03  0.75738428202E+03  0.10100000352E+00 0.  1.
       -3    1    3    3    0  502  0.24420854685E+03 -0.19970946774E+03 -0.80617799138E+03  0.86570471284E+03  0.10100000352E+00 0. -1.
</event>
<event>
 5   0  0.1339162E-03  0.1688291E+04  0.7818609E-02  0.8768071E-01
       -2   -1    0    0    0  501  0.00000000000E+00  0.00000000000E+00  0.55662314894E+03  0.55662314895E+03  0.25500000920E-02 0. -1.
        2   -1    0    0  501    0  0.00000000000E+00  0.00000000000E+00 -0.12801866846E+04  0.12801866846E+04  0.25500000920E-02 0.  1.
    10030    2    1    2    0    0  0.00000000000E+00  0.00000000000E+00 -0.72356353568E+03  0.18368098336E+04  0.16882909034E+04 0.  0.
        5    1    3    3  502    0  0.34375638679E+03  0.75619388138E+03 -0.19836225101E+03  0.85403004181E+03  0.46999998093E+01 0. -1.
       -5    1    3    3    0  502 -0.34375638679E+03 -0.75619388138E+03 -0.52520128467E+03  0.98277979177E+03  0.46999998093E+01 0.  1.
</event>
<event>
 5   0  0.1414751E-03  0.1583451E+04  0.7818609E-02  0.8830780E-01
       -2   -1    0    0    0  501  0.00000000000E+00  0.00000000000E+00  0.39553965573E+03  0.39553965574E+03  0.25500000920E-02 0. -1.
        2   -1    0    0  501    0  0.00000000000E+00  0.00000000000E+00 -0.15847448612E+04  0.15847448612E+04  0.25500000920E-02 0.  1.
    10030    2    1    2    0    0  0.00000000000E+00  0.00000000000E+00 -0.11892052055E+04  0.19802845169E+04  0.15834512141E+04 0.  0.
        2    1    3    3  502    0  0.21506278749E+03  0.75535961049E+03 -0.71972198977E+03  0.10652792527E+04  0.25500000920E-02 0.  1.
       -2    1    3    3    0  502 -0.21506278749E+03 -0.75535961049E+03 -0.46948321570E+03  0.91500526422E+03  0.25500000920E-02 0. -1.
</event>
<event>
 5   0  0.7633213E-04  0.1617806E+04  0.7818609E-02  0.8809683E-01
        1   -1    0    0  501    0  0.00000000000E+00  0.00000000000E+00  0.34164676908E+03  0.34164676912E+03  0.50400001928E-02 0.  1.
       -1   -1    0    0    0  501  0.00000000000E+00  0.00000000000E+00 -0.19152052181E+04  0.19152052181E+04  0.50400001928E-02 0. -1.
    10030    2    1    2    0    0  0.00000000000E+00  0.00000000000E+00 -0.15735584490E+04  0.22568519872E+04  0.16178055197E+04 0.  0.
        1    1    3    3  502    0  0.22150209629E+03  0.72354705928E+03 -0.38794310904E+03  0.85034309636E+03  0.50400001928E-02 0.  1.
       -1    1    3    3    0  502 -0.22150209629E+03 -0.72354705928E+03 -0.11856153399E+04  0.14065088908E+04  0.50400001928E-02 0. -1.
</event>
<event>
 5   0  0.1339162E-03  0.1557558E+04  0.7818609E-02  0.8847054E-01
        2   -1    0    0  501    0  0.00000000000E+00  0.00000000000E+00  0.86601363657E+03  0.86601363658E+03  0.25500000920E-02 0.  1.
       -2   -1    0    0    0  501  0.00000000000E+00  0.00000000000E+00 -0.70033196237E+03  0.70033196237E+03  0.25500000920E-02 0. -1.
    10030    2    1    2    0    0  0.00000000000E+00  0.00000000000E+00  0.16568167421E+03  0.15663455989E+04  0.15575583836E+04 0.  0.
        5    1    3    3  502    0  0.22705907695E+03 -0.18332151660E+03 -0.64325217586E+03  0.70636963030E+03  0.46999998093E+01 0. -1.
       -5    1    3    3    0  502 -0.22705907695E+03  0.18332151660E+03  0.80893385006E+03  0.85997596865E+03  0.46999998093E+01 0.  1.
</event>
<event>
 5   0  0.5095750E-04  0.1587411E+04  0.7818609E-02  0.8828319E-01
        4   -1    0    0  501    0  0.00000000000E+00  0.00000000000E+00  0.17358705180E+04  0.17358709826E+04  0.12699999809E+01 0. -1.
       -4   -1    0    0    0  501  0.00000000000E+00  0.00000000000E+00 -0.36291043827E+03  0.36291266044E+03  0.12699999809E+01 0.  1.
    10030    2    1    2    0    0  0.00000000000E+00  0.00000000000E+00  0.13729600797E+04  0.20987836430E+04  0.15874109108E+04 0.  0.
        2    1    3    3  502    0  0.41192397165E+03  0.56751542808E+02 -0.20737663718E+03  0.46465811699E+03  0.25500000920E-02 0.  1.
       -2    1    3    3    0  502 -0.41192397165E+03 -0.56751542808E+02  0.15803367169E+04  0.16341255260E+04  0.25500000920E-02 0. -1.
</event>
<event>
 5   0  0.1354766E-03  0.1610657E+04  0.7818609E-02  0.8814028E-01
        2   -1    0    0  501    0  0.00000000000E+00  0.00000000000E+00  0.80229587226E+03  0.80229587226E+03  0.25500000920E-02 0. -1.
       -2   -1    0    0    0  501  0.00000000000E+00  0.00000000000E+00 -0.80837279544E+03  0.80837279544E+03  0.25500000920E-02 0.  1.
    10030    2    1    2    0    0  0.00000000000E+00  0.00000000000E+00 -0.60769231790E+01  0.16106686677E+04  0.16106572038E+04 0.  0.
        3    1    3    3  502    0  0.49020397126E+03 -0.84657279245E+02  0.63028062701E+03  0.80294487193E+03  0.10100000352E+00 0. -1.
       -3    1    3    3    0  502 -0.49020397126E+03  0.84657279245E+02 -0.63635755019E+03  0.80772379577E+03  0.10100000352E+00 0.  1.
</event>
<event>
 5   0  0.7124495E-04  0.9256739E+03  0.7818609E-02  0.9394045E-01
        1   -1    0    0  501    0  0.00000000000E+00  0.00000000000E+00  0.45547984793E+03  0.45547984796E+03  0.50400001928E-02 0.  1.
       -1   -1    0    0    0  501  0.00000000000E+00  0.00000000000E+00 -0.47031285400E+03  0.47031285402E+03  0.50400001928E-02 0. -1.
    10030    2    1    2    0    0  0.00000000000E+00  0.00000000000E+00 -0.14833006067E+02  0.92579270198E+03  0.92567386750E+03 0.  0.
        2    1    3    3  502    0  0.36634938526E+03 -0.48952998058E+01 -0.29026403816E+03  0.46742812057E+03  0.25500000920E-02 0. -1.
       -2    1    3    3    0  502 -0.36634938526E+03  0.48952998058E+01  0.27543103210E+03  0.45836458141E+03  0.25500000920E-02 0.  1.
</event>
<event>
 5   0  0.7302027E-04  0.1558949E+04  0.7818609E-02  0.8846172E-01
       -1   -1    0    0    0  501  0.00000000000E+00  0.00000000000E+00  0.95908617890E+03  0.95908617892E+03  0.50400001928E-02 0.  1.
        1   -1    0    0  501    0  0.00000000000E+00  0.00000000000E+00 -0.63349910259E+03  0.63349910261E+03  0.50400001928E-02 0. -1.
    10030    2    1    2    0    0  0.00000000000E+00  0.00000000000E+00  0.32558707632E+03  0.15925852815E+04  0.15589486633E+04 0.  0.
        5    1    3    3  502    0  0.39159379515E+03  0.15595103546E+03 -0.50701460454E+03  0.65935750931E+03  0.46999998093E+01 0. -1.
       -5    1    3    3    0  502 -0.39159379515E+03 -0.15595103546E+03  0.83260168086E+03  0.93322777222E+03  0.46999998093E+01 0.  1.
</event>
<event>
 5   0  0.1414751E-03  0.1447960E+04  0.7818609E-02  0.8919816E-01
        2   -1    0    0  501    0  0.00000000000E+00  0.00000000000E+00  0.93057545952E+03  0.93057545953E+03  0.25500000920E-02 0. -1.
       -2   -1    0    0    0  501  0.00000000000E+00  0.00000000000E+00 -0.56325082143E+03  0.56325082143E+03  0.25500000920E-02 0.  1.
    10030    2    1    2    0    0  0.00000000000E+00  0.00000000000E+00  0.36732463810E+03  0.14938262810E+04  0.14479604856E+04 0.  0.
        2    1    3    3  502    0 -0.44916807652E+03 -0.33881229580E+02 -0.40107829469E+03  0.60312825929E+03  0.25500000920E-02 0.  1.
       -2    1    3    3    0  502  0.44916807652E+03  0.33881229580E+02  0.76840293278E+03  0.89069802167E+03  0.25500000920E-02 0. -1.
</event>
<event>
 5   0  0.1375777E-03  0.1507669E+04  0.7818609E-02  0.8879369E-01
        2   -1    0    0  501    0  0.00000000000E+00  0.00000000000E+00  0.19459131190E+04  0.19459131190E+04  0.25500000920E-02 0.  1.
       -2   -1    0    0    0  501  0.00000000000E+00  0.00000000000E+00 -0.29203072345E+03  0.29203072346E+03  0.25500000920E-02 0. -1.
    10030    2    1    2    0    0  0.00000000000E+00  0.00000000000E+00  0.16538823955E+04  0.22379438424E+04  0.15076689503E+04 0.  0.
        1    1    3    3  502    0  0.73237774818E+03 -0.13551077781E+03  0.99957631846E+03  0.12465525073E+04  0.50400001928E-02 0. -1.
       -1    1    3    3    0  502 -0.73237774818E+03  0.13551077781E+03  0.65430607708E+03  0.99139133517E+03  0.50400001928E-02 0.  1.
</event>
<event>
 5   0  0.7124495E-04  0.1612774E+04  0.7818609E-02  0.8812739E-01
        1   -1    0    0  501    0  0.00000000000E+00  0.00000000000E+00  0.64245551926E+03  0.64245551928E+03  0.50400001928E-02 0.  1.
       -1   -1    0    0    0  501  0.00000000000E+00  0.00000000000E+00 -0.10121476873E+04  0.10121476873E+04  0.50400001928E-02 0. -1.
    10030    2    1    2    0    0  0.00000000000E+00  0.00000000000E+00 -0.36969216806E+03  0.16546032066E+04  0.16127738441E+04 0.  0.
        2    1    3    3  502    0 -0.43716023827E+03  0.56984595161E+03  0.19130528861E+03  0.74325715331E+03  0.25500000920E-02 0.  1.
       -2    1    3    3    0  502  0.43716023827E+03 -0.56984595161E+03 -0.56099745667E+03  0.91134605331E+03  0.25500000920E-02 0. -1.
</event>
<event>
 5   0  0.7499834E-04  0.1618178E+04  0.7818609E-02  0.8809457E-01
       -1   -1    0    0    0  501  0.00000000000E+00  0.00000000000E+00  0.87116384703E+03  0.87116384705E+03  0.50400001928E-02 0.  1.
        1   -1    0    0  501    0  0.00000000000E+00  0.00000000000E+00 -0.75143770063E+03  0.75143770064E+03  0.50400001928E-02 0. -1.
    10030    2    1    2    0    0  0.00000000000E+00  0.00000000000E+00  0.11972614641E+03  0.16226015477E+04  0.16181784303E+04 0.  0.
        3    1    3    3  502    0 -0.17192961950E+03  0.34363460055E+03 -0.65410902604E+03  0.75861924633E+03  0.10100000352E+00 0. -1.
       -3    1    3    3    0  502  0.17192961950E+03 -0.34363460055E+03  0.77383517244E+03  0.86398230136E+03  0.10100000352E+00 0.  1.
</event>
<event>
 5   0  0.1414751E-03  0.8794182E+03  0.7818609E-02  0.9451682E-01
       -2   -1    0    0    0  501  0.00000000000E+00  0.00000000000E+00  0.33294592474E+03  0.33294592475E+03  0.25500000920E-02 0. -1.
        2   -1    0    0  501    0  0.00000000000E+00  0.00000000000E+00 -0.58070725125E+03  0.58070725126E+03  0.25500000920E-02 0.  1.
    10030    2    1    2    0    0  0.00000000000E+00  0.00000000000E+00 -0.24776132651E+03  0.91365317601E+03  0.87941824584E+03 0.  0.
        2    1    3    3  502    0  0.31077219811E+03 -0.31041393116E+03 -0.14486458716E+03  0.46251693633E+03  0.25500000920E-02 0. -1.
       -2    1    3    3    0  502 -0.31077219811E+03  0.31041393116E+03 -0.10289673936E+03  0.45113623968E+03  0.25500000920E-02 0.  1.
</event>
<event>
 5   0  0.7633213E-04  0.1600577E+04  0.7818609E-02  0.8820194E-01
       -1   -1    0    0    0  501  0.00000000000E+00  0.00000000000E+00  0.73787036559E+03  0.73787036561E+03  0.50400001928E-02 0.  1.
        1   -1    0    0  501    0  0.00000000000E+00  0.00000000000E+00 -0.86798681045E+03  0.86798681047E+03  0.50400001928E-02 0. -1.
    10030    2    1    2    0    0  0.00000000000E+00  0.00000000000E+00 -0.13011644487E+03  0.16058571761E+04  0.16005770774E+04 0.  0.
        1    1    3    3  502    0  0.18726297354E+03 -0.16701627432E+03  0.69738283688E+03  0.74115091470E+03  0.50400001928E-02 0.  1.
       -1    1    3    3    0  502 -0.18726297354E+03  0.16701627432E+03 -0.82749928175E+03  0.86470626138E+03  0.50400001928E-02 0. -1.
</event>
<event>
 5   0  0.7633213E-04  0.1596292E+04  0.7818609E-02  0.8822829E-01
       -1   -1    0    0    0  501  0.00000000000E+00  0.00000000000E+00  0.54408438803E+03  0.54408438805E+03  0.50400001928E-02 0.  1.
        1   -1    0    0  501    0  0.00000000000E+00  0.00000000000E+00 -0.11708424025E+04  0.11708424025E+04  0.50400001928E-02 0. -1.
    10030    2    1    2    0    0  0.00000000000E+00  0.00000000000E+00 -0.62675801443E+03  0.17149267905E+04  0.15962920435E+04 0.  0.
        1    1    3    3  502    0 -0.22755731168E+03  0.58032059619E+03 -0.84890598800E+03  0.10531836027E+04  0.50400001928E-02 0. -1.
       -1    1    3    3    0  502  0.22755731168E+03 -0.58032059619E+03  0.22214797357E+03  0.66174318784E+03  0.50400001928E-02 0.  1.
</event>
<event>
 5   0  0.7124495E-04  0.8170876E+03  0.7818609E-02  0.9535608E-01
        1   -1    0    0  501    0  0.00000000000E+00  0.00000000000E+00  0.46554015134E+03  0.46554015137E+03  0.50400001928E-02 0. -1.
       -1   -1    0    0    0  501  0.00000000000E+00  0.00000000000E+00 -0.35852557972E+03  0.35852557975E+03  0.50400001928E-02 0.  1.
    10030    2    1    2    0    0  0.00000000000E+00  0.00000000000E+00  0.10701457162E+03  0.82406573112E+03  0.81708763952E+03 0.  0.
        2    1    3    3  502    0 -0.14766258877E+03  0.34633189198E+03  0.21347471152E+03  0.43280650641E+03  0.25500000920E-02 0. -1.
       -2    1    3    3    0  502  0.14766258877E+03 -0.34633189198E+03 -0.10646013990E+03  0.39125922471E+03  0.25500000920E-02 0.  1.
</event>
<event>
 5   0  0.1414796E-03  0.1589738E+04  0.7818609E-02  0.8826877E-01
        2   -1    0    0  501    0  0.00000000000E+00  0.00000000000E+00  0.13191782179E+04  0.13191782180E+04  0.25500000920E-02 0.  1.
       -2   -1    0    0    0  501  0.00000000000E+00  0.00000000000E+00 -0.47894740132E+03  0.47894740133E+03  0.25500000920E-02 0. -1.
    10030    2    1    2    0    0  0.00000000000E+00  0.00000000000E+00  0.84023081663E+03  0.17981256193E+04  0.15897383173E+04 0.  0.
        4    1    3    3  502    0 -0.73397675472E+03 -0.22421769229E+03  0.65417006955E+03  0.10084322202E+04  0.12699999809E+01 0. -1.
       -4    1    3    3    0  502  0.73397675472E+03  0.22421769229E+03  0.18606074708E+03  0.78969339905E+03  0.12699999809E+01 0.  1.
</event>
<event>
 5   0  0.5095750E-04  0.1795933E+04  0.7818609E-02  0.8708465E-01
        4   -1    0    0  501    0  0.00000000000E+00  0.00000000000E+00  0.80302696213E+03  0.80302796640E+03  0.12699999809E+01 0.  1.
       -4   -1    0    0    0  501  0.00000000000E+00  0.00000000000E+00 -0.10041289144E+04  0.10041297175E+04  0.12699999809E+01 0. -1.
    10030    2    1    2    0    0  0.00000000000E+00  0.00000000000E+00 -0.20110195222E+03  0.18071576839E+04  0.17959334340E+04 0.  0.
        4    1    3    3  502    0  0.34470260295E+02  0.51549230435E+03  0.63849282685E+03  0.82133745655E+03  0.12699999809E+01 0.  1.
       -4    1    3    3    0  502 -0.34470260295E+02 -0.51549230435E+03 -0.83959477907E+03  0.98582022734E+03  0.12699999809E+01 0. -1.
</event>
<event>
 5   0  0.1414796E-03  0.1602608E+04  0.7818609E-02  0.8818947E-01
        2   -1    0    0  501    0  0.00000000000E+00  0.00000000000E+00  0.13340878829E+04  0.13340878829E+04  0.25500000920E-02 0. -1.
       -2   -1    0    0    0  501  0.00000000000E+00  0.00000000000E+00 -0.48129397088E+03  0.48129397089E+03  0.25500000920E-02 0.  1.
    10030    2    1    2    0    0  0.00000000000E+00  0.00000000000E+00  0.85279391204E+03  0.18153818538E+04  0.16026084421E+04 0.  0.
        4    1    3    3  502    0 -0.46626440916E+03  0.50976411168E+03  0.88628483692E+03  0.11237278914E+04  0.12699999809E+01 0. -1.
       -4    1    3    3    0  502  0.46626440916E+03 -0.50976411168E+03 -0.33490924878E+02  0.69165396244E+03  0.12699999809E+01 0.  1.
</event>
<event>
 5   0  0.1375777E-03  0.1575784E+04  0.7818609E-02  0.8835565E-01
        2   -1    0    0  501    0  0.00000000000E+00  0.00000000000E+00  0.17468627431E+04  0.17468627431E+04  0.25500000920E-02 0.  1.
       -2   -1    0    0    0  501  0.00000000000E+00  0.00000000000E+00 -0.35536485028E+03  0.35536485029E+03  0.25500000920E-02 0. -1.
    10030    2    1    2    0    0  0.00000000000E+00  0.00000000000E+00  0.13914978929E+04  0.21022275934E+04  0.15757837633E+04 0.  0.
        1    1    3    3  502    0 -0.13060935495E+02  0.13245933285E+03 -0.34025758176E+03  0.36536459170E+03  0.50400001928E-02 0. -1.
       -1    1    3    3    0  502  0.13060935495E+02 -0.13245933285E+03  0.17317554746E+04  0.17368630017E+04  0.50400001928E-02 0.  1.
</event>
<event>
 5   0  0.1339162E-03  0.1537495E+04  0.7818609E-02  0.8859895E-01
        2   -1    0    0  501    0  0.00000000000E+00  0.00000000000E+00  0.11715086428E+04  0.11715086428E+04  0.25500000920E-02 0. -1.
       -2   -1    0    0    0  501  0.00000000000E+00  0.00000000000E+00 -0.50445425521E+03  0.50445425521E+03  0.25500000920E-02 0.  1.
    10030    2    1    2    0    0  0.00000000000E+00  0.00000000000E+00  0.66705438760E+03  0.16759628980E+04  0.15374947413E+04 0.  0.
        5    1    3    3  502    0  0.52611443042E+03  0.49037790396E+03  0.62942110186E+03  0.95575095922E+03  0.46999998093E+01 0. -1.
       -5    1    3    3    0  502 -0.52611443042E+03 -0.49037790396E+03  0.37633285734E+02  0.72021193879E+03  0.46999998093E+01 0.  1.
</event>
<event>
 5   0  0.1354766E-03  0.1597532E+04  0.7818609E-02  0.8822065E-01
        2   -1    0    0  501    0  0.00000000000E+00  0.00000000000E+00  0.17016304017E+04  0.17016304017E+04  0.25500000920E-02 0.  1.
       -2   -1    0    0    0  501  0.00000000000E+00  0.00000000000E+00 -0.37495063933E+03  0.37495063933E+03  0.25500000920E-02 0. -1.
    10030    2    1    2    0    0  0.00000000000E+00  0.00000000000E+00  0.13266797624E+04  0.20765810410E+04  0.15975323559E+04 0.  0.
        3    1    3    3  502    0 -0.31094593372E+03 -0.42387587616E+03 -0.11838695863E+03  0.53886326119E+03  0.10100000352E+00 0. -1.
       -3    1    3    3    0  502  0.31094593372E+03  0.42387587616E+03  0.14450667210E+04  0.15377177798E+04  0.10100000352E+00 0.  1.
</event>
<event>
 5   0  0.1414796E-03  0.1605492E+04  0.7818609E-02  0.8817181E-01
        2   -1    0    0  501    0  0.00000000000E+00  0.00000000000E+00  0.19791140602E+04  0.19791140602E+04  0.25500000920E-02 0.  1.
       -2   -1    0    0    0  501  0.00000000000E+00  0.00000000000E+00 -0.32560080368E+03  0.32560080369E+03  0.25500000920E-02 0. -1.
    10030    2    1    2    0    0  0.00000000000E+00  0.00000000000E+00  0.16535132565E+04  0.23047148639E+04  0.16054919851E+04 0.  0.
        4    1    3    3  502    0  0.21649025326E+03  0.75073755836E+03  0.56235358049E+03  0.96266197270E+03  0.12699999809E+01 0. -1.
       -4    1    3    3    0  502 -0.21649025326E+03 -0.75073755836E+03  0.10911596760E+04  0.13420528912E+04  0.12699999809E+01 0.  1.
</event>
<event>
 5   0  0.7499834E-04  0.1576368E+04  0.7818609E-02  0.8835199E-01
        1   -1    0    0  501    0  0.00000000000E+00  0.00000000000E+00  0.71753563251E+03  0.71753563253E+03  0.50400001928E-02 0. -1.
       -1   -1    0    0    0  501  0.00000000000E+00  0.00000000000E+00 -0.86578852690E+03  0.86578852691E+03  0.50400001928E-02 0.  1.
    10030    2    1    2    0    0  0.00000000000E+00  0.00000000000E+00 -0.14825289439E+03  0.15833241594E+04  0.15763681274E+04 0.  0.
        3    1    3    3  502    0 -0.18185141491E+03  0.57806491586E+03  0.43208671380E+03  0.74426334217E+03  0.10100000352E+00 0. -1.
       -3    1    3    3    0  502  0.18185141491E+03 -0.57806491586E+03 -0.58033960819E+03  0.83906081727E+03  0.10100000352E+00 0.  1.
</event>
<event>
 5   0  0.7124495E-04  0.1527655E+04  0.7818609E-02  0.8866268E-01
        1   -1    0    0  501    0  0.00000000000E+00  0.00000000000E+00  0.36216603070E+03  0.36216603074E+03  0.50400001928E-02 0. -1.
       -1   -1    0    0    0  501  0.00000000000E+00  0.00000000000E+00 -0.16109521475E+04  0.16109521475E+04  0.50400001928E-02 0.  1.
    10030    2    1    2    0    0  0.00000000000E+00  0.00000000000E+00 -0.12487861168E+04  0.19731181782E+04  0.15276546009E+04 0.  0.
        2    1    3    3  502    0 -0.31783460157E+03 -0.21262223388E+03  0.22963184192E+03  0.44604689341E+03  0.25500000920E-02 0. -1.
       -2    1    3    3    0  502  0.31783460157E+03  0.21262223388E+03 -0.14784179587E+04  0.15270712848E+04  0.25500000920E-02 0.  1.
</event>
<event>
 5   0  0.7302027E-04  0.1665391E+04  0.7818609E-02  0.8781353E-01
       -1   -1    0    0    0  501  0.00000000000E+00  0.00000000000E+00  0.47799534267E+03  0.47799534270E+03  0.50400001928E-02 0.  1.
        1   -1    0    0  501    0  0.00000000000E+00  0.00000000000E+00 -0.14506044097E+04  0.14506044097E+04  0.50400001928E-02 0. -1.
    10030    2    1    2    0    0  0.00000000000E+00  0.00000000000E+00 -0.97260906700E+03  0.19285997524E+04  0.16653914278E+04 0.  0.
        5    1    3    3  502    0 -0.60147922941E+03 -0.23879586280E+03  0.12049311409E+03  0.65828672175E+03  0.46999998093E+01 0.  1.
       -5    1    3    3    0  502  0.60147922941E+03  0.23879586280E+03 -0.10931021811E+04  0.12703130306E+04  0.46999998093E+01 0. -1.
</event>
<event>
 5   0  0.1414796E-03  0.1590809E+04  0.7818609E-02  0.8826214E-01
        2   -1    0    0  501    0  0.00000000000E+00  0.00000000000E+00  0.22151593766E+04  0.22151593766E+04  0.25500000920E-02 0. -1.
       -2   -1    0    0    0  501  0.00000000000E+00  0.00000000000E+00 -0.28560861014E+03  0.28560861015E+03  0.25500000920E-02 0.  1.
    10030    2    1    2    0    0  0.00000000000E+00  0.00000000000E+00  0.19295507664E+04  0.25007679867E+04  0.15908093422E+04 0.  0.
        4    1    3    3  502    0  0.84006390067E+02 -0.53022452703E+03  0.42135677654E+02  0.53849062282E+03  0.12699999809E+01 0.  1.
       -4    1    3    3    0  502 -0.84006390067E+02  0.53022452703E+03  0.18874150888E+04  0.19622773639E+04  0.12699999809E+01 0. -1.
</event>
<event>
 5   0  0.7633213E-04  0.1538266E+04  0.7818609E-02  0.8859398E-01
       -1   -1    0    0    0  501  0.00000000000E+00  0.00000000000E+00  0.74454848812E+03  0.74454848814E+03  0.50400001928E-02 0. -1.
        1   -1    0    0  501    0  0.00000000000E+00  0.00000000000E+00 -0.79452890852E+03  0.79452890854E+03  0.50400001928E-02 0.  1.
    10030    2    1    2    0    0  0.00000000000E+00  0.00000000000E+00 -0.49980420401E+02  0.15390773967E+04  0.15382656437E+04 0.  0.
        1    1    3    3  502    0  0.31710234302E+03 -0.46689409038E+03  0.49779993543E+03  0.75256146814E+03  0.50400001928E-02 0. -1.
       -1    1    3    3    0  502 -0.31710234302E+03  0.46689409038E+03 -0.54778035583E+03  0.78651592854E+03  0.50400001928E-02 0.  1.
</event>
<event>
 5   0  0.7302027E-04  0.1616612E+04  0.7818609E-02  0.8810407E-01
       -1   -1    0    0    0  501  0.00000000000E+00  0.00000000000E+00  0.93856134403E+03  0.93856134405E+03  0.50400001928E-02 0.  1.
        1   -1    0    0  501    0  0.00000000000E+00  0.00000000000E+00 -0.69612771083E+03  0.69612771085E+03  0.50400001928E-02 0. -1.
    10030    2    1    2    0    0  0.00000000000E+00  0.00000000000E+00  0.24243363320E+03  0.16346890549E+04  0.16166119632E+04 0.  0.
        5    1    3    3  502    0  0.47619766162E+03 -0.35672292728E+03 -0.43200330473E+03  0.73529885426E+03  0.46999998093E+01 0. -1.
       -5    1    3    3    0  502 -0.47619766162E+03  0.35672292728E+03  0.67443693793E+03  0.89939020064E+03  0.46999998093E+01 0.  1.
</event>
<event>
 5   0  0.7633213E-04  0.1570726E+04  0.7818609E-02  0.8838737E-01
       -1   -1    0    0    0  501  0.00000000000E+00  0.00000000000E+00  0.89529522469E+03  0.89529522470E+03  0.50400001928E-02 0.  1.
        1   -1    0    0  501    0  0.00000000000E+00  0.00000000000E+00 -0.68892935047E+03  0.68892935049E+03  0.50400001928E-02 0. -1.
    10030    2    1    2    0    0  0.00000000000E+00  0.00000000000E+00  0.20636587422E+03  0.15842245752E+04  0.15707261475E+04 0.  0.
        1    1    3    3  502    0 -0.37698851347E+03 -0.62966247847E+03  0.38522871172E+03  0.82885242138E+03  0.50400001928E-02 0.  1.
       -1    1    3    3    0  502  0.37698851347E+03  0.62966247847E+03 -0.17886283750E+03  0.75537215380E+03  0.50400001928E-02 0. -1.
</event>
<event>
 5   0  0.7124495E-04  0.1613848E+04  0.7818609E-02  0.8812086E-01
       -1   -1    0    0    0  501  0.00000000000E+00  0.00000000000E+00  0.14170410073E+04  0.14170410073E+04  0.50400001928E-02 0. -1.
        1   -1    0    0  501    0  0.00000000000E+00  0.00000000000E+00 -0.45949707208E+03  0.45949707211E+03  0.50400001928E-02 0.  1.
    10030    2    1    2    0    0  0.00000000000E+00  0.00000000000E+00  0.95754393517E+03  0.18765380794E+04  0.16138478167E+04 0.  0.
        2    1    3    3  502    0  0.43738322427E+03 -0.45020529042E+02  0.12655105501E+04  0.13397193308E+04  0.25500000920E-02 0. -1.
       -2    1    3    3    0  502 -0.43738322427E+03  0.45020529042E+02 -0.30796661492E+03  0.53681874857E+03  0.25500000920E-02 0.  1.
</event>
<event>
 5   0  0.1339162E-03  0.1517704E+04  0.7818609E-02  0.8872764E-01
       -2   -1    0    0    0  501  0.00000000000E+00  0.00000000000E+00  0.38617434958E+03  0.38617434959E+03  0.25500000920E-02 0. -1.
        2   -1    0    0  501    0  0.00000000000E+00  0.00000000000E+00 -0.14911827521E+04  0.14911827521E+04  0.25500000920E-02 0.  1.
    10030    2    1    2    0    0  0.00000000000E+00  0.00000000000E+00 -0.11050084025E+04  0.18773571017E+04  0.15177042260E+04 0.  0.
        5    1    3    3  502    0  0.70393030788E+03  0.28184819069E+03 -0.58916029561E+03  0.96025425012E+03  0.46999998093E+01 0. -1.
       -5    1    3    3    0  502 -0.70393030788E+03 -0.28184819069E+03 -0.51584810687E+03  0.91710285154E+03  0.46999998093E+01 0.  1.
</event>
<event>
 5   0  0.1414796E-03  0.1576828E+04  0.7818609E-02  0.8834912E-01
        2   -1    0    0  501    0  0.00000000000E+00  0.00000000000E+00  0.78047958235E+03  0.78047958236E+03  0.25500000920E-02 0.  1.
       -2   -1    0    0    0  501  0.00000000000E+00  0.00000000000E+00 -0.79642860496E+03  0.79642860496E+03  0.25500000920E-02 0. -1.
    10030    2    1    2    0    0  0.00000000000E+00  0.00000000000E+00 -0.15949022604E+02  0.15769081873E+04  0.15768275302E+04 0.  0.
        4    1    3    3  502    0  0.71799552389E+03  0.25814725615E+03  0.19062334499E+03  0.78644545313E+03  0.12699999809E+01 0.  1.
       -4    1    3    3    0  502 -0.71799552389E+03 -0.25814725615E+03 -0.20657236759E+03  0.79046273419E+03  0.12699999809E+01 0. -1.
</event>
<event>
 5   0  0.7499834E-04  0.1622324E+04  0.7818609E-02  0.8806950E-01
       -1   -1    0    0    0  501  0.00000000000E+00  0.00000000000E+00  0.62706656874E+03  0.62706656876E+03  0.50400001928E-02 0. -1.
        1   -1    0    0  501    0  0.00000000000E+00  0.00000000000E+00 -0.10493044148E+04  0.10493044148E+04  0.50400001928E-02 0.  1.
    10030    2    1    2    0    0  0.00000000000E+00  0.00000000000E+00 -0.42223784605E+03  0.16763709836E+04  0.16223239121E+04 0.  0.
        3    1    3    3  502    0 -0.28679582618E+03 -0.18354410548E+03 -0.97188231403E+03  0.10298036352E+04  0.10100000352E+00 0.  1.
       -3    1    3    3    0  502  0.28679582618E+03  0.18354410548E+03  0.54964446798E+03  0.64656734835E+03  0.10100000352E+00 0. -1.
</event>
<event>
 5   0  0.7124495E-04  0.1614130E+04  0.7818609E-02  0.8811914E-01
       -1   -1    0    0    0  501  0.00000000000E+00  0.00000000000E+00  0.48112802291E+03  0.48112802293E+03  0.50400001928E-02 0.  1.
        1   -1    0    0  501    0  0.00000000000E+00  0.00000000000E+00 -0.13538062748E+04  0.13538062748E+04  0.50400001928E-02 0. -1.
    10030    2    1    2    0    0  0.00000000000E+00  0.00000000000E+00 -0.87267825190E+03  0.18349342978E+04  0.16141302753E+04 0.  0.
        2    1    3    3  502    0 -0.93438046952E+01 -0.33758272403E+03  0.39694338818E+03  0.52116547821E+03  0.25500000920E-02 0.  1.
       -2    1    3    3    0  502  0.93438046952E+01  0.33758272403E+03 -0.12696216401E+04  0.13137688195E+04  0.25500000920E-02 0. -1.
</event>
<event>
 5   0  0.1414796E-03  0.1618026E+04  0.7818609E-02  0.8809550E-01
        2   -1    0    0  501    0  0.00000000000E+00  0.00000000000E+00  0.48266678144E+03  0.48266678144E+03  0.25500000920E-02 0.  1.
       -2   -1    0    0    0  501  0.00000000000E+00  0.00000000000E+00 -0.13560121547E+04  0.13560121547E+04  0.25500000920E-02 0. -1.
    10030    2    1    2    0    0  0.00000000000E+00  0.00000000000E+00 -0.87334537327E+03  0.18386789362E+04  0.16180259853E+04 0.  0.
        4    1    3    3  502    0 -0.28758977754E+02  0.23202837992E+03 -0.13167822310E+04  0.13373785196E+04  0.12699999809E+01 0. -1.
       -4    1    3    3    0  502  0.28758977754E+02 -0.23202837992E+03  0.44343685776E+03  0.50130041653E+03  0.12699999809E+01 0.  1.
</event>
<event>
 5   0  0.7633213E-04  0.1633707E+04  0.7818609E-02  0.8800104E-01
       -1   -1    0    0    0  501  0.00000000000E+00  0.00000000000E+00  0.87945743174E+03  0.87945743176E+03  0.50400001928E-02 0.  1.
        1   -1    0    0  501    0  0.00000000000E+00  0.00000000000E+00 -0.75870632991E+03  0.75870632993E+03  0.50400001928E-02 0. -1.
    10030    2    1    2    0    0  0.00000000000E+00  0.00000000000E+00  0.12075110183E+03  0.16381637617E+04  0.16337073427E+04 0.  0.
        1    1    3    3  502    0  0.36007665054E+03 -0.33357324377E+03  0.71509124216E+03  0.86734179414E+03  0.50400001928E-02 0.  1.
       -1    1    3    3    0  502 -0.36007665054E+03  0.33357324377E+03 -0.59434014033E+03  0.77082196755E+03  0.50400001928E-02 0. -1.
</event>
<event>
 5   0  0.1375777E-03  0.1595202E+04  0.7818609E-02  0.8823501E-01
        2   -1    0    0  501    0  0.00000000000E+00  0.00000000000E+00  0.66587894151E+03  0.66587894151E+03  0.25500000920E-02 0. -1.
       -2   -1    0    0    0  501  0.00000000000E+00  0.00000000000E+00 -0.95538036583E+03  0.95538036583E+03  0.25500000920E-02 0.  1.
    10030    2    1    2    0    0  0.00000000000E+00  0.00000000000E+00 -0.28950142432E+03  0.16212593073E+04  0.15952023906E+04 0.  0.
        1    1    3    3  502    0 -0.60755127001E+03 -0.44014527465E+03  0.13045132540E+03  0.76148798862E+03  0.50400001928E-02 0. -1.
       -1    1    3    3    0  502  0.60755127001E+03  0.44014527465E+03 -0.41995274972E+03  0.85977131873E+03  0.50400001928E-02 0.  1.
</event>
<event>
 5   0  0.7633213E-04  0.1606959E+04  0.7818609E-02  0.8816284E-01
        1   -1    0    0  501    0  0.00000000000E+00  0.00000000000E+00  0.11214533497E+04  0.11214533497E+04  0.50400001928E-02 0. -1.
       -1   -1    0    0    0  501  0.00000000000E+00  0.00000000000E+00 -0.57566304667E+03  0.57566304669E+03  0.50400001928E-02 0.  1.
    10030    2    1    2    0    0  0.00000000000E+00  0.00000000000E+00  0.54579030300E+03  0.16971163964E+04  0.16069589316E+04 0.  0.
        1    1    3    3  502    0 -0.33312732359E+03  0.58577448600E+03 -0.18923191404E+03  0.69993876839E+03  0.50400001928E-02 0.  1.
       -1    1    3    3    0  502  0.33312732359E+03 -0.58577448600E+03  0.73502221703E+03  0.99717762798E+03  0.50400001928E-02 0. -1.
</event>
<event>
 5   0  0.7633213E-04  0.1119795E+04  0.7818609E-02  0.9186110E-01
       -1   -1    0    0    0  501  0.00000000000E+00  0.00000000000E+00  0.38638553799E+03  0.38638553802E+03  0.50400001928E-02 0. -1.
        1   -1    0    0  501    0  0.00000000000E+00  0.00000000000E+00 -0.81132788387E+03  0.81132788388E+03  0.50400001928E-02 0.  1.
    10030    2    1    2    0    0  0.00000000000E+00  0.00000000000E+00 -0.42494234588E+03  0.11977134219E+04  0.11197952686E+04 0.  0.
        1    1    3    3  502    0 -0.66404197061E+02 -0.55257285833E+03 -0.27787401969E+03  0.62206129280E+03  0.50400001928E-02 0.  1.
       -1    1    3    3    0  502  0.66404197061E+02  0.55257285833E+03 -0.14706832619E+03  0.57565212911E+03  0.50400001928E-02 0. -1.
</event>
<event>
 5   0  0.1339162E-03  0.1637029E+04  0.7818609E-02  0.8798117E-01
        2   -1    0    0  501    0  0.00000000000E+00  0.00000000000E+00  0.39059230981E+03  0.39059230982E+03  0.25500000920E-02 0. -1.
       -2   -1    0    0    0  501  0.00000000000E+00  0.00000000000E+00 -0.17152562637E+04  0.17152562637E+04  0.25500000920E-02 0.  1.
    10030    2    1    2    0    0  0.00000000000E+00  0.00000000000E+00 -0.13246639539E+04  0.21058485735E+04  0.16370289013E+04 0.  0.
        5    1    3    3  502    0 -0.75734365086E+03  0.20225172633E+03 -0.96529846229E+03  0.12435024638E+04  0.46999998093E+01 0. -1.
       -5    1    3    3    0  502  0.75734365086E+03 -0.20225172633E+03 -0.35936549158E+03  0.86234610965E+03  0.46999998093E+01 0.  1.
</event>
<event>
 5   0  0.5095750E-04  0.1424460E+04  0.7818609E-02  0.8936301E-01
       -3   -1    0    0    0  501  0.00000000000E+00  0.00000000000E+00  0.27549149251E+03  0.27549151103E+03  0.10100000352E+00 0. -1.
        3   -1    0    0  501    0  0.00000000000E+00  0.00000000000E+00 -0.18413340726E+04  0.18413340754E+04  0.10100000352E+00 0.  1.
    10030    2    1    2    0    0  0.00000000000E+00  0.00000000000E+00 -0.15658425801E+04  0.21168255864E+04  0.14244604514E+04 0.  0.
        2    1    3    3  502    0 -0.14512880785E+03 -0.57977863398E+03 -0.20724782922E+03  0.63257987481E+03  0.25500000920E-02 0. -1.
       -2    1    3    3    0  502  0.14512880785E+03  0.57977863398E+03 -0.13585947509E+04  0.14842457116E+04  0.25500000920E-02 0.  1.
</event>
<event>
 5   0  0.1354766E-03  0.1600054E+04  0.7818609E-02  0.8820515E-01
       -2   -1    0    0    0  501  0.00000000000E+00  0.00000000000E+00  0.91934141995E+03  0.91934141996E+03  0.25500000920E-02 0.  1.
        2   -1    0    0  501    0  0.00000000000E+00  0.00000000000E+00 -0.69619729769E+03  0.69619729770E+03  0.25500000920E-02 0. -1.
    10030    2    1    2    0    0  0.00000000000E+00  0.00000000000E+00  0.22314412226E+03  0.16155387177E+04  0.16000537644E+04 0.  0.
        3    1    3    3  502    0 -0.67410821307E+03  0.14195800052E+02  0.54634310582E+03  0.86782152724E+03  0.10100000352E+00 0.  1.
       -3    1    3    3    0  502  0.67410821307E+03 -0.14195800052E+02 -0.32319898356E+03  0.74771719041E+03  0.10100000352E+00 0. -1.
</event>
<event>
 5   0  0.1414796E-03  0.1603592E+04  0.7818609E-02  0.8818344E-01
        2   -1    0    0  501    0  0.00000000000E+00  0.00000000000E+00  0.95865640743E+03  0.95865640743E+03  0.25500000920E-02 0.  1.
       -2   -1    0    0    0  501  0.00000000000E+00  0.00000000000E+00 -0.67060218521E+03  0.67060218522E+03  0.25500000920E-02 0. -1.
    10030    2    1    2    0    0  0.00000000000E+00  0.00000000000E+00  0.28805422222E+03  0.16292585926E+04  0.16035923194E+04 0.  0.
        4    1    3    3  502    0 -0.51912846559E+03  0.60105974761E+03  0.25582596889E+03  0.83439542379E+03  0.12699999809E+01 0.  1.
       -4    1    3    3    0  502  0.51912846559E+03 -0.60105974761E+03  0.32228253328E+02  0.79486316885E+03  0.12699999809E+01 0. -1.
</event>
<event>
 5   0  0.1354766E-03  0.8292738E+03  0.7818609E-02  0.9518585E-01
       -2   -1    0    0    0  501  0.00000000000E+00  0.00000000000E+00  0.10584022655E+03  0.10584022658E+03  0.25500000920E-02 0. -1.
        2   -1    0    0  501    0  0.00000000000E+00  0.00000000000E+00 -0.16243705541E+04  0.16243705541E+04  0.25500000920E-02 0.  1.
    10030    2    1    2    0    0  0.00000000000E+00  0.00000000000E+00 -0.15185303275E+04  0.17302107807E+04  0.82927377259E+03 0.  0.
        3    1    3    3  502    0  0.30955834706E+03 -0.23740371610E+03 -0.46614889570E+03  0.60785006195E+03  0.10100000352E+00 0. -1.
       -3    1    3    3    0  502 -0.30955834706E+03  0.23740371610E+03 -0.10523814318E+04  0.11223607187E+04  0.10100000352E+00 0.  1.
</event>
<event>
 5   0  0.1375777E-03  0.1567741E+04  0.7818609E-02  0.8840615E-01
       -2   -1    0    0    0  501  0.00000000000E+00  0.00000000000E+00  0.85831265148E+03  0.85831265149E+03  0.25500000920E-02 0.  1.
        2   -1    0    0  501    0  0.00000000000E+00  0.00000000000E+00 -0.71588462265E+03  0.71588462265E+03  0.25500000920E-02 0. -1.
    10030    2    1    2    0    0  0.00000000000E+00  0.00000000000E+00  0.14242802883E+03  0.15741972741E+04  0.15677408314E+04 0.  0.
        1    1    3    3  502    0 -0.11641922345E+03 -0.71361622838E+03 -0.23277237138E+03  0.75959498017E+03  0.50400001928E-02 0.  1.
       -1    1    3    3    0  502  0.11641922345E+03  0.71361622838E+03  0.37520040021E+03  0.81460229397E+03  0.50400001928E-02 0. -1.
</event>
<event>
 5   0  0.7124495E-04  0.1666310E+04  0.7818609E-02  0.8780816E-01
        1   -1    0    0  501    0  0.00000000000E+00  0.00000000000E+00  0.11811213873E+04  0.11811213873E+04  0.50400001928E-02 0.  1.
       -1   -1    0    0    0  501  0.00000000000E+00  0.00000000000E+00 -0.58770213178E+03  0.58770213180E+03  0.50400001928E-02 0. -1.
    10030    2    1    2    0    0  0.00000000000E+00  0.00000000000E+00  0.59341925548E+03  0.17688235191E+04  0.16663103639E+04 0.  0.
        2    1    3    3  502    0  0.72166439105E+03  0.37094740360E+02 -0.14349797149E+03  0.73672734502E+03  0.25500000920E-02 0. -1.
       -2    1    3    3    0  502 -0.72166439105E+03 -0.37094740360E+02  0.73691722697E+03  0.10320961740E+04  0.25500000920E-02 0.  1.
</event>
<event>
 5   0  0.7601145E-04  0.1634151E+04  0.7818609E-02  0.8799838E-01
       -1   -1    0    0    0  501  0.00000000000E+00  0.00000000000E+00  0.81250595350E+03  0.81250595352E+03  0.50400001928E-02 0.  1.
        1   -1    0    0  501    0  0.00000000000E+00  0.00000000000E+00 -0.82167056973E+03  0.82167056975E+03  0.50400001928E-02 0. -1.
    10030    2    1    2    0    0  0.00000000000E+00  0.00000000000E+00 -0.91646162295E+01  0.16341765233E+04  0.16341508251E+04 0.  0.
        4    1    3    3  502    0 -0.37756348041E+03 -0.55259090690E+03 -0.47331105127E+03  0.81971693668E+03  0.12699999809E+01 0. -1.
       -4    1    3    3    0  502  0.37756348041E+03  0.55259090690E+03  0.46414643504E+03  0.81445958659E+03  0.12699999809E+01 0.  1.
</event>
<event>
 5   0  0.1339162E-03  0.1585931E+04  0.7818609E-02  0.8829238E-01
       -2   -1    0    0    0  501  0.00000000000E+00  0.00000000000E+00  0.58848643212E+03  0.58848643213E+03  0.25500000920E-02 0. -1.
        2   -1    0    0  501    0  0.00000000000E+00  0.00000000000E+00 -0.10684938077E+04  0.10684938077E+04  0.25500000920E-02 0.  1.
    10030    2    1    2    0    0  0.00000000000E+00  0.00000000000E+00 -0.48000737557E+03  0.16569802398E+04  0.15859307786E+04 0.  0.
        5    1    3    3  502    0  0.43989516948E+02 -0.73620111445E+03  0.64327086298E+02  0.74032913123E+03  0.46999998093E+01 0. -1.
       -5    1    3    3    0  502 -0.43989516948E+02  0.73620111445E+03 -0.54433446187E+03  0.91665110860E+03  0.46999998093E+01 0.  1.
</event>
<event>
 5   0  0.7633213E-04  0.1590823E+04  0.7818609E-02  0.8826206E-01
       -1   -1    0    0    0  501  0.00000000000E+00  0.00000000000E+00  0.66427362746E+03  0.66427362748E+03  0.50400001928E-02 0. -1.
        1   -1    0    0  501    0  0.00000000000E+00  0.00000000000E+00 -0.95243767064E+03  0.95243767066E+03  0.50400001928E-02 0.  1.
    10030    2    1    2    0    0  0.00000000000E+00  0.00000000000E+00 -0.28816404319E+03  0.16167112981E+04  0.15908227135E+04 0.  0.
        1    1    3    3  502    0 -0.77966463820E+03  0.29314622341E+02 -0.30133517008E+03  0.83638458851E+03  0.50400001928E-02 0. -1.
       -1    1    3    3    0  502  0.77966463820E+03 -0.29314622341E+02  0.13171126893E+02  0.78032670962E+03  0.50400001928E-02 0.  1.
</event>
<event>
 5   0  0.7601145E-04  0.1609727E+04  0.7818609E-02  0.8814594E-01
       -1   -1    0    0    0  501  0.00000000000E+00  0.00000000000E+00  0.94745045568E+03  0.94745045569E+03  0.50400001928E-02 0. -1.
        1   -1    0    0  501    0  0.00000000000E+00  0.00000000000E+00 -0.68373549588E+03  0.68373549590E+03  0.50400001928E-02 0.  1.
    10030    2    1    2    0    0  0.00000000000E+00  0.00000000000E+00  0.26371495980E+03  0.16311859516E+04  0.16097273150E+04 0.  0.
        4    1    3    3  502    0  0.19272126605E+03 -0.77847777436E+03  0.62870853054E+02  0.80443986017E+03  0.12699999809E+01 0.  1.
       -4    1    3    3    0  502 -0.19272126605E+03  0.77847777436E+03  0.20084410674E+03  0.82674609142E+03  0.12699999809E+01 0. -1.
</event>
<event>
 5   0  0.7302027E-04  0.1537002E+04  0.7818609E-02  0.8860213E-01
       -1   -1    0    0    0  501  0.00000000000E+00  0.00000000000E+00  0.91924514131E+03  0.91924514132E+03  0.50400001928E-02 0.  1.
        1   -1    0    0  501    0  0.00000000000E+00  0.00000000000E+00 -0.64247657532E+03  0.64247657534E+03  0.50400001928E-02 0. -1.
    10030    2    1    2    0    0  0.00000000000E+00  0.00000000000E+00  0.27676856598E+03  0.15617217167E+04  0.15370015879E+04 0.  0.
        5    1    3    3  502    0 -0.35680460773E+03 -0.17538801624E+03 -0.52984090066E+03  0.66243788716E+03  0.46999998093E+01 0. -1.
       -5    1    3    3    0  502  0.35680460773E+03  0.17538801624E+03  0.80660946664E+03  0.89928382951E+03  0.46999998093E+01 0.  1.
</event>
<event>
 5   0  0.1414796E-03  0.1601003E+04  0.7818609E-02  0.8819932E-01
       -2   -1    0    0    0  501  0.00000000000E+00  0.00000000000E+00  0.75956120656E+03  0.75956120657E+03  0.25500000920E-02 0.  1.
        2   -1    0    0  501    0  0.00000000000E+00  0.00000000000E+00 -0.84364858677E+03  0.84364858677E+03  0.25500000920E-02 0. -1.
    10030    2    1    2    0    0  0.00000000000E+00  0.00000000000E+00 -0.84087380206E+02  0.16032097933E+04  0.16010031087E+04 0.  0.
        4    1    3    3  502    0 -0.37471159937E+03 -0.42057778890E+03 -0.61160410687E+03  0.83147799470E+03  0.12699999809E+01 0. -1.
       -4    1    3    3    0  502  0.37471159937E+03  0.42057778890E+03  0.52751672667E+03  0.77173179864E+03  0.12699999809E+01 0.  1.
</event>
<event>
 5   0  0.7633213E-04  0.1456877E+04  0.7818609E-02  0.8913647E-01
       -1   -1    0    0    0  501  0.00000000000E+00  0.00000000000E+00  0.73021006018E+03  0.73021006020E+03  0.50400001928E-02 0.  1.
        1   -1    0    0  501    0  0.00000000000E+00  0.00000000000E+00 -0.72667089793E+03  0.72667089794E+03  0.50400001928E-02 0. -1.
    10030    2    1    2    0    0  0.00000000000E+00  0.00000000000E+00  0.35391622577E+01  0.14568809581E+04  0.14568766593E+04 0.  0.
        1    1    3    3  502    0  0.43337657402E+03 -0.34776884644E+03 -0.46925619732E+03  0.72729622865E+03  0.50400001928E-02 0. -1.
       -1    1    3    3    0  502 -0.43337657402E+03  0.34776884644E+03  0.47279535957E+03  0.72958472950E+03  0.50400001928E-02 0.  1.
</event>
<event>
 5   0  0.1414751E-03  0.1599617E+04  0.7818609E-02  0.8820783E-01
        2   -1    0    0  501    0  0.00000000000E+00  0.00000000000E+00  0.15183977845E+04  0.15183977845E+04  0.25500000920E-02 0.  1.
       -2   -1    0    0    0  501  0.00000000000E+00  0.00000000000E+00 -0.42129527340E+03  0.42129527340E+03  0.25500000920E-02 0. -1.
    10030    2    1    2    0    0  0.00000000000E+00  0.00000000000E+00  0.10971025111E+04  0.19396930579E+04  0.15996172164E+04 0.  0.
        2    1    3    3  502    0 -0.22981116683E+03  0.65430608040E+03  0.10317137541E+04  0.12431262565E+04  0.25500000920E-02 0.  1.
       -2    1    3    3    0  502  0.22981116683E+03 -0.65430608040E+03  0.65388756993E+02  0.69656680138E+03  0.25500000920E-02 0. -1.
</event>
<event>
 5   0  0.1339162E-03  0.1583014E+04  0.7818609E-02  0.8831052E-01
       -2   -1    0    0    0  501  0.00000000000E+00  0.00000000000E+00  0.77393068799E+03  0.77393068799E+03  0.25500000920E-02 0. -1.
        2   -1    0    0  501    0  0.00000000000E+00  0.00000000000E+00 -0.80948253238E+03  0.80948253238E+03  0.25500000920E-02 0.  1.
    10030    2    1    2    0    0  0.00000000000E+00  0.00000000000E+00 -0.35551844388E+02  0.15834132204E+04  0.15830140533E+04 0.  0.
        5    1    3    3  502    0 -0.46678201272E+03  0.31229043651E+03  0.54008374260E+03  0.77918117479E+03  0.46999998093E+01 0. -1.
       -5    1    3    3    0  502  0.46678201272E+03 -0.31229043651E+03 -0.57563558698E+03  0.80423204558E+03  0.46999998093E+01 0.  1.
</event>
<event>
 5   0  0.7499834E-04  0.1679979E+04  0.7818609E-02  0.8772866E-01
        1   -1    0    0  501    0  0.00000000000E+00  0.00000000000E+00  0.12900080188E+04  0.12900080188E+04  0.50400001928E-02 0. -1.
       -1   -1    0    0    0  501  0.00000000000E+00  0.00000000000E+00 -0.54695962129E+03  0.54695962132E+03  0.50400001928E-02 0.  1.
    10030    2    1    2    0    0  0.00000000000E+00  0.00000000000E+00  0.74304839747E+03  0.18369676401E+04  0.16799789254E+04 0.  0.
        3    1    3    3  502    0  0.16676452326E+03  0.30528565473E+02 -0.52805756843E+03  0.55460545012E+03  0.10100000352E+00 0.  1.
       -3    1    3    3    0  502 -0.16676452326E+03 -0.30528565473E+02  0.12711059659E+04  0.12823621900E+04  0.10100000352E+00 0. -1.
</event>
<event>
 5   0  0.7302027E-04  0.1605867E+04  0.7818609E-02  0.8816952E-01
        1   -1    0    0  501    0  0.00000000000E+00  0.00000000000E+00  0.70035547511E+03  0.70035547513E+03  0.50400001928E-02 0.  1.
       -1   -1    0    0    0  501  0.00000000000E+00  0.00000000000E+00 -0.92053595478E+03  0.92053595479E+03  0.50400001928E-02 0. -1.
    10030    2    1    2    0    0  0.00000000000E+00  0.00000000000E+00 -0.22018047967E+03  0.16208914299E+04  0.16058672373E+04 0.  0.
        5    1    3    3  502    0  0.50687995438E+03  0.60346720856E+03  0.44905362175E+02  0.78939124742E+03  0.46999998093E+01 0.  1.
       -5    1    3    3    0  502 -0.50687995438E+03 -0.60346720856E+03 -0.26508584185E+03  0.83150018250E+03  0.46999998093E+01 0. -1.
</event>
<event>
 5   0  0.1414751E-03  0.1634843E+04  0.7818609E-02  0.8799424E-01
        2   -1    0    0  501    0  0.00000000000E+00  0.00000000000E+00  0.11113411401E+04  0.11113411401E+04  0.25500000920E-02 0. -1.
       -2   -1    0    0    0  501  0.00000000000E+00  0.00000000000E+00 -0.60123584296E+03  0.60123584297E+03  0.25500000920E-02 0.  1.
    10030    2    1    2    0    0  0.00000000000E+00  0.00000000000E+00  0.51010529712E+03  0.17125769831E+04  0.16348432673E+04 0.  0.
        2    1    3    3  502    0  0.42681492166E+03  0.41295331284E+03  0.84343228300E+03  0.10315422589E+04  0.25500000920E-02 0. -1.
       -2    1    3    3    0  502 -0.42681492166E+03 -0.41295331284E+03 -0.33332698588E+03  0.68103472413E+03  0.25500000920E-02 0.  1.
</event>
<event>
 5   0  0.7601145E-04  0.1607682E+04  0.7818609E-02  0.8815843E-01
        1   -1    0    0  501    0  0.00000000000E+00  0.00000000000E+00  0.11821935426E+04  0.11821935426E+04  0.50400001928E-02 0.  1.
       -1   -1    0    0    0  501  0.00000000000E+00  0.00000000000E+00 -0.54657729460E+03  0.54657729463E+03  0.50400001928E-02 0. -1.
    10030    2    1    2    0    0  0.00000000000E+00  0.00000000000E+00  0.63561624800E+03  0.17287708372E+04  0.16076817449E+04 0.  0.
        4    1    3    3  502    0  0.36040458797E+03  0.52816842951E+03  0.84163883320E+03  0.10569819750E+04  0.12699999809E+01 0.  1.
       -4    1    3    3    0  502 -0.36040458797E+03 -0.52816842951E+03 -0.20602258520E+03  0.67178886227E+03  0.12699999809E+01 0. -1.
</event>
<event>
 5   0  0.1354766E-03  0.1550409E+04  0.7818609E-02  0.8851607E-01
        2   -1    0    0  501    0  0.00000000000E+00  0.00000000000E+00  0.14500320393E+04  0.14500320393E+04  0.25500000920E-02 0. -1.
       -2   -1    0    0    0  501  0.00000000000E+00  0.00000000000E+00 -0.41443355834E+03  0.41443355835E+03  0.25500000920E-02 0.  1.
    10030    2    1    2    0    0  0.00000000000E+00  0.00000000000E+00  0.10355984809E+04  0.18644655976E+04  0.15504088980E+04 0.  0.
        3    1    3    3  502    0 -0.48775931235E+03 -0.58600833377E+03  0.34932433048E+03  0.83865512107E+03  0.10100000352E+00 0.  1.
       -3    1    3    3    0  502  0.48775931235E+03  0.58600833377E+03  0.68627415047E+03  0.10258104766E+04  0.10100000352E+00 0. -1.
</event>
<event>
 5   0  0.1339162E-03  0.1702047E+04  0.7818609E-02  0.8760198E-01
       -2   -1    0    0    0  501  0.00000000000E+00  0.00000000000E+00  0.51362105384E+03  0.51362105385E+03  0.25500000920E-02 0. -1.
        2   -1    0    0  501    0  0.00000000000E+00  0.00000000000E+00 -0.14100692474E+04  0.14100692474E+04  0.25500000920E-02 0.  1.
    10030    2    1    2    0    0  0.00000000000E+00  0.00000000000E+00 -0.89644819355E+03  0.19236903012E+04  0.17020473000E+04 0.  0.
        5    1    3    3  502    0 -0.78499203234E+03 -0.32757351845E+03 -0.47817522012E+03  0.97580250664E+03  0.46999998093E+01 0. -1.
       -5    1    3    3    0  502  0.78499203234E+03  0.32757351845E+03 -0.41827297342E+03  0.94788779459E+03  0.46999998093E+01 0.  1.
</event>
<event>
 5   0  0.1375777E-03  0.1592459E+04  0.7818609E-02  0.8825194E-01
        2   -1    0    0  501    0  0.00000000000E+00  0.00000000000E+00  0.16796047649E+04  0.16796047649E+04  0.25500000920E-02 0.  1.
       -2   -1    0    0    0  501  0.00000000000E+00  0.00000000000E+00 -0.37745867572E+03  0.37745867573E+03  0.25500000920E-02 0. -1.
    10030    2    1    2    0    0  0.00000000000E+00  0.00000000000E+00  0.13021460892E+04  0.20570634406E+04  0.15924589669E+04 0.  0.
        1    1    3    3  502    0 -0.98499522244E+01  0.50446157225E+03  0.14467371255E+04  0.15321967268E+04  0.50400001928E-02 0.  1.
       -1    1    3    3    0  502  0.98499522244E+01 -0.50446157225E+03 -0.14459103632E+03  0.52486671379E+03  0.50400001928E-02 0. -1.
</event>
<event>
 5   0  0.7601145E-04  0.1061083E+04  0.7818609E-02  0.9243976E-01
        1   -1    0    0  501    0  0.00000000000E+00  0.00000000000E+00  0.77482932066E+03  0.77482932067E+03  0.50400001928E-02 0. -1.
       -1   -1    0    0    0  501  0.00000000000E+00  0.00000000000E+00 -0.36327252674E+03  0.36327252678E+03  0.50400001928E-02 0.  1.
    10030    2    1    2    0    0  0.00000000000E+00  0.00000000000E+00  0.41155679392E+03  0.11381018475E+04  0.10610828528E+04 0.  0.
        4    1    3    3  502    0 -0.35810625433E+03  0.18707072700E+03  0.57459343217E+03  0.70242065138E+03  0.12699999809E+01 0. -1.
       -4    1    3    3    0  502  0.35810625433E+03 -0.18707072700E+03 -0.16303663826E+03  0.43568119607E+03  0.12699999809E+01 0.  1.
</event>
<event>
 5   0  0.1375777E-03  0.1578960E+04  0.7818609E-02  0.8833579E-01
       -2   -1    0    0    0  501  0.00000000000E+00  0.00000000000E+00  0.30141954232E+03  0.30141954233E+03  0.25500000920E-02 0.  1.
        2   -1    0    0  501    0  0.00000000000E+00  0.00000000000E+00 -0.20678115424E+04  0.20678115424E+04  0.25500000920E-02 0. -1.
    10030    2    1    2    0    0  0.00000000000E+00  0.00000000000E+00 -0.17663920000E+04  0.23692310847E+04  0.15789601752E+04 0.  0.
        1    1    3    3  502    0  0.62963970502E+03 -0.18317861293E+03 -0.22352448113E+03  0.69279416572E+03  0.50400001928E-02 0.  1.
       -1    1    3    3    0  502 -0.62963970502E+03  0.18317861293E+03 -0.15428675189E+04  0.16764369190E+04  0.50400001928E-02 0. -1.
</event>
<event>
 5   0  0.7633213E-04  0.1386951E+04  0.7818609E-02  0.8963318E-01
        1   -1    0    0  501    0  0.00000000000E+00  0.00000000000E+00  0.12056372551E+04  0.12056372551E+04  0.50400001928E-02 0.  1.
       -1   -1    0    0    0  501  0.00000000000E+00  0.00000000000E+00 -0.39888322429E+03  0.39888322432E+03  0.50400001928E-02 0. -1.
    10030    2    1    2    0    0  0.00000000000E+00  0.00000000000E+00  0.80675403080E+03  0.16045204794E+04  0.13869512979E+04 0.  0.
        1    1    3    3  502    0 -0.63265313345E+03  0.28369123422E+03  0.38795235095E+03  0.79450470752E+03  0.50400001928E-02 0.  1.
       -1    1    3    3    0  502  0.63265313345E+03 -0.28369123422E+03  0.41880167984E+03  0.81001577189E+03  0.50400001928E-02 0. -1.
</event>
<event>
 5   0  0.1414796E-03  0.1577350E+04  0.7818609E-02  0.8834585E-01
        2   -1    0    0  501    0  0.00000000000E+00  0.00000000000E+00  0.70050321906E+03  0.70050321906E+03  0.25500000920E-02 0.  1.
       -2   -1    0    0    0  501  0.00000000000E+00  0.00000000000E+00 -0.88794451454E+03  0.88794451454E+03  0.25500000920E-02 0. -1.
    10030    2    1    2    0    0  0.00000000000E+00  0.00000000000E+00 -0.18744129548E+03  0.15884477336E+04  0.15773496642E+04 0.  0.
        4    1    3    3  502    0 -0.41890708800E+03 -0.32659904197E+03  0.49335303342E+03  0.72494752298E+03  0.12699999809E+01 0.  1.
       -4    1    3    3    0  502  0.41890708800E+03  0.32659904197E+03 -0.68079432889E+03  0.86350021062E+03  0.12699999809E+01 0. -1.
</event>
<event>
 5   0  0.7633213E-04  0.1636180E+04  0.7818609E-02  0.8798625E-01
        1   -1    0    0  501    0  0.00000000000E+00  0.00000000000E+00  0.69805400589E+03  0.69805400591E+03  0.50400001928E-02 0.  1.
       -1   -1    0    0    0  501  0.00000000000E+00  0.00000000000E+00 -0.95876690150E+03  0.95876690151E+03  0.50400001928E-02 0. -1.
    10030    2    1    2    0    0  0.00000000000E+00  0.00000000000E+00 -0.26071289560E+03  0.16568209074E+04  0.16361797900E+04 0.  0.
        1    1    3    3  502    0  0.57308723964E+02 -0.69710459860E+03  0.29929804082E+03  0.76080117540E+03  0.50400001928E-02 0.  1.
       -1    1    3    3    0  502 -0.57308723964E+02  0.69710459860E+03 -0.56001093642E+03  0.89601973202E+03  0.50400001928E-02 0. -1.
</event>
<event>
 5   0  0.1339162E-03  0.9196751E+03  0.7818609E-02  0.9401315E-01
        2   -1    0    0  501    0  0.00000000000E+00  0.00000000000E+00  0.35967067462E+03  0.35967067463E+03  0.25500000920E-02 0.  1.
       -2   -1    0    0    0  501  0.00000000000E+00  0.00000000000E+00 -0.58790051972E+03  0.58790051973E+03  0.25500000920E-02 0. -1.
    10030    2    1    2    0    0  0.00000000000E+00  0.00000000000E+00 -0.22822984510E+03  0.94757119435E+03  0.91967510903E+03 0.  0.
        5    1    3    3  502    0 -0.18312711251E+03  0.27563358444E+03 -0.44304618567E+03  0.55301123392E+03  0.46999998093E+01 0. -1.
       -5    1    3    3    0  502  0.18312711251E+03 -0.27563358444E+03  0.21481634057E+03  0.39455996043E+03  0.46999998093E+01 0.  1.
</event>
<event>
 5   0  0.1339162E-03  0.1574463E+04  0.7818609E-02  0.8836392E-01
       -2   -1    0    0    0  501  0.00000000000E+00  0.00000000000E+00  0.24317068802E+03  0.24317068803E+03  0.25500000920E-02 0. -1.
        2   -1    0    0  501    0  0.00000000000E+00  0.00000000000E+00 -0.25485542926E+04  0.25485542926E+04  0.25500000920E-02 0.  1.
    10030    2    1    2    0    0  0.00000000000E+00  0.00000000000E+00 -0.23053836046E+04  0.27917249807E+04  0.15744633382E+04 0.  0.
        5    1    3    3  502    0  0.20576262288E+03  0.73265575153E+03 -0.79546524328E+03  0.11008677262E+04  0.46999998093E+01 0. -1.
       -5    1    3    3    0  502 -0.20576262288E+03 -0.73265575153E+03 -0.15099183613E+04  0.16908572545E+04  0.46999998093E+01 0.  1.
</event>
<event>
 5   0  0.1414751E-03  0.1524785E+04  0.7818609E-02  0.8868136E-01
        2   -1    0    0  501    0  0.00000000000E+00  0.00000000000E+00  0.29450917922E+04  0.29450917922E+04  0.25500000920E-02 0.  1.
       -2   -1    0    0    0  501  0.00000000000E+00  0.00000000000E+00 -0.19735964407E+03  0.19735964409E+03  0.25500000920E-02 0. -1.
    10030    2    1    2    0    0  0.00000000000E+00  0.00000000000E+00  0.27477321482E+04  0.31424514363E+04  0.15247849263E+04 0.  0.
        2    1    3    3  502    0  0.46355802571E+03  0.28688708121E+03  0.27547010250E+03  0.61079785358E+03  0.25500000920E-02 0. -1.
       -2    1    3    3    0  502 -0.46355802571E+03 -0.28688708121E+03  0.24722620457E+04  0.25316535827E+04  0.25500000920E-02 0.  1.
</event>
<event>
 5   0  0.1414751E-03  0.1603050E+04  0.7818609E-02  0.8818677E-01
       -2   -1    0    0    0  501  0.00000000000E+00  0.00000000000E+00  0.65654855456E+03  0.65654855457E+03  0.25500000920E-02 0.  1.
        2   -1    0    0  501    0  0.00000000000E+00  0.00000000000E+00 -0.97851415638E+03  0.97851415638E+03  0.25500000920E-02 0. -1.
    10030    2    1    2    0    0  0.00000000000E+00  0.00000000000E+00 -0.32196560181E+03  0.16350627109E+04  0.16030496624E+04 0.  0.
        2    1    3    3  502    0  0.71772513186E+03  0.35364461763E+03 -0.11262100199E+03  0.80800827383E+03  0.25500000920E-02 0. -1.
       -2    1    3    3    0  502 -0.71772513186E+03 -0.35364461763E+03 -0.20934459982E+03  0.82705443712E+03  0.25500000920E-02 0.  1.
</event>
<event>
 5   0  0.1375777E-03  0.1564330E+04  0.7818609E-02  0.8842766E-01
        2   -1    0    0  501    0  0.00000000000E+00  0.00000000000E+00  0.41076620630E+03  0.41076620631E+03  0.25500000920E-02 0. -1.
       -2   -1    0    0    0  501  0.00000000000E+00  0.00000000000E+00 -0.14893677430E+04  0.14893677430E+04  0.25500000920E-02 0.  1.
    10030    2    1    2    0    0  0.00000000000E+00  0.00000000000E+00 -0.10786015367E+04  0.19001339493E+04  0.15643298087E+04 0.  0.
        1    1    3    3  502    0  0.23960365988E+03  0.74438941969E+03 -0.55875114952E+03  0.96110788629E+03  0.50400001928E-02 0.  1.
       -1    1    3    3    0  502 -0.23960365988E+03 -0.74438941969E+03 -0.51985038720E+03  0.93902606304E+03  0.50400001928E-02 0. -1.
</event>
<event>
 5   0  0.7302027E-04  0.1620318E+04  0.7818609E-02  0.8808162E-01
       -1   -1    0    0    0  501  0.00000000000E+00  0.00000000000E+00  0.38949955240E+03  0.38949955243E+03  0.50400001928E-02 0. -1.
        1   -1    0    0  501    0  0.00000000000E+00  0.00000000000E+00 -0.16851296338E+04  0.16851296338E+04  0.50400001928E-02 0.  1.
    10030    2    1    2    0    0  0.00000000000E+00  0.00000000000E+00 -0.12956300814E+04  0.20746291862E+04  0.16203175468E+04 0.  0.
        5    1    3    3  502    0 -0.34139289268E+03 -0.23986362629E+03  0.24133926028E+03  0.48202737987E+03  0.46999998093E+01 0. -1.
       -5    1    3    3    0  502  0.34139289268E+03  0.23986362629E+03 -0.15369693416E+04  0.15926018063E+04  0.46999998093E+01 0.  1.
</event>
<event>
 5   0  0.7499834E-04  0.1615298E+04  0.7818609E-02  0.8811205E-01
        1   -1    0    0  501    0  0.00000000000E+00  0.00000000000E+00  0.10756114780E+04  0.10756114780E+04  0.50400001928E-02 0. -1.
       -1   -1    0    0    0  501  0.00000000000E+00  0.00000000000E+00 -0.60644262074E+03  0.60644262076E+03  0.50400001928E-02 0.  1.
    10030    2    1    2    0    0  0.00000000000E+00  0.00000000000E+00  0.46916885722E+03  0.16820540987E+04  0.16152976736E+04 0.  0.
        3    1    3    3  502    0 -0.68654544540E+03 -0.12133816025E+03 -0.18997729207E+03  0.72260568738E+03  0.10100000352E+00 0. -1.
       -3    1    3    3    0  502  0.68654544540E+03  0.12133816025E+03  0.65914614929E+03  0.95944841136E+03  0.10100000352E+00 0.  1.
</event>
<event>
 5   0  0.1354766E-03  0.1703556E+04  0.7818609E-02  0.8759339E-01
        2   -1    0    0  501    0  0.00000000000E+00  0.00000000000E+00  0.10498515549E+04  0.10498515549E+04  0.25500000920E-02 0.  1.
       -2   -1    0    0    0  501  0.00000000000E+00  0.00000000000E+00 -0.69107445761E+03  0.69107445761E+03  0.25500000920E-02 0. -1.
    10030    2    1    2    0    0  0.00000000000E+00  0.00000000000E+00  0.35877709728E+03  0.17409260125E+04  0.17035558035E+04 0.  0.
        3    1    3    3  502    0  0.37187873061E+03 -0.50940711918E+02  0.96077709000E+03  0.10314947277E+04  0.10100000352E+00 0.  1.
       -3    1    3    3    0  502 -0.37187873061E+03  0.50940711918E+02 -0.60199999272E+03  0.70943128480E+03  0.10100000352E+00 0. -1.
</event>
<event>
 5   0  0.7633213E-04  0.1597295E+04  0.7818609E-02  0.8822211E-01
        1   -1    0    0  501    0  0.00000000000E+00  0.00000000000E+00  0.87015423087E+03  0.87015423089E+03  0.50400001928E-02 0. -1.
       -1   -1    0    0    0  501  0.00000000000E+00  0.00000000000E+00 -0.73301737288E+03  0.73301737290E+03  0.50400001928E-02 0.  1.
    10030    2    1    2    0    0  0.00000000000E+00  0.00000000000E+00  0.13713685799E+03  0.16031716038E+04  0.15972954246E+04 0.  0.
        1    1    3    3  502    0  0.79214106782E+03  0.10173259725E+03  0.69656687589E+02  0.80167889259E+03  0.50400001928E-02 0. -1.
       -1    1    3    3    0  502 -0.79214106782E+03 -0.10173259725E+03  0.67480170405E+02  0.80149271119E+03  0.50400001928E-02 0.  1.
</event>
<event>
 5   0  0.1414751E-03  0.1583253E+04  0.7818609E-02  0.8830903E-01
        2   -1    0    0  501    0  0.00000000000E+00  0.00000000000E+00  0.12348441280E+04  0.12348441280E+04  0.25500000920E-02 0. -1.
       -2   -1    0    0    0  501  0.00000000000E+00  0.00000000000E+00 -0.50749123855E+03  0.50749123856E+03  0.25500000920E-02 0.  1.
    10030    2    1    2    0    0  0.00000000000E+00  0.00000000000E+00  0.72735288944E+03  0.17423353666E+04  0.15832530764E+04 0.  0.
        2    1    3    3  502    0 -0.60166147543E+03 -0.14286822388E+03 -0.18021443962E+03  0.64411575409E+03  0.25500000920E-02 0.  1.
       -2    1    3    3    0  502  0.60166147543E+03  0.14286822388E+03  0.90756732906E+03  0.10982196125E+04  0.25500000920E-02 0. -1.
</event>
<event>
 5   0  0.7601145E-04  0.1542216E+04  0.7818609E-02  0.8856855E-01
        1   -1    0    0  501    0  0.00000000000E+00  0.00000000000E+00  0.65906295143E+03  0.65906295145E+03  0.50400001928E-02 0. -1.
       -1   -1    0    0    0  501  0.00000000000E+00  0.00000000000E+00 -0.90220184730E+03  0.90220184731E+03  0.50400001928E-02 0.  1.
    10030    2    1    2    0    0  0.00000000000E+00  0.00000000000E+00 -0.24313889587E+03  0.15612647988E+04  0.15422163432E+04 0.  0.
        4    1    3    3  502    0 -0.59788929350E+03 -0.15321212883E+03  0.34637416613E+03  0.70775860261E+03  0.12699999809E+01 0. -1.
       -4    1    3    3    0  502  0.59788929350E+03  0.15321212883E+03 -0.58951306200E+03  0.85350619615E+03  0.12699999809E+01 0.  1.
</event>
<event>
 5   0  0.7633213E-04  0.1617604E+04  0.7818609E-02  0.8809806E-01
        1   -1    0    0  501    0  0.00000000000E+00  0.00000000000E+00  0.91740244218E+03  0.91740244219E+03  0.50400001928E-02 0.  1.
       -1   -1    0    0    0  501  0.00000000000E+00  0.00000000000E+00 -0.71305742964E+03  0.71305742966E+03  0.50400001928E-02 0. -1.
    10030    2    1    2    0    0  0.00000000000E+00  0.00000000000E+00  0.20434501254E+03  0.16304598719E+04  0.16176039409E+04 0.  0.
        1    1    3    3  502    0 -0.46859515198E+03  0.16355909893E+03 -0.54151672295E+03  0.73455657138E+03  0.50400001928E-02 0. -1.
       -1    1    3    3    0  502  0.46859515198E+03 -0.16355909893E+03  0.74586173549E+03  0.89590330047E+03  0.50400001928E-02 0.  1.
</event>
<event>
 5   0  0.7124495E-04  0.9208237E+03  0.7818609E-02  0.9399919E-01
        1   -1    0    0  501    0  0.00000000000E+00  0.00000000000E+00  0.84305396653E+03  0.84305396655E+03  0.50400001928E-02 0. -1.
       -1   -1    0    0    0  501  0.00000000000E+00  0.00000000000E+00 -0.25144185722E+03  0.25144185727E+03  0.50400001928E-02 0.  1.
    10030    2    1    2    0    0  0.00000000000E+00  0.00000000000E+00  0.59161210931E+03  0.10944958238E+04  0.92082366415E+03 0.  0.
        2    1    3    3  502    0 -0.23659248208E+03 -0.79927609115E+02  0.75555915687E+03  0.79576005480E+03  0.25500000920E-02 0. -1.
       -2    1    3    3    0  502  0.23659248208E+03  0.79927609115E+02 -0.16394704756E+03  0.29873576901E+03  0.25500000920E-02 0.  1.
</event>
<event>
 5   0  0.7302027E-04  0.1589975E+04  0.7818609E-02  0.8826731E-01
        1   -1    0    0  501    0  0.00000000000E+00  0.00000000000E+00  0.12423164513E+04  0.12423164513E+04  0.50400001928E-02 0. -1.
       -1   -1    0    0    0  501  0.00000000000E+00  0.00000000000E+00 -0.50873106855E+03  0.50873106857E+03  0.50400001928E-02 0.  1.
    10030    2    1    2    0    0  0.00000000000E+00  0.00000000000E+00  0.73358538278E+03  0.17510475199E+04  0.15899748121E+04 0.  0.
        5    1    3    3  502    0 -0.61804665299E+02 -0.34630632360E+03 -0.41833441637E+03  0.54660192127E+03  0.46999998093E+01 0.  1.
       -5    1    3    3    0  502  0.61804665299E+02  0.34630632360E+03  0.11519197991E+04  0.12044455986E+04  0.46999998093E+01 0. -1.
</event>
<event>
 5   0  0.1414796E-03  0.1715738E+04  0.7818609E-02  0.8752439E-01
       -2   -1    0    0    0  501  0.00000000000E+00  0.00000000000E+00  0.34821435250E+03  0.34821435251E+03  0.25500000920E-02 0. -1.
        2   -1    0    0  501    0  0.00000000000E+00  0.00000000000E+00 -0.21134652507E+04  0.21134652507E+04  0.25500000920E-02 0.  1.
    10030    2    1    2    0    0  0.00000000000E+00  0.00000000000E+00 -0.17652508982E+04  0.24616796033E+04  0.17157376651E+04 0.  0.
        4    1    3    3  502    0  0.64528403017E+03  0.60376015886E+02 -0.16890353517E+04  0.18091099401E+04  0.12699999809E+01 0.  1.
       -4    1    3    3    0  502 -0.64528403017E+03 -0.60376015886E+02 -0.76215546508E+02  0.65256966319E+03  0.12699999809E+01 0. -1.
</event>
<event>
 5   0  0.1414796E-03  0.1795969E+04  0.7818609E-02  0.8708446E-01
        2   -1    0    0  501    0  0.00000000000E+00  0.00000000000E+00  0.80727405805E+03  0.80727405806E+03  0.25500000920E-02 0. -1.
       -2   -1    0    0    0  501  0.00000000000E+00  0.00000000000E+00 -0.99888793071E+03  0.99888793071E+03  0.25500000920E-02 0.  1.
    10030    2    1    2    0    0  0.00000000000E+00  0.00000000000E+00 -0.19161387265E+03  0.18061619888E+04  0.17959691683E+04 0.  0.
        4    1    3    3  502    0 -0.29237727065E+03 -0.49425897410E+03  0.59847212113E+03  0.82942564136E+03  0.12699999809E+01 0. -1.
       -4    1    3    3    0  502  0.29237727065E+03  0.49425897410E+03 -0.79008599379E+03  0.97673634741E+03  0.12699999809E+01 0.  1.
</event>
<event>
 5   0  0.7124495E-04  0.1599302E+04  0.7818609E-02  0.8820977E-01
        1   -1    0    0  501    0  0.00000000000E+00  0.00000000000E+00  0.14724897281E+04  0.14724897281E+04  0.50400001928E-02 0. -1.
       -1   -1    0    0    0  501  0.00000000000E+00  0.00000000000E+00 -0.43425900030E+03  0.43425900033E+03  0.50400001928E-02 0.  1.
    10030    2    1    2    0    0  0.00000000000E+00  0.00000000000E+00  0.10382307278E+04  0.19067487285E+04  0.15993022445E+04 0.  0.
        2    1    3    3  502    0  0.47901647330E+03  0.64029576975E+03  0.52214629156E+03  0.95502471395E+03  0.25500000920E-02 0. -1.
       -2    1    3    3    0  502 -0.47901647330E+03 -0.64029576975E+03  0.51608443627E+03  0.95172401452E+03  0.25500000920E-02 0.  1.
</event>
<event>
 5   0  0.1414796E-03  0.1624055E+04  0.7818609E-02  0.8805905E-01
        2   -1    0    0  501    0  0.00000000000E+00  0.00000000000E+00  0.72260104740E+03  0.72260104741E+03  0.25500000920E-02 0. -1.
       -2   -1    0    0    0  501  0.00000000000E+00  0.00000000000E+00 -0.91252117221E+03  0.91252117221E+03  0.25500000920E-02 0.  1.
    10030    2    1    2    0    0  0.00000000000E+00  0.00000000000E+00 -0.18992012481E+03  0.16351222196E+04  0.16240551158E+04 0.  0.
        4    1    3    3  502    0  0.84134174171E+02 -0.43208227620E+03 -0.78196875663E+03  0.89735745493E+03  0.12699999809E+01 0.  1.
       -4    1    3    3    0  502 -0.84134174171E+02  0.43208227620E+03  0.59204863182E+03  0.73776476469E+03  0.12699999809E+01 0. -1.
</event>
<event>
 5   0  0.1375777E-03  0.1576964E+04  0.7818609E-02  0.8834826E-01
        2   -1    0    0  501    0  0.00000000000E+00  0.00000000000E+00  0.10360084634E+04  0.10360084634E+04  0.25500000920E-02 0.  1.
       -2   -1    0    0    0  501  0.00000000000E+00  0.00000000000E+00 -0.60009546820E+03  0.60009546821E+03  0.25500000920E-02 0. -1.
    10030    2    1    2    0    0  0.00000000000E+00  0.00000000000E+00  0.43591299521E+03  0.16361039316E+04  0.15769641517E+04 0.  0.
        1    1    3    3  502    0 -0.62446829250E+02 -0.57804650941E+02 -0.59531759125E+03  0.60136845497E+03  0.50400001928E-02 0. -1.
       -1    1    3    3    0  502  0.62446829250E+02  0.57804650941E+02  0.10312305865E+04  0.10347354767E+04  0.50400001928E-02 0.  1.
</event>
<event>
 5   0  0.1414796E-03  0.1553274E+04  0.7818609E-02  0.8849779E-01
        2   -1    0    0  501    0  0.00000000000E+00  0.00000000000E+00  0.92105538750E+03  0.92105538751E+03  0.25500000920E-02 0.  1.
       -2   -1    0    0    0  501  0.00000000000E+00  0.00000000000E+00 -0.65486298747E+03  0.65486298748E+03  0.25500000920E-02 0. -1.
    10030    2    1    2    0    0  0.00000000000E+00  0.00000000000E+00  0.26619240003E+03  0.15759183750E+04  0.15532740681E+04 0.  0.
        4    1    3    3  502    0 -0.21428758850E+03 -0.29829913779E+03  0.82736883869E+03  0.90523055313E+03  0.12699999809E+01 0.  1.
       -4    1    3    3    0  502  0.21428758850E+03  0.29829913779E+03 -0.56117643865E+03  0.67068782186E+03  0.12699999809E+01 0. -1.
</event>
<event>
 5   0  0.7302027E-04  0.1676952E+04  0.7818609E-02  0.8774620E-01
        1   -1    0    0  501    0  0.00000000000E+00  0.00000000000E+00  0.67719843382E+03  0.67719843384E+03  0.50400001928E-02 0.  1.
       -1   -1    0    0    0  501  0.00000000000E+00  0.00000000000E+00 -0.10381624795E+04  0.10381624795E+04  0.50400001928E-02 0. -1.
    10030    2    1    2    0    0  0.00000000000E+00  0.00000000000E+00 -0.36096404564E+03  0.17153609133E+04  0.16769520031E+04 0.  0.
        5    1    3    3  502    0  0.77780605262E+03  0.31182243501E+03 -0.15146995698E+03  0.85157543667E+03  0.46999998093E+01 0.  1.
       -5    1    3    3    0  502 -0.77780605262E+03 -0.31182243501E+03 -0.20949408866E+03  0.86378547664E+03  0.46999998093E+01 0. -1.
</event>
<event>
 5   0  0.1339162E-03  0.1606802E+04  0.7818609E-02  0.8816380E-01
        2   -1    0    0  501    0  0.00000000000E+00  0.00000000000E+00  0.16998527084E+04  0.16998527084E+04  0.25500000920E-02 0.  1.
       -2   -1    0    0    0  501  0.00000000000E+00  0.00000000000E+00 -0.37971142050E+03  0.37971142051E+03  0.25500000920E-02 0. -1.
    10030    2    1    2    0    0  0.00000000000E+00  0.00000000000E+00  0.13201412879E+04  0.20795641289E+04  0.16068023980E+04 0.  0.
        5    1    3    3  502    0 -0.26901698034E+03  0.62580641962E+03  0.12113370244E+04  0.13897349701E+04  0.46999998093E+01 0.  1.
       -5    1    3    3    0  502  0.26901698034E+03 -0.62580641962E+03  0.10880426351E+03  0.68982915878E+03  0.46999998093E+01 0. -1.
</event>
<event>
 5   0  0.7302027E-04  0.1597024E+04  0.7818609E-02  0.8822378E-01
       -1   -1    0    0    0  501  0.00000000000E+00  0.00000000000E+00  0.11971653401E+04  0.11971653401E+04  0.50400001928E-02 0.  1.
        1   -1    0    0  501    0  0.00000000000E+00  0.00000000000E+00 -0.53260952308E+03  0.53260952311E+03  0.50400001928E-02 0. -1.
    10030    2    1    2    0    0  0.00000000000E+00  0.00000000000E+00  0.66455581700E+03  0.17297748632E+04  0.15970243090E+04 0.  0.
        5    1    3    3  502    0 -0.63628596227E+03 -0.16422541671E+03  0.82360286902E+03  0.10536477538E+04  0.46999998093E+01 0. -1.
       -5    1    3    3    0  502  0.63628596227E+03  0.16422541671E+03 -0.15904705202E+03  0.67612710938E+03  0.46999998093E+01 0.  1.
</event>
<event>
 5   0  0.7499834E-04  0.1571078E+04  0.7818609E-02  0.8838516E-01
       -1   -1    0    0    0  501  0.00000000000E+00  0.00000000000E+00  0.12774853869E+04  0.12774853869E+04  0.50400001928E-02 0. -1.
        1   -1    0    0  501    0  0.00000000000E+00  0.00000000000E+00 -0.48303600317E+03  0.48303600319E+03  0.50400001928E-02 0.  1.
    10030    2    1    2    0    0  0.00000000000E+00  0.00000000000E+00  0.79444938372E+03  0.17605213901E+04  0.15710778917E+04 0.  0.
        3    1    3    3  502    0  0.26411873767E+03 -0.61429730402E+03  0.85918657265E+03  0.10887246953E+04  0.10100000352E+00 0. -1.
       -3    1    3    3    0  502 -0.26411873767E+03  0.61429730402E+03 -0.64737188932E+02  0.67179669480E+03  0.10100000352E+00 0.  1.
</event>
<event>
 5   0  0.1339162E-03  0.1606295E+04  0.7818609E-02  0.8816690E-01
       -2   -1    0    0    0  501  0.00000000000E+00  0.00000000000E+00  0.34885089107E+03  0.34885089108E+03  0.25500000920E-02 0. -1.
        2   -1    0    0  501    0  0.00000000000E+00  0.00000000000E+00 -0.18490600738E+04  0.18490600738E+04  0.25500000920E-02 0.  1.
    10030    2    1    2    0    0  0.00000000000E+00  0.00000000000E+00 -0.15002091828E+04  0.21979109649E+04  0.16062954329E+04 0.  0.
        5    1    3    3  502    0  0.25820137282E+03 -0.56138535617E+03 -0.48116347774E+02  0.61980540492E+03  0.46999998093E+01 0. -1.
       -5    1    3    3    0  502 -0.25820137282E+03  0.56138535617E+03 -0.14520928350E+04  0.15781055600E+04  0.46999998093E+01 0.  1.
</event>
<event>
 5   0  0.7633213E-04  0.1608995E+04  0.7818609E-02  0.8815041E-01
        1   -1    0    0  501    0  0.00000000000E+00  0.00000000000E+00  0.70719261938E+03  0.70719261940E+03  0.50400001928E-02 0.  1.
       -1   -1    0    0    0  501  0.00000000000E+00  0.00000000000E+00 -0.91519096010E+03  0.91519096012E+03  0.50400001928E-02 0. -1.
    10030    2    1    2    0    0  0.00000000000E+00  0.00000000000E+00 -0.20799834072E+03  0.16223835795E+04  0.16089950806E+04 0.  0.
        1    1    3    3  502    0  0.19462485658E+03  0.51522422135E+03 -0.69529280844E+03  0.88699882895E+03  0.50400001928E-02 0. -1.
       -1    1    3    3    0  502 -0.19462485658E+03 -0.51522422135E+03  0.48729446772E+03  0.73538475056E+03  0.50400001928E-02 0.  1.
</event>
<event>
 5   0  0.7601145E-04  0.1605067E+04  0.7818609E-02  0.8817441E-01
        1   -1    0    0  501    0  0.00000000000E+00  0.00000000000E+00  0.13278836006E+04  0.13278836006E+04  0.50400001928E-02 0. -1.
       -1   -1    0    0    0  501  0.00000000000E+00  0.00000000000E+00 -0.48502772757E+03  0.48502772760E+03  0.50400001928E-02 0.  1.
    10030    2    1    2    0    0  0.00000000000E+00  0.00000000000E+00  0.84285587300E+03  0.18129113282E+04  0.16050674320E+04 0.  0.
        4    1    3    3  502    0 -0.55586213757E+03 -0.15641263863E+03 -0.20806633434E+03  0.61379218135E+03  0.12699999809E+01 0.  1.
       -4    1    3    3    0  502  0.55586213757E+03  0.15641263863E+03  0.10509222073E+04  0.11991191468E+04  0.12699999809E+01 0. -1.
</event>
<event>
 5   0  0.7302027E-04  0.1614611E+04  0.7818609E-02  0.8811622E-01
        1   -1    0    0  501    0  0.00000000000E+00  0.00000000000E+00  0.11415981413E+04  0.11415981413E+04  0.50400001928E-02 0. -1.
       -1   -1    0    0    0  501  0.00000000000E+00  0.00000000000E+00 -0.57090325936E+03  0.57090325939E+03  0.50400001928E-02 0.  1.
    10030    2    1    2    0    0  0.00000000000E+00  0.00000000000E+00  0.57069488196E+03  0.17125014007E+04  0.16146109126E+04 0.  0.
        5    1    3    3  502    0  0.28681753837E+03 -0.70467702406E+03  0.57168948054E+03  0.95167481879E+03  0.46999998093E+01 0. -1.
       -5    1    3    3    0  502 -0.28681753837E+03  0.70467702406E+03 -0.99459858684E+00  0.76082658193E+03  0.46999998093E+01 0.  1.
</event>
<event>
 5   0  0.7601145E-04  0.1595400E+04  0.7818609E-02  0.8823379E-01
        1   -1    0    0  501    0  0.00000000000E+00  0.00000000000E+00  0.83877924398E+03  0.83877924399E+03  0.50400001928E-02 0.  1.
       -1   -1    0    0    0  501  0.00000000000E+00  0.00000000000E+00 -0.75863289882E+03  0.75863289884E+03  0.50400001928E-02 0. -1.
    10030    2    1    2    0    0  0.00000000000E+00  0.00000000000E+00  0.80146345156E+02  0.15974121428E+04  0.15954003001E+04 0.  0.
        4    1    3    3  502    0  0.81498903312E+02 -0.28037319010E+03 -0.70320566534E+03  0.76141382811E+03  0.12699999809E+01 0. -1.
       -4    1    3    3    0  502 -0.81498903312E+02  0.28037319010E+03  0.78335201049E+03  0.83599831472E+03  0.12699999809E+01 0.  1.
</event>
<event>
 5   0  0.7633213E-04  0.1615548E+04  0.7818609E-02  0.8811053E-01
        1   -1    0    0  501    0  0.00000000000E+00  0.00000000000E+00  0.16985152196E+04  0.16985152197E+04  0.50400001928E-02 0.  1.
       -1   -1    0    0    0  501  0.00000000000E+00  0.00000000000E+00 -0.38415832700E+03  0.38415832703E+03  0.50400001928E-02 0. -1.
    10030    2    1    2    0    0  0.00000000000E+00  0.00000000000E+00  0.13143568926E+04  0.20826735467E+04  0.16155479135E+04 0.  0.
        1    1    3    3  502    0  0.57301786698E+03 -0.21948130465E+03  0.13344112660E+04  0.14687324283E+04  0.50400001928E-02 0.  1.
       -1    1    3    3    0  502 -0.57301786698E+03  0.21948130465E+03 -0.20054373360E+02  0.61394111842E+03  0.50400001928E-02 0. -1.
</event>
<event>
 5   0  0.1414796E-03  0.1587035E+04  0.7818609E-02  0.8828553E-01
       -2   -1    0    0    0  501  0.00000000000E+00  0.00000000000E+00  0.39961576741E+03  0.39961576742E+03  0.25500000920E-02 0.  1.
        2   -1    0    0  501    0  0.00000000000E+00  0.00000000000E+00 -0.15756888246E+04  0.15756888246E+04  0.25500000920E-02 0. -1.
    10030    2    1    2    0    0  0.00000000000E+00  0.00000000000E+00 -0.11760730572E+04  0.19753045920E+04  0.15870350958E+04 0.  0.
        4    1    3    3  502    0 -0.13028652188E+03 -0.49344035499E+03 -0.13443199468E+04  0.14379345236E+04  0.12699999809E+01 0. -1.
       -4    1    3    3    0  502  0.13028652188E+03  0.49344035499E+03  0.16824688964E+03  0.53737006847E+03  0.12699999809E+01 0.  1.
</event>
<event>
 5   0  0.7601145E-04  0.1620340E+04  0.7818609E-02  0.8808149E-01
       -1   -1    0    0    0  501  0.00000000000E+00  0.00000000000E+00  0.92337164312E+03  0.92337164313E+03  0.50400001928E-02 0.  1.
        1   -1    0    0  501    0  0.00000000000E+00  0.00000000000E+00 -0.71084598781E+03  0.71084598783E+03  0.50400001928E-02 0. -1.
    10030    2    1    2    0    0  0.00000000000E+00  0.00000000000E+00  0.21252565530E+03  0.16342176310E+04  0.16203395049E+04 0.  0.
        4    1    3    3  502    0  0.10206088147E+03  0.74426511922E+03 -0.19969399601E+03  0.77731994452E+03  0.12699999809E+01 0. -1.
       -4    1    3    3    0  502 -0.10206088147E+03 -0.74426511922E+03  0.41221965131E+03  0.85689768645E+03  0.12699999809E+01 0.  1.
</event>
<event>
 5   0  0.7633213E-04  0.1656633E+04  0.7818609E-02  0.8786492E-01
       -1   -1    0    0    0  501  0.00000000000E+00  0.00000000000E+00  0.34720026876E+03  0.34720026880E+03  0.50400001928E-02 0.  1.
        1   -1    0    0  501    0  0.00000000000E+00  0.00000000000E+00 -0.19761163541E+04  0.19761163541E+04  0.50400001928E-02 0. -1.
    10030    2    1    2    0    0  0.00000000000E+00  0.00000000000E+00 -0.16289160853E+04  0.23233166229E+04  0.16566328855E+04 0.  0.
        1    1    3    3  502    0 -0.11045780149E+03  0.75364317458E+03 -0.35801151909E+03  0.84163603079E+03  0.50400001928E-02 0.  1.
       -1    1    3    3    0  502  0.11045780149E+03 -0.75364317458E+03 -0.12709045662E+04  0.14816805921E+04  0.50400001928E-02 0. -1.
</event>
<event>
 5   0  0.7499834E-04  0.1425333E+04  0.7818609E-02  0.8935683E-01
        1   -1    0    0  501    0  0.00000000000E+00  0.00000000000E+00  0.41404080355E+03  0.41404080358E+03  0.50400001928E-02 0.  1.
       -1   -1    0    0    0  501  0.00000000000E+00  0.00000000000E+00 -0.12266753394E+04  0.12266753394E+04  0.50400001928E-02 0. -1.
    10030    2    1    2    0    0  0.00000000000E+00  0.00000000000E+00 -0.81263453585E+03  0.16407161430E+04  0.14253331446E+04 0.  0.
        3    1    3    3  502    0  0.10433517417E+03 -0.63261729479E+03 -0.48169836876E+02  0.64297030540E+03  0.10100000352E+00 0. -1.
       -3    1    3    3    0  502 -0.10433517417E+03  0.63261729479E+03 -0.76446469897E+03  0.99774583759E+03  0.10100000352E+00 0.  1.
</event>
<event>
 5   0  0.7302027E-04  0.1592118E+04  0.7818609E-02  0.8825405E-01
        1   -1    0    0  501    0  0.00000000000E+00  0.00000000000E+00  0.21590566170E+04  0.21590566170E+04  0.50400001928E-02 0.  1.
       -1   -1    0    0    0  501  0.00000000000E+00  0.00000000000E+00 -0.29351246927E+03  0.29351246931E+03  0.50400001928E-02 0. -1.
    10030    2    1    2    0    0  0.00000000000E+00  0.00000000000E+00  0.18655441478E+04  0.24525690864E+04  0.15921181351E+04 0.  0.
        5    1    3    3  502    0  0.56212549215E+02 -0.16486255566E+03  0.21293198841E+04  0.21364374018E+04  0.46999998093E+01 0.  1.
       -5    1    3    3    0  502 -0.56212549215E+02  0.16486255566E+03 -0.26377573630E+03  0.31613168459E+03  0.46999998093E+01 0. -1.
</event>
<event>
 5   0  0.1414796E-03  0.1628239E+04  0.7818609E-02  0.8803385E-01
        2   -1    0    0  501    0  0.00000000000E+00  0.00000000000E+00  0.15936523596E+04  0.15936523596E+04  0.25500000920E-02 0.  1.
       -2   -1    0    0    0  501  0.00000000000E+00  0.00000000000E+00 -0.41589414500E+03  0.41589414501E+03  0.25500000920E-02 0. -1.
    10030    2    1    2    0    0  0.00000000000E+00  0.00000000000E+00  0.11777582146E+04  0.20095465046E+04  0.16282391539E+04 0.  0.
        4    1    3    3  502    0  0.39868033881E+03 -0.70711472286E+03  0.51248094443E+03  0.95999769538E+03  0.12699999809E+01 0. -1.
       -4    1    3    3    0  502 -0.39868033881E+03  0.70711472286E+03  0.66527727020E+03  0.10495488092E+04  0.12699999809E+01 0.  1.
</event>
<event>
 5   0  0.7124495E-04  0.1776670E+04  0.7818609E-02  0.8718806E-01
        1   -1    0    0  501    0  0.00000000000E+00  0.00000000000E+00  0.98486586778E+03  0.98486586780E+03  0.50400001928E-02 0.  1.
       -1   -1    0    0    0  501  0.00000000000E+00  0.00000000000E+00 -0.80126520509E+03  0.80126520511E+03  0.50400001928E-02 0. -1.
    10030    2    1    2    0    0  0.00000000000E+00  0.00000000000E+00  0.18360066269E+03  0.17861310729E+04  0.17766696390E+04 0.  0.
        2    1    3    3  502    0 -0.60702148136E+03  0.64032901375E+03  0.19551184728E+03  0.90372628993E+03  0.25500000920E-02 0.  1.
       -2    1    3    3    0  502  0.60702148136E+03 -0.64032901375E+03 -0.11911184589E+02  0.88240478297E+03  0.25500000920E-02 0. -1.
</event>
<event>
 5   0  0.7601145E-04  0.1271094E+04  0.7818609E-02  0.9052808E-01
       -1   -1    0    0    0  501  0.00000000000E+00  0.00000000000E+00  0.53991024165E+03  0.53991024167E+03  0.50400001928E-02 0. -1.
        1   -1    0    0  501    0  0.00000000000E+00  0.00000000000E+00 -0.74812394062E+03  0.74812394064E+03  0.50400001928E-02 0.  1.
    10030    2    1    2    0    0  0.00000000000E+00  0.00000000000E+00 -0.20821369898E+03  0.12880341823E+04  0.12710936670E+04 0.  0.
        4    1    3    3  502    0  0.44917781778E+03 -0.18762098577E+03  0.30994107607E+03  0.57708528817E+03  0.12699999809E+01 0. -1.
       -4    1    3    3    0  502 -0.44917781778E+03  0.18762098577E+03 -0.51815477504E+03  0.71094889415E+03  0.12699999809E+01 0.  1.
</event>
<event>
 5   0  0.1414796E-03  0.1619512E+04  0.7818609E-02  0.8808650E-01
       -2   -1    0    0    0  501  0.00000000000E+00  0.00000000000E+00  0.70351791519E+03  0.70351791520E+03  0.25500000920E-02 0. -1.
        2   -1    0    0  501    0  0.00000000000E+00  0.00000000000E+00 -0.93203737798E+03  0.93203737798E+03  0.25500000920E-02 0.  1.
    10030    2    1    2    0    0  0.00000000000E+00  0.00000000000E+00 -0.22851946279E+03  0.16355552932E+04  0.16195122637E+04 0.  0.
        4    1    3    3  502    0  0.24246133426E+03  0.36267568918E+03 -0.80320684688E+03  0.91403720160E+03  0.12699999809E+01 0.  1.
       -4    1    3    3    0  502 -0.24246133426E+03 -0.36267568918E+03  0.57468738410E+03  0.72151809158E+03  0.12699999809E+01 0. -1.
</event>
<event>
 5   0  0.1339162E-03  0.1591579E+04  0.7818609E-02  0.8825738E-01
       -2   -1    0    0    0  501  0.00000000000E+00  0.00000000000E+00  0.14710269713E+04  0.14710269713E+04  0.25500000920E-02 0. -1.
        2   -1    0    0  501    0  0.00000000000E+00  0.00000000000E+00 -0.43050257978E+03  0.43050257979E+03  0.25500000920E-02 0.  1.
    10030    2    1    2    0    0  0.00000000000E+00  0.00000000000E+00  0.10405243915E+04  0.19015295511E+04  0.15915789721E+04 0.  0.
        5    1    3    3  502    0  0.13198283232E+03  0.18454629304E+03 -0.39102450385E+03  0.45210513701E+03  0.46999998093E+01 0.  1.
       -5    1    3    3    0  502 -0.13198283232E+03 -0.18454629304E+03  0.14315488954E+04  0.14494244141E+04  0.46999998093E+01 0. -1.
</event>
<event>
 5   0  0.7601145E-04  0.1612862E+04  0.7818609E-02  0.8812685E-01
        1   -1    0    0  501    0  0.00000000000E+00  0.00000000000E+00  0.87107006880E+03  0.87107006881E+03  0.50400001928E-02 0.  1.
       -1   -1    0    0    0  501  0.00000000000E+00  0.00000000000E+00 -0.74658885915E+03  0.74658885917E+03  0.50400001928E-02 0. -1.
    10030    2    1    2    0    0  0.00000000000E+00  0.00000000000E+00  0.12448120964E+03  0.16176589280E+04  0.16128623115E+04 0.  0.
        4    1    3    3  502    0  0.80090558462E+03  0.87962198240E+02  0.96141900311E+02  0.81143821803E+03  0.12699999809E+01 0. -1.
       -4    1    3    3    0  502 -0.80090558462E+03 -0.87962198240E+02  0.28339309333E+02  0.80622070994E+03  0.12699999809E+01 0.  1.
</event>
<event>
 5   0  0.1414796E-03  0.1400769E+04  0.7818609E-02  0.8953262E-01
       -2   -1    0    0    0  501  0.00000000000E+00  0.00000000000E+00  0.23944236399E+03  0.23944236400E+03  0.25500000920E-02 0. -1.
        2   -1    0    0  501    0  0.00000000000E+00  0.00000000000E+00 -0.20486715548E+04  0.20486715548E+04  0.25500000920E-02 0.  1.
    10030    2    1    2    0    0  0.00000000000E+00  0.00000000000E+00 -0.18092291908E+04  0.22881139188E+04  0.14007694459E+04 0.  0.
        4    1    3    3  502    0  0.36850318440E+02  0.66029736197E+03 -0.12813288699E+04  0.14419278199E+04  0.12699999809E+01 0. -1.
       -4    1    3    3    0  502 -0.36850318440E+02 -0.66029736197E+03 -0.52790032092E+03  0.84618609887E+03  0.12699999809E+01 0.  1.
</event>
<event>
 5   0  0.1354766E-03  0.1582204E+04  0.7818609E-02  0.8831556E-01
        2   -1    0    0  501    0  0.00000000000E+00  0.00000000000E+00  0.21293249618E+04  0.21293249618E+04  0.25500000920E-02 0. -1.
       -2   -1    0    0    0  501  0.00000000000E+00  0.00000000000E+00 -0.29391568685E+03  0.29391568686E+03  0.25500000920E-02 0.  1.
    10030    2    1    2    0    0  0.00000000000E+00  0.00000000000E+00  0.18354092749E+04  0.24232406486E+04  0.15822035377E+04 0.  0.
        3    1    3    3  502    0  0.26253231838E+03  0.56693946139E+03  0.17446613449E+03  0.64867712566E+03  0.10100000352E+00 0.  1.
       -3    1    3    3    0  502 -0.26253231838E+03 -0.56693946139E+03  0.16609431404E+04  0.17745635230E+04  0.10100000352E+00 0. -1.
</event>
<event>
 5   0  0.7302027E-04  0.1587286E+04  0.7818609E-02  0.8828397E-01
       -1   -1    0    0    0  501  0.00000000000E+00  0.00000000000E+00  0.44754778122E+03  0.44754778125E+03  0.50400001928E-02 0. -1.
        1   -1    0    0  501    0  0.00000000000E+00  0.00000000000E+00 -0.14073783996E+04  0.14073783996E+04  0.50400001928E-02 0.  1.
    10030    2    1    2    0    0  0.00000000000E+00  0.00000000000E+00 -0.95983061839E+03  0.18549261809E+04  0.15872858345E+04 0.  0.
        5    1    3    3  502    0 -0.42695595079E+03  0.41169393605E+02  0.30040171327E+03  0.52368844003E+03  0.46999998093E+01 0. -1.
       -5    1    3    3    0  502  0.42695595079E+03 -0.41169393605E+02 -0.12602323317E+04  0.13312377408E+04  0.46999998093E+01 0.  1.
</event>
<event>
 5   0  0.1414751E-03  0.1607507E+04  0.7818609E-02  0.8815949E-01
        2   -1    0    0  501    0  0.00000000000E+00  0.00000000000E+00  0.78584626908E+03  0.78584626908E+03  0.25500000920E-02 0.  1.
       -2   -1    0    0    0  501  0.00000000000E+00  0.00000000000E+00 -0.82206916125E+03  0.82206916125E+03  0.25500000920E-02 0. -1.
    10030    2    1    2    0    0  0.00000000000E+00  0.00000000000E+00 -0.36222892170E+02  0.16079154303E+04  0.16075073664E+04 0.  0.
        2    1    3    3  502    0 -0.19800013824E+03 -0.75974803422E+02 -0.79357836675E+03  0.82142732465E+03  0.25500000920E-02 0. -1.
       -2    1    3    3    0  502  0.19800013824E+03  0.75974803422E+02  0.75735547458E+03  0.78648810568E+03  0.25500000920E-02 0.  1.
</event>
<event>
 5   0  0.5095750E-04  0.1588001E+04  0.7818609E-02  0.8827954E-01
        3   -1    0    0  501    0  0.00000000000E+00  0.00000000000E+00  0.14448565026E+04  0.14448565061E+04  0.10100000352E+00 0. -1.
       -3   -1    0    0    0  501  0.00000000000E+00  0.00000000000E+00 -0.43633170776E+03  0.43633171945E+03  0.10100000352E+00 0.  1.
    10030    2    1    2    0    0  0.00000000000E+00  0.00000000000E+00  0.10085247948E+04  0.18811882256E+04  0.15880009062E+04 0.  0.
        4    1    3    3  502    0  0.56859073533E+03  0.30333476803E+03  0.10537142902E+04  0.12351610518E+04  0.12699999809E+01 0. -1.
       -4    1    3    3    0  502 -0.56859073533E+03 -0.30333476803E+03 -0.45189495346E+02  0.64602717372E+03  0.12699999809E+01 0.  1.
</event>
<event>
 5   0  0.1414751E-03  0.1613885E+04  0.7818609E-02  0.8812063E-01
        2   -1    0    0  501    0  0.00000000000E+00  0.00000000000E+00  0.81348546213E+03  0.81348546213E+03  0.25500000920E-02 0.  1.
       -2   -1    0    0    0  501  0.00000000000E+00  0.00000000000E+00 -0.80045198716E+03  0.80045198716E+03  0.25500000920E-02 0. -1.
    10030    2    1    2    0    0  0.00000000000E+00  0.00000000000E+00  0.13033474971E+02  0.16139374493E+04  0.16138848220E+04 0.  0.
        2    1    3    3  502    0  0.10623411359E+03  0.29541052962E+01  0.80645634290E+03  0.81342869794E+03  0.25500000920E-02 0.  1.
       -2    1    3    3    0  502 -0.10623411359E+03 -0.29541052962E+01 -0.79342286793E+03  0.80050875135E+03  0.25500000920E-02 0. -1.
</event>
<event>
 5   0  0.7499834E-04  0.1457413E+04  0.7818609E-02  0.8913277E-01
        1   -1    0    0  501    0  0.00000000000E+00  0.00000000000E+00  0.70496120779E+03  0.70496120781E+03  0.50400001928E-02 0. -1.
       -1   -1    0    0    0  501  0.00000000000E+00  0.00000000000E+00 -0.75325188547E+03  0.75325188549E+03  0.50400001928E-02 0.  1.
    10030    2    1    2    0    0  0.00000000000E+00  0.00000000000E+00 -0.48290677683E+02  0.14582130933E+04  0.14574132687E+04 0.  0.
        3    1    3    3  502    0  0.15119751608E+03 -0.21512269668E+03  0.65584140796E+03  0.70658787570E+03  0.10100000352E+00 0. -1.
       -3    1    3    3    0  502 -0.15119751608E+03  0.21512269668E+03 -0.70413208564E+03  0.75162521760E+03  0.10100000352E+00 0.  1.
</event>
<event>
 5   0  0.1354766E-03  0.1583130E+04  0.7818609E-02  0.8830979E-01
       -2   -1    0    0    0  501  0.00000000000E+00  0.00000000000E+00  0.31418554556E+03  0.31418554557E+03  0.25500000920E-02 0. -1.
        2   -1    0    0  501    0  0.00000000000E+00  0.00000000000E+00 -0.19942838098E+04  0.19942838098E+04  0.25500000920E-02 0.  1.
    10030    2    1    2    0    0  0.00000000000E+00  0.00000000000E+00 -0.16800982643E+04  0.23084693554E+04  0.15831299970E+04 0.  0.
        3    1    3    3  502    0 -0.42053753086E+03  0.12722930687E+03 -0.18001572276E+04  0.18529989653E+04  0.10100000352E+00 0.  1.
       -3    1    3    3    0  502  0.42053753086E+03 -0.12722930687E+03  0.12005896327E+03  0.45547039009E+03  0.10100000352E+00 0. -1.
</event>
<event>
 5   0  0.7124495E-04  0.1638603E+04  0.7818609E-02  0.8797177E-01
        1   -1    0    0  501    0  0.00000000000E+00  0.00000000000E+00  0.58145716859E+03  0.58145716862E+03  0.50400001928E-02 0. -1.
       -1   -1    0    0    0  501  0.00000000000E+00  0.00000000000E+00 -0.11544364350E+04  0.11544364350E+04  0.50400001928E-02 0.  1.
    10030    2    1    2    0    0  0.00000000000E+00  0.00000000000E+00 -0.57297926637E+03  0.17358936036E+04  0.16386034796E+04 0.  0.
        2    1    3    3  502    0 -0.61587766489E+03  0.45788750591E+03 -0.59038236936E+03  0.96825492936E+03  0.25500000920E-02 0. -1.
       -2    1    3    3    0  502  0.61587766489E+03 -0.45788750591E+03  0.17403102992E+02  0.76763867423E+03  0.25500000920E-02 0.  1.
</event>
<event>
 5   0  0.7633213E-04  0.1585992E+04  0.7818609E-02  0.8829200E-01
        1   -1    0    0  501    0  0.00000000000E+00  0.00000000000E+00  0.93425875574E+03  0.93425875575E+03  0.50400001928E-02 0.  1.
       -1   -1    0    0    0  501  0.00000000000E+00  0.00000000000E+00 -0.67309252972E+03  0.67309252973E+03  0.50400001928E-02 0. -1.
    10030    2    1    2    0    0  0.00000000000E+00  0.00000000000E+00  0.26116622602E+03  0.16073512855E+04  0.15859919159E+04 0.  0.
        1    1    3    3  502    0 -0.36611749472E+03  0.15323249079E+03  0.82635670159E+03  0.91672657563E+03  0.50400001928E-02 0.  1.
       -1    1    3    3    0  502  0.36611749472E+03 -0.15323249079E+03 -0.56519047556E+03  0.69062470986E+03  0.50400001928E-02 0. -1.
</event>
<event>
 5   0  0.1414751E-03  0.1543741E+04  0.7818609E-02  0.8855876E-01
        2   -1    0    0  501    0  0.00000000000E+00  0.00000000000E+00  0.18790238183E+04  0.18790238183E+04  0.25500000920E-02 0. -1.
       -2   -1    0    0    0  501  0.00000000000E+00  0.00000000000E+00 -0.31707110392E+03  0.31707110393E+03  0.25500000920E-02 0.  1.
    10030    2    1    2    0    0  0.00000000000E+00  0.00000000000E+00  0.15619527144E+04  0.21960949223E+04  0.15437411135E+04 0.  0.
        2    1    3    3  502    0  0.19920764098E+03  0.72521144518E+03  0.10280667643E+04  0.12737882855E+04  0.25500000920E-02 0.  1.
       -2    1    3    3    0  502 -0.19920764098E+03 -0.72521144518E+03  0.53388595007E+03  0.92230663672E+03  0.25500000920E-02 0. -1.
</event>
<event>
 5   0  0.7302027E-04  0.1606170E+04  0.7818609E-02  0.8816767E-01
        1   -1    0    0  501    0  0.00000000000E+00  0.00000000000E+00  0.14670209189E+04  0.14670209189E+04  0.50400001928E-02 0.  1.
       -1   -1    0    0    0  501  0.00000000000E+00  0.00000000000E+00 -0.43962923662E+03  0.43962923665E+03  0.50400001928E-02 0. -1.
    10030    2    1    2    0    0  0.00000000000E+00  0.00000000000E+00  0.10273916823E+04  0.19066501556E+04  0.16061697130E+04 0.  0.
        5    1    3    3  502    0  0.59417727108E+03 -0.53900209894E+03  0.47002642778E+03  0.92979396908E+03  0.46999998093E+01 0.  1.
       -5    1    3    3    0  502 -0.59417727108E+03  0.53900209894E+03  0.55736525450E+03  0.97685618647E+03  0.46999998093E+01 0. -1.
</event>
<event>
 5   0  0.1414796E-03  0.1930654E+04  0.7818609E-02  0.8639747E-01
       -2   -1    0    0    0  501  0.00000000000E+00  0.00000000000E+00  0.43293095088E+03  0.43293095088E+03  0.25500000920E-02 0. -1.
        2   -1    0    0  501    0  0.00000000000E+00  0.00000000000E+00 -0.21524350789E+04  0.21524350789E+04  0.25500000920E-02 0.  1.
    10030    2    1    2    0    0  0.00000000000E+00  0.00000000000E+00 -0.17195041280E+04  0.25853660298E+04  0.19306535323E+04 0.  0.
        4    1    3    3  502    0  0.38171615383E+03  0.20366558269E+03 -0.20153288916E+04  0.20612469638E+04  0.12699999809E+01 0.  1.
       -4    1    3    3    0  502 -0.38171615383E+03 -0.20366558269E+03  0.29582476357E+03  0.52411906597E+03  0.12699999809E+01 0. -1.
</event>
<event>
 5   0  0.1354766E-03  0.1637402E+04  0.7818609E-02  0.8797894E-01
       -2   -1    0    0    0  501  0.00000000000E+00  0.00000000000E+00  0.45613054375E+03  0.45613054375E+03  0.25500000920E-02 0.  1.
        2   -1    0    0  501    0  0.00000000000E+00  0.00000000000E+00 -0.14694723146E+04  0.14694723146E+04  0.25500000920E-02 0. -1.
    10030    2    1    2    0    0  0.00000000000E+00  0.00000000000E+00 -0.10133417708E+04  0.19256028583E+04  0.16374018516E+04 0.  0.
        3    1    3    3  502    0  0.14625940335E+03 -0.30837080822E+02 -0.14532893513E+04  0.14609560867E+04  0.10100000352E+00 0. -1.
       -3    1    3    3    0  502 -0.14625940335E+03  0.30837080822E+02  0.43994758044E+03  0.46464677160E+03  0.10100000352E+00 0.  1.
</event>
<event>
 5   0  0.1339162E-03  0.1583265E+04  0.7818609E-02  0.8830895E-01
       -2   -1    0    0    0  501  0.00000000000E+00  0.00000000000E+00  0.28313445753E+03  0.28313445754E+03  0.25500000920E-02 0.  1.
        2   -1    0    0  501    0  0.00000000000E+00  0.00000000000E+00 -0.22133738062E+04  0.22133738062E+04  0.25500000920E-02 0. -1.
    10030    2    1    2    0    0  0.00000000000E+00  0.00000000000E+00 -0.19302393486E+04  0.24965082637E+04  0.15832654761E+04 0.  0.
        5    1    3    3  502    0 -0.22683351618E+03  0.24657354214E+03 -0.20960432803E+04  0.21226567029E+04  0.46999998093E+01 0. -1.
       -5    1    3    3    0  502  0.22683351618E+03 -0.24657354214E+03  0.16580393164E+03  0.37385156077E+03  0.46999998093E+01 0.  1.
</event>
<event>
 5   0  0.7601145E-04  0.1655757E+04  0.7818609E-02  0.8787008E-01
       -1   -1    0    0    0  501  0.00000000000E+00  0.00000000000E+00  0.94916734885E+03  0.94916734886E+03  0.50400001928E-02 0.  1.
        1   -1    0    0  501    0  0.00000000000E+00  0.00000000000E+00 -0.72208808447E+03  0.72208808449E+03  0.50400001928E-02 0. -1.
    10030    2    1    2    0    0  0.00000000000E+00  0.00000000000E+00  0.22707926438E+03  0.16712554334E+04  0.16557565435E+04 0.  0.
        4    1    3    3  502    0 -0.35950963622E+03 -0.67285000553E+03 -0.21103927637E+03  0.79152605614E+03  0.12699999809E+01 0.  1.
       -4    1    3    3    0  502  0.35950963622E+03  0.67285000553E+03  0.43811854075E+03  0.87972937721E+03  0.12699999809E+01 0. -1.
</event>
<event>
 5   0  0.7499834E-04  0.1620079E+04  0.7818609E-02  0.8808307E-01
       -1   -1    0    0    0  501  0.00000000000E+00  0.00000000000E+00  0.38275223026E+03  0.38275223030E+03  0.50400001928E-02 0.  1.
        1   -1    0    0  501    0  0.00000000000E+00  0.00000000000E+00 -0.17143310203E+04  0.17143310203E+04  0.50400001928E-02 0. -1.
    10030    2    1    2    0    0  0.00000000000E+00  0.00000000000E+00 -0.13315787901E+04  0.20970832506E+04  0.16200790369E+04 0.  0.
        3    1    3    3  502    0 -0.47174730917E+03  0.57070927410E+03 -0.10910049392E+04  0.13185394900E+04  0.10100000352E+00 0. -1.
       -3    1    3    3    0  502  0.47174730917E+03 -0.57070927410E+03 -0.24057385090E+03  0.77854376061E+03  0.10100000352E+00 0.  1.
</event>
<event>
 5   0  0.7302027E-04  0.1623111E+04  0.7818609E-02  0.8806474E-01
        1   -1    0    0  501    0  0.00000000000E+00  0.00000000000E+00  0.94466151755E+03  0.94466151756E+03  0.50400001928E-02 0. -1.
       -1   -1    0    0    0  501  0.00000000000E+00  0.00000000000E+00 -0.69720496713E+03  0.69720496715E+03  0.50400001928E-02 0.  1.
    10030    2    1    2    0    0  0.00000000000E+00  0.00000000000E+00  0.24745655042E+03  0.16418664847E+04  0.16231114593E+04 0.  0.
        5    1    3    3  502    0  0.61039820176E+03  0.47320923937E+03  0.37578143820E+03  0.85892184058E+03  0.46999998093E+01 0. -1.
       -5    1    3    3    0  502 -0.61039820176E+03 -0.47320923937E+03 -0.12832488778E+03  0.78294464412E+03  0.46999998093E+01 0.  1.
</event>
<event>
 5   0  0.1414796E-03  0.1630056E+04  0.7818609E-02  0.8802293E-01
       -2   -1    0    0    0  501  0.00000000000E+00  0.00000000000E+00  0.74209369626E+03  0.74209369627E+03  0.25500000920E-02 0. -1.
        2   -1    0    0  501    0  0.00000000000E+00  0.00000000000E+00 -0.89513056052E+03  0.89513056052E+03  0.25500000920E-02 0.  1.
    10030    2    1    2    0    0  0.00000000000E+00  0.00000000000E+00 -0.15303686425E+03  0.16372242568E+04  0.16300561295E+04 0.  0.
        4    1    3    3  502    0  0.71538441293E+02 -0.41815135882E+03 -0.77549596435E+03  0.88394791198E+03  0.12699999809E+01 0.  1.
       -4    1    3    3    0  502 -0.71538441293E+02  0.41815135882E+03  0.62245910009E+03  0.75327634481E+03  0.12699999809E+01 0. -1.
</event>
<event>
 5   0  0.1375777E-03  0.1637397E+04  0.7818609E-02  0.8797898E-01
        2   -1    0    0  501    0  0.00000000000E+00  0.00000000000E+00  0.58876586412E+03  0.58876586412E+03  0.25500000920E-02 0. -1.
       -2   -1    0    0    0  501  0.00000000000E+00  0.00000000000E+00 -0.11384270244E+04  0.11384270244E+04  0.25500000920E-02 0.  1.
    10030    2    1    2    0    0  0.00000000000E+00  0.00000000000E+00 -0.54966116025E+03  0.17271928885E+04  0.16373966786E+04 0.  0.
        1    1    3    3  502    0  0.60041609835E+03  0.52907445799E+03 -0.45707001209E+03  0.92159224673E+03  0.50400001928E-02 0.  1.
       -1    1    3    3    0  502 -0.60041609835E+03 -0.52907445799E+03 -0.92591148156E+02  0.80560064176E+03  0.50400001928E-02 0. -1.
</event>
<event>
 5   0  0.1339162E-03  0.1609637E+04  0.7818609E-02  0.8814650E-01
        2   -1    0    0  501    0  0.00000000000E+00  0.00000000000E+00  0.10682201827E+04  0.10682201827E+04  0.25500000920E-02 0. -1.
       -2   -1    0    0    0  501  0.00000000000E+00  0.00000000000E+00 -0.60636615271E+03  0.60636615271E+03  0.25500000920E-02 0.  1.
    10030    2    1    2    0    0  0.00000000000E+00  0.00000000000E+00  0.46185403002E+03  0.16745863354E+04  0.16096366825E+04 0.  0.
        5    1    3    3  502    0 -0.46476666738E+03 -0.51756290888E+03 -0.19016576312E+03  0.72115499528E+03  0.46999998093E+01 0.  1.
       -5    1    3    3    0  502  0.46476666738E+03  0.51756290888E+03  0.65201979314E+03  0.95343134016E+03  0.46999998093E+01 0. -1.
</event>
<event>
 5   0  0.1414796E-03  0.1614371E+04  0.7818609E-02  0.8811767E-01
       -2   -1    0    0    0  501  0.00000000000E+00  0.00000000000E+00  0.12283139513E+04  0.12283139513E+04  0.25500000920E-02 0.  1.
        2   -1    0    0  501    0  0.00000000000E+00  0.00000000000E+00 -0.53044157558E+03  0.53044157559E+03  0.25500000920E-02 0. -1.
    10030    2    1    2    0    0  0.00000000000E+00  0.00000000000E+00  0.69787237570E+03  0.17587555269E+04  0.16143714413E+04 0.  0.
        4    1    3    3  502    0  0.64498624854E+03  0.36394344294E+02 -0.17830545036E+03  0.67016882621E+03  0.12699999809E+01 0. -1.
       -4    1    3    3    0  502 -0.64498624854E+03 -0.36394344294E+02  0.87617782606E+03  0.10885867007E+04  0.12699999809E+01 0.  1.
</event>
<event>
 5   0  0.1414751E-03  0.1523584E+04  0.7818609E-02  0.8868919E-01
       -2   -1    0    0    0  501  0.00000000000E+00  0.00000000000E+00  0.34078882461E+03  0.34078882462E+03  0.25500000920E-02 0. -1.
        2   -1    0    0  501    0  0.00000000000E+00  0.00000000000E+00 -0.17028938834E+04  0.17028938834E+04  0.25500000920E-02 0.  1.
    10030    2    1    2    0    0  0.00000000000E+00  0.00000000000E+00 -0.13621050588E+04  0.20436827080E+04  0.15235842018E+04 0.  0.
        2    1    3    3  502    0 -0.47343041311E+03  0.20860232879E+02  0.11900817991E+03  0.48860459706E+03  0.25500000920E-02 0. -1.
       -2    1    3    3    0  502  0.47343041311E+03 -0.20860232879E+02 -0.14811132387E+04  0.15550781110E+04  0.25500000920E-02 0.  1.
</event>
<event>
 5   0  0.1339162E-03  0.1602459E+04  0.7818609E-02  0.8819039E-01
        2   -1    0    0  501    0  0.00000000000E+00  0.00000000000E+00  0.30407573008E+03  0.30407573009E+03  0.25500000920E-02 0.  1.
       -2   -1    0    0    0  501  0.00000000000E+00  0.00000000000E+00 -0.21112120078E+04  0.21112120078E+04  0.25500000920E-02 0. -1.
    10030    2    1    2    0    0  0.00000000000E+00  0.00000000000E+00 -0.18071362777E+04  0.24152877379E+04  0.16024585270E+04 0.  0.
        5    1    3    3  502    0  0.69676447574E+03 -0.27249728664E+03 -0.47140636616E+03  0.88429721131E+03  0.46999998093E+01 0.  1.
       -5    1    3    3    0  502 -0.69676447574E+03  0.27249728664E+03 -0.13357299116E+04  0.15309905266E+04  0.46999998093E+01 0. -1.
</event>
<event>
 5   0  0.1339162E-03  0.1616077E+04  0.7818609E-02  0.8810732E-01
        2   -1    0    0  501    0  0.00000000000E+00  0.00000000000E+00  0.14994316606E+04  0.14994316606E+04  0.25500000920E-02 0.  1.
       -2   -1    0    0    0  501  0.00000000000E+00  0.00000000000E+00 -0.43544932627E+03  0.43544932628E+03  0.25500000920E-02 0. -1.
    10030    2    1    2    0    0  0.00000000000E+00  0.00000000000E+00  0.10639823343E+04  0.19348809869E+04  0.16160773576E+04 0.  0.
        5    1    3    3  502    0  0.32819966769E+03  0.60484826446E+03  0.10390289771E+04  0.12462583000E+04  0.46999998093E+01 0. -1.
       -5    1    3    3    0  502 -0.32819966769E+03 -0.60484826446E+03  0.24953357174E+02  0.68862268690E+03  0.46999998093E+01 0.  1.
</event>
<event>
 5   0  0.7124495E-04  0.1894229E+04  0.7818609E-02  0.8657734E-01
       -1   -1    0    0    0  501  0.00000000000E+00  0.00000000000E+00  0.77620387225E+03  0.77620387227E+03  0.50400001928E-02 0.  1.
        1   -1    0    0  501    0  0.00000000000E+00  0.00000000000E+00 -0.11556575291E+04  0.11556575291E+04  0.50400001928E-02 0. -1.
    10030    2    1    2    0    0  0.00000000000E+00  0.00000000000E+00 -0.37945365680E+03  0.19318614013E+04  0.18942289715E+04 0.  0.
        2    1    3    3  502    0 -0.59229152295E+03 -0.41371624198E+03  0.43485773114E+03  0.84325062904E+03  0.25500000920E-02 0.  1.
       -2    1    3    3    0  502  0.59229152295E+03  0.41371624198E+03 -0.81431138793E+03  0.10886107723E+04  0.25500000920E-02 0. -1.
</event>
<event>
 5   0  0.7124495E-04  0.1425411E+04  0.7818609E-02  0.8935627E-01
        1   -1    0    0  501    0  0.00000000000E+00  0.00000000000E+00  0.16432242445E+04  0.16432242445E+04  0.50400001928E-02 0. -1.
       -1   -1    0    0    0  501  0.00000000000E+00  0.00000000000E+00 -0.30911738410E+03  0.30911738414E+03  0.50400001928E-02 0.  1.
    10030    2    1    2    0    0  0.00000000000E+00  0.00000000000E+00  0.13341068604E+04  0.19523416286E+04  0.14254110705E+04 0.  0.
        2    1    3    3  502    0 -0.59838476737E+03  0.31231832759E+03  0.35369505254E+03  0.76204150659E+03  0.25500000920E-02 0.  1.
       -2    1    3    3    0  502  0.59838476737E+03 -0.31231832759E+03  0.98041180785E+03  0.11903001220E+04  0.25500000920E-02 0. -1.
</event>
<event>
 5   0  0.5095750E-04  0.1570361E+04  0.7818609E-02  0.8838966E-01
        4   -1    0    0  501    0  0.00000000000E+00  0.00000000000E+00  0.54572337928E+03  0.54572485704E+03  0.12699999809E+01 0. -1.
       -4   -1    0    0    0  501  0.00000000000E+00  0.00000000000E+00 -0.11297048125E+04  0.11297055264E+04  0.12699999809E+01 0.  1.
    10030    2    1    2    0    0  0.00000000000E+00  0.00000000000E+00 -0.58398143326E+03  0.16754303834E+04  0.15703606768E+04 0.  0.
        5    1    3    3  502    0 -0.52052901428E+03 -0.22782134163E+03 -0.87012596334E+03  0.10392277424E+04  0.46999998093E+01 0.  1.
       -5    1    3    3    0  502  0.52052901428E+03  0.22782134163E+03  0.28614453009E+03  0.63620264107E+03  0.46999998093E+01 0. -1.
</event>
<event>
 5   0  0.7302027E-04  0.1600929E+04  0.7818609E-02  0.8819978E-01
       -1   -1    0    0    0  501  0.00000000000E+00  0.00000000000E+00  0.14566324732E+04  0.14566324732E+04  0.50400001928E-02 0. -1.
        1   -1    0    0  501    0  0.00000000000E+00  0.00000000000E+00 -0.43987993887E+03  0.43987993890E+03  0.50400001928E-02 0.  1.
    10030    2    1    2    0    0  0.00000000000E+00  0.00000000000E+00  0.10167525343E+04  0.18965124121E+04  0.16009289844E+04 0.  0.
        5    1    3    3  502    0 -0.39424770780E+03 -0.25849016738E+03 -0.25795630792E+03  0.53741228915E+03  0.46999998093E+01 0.  1.
       -5    1    3    3    0  502  0.39424770780E+03  0.25849016738E+03  0.12747088422E+04  0.13591001229E+04  0.46999998093E+01 0. -1.
</event>
<event>
 5   0  0.1354766E-03  0.1607343E+04  0.7818609E-02  0.8816050E-01
        2   -1    0    0  501    0  0.00000000000E+00  0.00000000000E+00  0.88669650371E+03  0.88669650372E+03  0.25500000920E-02 0. -1.
       -2   -1    0    0    0  501  0.00000000000E+00  0.00000000000E+00 -0.72842052535E+03  0.72842052535E+03  0.25500000920E-02 0.  1.
    10030    2    1    2    0    0  0.00000000000E+00  0.00000000000E+00  0.15827597837E+03  0.16151170291E+04  0.16073430661E+04 0.  0.
        3    1    3    3  502    0 -0.78437671784E+03  0.16490773181E+03  0.20146918204E+02  0.80177759012E+03  0.10100000352E+00 0. -1.
       -3    1    3    3    0  502  0.78437671784E+03 -0.16490773181E+03  0.13812906016E+03  0.81333943895E+03  0.10100000352E+00 0.  1.
</event>
<event>
 5   0  0.7499834E-04  0.1554929E+04  0.7818609E-02  0.8848726E-01
       -1   -1    0    0    0  501  0.00000000000E+00  0.00000000000E+00  0.31906152563E+03  0.31906152567E+03  0.50400001928E-02 0.  1.
        1   -1    0    0  501    0  0.00000000000E+00  0.00000000000E+00 -0.18944644833E+04  0.18944644833E+04  0.50400001928E-02 0. -1.
    10030    2    1    2    0    0  0.00000000000E+00  0.00000000000E+00 -0.15754029577E+04  0.22135260090E+04  0.15549285879E+04 0.  0.
        3    1    3    3  502    0  0.10204603585E+03  0.46856037343E+03 -0.16588524489E+04  0.17267755136E+04  0.10100000352E+00 0. -1.
       -3    1    3    3    0  502 -0.10204603585E+03 -0.46856037343E+03  0.83449491212E+02  0.48675049539E+03  0.10100000352E+00 0.  1.
</event>
<event>
 5   0  0.7124495E-04  0.1590283E+04  0.7818609E-02  0.8826540E-01
       -1   -1    0    0    0  501  0.00000000000E+00  0.00000000000E+00  0.17140419762E+04  0.17140419762E+04  0.50400001928E-02 0. -1.
        1   -1    0    0  501    0  0.00000000000E+00  0.00000000000E+00 -0.36886472757E+03  0.36886472760E+03  0.50400001928E-02 0.  1.
    10030    2    1    2    0    0  0.00000000000E+00  0.00000000000E+00  0.13451772486E+04  0.20829067038E+04  0.15902825241E+04 0.  0.
        2    1    3    3  502    0 -0.19411139287E+03  0.16562222640E+03  0.16589601919E+04  0.16784692052E+04  0.25500000920E-02 0. -1.
       -2    1    3    3    0  502  0.19411139287E+03 -0.16562222640E+03 -0.31378294327E+03  0.40443749853E+03  0.25500000920E-02 0.  1.
</event>
<event>
 5   0  0.7302027E-04  0.1540529E+04  0.7818609E-02  0.8857940E-01
        1   -1    0    0  501    0  0.00000000000E+00  0.00000000000E+00  0.12525585686E+04  0.12525585686E+04  0.50400001928E-02 0. -1.
       -1   -1    0    0    0  501  0.00000000000E+00  0.00000000000E+00 -0.47367608561E+03  0.47367608564E+03  0.50400001928E-02 0.  1.
    10030    2    1    2    0    0  0.00000000000E+00  0.00000000000E+00  0.77888248300E+03  0.17262346543E+04  0.15405285324E+04 0.  0.
        5    1    3    3  502    0 -0.65707592594E+03  0.12038775620E+03  0.81912823794E+03  0.10569934458E+04  0.46999998093E+01 0. -1.
       -5    1    3    3    0  502  0.65707592594E+03 -0.12038775620E+03 -0.40245754937E+02  0.66924120845E+03  0.46999998093E+01 0.  1.
</event>
<event>
 5   0  0.1414751E-03  0.1392375E+04  0.7818609E-02  0.8959356E-01
        2   -1    0    0  501    0  0.00000000000E+00  0.00000000000E+00  0.83199567584E+03  0.83199567584E+03  0.25500000920E-02 0. -1.
       -2   -1    0    0    0  501  0.00000000000E+00  0.00000000000E+00 -0.58254777335E+03  0.58254777335E+03  0.25500000920E-02 0.  1.
    10030    2    1    2    0    0  0.00000000000E+00  0.00000000000E+00  0.24944790249E+03  0.14145434492E+04  0.13923752776E+04 0.  0.
        2    1    3    3  502    0 -0.46734308065E+03  0.33675169195E+03  0.52192958383E+03  0.77731701869E+03  0.25500000920E-02 0. -1.
       -2    1    3    3    0  502  0.46734308065E+03 -0.33675169195E+03 -0.27248168134E+03  0.63722643051E+03  0.25500000920E-02 0.  1.
</event>
<event>
 5   0  0.1414796E-03  0.1634007E+04  0.7818609E-02  0.8799924E-01
       -2   -1    0    0    0  501  0.00000000000E+00  0.00000000000E+00  0.69779713003E+03  0.69779713003E+03  0.25500000920E-02 0. -1.
        2   -1    0    0  501    0  0.00000000000E+00  0.00000000000E+00 -0.95657403208E+03  0.95657403208E+03  0.25500000920E-02 0.  1.
    10030    2    1    2    0    0  0.00000000000E+00  0.00000000000E+00 -0.25877690205E+03  0.16543711621E+04  0.16340068718E+04 0.  0.
        4    1    3    3  502    0  0.78954847393E+03  0.20901088008E+03 -0.10862282482E+03  0.82393741974E+03  0.12699999809E+01 0. -1.
       -4    1    3    3    0  502 -0.78954847393E+03 -0.20901088008E+03 -0.15015407723E+03  0.83043374238E+03  0.12699999809E+01 0.  1.
</event>
<event>
 5   0  0.7499834E-04  0.1611198E+04  0.7818609E-02  0.8813698E-01
       -1   -1    0    0    0  501  0.00000000000E+00  0.00000000000E+00  0.11361633628E+04  0.11361633628E+04  0.50400001928E-02 0.  1.
        1   -1    0    0  501    0  0.00000000000E+00  0.00000000000E+00 -0.57121193085E+03  0.57121193088E+03  0.50400001928E-02 0. -1.
    10030    2    1    2    0    0  0.00000000000E+00  0.00000000000E+00  0.56495143198E+03  0.17073752937E+04  0.16111983966E+04 0.  0.
        3    1    3    3  502    0 -0.49078795396E+02 -0.78909030624E+02 -0.56551338558E+03  0.57309751591E+03  0.10100000352E+00 0. -1.
       -3    1    3    3    0  502  0.49078795396E+02  0.78909030624E+02  0.11304648176E+04  0.11342777778E+04  0.10100000352E+00 0.  1.
</event>
<event>
 5   0  0.1414751E-03  0.1616062E+04  0.7818609E-02  0.8810741E-01
       -2   -1    0    0    0  501  0.00000000000E+00  0.00000000000E+00  0.70402882817E+03  0.70402882817E+03  0.25500000920E-02 0.  1.
        2   -1    0    0  501    0  0.00000000000E+00  0.00000000000E+00 -0.92739718361E+03  0.92739718361E+03  0.25500000920E-02 0. -1.
    10030    2    1    2    0    0  0.00000000000E+00  0.00000000000E+00 -0.22336835544E+03  0.16314260118E+04  0.16160623162E+04 0.  0.
        2    1    3    3  502    0  0.20691270428E+03  0.22583668765E+02  0.67650182375E+03  0.70779771604E+03  0.25500000920E-02 0.  1.
       -2    1    3    3    0  502 -0.20691270428E+03 -0.22583668765E+02 -0.89987017919E+03  0.92362829574E+03  0.25500000920E-02 0. -1.
</event>
<event>
 5   0  0.7302027E-04  0.1552907E+04  0.7818609E-02  0.8850013E-01
       -1   -1    0    0    0  501  0.00000000000E+00  0.00000000000E+00  0.67582783059E+03  0.67582783061E+03  0.50400001928E-02 0.  1.
        1   -1    0    0  501    0  0.00000000000E+00  0.00000000000E+00 -0.89206182244E+03  0.89206182245E+03  0.50400001928E-02 0. -1.
    10030    2    1    2    0    0  0.00000000000E+00  0.00000000000E+00 -0.21623399184E+03  0.15678896531E+04  0.15529072171E+04 0.  0.
        5    1    3    3  502    0  0.17759015221E+02  0.64570316240E+03  0.32686457557E+03  0.72395476192E+03  0.46999998093E+01 0.  1.
       -5    1    3    3    0  502 -0.17759015221E+02 -0.64570316240E+03 -0.54309856741E+03  0.84393489114E+03  0.46999998093E+01 0. -1.
</event>
<event>
 5   0  0.7601145E-04  0.1547468E+04  0.7818609E-02  0.8853486E-01
        1   -1    0    0  501    0  0.00000000000E+00  0.00000000000E+00  0.70436728501E+03  0.70436728502E+03  0.50400001928E-02 0.  1.
       -1   -1    0    0    0  501  0.00000000000E+00  0.00000000000E+00 -0.84993237450E+03  0.84993237451E+03  0.50400001928E-02 0. -1.
    10030    2    1    2    0    0  0.00000000000E+00  0.00000000000E+00 -0.14556508949E+03  0.15542996595E+04  0.15474683313E+04 0.  0.
        4    1    3    3  502    0  0.63098431194E+03  0.12065714129E+03  0.36035611924E+03  0.73658502105E+03  0.12699999809E+01 0.  1.
       -4    1    3    3    0  502 -0.63098431194E+03 -0.12065714129E+03 -0.50592120873E+03  0.81771463849E+03  0.12699999809E+01 0. -1.
</event>
<event>
 5   0  0.7124495E-04  0.1754831E+04  0.7818609E-02  0.8730696E-01
        1   -1    0    0  501    0  0.00000000000E+00  0.00000000000E+00  0.53306968732E+03  0.53306968735E+03  0.50400001928E-02 0.  1.
       -1   -1    0    0    0  501  0.00000000000E+00  0.00000000000E+00 -0.14441974569E+04  0.14441974570E+04  0.50400001928E-02 0. -1.
    10030    2    1    2    0    0  0.00000000000E+00  0.00000000000E+00 -0.91112776962E+03  0.19772671443E+04  0.17548309170E+04 0.  0.
        2    1    3    3  502    0 -0.78165714434E+03  0.26018676124E+03 -0.79578622348E+03  0.11454085540E+04  0.25500000920E-02 0. -1.
       -2    1    3    3    0  502  0.78165714434E+03 -0.26018676124E+03 -0.11534154614E+03  0.83185859033E+03  0.25500000920E-02 0.  1.
</event>
<event>
 5   0  0.7302027E-04  0.1579950E+04  0.7818609E-02  0.8832961E-01
       -1   -1    0    0    0  501  0.00000000000E+00  0.00000000000E+00  0.88415023569E+03  0.88415023570E+03  0.50400001928E-02 0.  1.
        1   -1    0    0  501    0  0.00000000000E+00  0.00000000000E+00 -0.70583109473E+03  0.70583109475E+03  0.50400001928E-02 0. -1.
    10030    2    1    2    0    0  0.00000000000E+00  0.00000000000E+00  0.17831914096E+03  0.15899813305E+04  0.15799502888E+04 0.  0.
        5    1    3    3  502    0 -0.17751671251E+03  0.14157235046E+03 -0.67227076411E+03  0.70959494355E+03  0.46999998093E+01 0. -1.
       -5    1    3    3    0  502  0.17751671251E+03 -0.14157235046E+03  0.85058990507E+03  0.88038638690E+03  0.46999998093E+01 0.  1.
</event>
<event>
 5   0  0.7633213E-04  0.1602038E+04  0.7818609E-02  0.8819297E-01
       -1   -1    0    0    0  501  0.00000000000E+00  0.00000000000E+00  0.65557809146E+03  0.65557809148E+03  0.50400001928E-02 0.  1.
        1   -1    0    0  501    0  0.00000000000E+00  0.00000000000E+00 -0.97872590980E+03  0.97872590981E+03  0.50400001928E-02 0. -1.
    10030    2    1    2    0    0  0.00000000000E+00  0.00000000000E+00 -0.32314781834E+03  0.16343040013E+04  0.16020377824E+04 0.  0.
        1    1    3    3  502    0  0.35388073494E+03 -0.57894013618E+03 -0.59585682830E+03  0.90302193534E+03  0.50400001928E-02 0. -1.
       -1    1    3    3    0  502 -0.35388073494E+03  0.57894013618E+03  0.27270900997E+03  0.73128206595E+03  0.50400001928E-02 0.  1.
</event>
<event>
 5   0  0.1354766E-03  0.1530539E+04  0.7818609E-02  0.8864395E-01
        2   -1    0    0  501    0  0.00000000000E+00  0.00000000000E+00  0.69938066790E+03  0.69938066790E+03  0.25500000920E-02 0. -1.
       -2   -1    0    0    0  501  0.00000000000E+00  0.00000000000E+00 -0.83736618823E+03  0.83736618823E+03  0.25500000920E-02 0.  1.
    10030    2    1    2    0    0  0.00000000000E+00  0.00000000000E+00 -0.13798552033E+03  0.15367468561E+04  0.15305394134E+04 0.  0.
        3    1    3    3  502    0  0.69003502027E+03  0.24792086004E+03  0.15104126184E+03  0.74861642717E+03  0.10100000352E+00 0. -1.
       -3    1    3    3    0  502 -0.69003502027E+03 -0.24792086004E+03 -0.28902678217E+03  0.78813042896E+03  0.10100000352E+00 0.  1.
</event>
<event>
 5   0  0.1354766E-03  0.1600514E+04  0.7818609E-02  0.8820232E-01
        2   -1    0    0  501    0  0.00000000000E+00  0.00000000000E+00  0.53323575775E+03  0.53323575776E+03  0.25500000920E-02 0.  1.
       -2   -1    0    0    0  501  0.00000000000E+00  0.00000000000E+00 -0.12009914402E+04  0.12009914402E+04  0.25500000920E-02 0. -1.
    10030    2    1    2    0    0  0.00000000000E+00  0.00000000000E+00 -0.66775568241E+03  0.17342271979E+04  0.16005143931E+04 0.  0.
        3    1    3    3  502    0 -0.50292723312E+03 -0.31094551769E+03 -0.91817683350E+03  0.10920950621E+04  0.10100000352E+00 0. -1.
       -3    1    3    3    0  502  0.50292723312E+03  0.31094551769E+03  0.25042115109E+03  0.64213213586E+03  0.10100000352E+00 0.  1.
</event>
<event>
 5   0  0.7302027E-04  0.1576430E+04  0.7818609E-02  0.8835160E-01
        1   -1    0    0  501    0  0.00000000000E+00  0.00000000000E+00  0.11768166245E+04  0.11768166245E+04  0.50400001928E-02 0. -1.
       -1   -1    0    0    0  501  0.00000000000E+00  0.00000000000E+00 -0.52793539043E+03  0.52793539046E+03  0.50400001928E-02 0.  1.
    10030    2    1    2    0    0  0.00000000000E+00  0.00000000000E+00  0.64888123403E+03  0.17047520149E+04  0.15764303272E+04 0.  0.
        5    1    3    3  502    0 -0.12058017170E+03  0.55847383725E+03  0.91162044238E+03  0.10758747723E+04  0.46999998093E+01 0. -1.
       -5    1    3    3    0  502  0.12058017170E+03 -0.55847383725E+03 -0.26273920835E+03  0.62887724263E+03  0.46999998093E+01 0.  1.
</event>
<event>
 5   0  0.7499834E-04  0.1630091E+04  0.7818609E-02  0.8802273E-01
       -1   -1    0    0    0  501  0.00000000000E+00  0.00000000000E+00  0.96676444989E+03  0.96676444990E+03  0.50400001928E-02 0. -1.
        1   -1    0    0  501    0  0.00000000000E+00  0.00000000000E+00 -0.68713611846E+03  0.68713611847E+03  0.50400001928E-02 0.  1.
    10030    2    1    2    0    0  0.00000000000E+00  0.00000000000E+00  0.27962833143E+03  0.16539005684E+04  0.16300905148E+04 0.  0.
        3    1    3    3  502    0 -0.75946798290E+03  0.59653032770E+02  0.43378521347E+03  0.87665256687E+03  0.10100000352E+00 0. -1.
       -3    1    3    3    0  502  0.75946798290E+03 -0.59653032770E+02 -0.15415688204E+03  0.77724800151E+03  0.10100000352E+00 0.  1.
</event>
<event>
 5   0  0.7499834E-04  0.1423005E+04  0.7818609E-02  0.8937333E-01
       -1   -1    0    0    0  501  0.00000000000E+00  0.00000000000E+00  0.28938961085E+03  0.28938961089E+03  0.50400001928E-02 0.  1.
        1   -1    0    0  501    0  0.00000000000E+00  0.00000000000E+00 -0.17493216749E+04  0.17493216750E+04  0.50400001928E-02 0. -1.
    10030    2    1    2    0    0  0.00000000000E+00  0.00000000000E+00 -0.14599320641E+04  0.20387112858E+04  0.14230045943E+04 0.  0.
        3    1    3    3  502    0 -0.11560197808E+03  0.51047627479E+03 -0.14204611759E+04  0.15138229114E+04  0.10100000352E+00 0. -1.
       -3    1    3    3    0  502  0.11560197808E+03 -0.51047627479E+03 -0.39470888170E+02  0.52488837448E+03  0.10100000352E+00 0.  1.
</event>
<event>
 5   0  0.1414751E-03  0.1569252E+04  0.7818609E-02  0.8839664E-01
        2   -1    0    0  501    0  0.00000000000E+00  0.00000000000E+00  0.15200723249E+04  0.15200723249E+04  0.25500000920E-02 0. -1.
       -2   -1    0    0    0  501  0.00000000000E+00  0.00000000000E+00 -0.40500567549E+03  0.40500567549E+03  0.25500000920E-02 0.  1.
    10030    2    1    2    0    0  0.00000000000E+00  0.00000000000E+00  0.11150666495E+04  0.19250780004E+04  0.15692519476E+04 0.  0.
        2    1    3    3  502    0 -0.33692432349E+03  0.84132222938E+02 -0.30559732988E+03  0.46258616358E+03  0.25500000920E-02 0.  1.
       -2    1    3    3    0  502  0.33692432349E+03 -0.84132222938E+02  0.14206639793E+04  0.14624918369E+04  0.25500000920E-02 0. -1.
</event>
<event>
 5   0  0.1414751E-03  0.1580634E+04  0.7818609E-02  0.8832535E-01
       -2   -1    0    0    0  501  0.00000000000E+00  0.00000000000E+00  0.41073341266E+03  0.41073341266E+03  0.25500000920E-02 0. -1.
        2   -1    0    0  501    0  0.00000000000E+00  0.00000000000E+00 -0.15206958942E+04  0.15206958942E+04  0.25500000920E-02 0.  1.
    10030    2    1    2    0    0  0.00000000000E+00  0.00000000000E+00 -0.11099624815E+04  0.19314293069E+04  0.15806335619E+04 0.  0.
        2    1    3    3  502    0 -0.10528440839E+03 -0.77154752859E+03 -0.71996589745E+03  0.10605287780E+04  0.25500000920E-02 0.  1.
       -2    1    3    3    0  502  0.10528440839E+03  0.77154752859E+03 -0.38999658409E+03  0.87090052884E+03  0.25500000920E-02 0. -1.
</event>
<event>
 5   0  0.7601145E-04  0.1565571E+04  0.7818609E-02  0.8841983E-01
        1   -1    0    0  501    0  0.00000000000E+00  0.00000000000E+00  0.32450769214E+03  0.32450769218E+03  0.50400001928E-02 0.  1.
       -1   -1    0    0    0  501  0.00000000000E+00  0.00000000000E+00 -0.18882547433E+04  0.18882547433E+04  0.50400001928E-02 0. -1.
    10030    2    1    2    0    0  0.00000000000E+00  0.00000000000E+00 -0.15637470512E+04  0.22127624355E+04  0.15655710638E+04 0.  0.
        4    1    3    3  502    0  0.70889616921E+03 -0.31665303289E+03 -0.92284919662E+03  0.12060079496E+04  0.12699999809E+01 0. -1.
       -4    1    3    3    0  502 -0.70889616921E+03  0.31665303289E+03 -0.64089785458E+03  0.10067544859E+04  0.12699999809E+01 0.  1.
</event>
<event>
 5   0  0.1375777E-03  0.1595090E+04  0.7818609E-02  0.8823570E-01
       -2   -1    0    0    0  501  0.00000000000E+00  0.00000000000E+00  0.55609082524E+03  0.55609082524E+03  0.25500000920E-02 0. -1.
        2   -1    0    0  501    0  0.00000000000E+00  0.00000000000E+00 -0.11438381780E+04  0.11438381780E+04  0.25500000920E-02 0.  1.
    10030    2    1    2    0    0  0.00000000000E+00  0.00000000000E+00 -0.58774735275E+03  0.16999290032E+04  0.15950898612E+04 0.  0.
        1    1    3    3  502    0 -0.70990984215E+02  0.55642547046E+03 -0.89808392137E+03  0.10588690919E+04  0.50400001928E-02 0.  1.
       -1    1    3    3    0  502  0.70990984215E+02 -0.55642547046E+03  0.31033656862E+03  0.64105991129E+03  0.50400001928E-02 0. -1.
</event>
<event>
 5   0  0.1339162E-03  0.1587783E+04  0.7818609E-02  0.8828089E-01
        2   -1    0    0  501    0  0.00000000000E+00  0.00000000000E+00  0.11336461919E+04  0.11336461919E+04  0.25500000920E-02 0. -1.
       -2   -1    0    0    0  501  0.00000000000E+00  0.00000000000E+00 -0.55596141827E+03  0.55596141828E+03  0.25500000920E-02 0.  1.
    10030    2    1    2    0    0  0.00000000000E+00  0.00000000000E+00  0.57768477359E+03  0.16896076101E+04  0.15877827870E+04 0.  0.
        5    1    3    3  502    0 -0.40195543364E+02 -0.16163590511E+03 -0.53714449792E+03  0.56239501168E+03  0.46999998093E+01 0.  1.
       -5    1    3    3    0  502  0.40195543364E+02  0.16163590511E+03  0.11148292715E+04  0.11272125985E+04  0.46999998093E+01 0. -1.
</event>
<event>
 5   0  0.1339162E-03  0.1635088E+04  0.7818609E-02  0.8799277E-01
       -2   -1    0    0    0  501  0.00000000000E+00  0.00000000000E+00  0.30404348002E+03  0.30404348003E+03  0.25500000920E-02 0.  1.
        2   -1    0    0  501    0  0.00000000000E+00  0.00000000000E+00 -0.21982977882E+04  0.21982977882E+04  0.25500000920E-02 0. -1.
    10030    2    1    2    0    0  0.00000000000E+00  0.00000000000E+00 -0.18942543081E+04  0.25023412682E+04  0.16350878993E+04 0.  0.
        5    1    3    3  502    0  0.69309052187E+03  0.42363546195E+03 -0.80591043454E+03  0.11442705950E+04  0.46999998093E+01 0. -1.
       -5    1    3    3    0  502 -0.69309052187E+03 -0.42363546195E+03 -0.10883438736E+04  0.13580706732E+04  0.46999998093E+01 0.  1.
</event>
<event>
 5   0  0.1414751E-03  0.1574077E+04  0.7818609E-02  0.8836634E-01
       -2   -1    0    0    0  501  0.00000000000E+00  0.00000000000E+00  0.22103439900E+03  0.22103439902E+03  0.25500000920E-02 0.  1.
        2   -1    0    0  501    0  0.00000000000E+00  0.00000000000E+00 -0.28024132144E+04  0.28024132144E+04  0.25500000920E-02 0. -1.
    10030    2    1    2    0    0  0.00000000000E+00  0.00000000000E+00 -0.25813788154E+04  0.30234476134E+04  0.15740771527E+04 0.  0.
        2    1    3    3  502    0 -0.13677700369E+02 -0.49133394172E+03 -0.11002432288E+03  0.50368787300E+03  0.25500000920E-02 0.  1.
       -2    1    3    3    0  502  0.13677700369E+02  0.49133394172E+03 -0.24713544925E+04  0.25197597404E+04  0.25500000920E-02 0. -1.
</event>
<event>
 5   0  0.5095750E-04  0.1634344E+04  0.7818609E-02  0.8799723E-01
        3   -1    0    0  501    0  0.00000000000E+00  0.00000000000E+00  0.10177367869E+04  0.10177367920E+04  0.10100000352E+00 0. -1.
       -3   -1    0    0    0  501  0.00000000000E+00  0.00000000000E+00 -0.65613206009E+03  0.65613206787E+03  0.10100000352E+00 0.  1.
    10030    2    1    2    0    0  0.00000000000E+00  0.00000000000E+00  0.36160472686E+03  0.16738688598E+04  0.16343435934E+04 0.  0.
        2    1    3    3  502    0 -0.21310846202E+03  0.50046071685E+02  0.98714818453E+03  0.10111287574E+04  0.25500000920E-02 0. -1.
       -2    1    3    3    0  502  0.21310846202E+03 -0.50046071685E+02 -0.62554345768E+03  0.66274010240E+03  0.25500000920E-02 0.  1.
</event>
<event>
 5   0  0.1354766E-03  0.1586544E+04  0.7818609E-02  0.8828857E-01
       -2   -1    0    0    0  501  0.00000000000E+00  0.00000000000E+00  0.93460010684E+03  0.93460010685E+03  0.25500000920E-02 0.  1.
        2   -1    0    0  501    0  0.00000000000E+00  0.00000000000E+00 -0.67331553526E+03  0.67331553527E+03  0.25500000920E-02 0. -1.
    10030    2    1    2    0    0  0.00000000000E+00  0.00000000000E+00  0.26128457158E+03  0.16079156421E+04  0.15865443848E+04 0.  0.
        3    1    3    3  502    0 -0.74614819136E+03 -0.26898715979E+03  0.14459528799E+03  0.80622516899E+03  0.10100000352E+00 0.  1.
       -3    1    3    3    0  502  0.74614819136E+03  0.26898715979E+03  0.11668928359E+03  0.80169047313E+03  0.10100000352E+00 0. -1.
</event>
<event>
 5   0  0.7499834E-04  0.1262111E+04  0.7818609E-02  0.9060163E-01
        1   -1    0    0  501    0  0.00000000000E+00  0.00000000000E+00  0.14505090036E+04  0.14505090036E+04  0.50400001928E-02 0. -1.
       -1   -1    0    0    0  501  0.00000000000E+00  0.00000000000E+00 -0.27454566189E+03  0.27454566194E+03  0.50400001928E-02 0.  1.
    10030    2    1    2    0    0  0.00000000000E+00  0.00000000000E+00  0.11759633417E+04  0.17250546656E+04  0.12621108581E+04 0.  0.
        3    1    3    3  502    0  0.12300375376E+03 -0.55723194084E+03  0.95624161349E+03  0.11135687643E+04  0.10100000352E+00 0. -1.
       -3    1    3    3    0  502 -0.12300375376E+03  0.55723194084E+03  0.21972172822E+03  0.61148590122E+03  0.10100000352E+00 0.  1.
</event>
<event>
 5   0  0.1414796E-03  0.1596392E+04  0.7818609E-02  0.8822767E-01
        2   -1    0    0  501    0  0.00000000000E+00  0.00000000000E+00  0.41141865220E+03  0.41141865221E+03  0.25500000920E-02 0. -1.
       -2   -1    0    0    0  501  0.00000000000E+00  0.00000000000E+00 -0.15485856440E+04  0.15485856440E+04  0.25500000920E-02 0.  1.
    10030    2    1    2    0    0  0.00000000000E+00  0.00000000000E+00 -0.11371669918E+04  0.19600042962E+04  0.15963922055E+04 0.  0.
        4    1    3    3  502    0  0.67037541578E+02  0.72754275489E+03 -0.96319860493E+03  0.12089522975E+04  0.12699999809E+01 0. -1.
       -4    1    3    3    0  502 -0.67037541578E+02 -0.72754275489E+03 -0.17396838682E+03  0.75105199866E+03  0.12699999809E+01 0.  1.
</event>
<event>
 5   0  0.7124495E-04  0.1600845E+04  0.7818609E-02  0.8820029E-01
        1   -1    0    0  501    0  0.00000000000E+00  0.00000000000E+00  0.78207676910E+03  0.78207676912E+03  0.50400001928E-02 0.  1.
       -1   -1    0    0    0  501  0.00000000000E+00  0.00000000000E+00 -0.81919862232E+03  0.81919862234E+03  0.50400001928E-02 0. -1.
    10030    2    1    2    0    0  0.00000000000E+00  0.00000000000E+00 -0.37121853220E+02  0.16012753915E+04  0.16008450416E+04 0.  0.
        2    1    3    3  502    0 -0.39756159875E+03 -0.13231975075E+03  0.66361395819E+03  0.78482305442E+03  0.25500000920E-02 0.  1.
       -2    1    3    3    0  502  0.39756159875E+03  0.13231975075E+03 -0.70073581141E+03  0.81645233703E+03  0.25500000920E-02 0. -1.
</event>
<event>
 5   0  0.7633213E-04  0.1197829E+04  0.7818609E-02  0.9114759E-01
       -1   -1    0    0    0  501  0.00000000000E+00  0.00000000000E+00  0.43492822661E+03  0.43492822664E+03  0.50400001928E-02 0. -1.
        1   -1    0    0  501    0  0.00000000000E+00  0.00000000000E+00 -0.82472999429E+03  0.82472999431E+03  0.50400001928E-02 0.  1.
    10030    2    1    2    0    0  0.00000000000E+00  0.00000000000E+00 -0.38980176768E+03  0.12596582209E+04  0.11978286253E+04 0.  0.
        1    1    3    3  502    0  0.57438840160E+03  0.24465197580E+00 -0.37329281131E+03  0.68503256766E+03  0.50400001928E-02 0.  1.
       -1    1    3    3    0  502 -0.57438840160E+03 -0.24465197580E+00 -0.16508956366E+02  0.57462565329E+03  0.50400001928E-02 0. -1.
</event>
<event>
 5   0  0.1339162E-03  0.1577263E+04  0.7818609E-02  0.8834639E-01
       -2   -1    0    0    0  501  0.00000000000E+00  0.00000000000E+00  0.28306106696E+03  0.28306106697E+03  0.25500000920E-02 0. -1.
        2   -1    0    0  501    0  0.00000000000E+00  0.00000000000E+00 -0.21971930224E+04  0.21971930224E+04  0.25500000920E-02 0.  1.
    10030    2    1    2    0    0  0.00000000000E+00  0.00000000000E+00 -0.19141319554E+04  0.24802540893E+04  0.15772632009E+04 0.  0.
        5    1    3    3  502    0 -0.55474938373E+03 -0.28492316908E+03 -0.19803362033E+03  0.65434508924E+03  0.46999998093E+01 0. -1.
       -5    1    3    3    0  502  0.55474938373E+03  0.28492316908E+03 -0.17160983351E+04  0.18259090001E+04  0.46999998093E+01 0.  1.
</event>
<event>
 5   0  0.7302027E-04  0.1674711E+04  0.7818609E-02  0.8775920E-01
        1   -1    0    0  501    0  0.00000000000E+00  0.00000000000E+00  0.51079287745E+03  0.51079287748E+03  0.50400001928E-02 0. -1.
       -1   -1    0    0    0  501  0.00000000000E+00  0.00000000000E+00 -0.13726982441E+04  0.13726982441E+04  0.50400001928E-02 0.  1.
    10030    2    1    2    0    0  0.00000000000E+00  0.00000000000E+00 -0.86190536666E+03  0.18834911216E+04  0.16747113017E+04 0.  0.
        5    1    3    3  502    0 -0.62195299972E+03  0.22844583066E+03 -0.10067656807E+04  0.12052436506E+04  0.46999998093E+01 0. -1.
       -5    1    3    3    0  502  0.62195299972E+03 -0.22844583066E+03  0.14486031402E+03  0.67824747105E+03  0.46999998093E+01 0.  1.
</event>
<event>
 5   0  0.1354766E-03  0.1601481E+04  0.7818609E-02  0.8819639E-01
        2   -1    0    0  501    0  0.00000000000E+00  0.00000000000E+00  0.22248730236E+04  0.22248730236E+04  0.25500000920E-02 0.  1.
       -2   -1    0    0    0  501  0.00000000000E+00  0.00000000000E+00 -0.28818968985E+03  0.28818968986E+03  0.25500000920E-02 0. -1.
    10030    2    1    2    0    0  0.00000000000E+00  0.00000000000E+00  0.19366833338E+04  0.25130627135E+04  0.16014811477E+04 0.  0.
        3    1    3    3  502    0  0.47257625337E+03  0.61720032780E+03  0.66682063191E+03  0.10241651845E+04  0.10100000352E+00 0. -1.
       -3    1    3    3    0  502 -0.47257625337E+03 -0.61720032780E+03  0.12698627019E+04  0.14888975289E+04  0.10100000352E+00 0.  1.
</event>
<event>
 5   0  0.1375777E-03  0.1692150E+04  0.7818609E-02  0.8765854E-01
        2   -1    0    0  501    0  0.00000000000E+00  0.00000000000E+00  0.31048199222E+04  0.31048199222E+04  0.25500000920E-02 0.  1.
       -2   -1    0    0    0  501  0.00000000000E+00  0.00000000000E+00 -0.23055872187E+03  0.23055872189E+03  0.25500000920E-02 0. -1.
    10030    2    1    2    0    0  0.00000000000E+00  0.00000000000E+00  0.28742612003E+04  0.33353786441E+04  0.16921504814E+04 0.  0.
        1    1    3    3  502    0  0.50648721499E+02 -0.59143074335E+03  0.24876240780E+03  0.64361351192E+03  0.50400001928E-02 0. -1.
       -1    1    3    3    0  502 -0.50648721499E+02  0.59143074335E+03  0.26254987925E+04  0.26917651321E+04  0.50400001928E-02 0.  1.
</event>
<event>
 5   0  0.7124495E-04  0.1626525E+04  0.7818609E-02  0.8804416E-01
        1   -1    0    0  501    0  0.00000000000E+00  0.00000000000E+00  0.97038290406E+03  0.97038290407E+03  0.50400001928E-02 0. -1.
       -1   -1    0    0    0  501  0.00000000000E+00  0.00000000000E+00 -0.68158228671E+03  0.68158228673E+03  0.50400001928E-02 0.  1.
    10030    2    1    2    0    0  0.00000000000E+00  0.00000000000E+00  0.28880061735E+03  0.16519651908E+04  0.16265248830E+04 0.  0.
        2    1    3    3  502    0 -0.44260248413E+03  0.57045235008E+03 -0.23573028962E+03  0.75952722935E+03  0.25500000920E-02 0.  1.
       -2    1    3    3    0  502  0.44260248413E+03 -0.57045235008E+03  0.52453090697E+03  0.89243796145E+03  0.25500000920E-02 0. -1.
</event>
<event>
 5   0  0.7124495E-04  0.1633448E+04  0.7818609E-02  0.8800259E-01
       -1   -1    0    0    0  501  0.00000000000E+00  0.00000000000E+00  0.43745580858E+03  0.43745580861E+03  0.50400001928E-02 0.  1.
        1   -1    0    0  501    0  0.00000000000E+00  0.00000000000E+00 -0.15248125907E+04  0.15248125907E+04  0.50400001928E-02 0. -1.
    10030    2    1    2    0    0  0.00000000000E+00  0.00000000000E+00 -0.10873567821E+04  0.19622683993E+04  0.16334480400E+04 0.  0.
        2    1    3    3  502    0  0.80888910487E+03 -0.24115839029E+02 -0.67612168717E+03  0.10545253404E+04  0.25500000920E-02 0. -1.
       -2    1    3    3    0  502 -0.80888910487E+03  0.24115839029E+02 -0.41123509495E+03  0.90774305891E+03  0.25500000920E-02 0.  1.
</event>
<event>
 5   0  0.1354766E-03  0.1590131E+04  0.7818609E-02  0.8826634E-01
       -2   -1    0    0    0  501  0.00000000000E+00  0.00000000000E+00  0.29825029043E+03  0.29825029044E+03  0.25500000920E-02 0.  1.
        2   -1    0    0  501    0  0.00000000000E+00  0.00000000000E+00 -0.21194580428E+04  0.21194580428E+04  0.25500000920E-02 0. -1.
    10030    2    1    2    0    0  0.00000000000E+00  0.00000000000E+00 -0.18212077523E+04  0.24177083332E+04  0.15901307831E+04 0.  0.
        3    1    3    3  502    0 -0.41901253884E+03  0.47492782840E+03 -0.17983842292E+03  0.65838424833E+03  0.10100000352E+00 0.  1.
       -3    1    3    3    0  502  0.41901253884E+03 -0.47492782840E+03 -0.16413693294E+04  0.17593240849E+04  0.10100000352E+00 0. -1.
</event>
<event>
 5   0  0.1339162E-03  0.1579802E+04  0.7818609E-02  0.8833053E-01
        2   -1    0    0  501    0  0.00000000000E+00  0.00000000000E+00  0.16146184135E+04  0.16146184135E+04  0.25500000920E-02 0.  1.
       -2   -1    0    0    0  501  0.00000000000E+00  0.00000000000E+00 -0.38643409892E+03  0.38643409893E+03  0.25500000920E-02 0. -1.
    10030    2    1    2    0    0  0.00000000000E+00  0.00000000000E+00  0.12281843146E+04  0.20010525124E+04  0.15798020278E+04 0.  0.
        5    1    3    3  502    0  0.51519189872E+03 -0.29672952385E+02  0.13715626392E+04  0.14654382757E+04  0.46999998093E+01 0.  1.
       -5    1    3    3    0  502 -0.51519189872E+03  0.29672952385E+02 -0.14337832464E+03  0.53561423672E+03  0.46999998093E+01 0. -1.
</event>
<event>
 5   0  0.7601145E-04  0.1613339E+04  0.7818609E-02  0.8812395E-01
        1   -1    0    0  501    0  0.00000000000E+00  0.00000000000E+00  0.85957821669E+03  0.85957821670E+03  0.50400001928E-02 0.  1.
       -1   -1    0    0    0  501  0.00000000000E+00  0.00000000000E+00 -0.75701727599E+03  0.75701727601E+03  0.50400001928E-02 0. -1.
    10030    2    1    2    0    0  0.00000000000E+00  0.00000000000E+00  0.10256094070E+03  0.16165954927E+04  0.16133388486E+04 0.  0.
        4    1    3    3  502    0 -0.13792736197E+03 -0.77696763296E+03  0.21898403986E+03  0.81893728848E+03  0.12699999809E+01 0.  1.
       -4    1    3    3    0  502  0.13792736197E+03  0.77696763296E+03 -0.11642309916E+03  0.79765820423E+03  0.12699999809E+01 0. -1.
</event>
<event>
 5   0  0.7601145E-04  0.1535918E+04  0.7818609E-02  0.8860913E-01
        1   -1    0    0  501    0  0.00000000000E+00  0.00000000000E+00  0.23847560907E+04  0.23847560908E+04  0.50400001928E-02 0. -1.
       -1   -1    0    0    0  501  0.00000000000E+00  0.00000000000E+00 -0.24730448406E+03  0.24730448411E+03  0.50400001928E-02 0.  1.
    10030    2    1    2    0    0  0.00000000000E+00  0.00000000000E+00  0.21374516067E+04  0.26320605749E+04  0.15359178034E+04 0.  0.
        4    1    3    3  502    0 -0.57670225462E+03 -0.34516846596E+03  0.17054019581E+04  0.18330641593E+04  0.12699999809E+01 0. -1.
       -4    1    3    3    0  502  0.57670225462E+03  0.34516846596E+03  0.43204964858E+03  0.79899641559E+03  0.12699999809E+01 0.  1.
</event>
<event>
 5   0  0.7633213E-04  0.1552324E+04  0.7818609E-02  0.8850384E-01
       -1   -1    0    0    0  501  0.00000000000E+00  0.00000000000E+00  0.10830423580E+04  0.10830423580E+04  0.50400001928E-02 0. -1.
        1   -1    0    0  501    0  0.00000000000E+00  0.00000000000E+00 -0.55623662804E+03  0.55623662806E+03  0.50400001928E-02 0.  1.
    10030    2    1    2    0    0  0.00000000000E+00  0.00000000000E+00  0.52680572996E+03  0.16392789861E+04  0.15523244883E+04 0.  0.
        1    1    3    3  502    0  0.32655436869E+03 -0.62563850415E+03 -0.77751550711E+02  0.71000464594E+03  0.50400001928E-02 0.  1.
       -1    1    3    3    0  502 -0.32655436869E+03  0.62563850415E+03  0.60455728067E+03  0.92927434014E+03  0.50400001928E-02 0. -1.
</event>
<event>
 5   0  0.7633213E-04  0.1601593E+04  0.7818609E-02  0.8819570E-01
        1   -1    0    0  501    0  0.00000000000E+00  0.00000000000E+00  0.12747663314E+04  0.12747663314E+04  0.50400001928E-02 0. -1.
       -1   -1    0    0    0  501  0.00000000000E+00  0.00000000000E+00 -0.50305294633E+03  0.50305294635E+03  0.50400001928E-02 0.  1.
    10030    2    1    2    0    0  0.00000000000E+00  0.00000000000E+00  0.77171338510E+03  0.17778192778E+04  0.16015929057E+04 0.  0.
        1    1    3    3  502    0 -0.50018262086E+02 -0.26899254844E+03  0.12212736477E+04  0.12515462997E+04  0.50400001928E-02 0. -1.
       -1    1    3    3    0  502  0.50018262086E+02  0.26899254844E+03 -0.44956026265E+03  0.52627297806E+03  0.50400001928E-02 0.  1.
</event>
<event>
 5   0  0.7124495E-04  0.1662696E+04  0.7818609E-02  0.8782931E-01
       -1   -1    0    0    0  501  0.00000000000E+00  0.00000000000E+00  0.85571333769E+03  0.85571333770E+03  0.50400001928E-02 0. -1.
        1   -1    0    0  501    0  0.00000000000E+00  0.00000000000E+00 -0.80767613098E+03  0.80767613100E+03  0.50400001928E-02 0.  1.
    10030    2    1    2    0    0  0.00000000000E+00  0.00000000000E+00  0.48037206707E+02  0.16633894687E+04  0.16626956881E+04 0.  0.
        2    1    3    3  502    0 -0.43134642065E+03  0.69862068049E+03  0.15449022910E+03  0.83546263873E+03  0.25500000920E-02 0. -1.
       -2    1    3    3    0  502  0.43134642065E+03 -0.69862068049E+03 -0.10645302239E+03  0.82792682998E+03  0.25500000920E-02 0.  1.
</event>
<event>
 5   0  0.7302027E-04  0.1636648E+04  0.7818609E-02  0.8798345E-01
        1   -1    0    0  501    0  0.00000000000E+00  0.00000000000E+00  0.15817187054E+04  0.15817187054E+04  0.50400001928E-02 0.  1.
       -1   -1    0    0    0  501  0.00000000000E+00  0.00000000000E+00 -0.42337113315E+03  0.42337113318E+03  0.50400001928E-02 0. -1.
    10030    2    1    2    0    0  0.00000000000E+00  0.00000000000E+00  0.11583475723E+04  0.20050898386E+04  0.16366478432E+04 0.  0.
        5    1    3    3  502    0  0.92612155819E+02  0.79706524449E+03  0.77573561789E+03  0.11160993926E+04  0.46999998093E+01 0.  1.
       -5    1    3    3    0  502 -0.92612155819E+02 -0.79706524449E+03  0.38261195436E+03  0.88899044595E+03  0.46999998093E+01 0. -1.
</event>
<event>
 5   0  0.7124495E-04  0.1655742E+04  0.7818609E-02  0.8787017E-01
       -1   -1    0    0    0  501  0.00000000000E+00  0.00000000000E+00  0.44585470065E+03  0.44585470068E+03  0.50400001928E-02 0. -1.
        1   -1    0    0  501    0  0.00000000000E+00  0.00000000000E+00 -0.15372064942E+04  0.15372064942E+04  0.50400001928E-02 0.  1.
    10030    2    1    2    0    0  0.00000000000E+00  0.00000000000E+00 -0.10913517935E+04  0.19830611949E+04  0.16557424212E+04 0.  0.
        2    1    3    3  502    0 -0.59747161569E+03  0.43336356497E+02  0.13870594840E+03  0.61488999949E+03  0.25500000920E-02 0. -1.
       -2    1    3    3    0  502  0.59747161569E+03 -0.43336356497E+02 -0.12300577419E+04  0.13681711954E+04  0.25500000920E-02 0.  1.
</event>
<event>
 5   0  0.1375777E-03  0.1721710E+04  0.7818609E-02  0.8749078E-01
       -2   -1    0    0    0  501  0.00000000000E+00  0.00000000000E+00  0.10486142214E+04  0.10486142214E+04  0.25500000920E-02 0.  1.
        2   -1    0    0  501    0  0.00000000000E+00  0.00000000000E+00 -0.70671500808E+03  0.70671500809E+03  0.25500000920E-02 0. -1.
    10030    2    1    2    0    0  0.00000000000E+00  0.00000000000E+00  0.34189921331E+03  0.17553292295E+04  0.17217100894E+04 0.  0.
        1    1    3    3  502    0 -0.70475411718E+03  0.48401290584E+03  0.68364005349E+02  0.85768321422E+03  0.50400001928E-02 0. -1.
       -1    1    3    3    0  502  0.70475411718E+03 -0.48401290584E+03  0.27353520796E+03  0.89764601526E+03  0.50400001928E-02 0.  1.
</event>
<event>
 5   0  0.1375777E-03  0.1598290E+04  0.7818609E-02  0.8821599E-01
       -2   -1    0    0    0  501  0.00000000000E+00  0.00000000000E+00  0.29110661824E+03  0.29110661825E+03  0.25500000920E-02 0. -1.
        2   -1    0    0  501    0  0.00000000000E+00  0.00000000000E+00 -0.21938110939E+04  0.21938110939E+04  0.25500000920E-02 0.  1.
    10030    2    1    2    0    0  0.00000000000E+00  0.00000000000E+00 -0.19027044757E+04  0.24849177122E+04  0.15982902473E+04 0.  0.
        1    1    3    3  502    0  0.56320114706E+03 -0.23010135550E+03 -0.14574930872E+03  0.62560772603E+03  0.50400001928E-02 0. -1.
       -1    1    3    3    0  502 -0.56320114706E+03  0.23010135550E+03 -0.17569551670E+04  0.18593099861E+04  0.50400001928E-02 0.  1.
</event>
<event>
 5   0  0.1414751E-03  0.1605047E+04  0.7818609E-02  0.8817454E-01
        2   -1    0    0  501    0  0.00000000000E+00  0.00000000000E+00  0.83906916024E+03  0.83906916025E+03  0.25500000920E-02 0.  1.
       -2   -1    0    0    0  501  0.00000000000E+00  0.00000000000E+00 -0.76756938551E+03  0.76756938551E+03  0.25500000920E-02 0. -1.
    10030    2    1    2    0    0  0.00000000000E+00  0.00000000000E+00  0.71499774738E+02  0.16066385458E+04  0.16050467903E+04 0.  0.
        2    1    3    3  502    0 -0.47811852100E+03  0.97097180457E+02  0.67357770840E+03  0.83170434160E+03  0.25500000920E-02 0.  1.
       -2    1    3    3    0  502  0.47811852100E+03 -0.97097180457E+02 -0.60207793366E+03  0.77493420416E+03  0.25500000920E-02 0. -1.
</event>
<event>
 5   0  0.7601145E-04  0.1592168E+04  0.7818609E-02  0.8825374E-01
       -1   -1    0    0    0  501  0.00000000000E+00  0.00000000000E+00  0.46151927522E+03  0.46151927525E+03  0.50400001928E-02 0. -1.
        1   -1    0    0  501    0  0.00000000000E+00  0.00000000000E+00 -0.13731821202E+04  0.13731821202E+04  0.50400001928E-02 0.  1.
    10030    2    1    2    0    0  0.00000000000E+00  0.00000000000E+00 -0.91166284499E+03  0.18347013955E+04  0.15921683540E+04 0.  0.
        4    1    3    3  502    0 -0.41137445108E+03  0.61297840379E+03 -0.79917307498E+03  0.10879571128E+04  0.12699999809E+01 0.  1.
       -4    1    3    3    0  502  0.41137445108E+03 -0.61297840379E+03 -0.11248977001E+03  0.74674428272E+03  0.12699999809E+01 0. -1.
</event>
<event>
 5   0  0.7601145E-04  0.1563051E+04  0.7818609E-02  0.8843574E-01
        1   -1    0    0  501    0  0.00000000000E+00  0.00000000000E+00  0.20111030328E+04  0.20111030328E+04  0.50400001928E-02 0.  1.
       -1   -1    0    0    0  501  0.00000000000E+00  0.00000000000E+00 -0.30370517006E+03  0.30370517010E+03  0.50400001928E-02 0. -1.
    10030    2    1    2    0    0  0.00000000000E+00  0.00000000000E+00  0.17073978627E+04  0.23148082029E+04  0.15630513602E+04 0.  0.
        4    1    3    3  502    0  0.38661703465E+03 -0.60292678458E+03  0.13168077734E+04  0.14989922495E+04  0.12699999809E+01 0.  1.
       -4    1    3    3    0  502 -0.38661703465E+03  0.60292678458E+03  0.39059008931E+03  0.81581595340E+03  0.12699999809E+01 0. -1.
</event>
<event>
 5   0  0.7633213E-04  0.1548682E+04  0.7818609E-02  0.8852710E-01
       -1   -1    0    0    0  501  0.00000000000E+00  0.00000000000E+00  0.78078357544E+03  0.78078357545E+03  0.50400001928E-02 0. -1.
        1   -1    0    0  501    0  0.00000000000E+00  0.00000000000E+00 -0.76795183175E+03  0.76795183177E+03  0.50400001928E-02 0.  1.
    10030    2    1    2    0    0  0.00000000000E+00  0.00000000000E+00  0.12831743689E+02  0.15487354072E+04  0.15486822489E+04 0.  0.
        1    1    3    3  502    0  0.52539117392E+03  0.46513260472E+03 -0.32103994518E+03  0.77165463261E+03  0.50400001928E-02 0.  1.
       -1    1    3    3    0  502 -0.52539117392E+03 -0.46513260472E+03  0.33387168887E+03  0.77708077461E+03  0.50400001928E-02 0. -1.
</event>
<event>
 5   0  0.7124495E-04  0.1564372E+04  0.7818609E-02  0.8842739E-01
        1   -1    0    0  501    0  0.00000000000E+00  0.00000000000E+00  0.14073721775E+04  0.14073721775E+04  0.50400001928E-02 0. -1.
       -1   -1    0    0    0  501  0.00000000000E+00  0.00000000000E+00 -0.43472166544E+03  0.43472166547E+03  0.50400001928E-02 0.  1.
    10030    2    1    2    0    0  0.00000000000E+00  0.00000000000E+00  0.97265051201E+03  0.18420938429E+04  0.15643723047E+04 0.  0.
        2    1    3    3  502    0 -0.56794577262E+03  0.20942627219E+03  0.10696401728E+04  0.12290451023E+04  0.25500000920E-02 0. -1.
       -2    1    3    3    0  502  0.56794577262E+03 -0.20942627219E+03 -0.96989660798E+02  0.61304874066E+03  0.25500000920E-02 0.  1.
</event>
<event>
 5   0  0.7124495E-04  0.1596884E+04  0.7818609E-02  0.8822465E-01
       -1   -1    0    0    0  501  0.00000000000E+00  0.00000000000E+00  0.63664251327E+03  0.63664251329E+03  0.50400001928E-02 0.  1.
        1   -1    0    0  501    0  0.00000000000E+00  0.00000000000E+00 -0.10013620691E+04  0.10013620691E+04  0.50400001928E-02 0. -1.
    10030    2    1    2    0    0  0.00000000000E+00  0.00000000000E+00 -0.36471955585E+03  0.16380045824E+04  0.15968840464E+04 0.  0.
        2    1    3    3  502    0  0.44569159930E+03 -0.46298880786E+03  0.30366633214E+03  0.71078328566E+03  0.25500000920E-02 0.  1.
       -2    1    3    3    0  502 -0.44569159930E+03  0.46298880786E+03 -0.66838588799E+03  0.92722129676E+03  0.25500000920E-02 0. -1.
</event>
<event>
 5   0  0.1354766E-03  0.1627587E+04  0.7818609E-02  0.8803777E-01
        2   -1    0    0  501    0  0.00000000000E+00  0.00000000000E+00  0.51111843768E+03  0.51111843769E+03  0.25500000920E-02 0. -1.
       -2   -1    0    0    0  501  0.00000000000E+00  0.00000000000E+00 -0.12957069029E+04  0.12957069029E+04  0.25500000920E-02 0.  1.
    10030    2    1    2    0    0  0.00000000000E+00  0.00000000000E+00 -0.78458846523E+03  0.18068253406E+04  0.16275867878E+04 0.  0.
        3    1    3    3  502    0  0.50031636809E+03  0.29810874621E+02  0.31944635393E+03  0.59434934144E+03  0.10100000352E+00 0. -1.
       -3    1    3    3    0  502 -0.50031636809E+03 -0.29810874621E+02 -0.11040348192E+04  0.12124759992E+04  0.10100000352E+00 0.  1.
</event>
<event>
 5   0  0.1375777E-03  0.1593388E+04  0.7818609E-02  0.8824621E-01
        2   -1    0    0  501    0  0.00000000000E+00  0.00000000000E+00  0.49902565910E+03  0.49902565911E+03  0.25500000920E-02 0.  1.
       -2   -1    0    0    0  501  0.00000000000E+00  0.00000000000E+00 -0.12719204818E+04  0.12719204818E+04  0.25500000920E-02 0. -1.
    10030    2    1    2    0    0  0.00000000000E+00  0.00000000000E+00 -0.77289482273E+03  0.17709461409E+04  0.15933875320E+04 0.  0.
        1    1    3    3  502    0  0.47962308500E+03  0.58013454926E+03 -0.96351129840E+02  0.75886621954E+03  0.50400001928E-02 0.  1.
       -1    1    3    3    0  502 -0.47962308500E+03 -0.58013454926E+03 -0.67654369289E+03  0.10120799214E+04  0.50400001928E-02 0. -1.
</event>
<event>
 5   0  0.1354766E-03  0.1601953E+04  0.7818609E-02  0.8819349E-01
       -2   -1    0    0    0  501  0.00000000000E+00  0.00000000000E+00  0.52942133388E+03  0.52942133388E+03  0.25500000920E-02 0. -1.
        2   -1    0    0  501    0  0.00000000000E+00  0.00000000000E+00 -0.12118200553E+04  0.12118200553E+04  0.25500000920E-02 0.  1.
    10030    2    1    2    0    0  0.00000000000E+00  0.00000000000E+00 -0.68239872143E+03  0.17412413892E+04  0.16019530456E+04 0.  0.
        3    1    3    3  502    0 -0.37939311038E+03 -0.32666015470E+03 -0.10207967395E+04  0.11369573354E+04  0.10100000352E+00 0.  1.
       -3    1    3    3    0  502  0.37939311038E+03  0.32666015470E+03  0.33839801807E+03  0.60428405382E+03  0.10100000352E+00 0. -1.
</event>
<event>
 5   0  0.7633213E-04  0.1610664E+04  0.7818609E-02  0.8814024E-01
        1   -1    0    0  501    0  0.00000000000E+00  0.00000000000E+00  0.23161274325E+04  0.23161274325E+04  0.50400001928E-02 0. -1.
       -1   -1    0    0    0  501  0.00000000000E+00  0.00000000000E+00 -0.28001881644E+03  0.28001881649E+03  0.50400001928E-02 0.  1.
    10030    2    1    2    0    0  0.00000000000E+00  0.00000000000E+00  0.20361086161E+04  0.25961462490E+04  0.16106635433E+04 0.  0.
        1    1    3    3  502    0  0.60459538245E+03 -0.52514410172E+03  0.88083532572E+03  0.11904548606E+04  0.50400001928E-02 0. -1.
       -1    1    3    3    0  502 -0.60459538245E+03  0.52514410172E+03  0.11552732904E+04  0.14056913884E+04  0.50400001928E-02 0.  1.
</event>
<event>
 5   0  0.1414751E-03  0.1609848E+04  0.7818609E-02  0.8814521E-01
        2   -1    0    0  501    0  0.00000000000E+00  0.00000000000E+00  0.16152818852E+04  0.16152818852E+04  0.25500000920E-02 0.  1.
       -2   -1    0    0    0  501  0.00000000000E+00  0.00000000000E+00 -0.40110794095E+03  0.40110794096E+03  0.25500000920E-02 0. -1.
    10030    2    1    2    0    0  0.00000000000E+00  0.00000000000E+00  0.12141739443E+04  0.20163898262E+04  0.16098476835E+04 0.  0.
        2    1    3    3  502    0  0.65342891057E+03  0.46035910642E+03  0.48824432612E+03  0.93663353027E+03  0.25500000920E-02 0.  1.
       -2    1    3    3    0  502 -0.65342891057E+03 -0.46035910642E+03  0.72592961813E+03  0.10797562959E+04  0.25500000920E-02 0. -1.
</event>
<event>
 5   0  0.1414751E-03  0.1417406E+04  0.7818609E-02  0.8941314E-01
       -2   -1    0    0    0  501  0.00000000000E+00  0.00000000000E+00  0.32581102713E+03  0.32581102714E+03  0.25500000920E-02 0. -1.
        2   -1    0    0  501    0  0.00000000000E+00  0.00000000000E+00 -0.15415688840E+04  0.15415688840E+04  0.25500000920E-02 0.  1.
    10030    2    1    2    0    0  0.00000000000E+00  0.00000000000E+00 -0.12157578569E+04  0.18673799112E+04  0.14174062812E+04 0.  0.
        2    1    3    3  502    0 -0.34129123147E+03 -0.54371678235E+03 -0.10034524472E+04  0.11912281301E+04  0.25500000920E-02 0.  1.
       -2    1    3    3    0  502  0.34129123147E+03  0.54371678235E+03 -0.21230540970E+03  0.67615178110E+03  0.25500000920E-02 0. -1.
</event>
<event>
 5   0  0.7633213E-04  0.1618660E+04  0.7818609E-02  0.8809166E-01
        1   -1    0    0  501    0  0.00000000000E+00  0.00000000000E+00  0.13697976682E+04  0.13697976682E+04  0.50400001928E-02 0.  1.
       -1   -1    0    0    0  501  0.00000000000E+00  0.00000000000E+00 -0.47818350411E+03  0.47818350414E+03  0.50400001928E-02 0. -1.
    10030    2    1    2    0    0  0.00000000000E+00  0.00000000000E+00  0.89161416407E+03  0.18479811723E+04  0.16186595058E+04 0.  0.
        1    1    3    3  502    0  0.48176865292E+03  0.52726489784E+03  0.11212570356E+02  0.71430737725E+03  0.50400001928E-02 0. -1.
       -1    1    3    3    0  502 -0.48176865292E+03 -0.52726489784E+03  0.88040159371E+03  0.11336737951E+04  0.50400001928E-02 0.  1.
</event>
<event>
 5   0  0.7601145E-04  0.1569310E+04  0.7818609E-02  0.8839627E-01
       -1   -1    0    0    0  501  0.00000000000E+00  0.00000000000E+00  0.31252598510E+03  0.31252598514E+03  0.50400001928E-02 0. -1.
        1   -1    0    0  501    0  0.00000000000E+00  0.00000000000E+00 -0.19700243820E+04  0.19700243820E+04  0.50400001928E-02 0.  1.
    10030    2    1    2    0    0  0.00000000000E+00  0.00000000000E+00 -0.16574983969E+04  0.22825503672E+04  0.15693104355E+04 0.  0.
        4    1    3    3  502    0  0.42214165199E+03  0.47017209329E+03 -0.15211020983E+03  0.64992653469E+03  0.12699999809E+01 0. -1.
       -4    1    3    3    0  502 -0.42214165199E+03 -0.47017209329E+03 -0.15053881871E+04  0.16326238325E+04  0.12699999809E+01 0.  1.
</event>
<event>
 5   0  0.7302027E-04  0.1672482E+04  0.7818609E-02  0.8777216E-01
        1   -1    0    0  501    0  0.00000000000E+00  0.00000000000E+00  0.13329509062E+04  0.13329509062E+04  0.50400001928E-02 0. -1.
       -1   -1    0    0    0  501  0.00000000000E+00  0.00000000000E+00 -0.52462482911E+03  0.52462482913E+03  0.50400001928E-02 0.  1.
    10030    2    1    2    0    0  0.00000000000E+00  0.00000000000E+00  0.80832607707E+03  0.18575757353E+04  0.16724821570E+04 0.  0.
        5    1    3    3  502    0 -0.54078915060E+03  0.53098297052E+03  0.11668496557E+02  0.75799344601E+03  0.46999998093E+01 0. -1.
       -5    1    3    3    0  502  0.54078915060E+03 -0.53098297052E+03  0.79665758051E+03  0.10995822893E+04  0.46999998093E+01 0.  1.
</event>
<event>
 5   0  0.1414796E-03  0.1589255E+04  0.7818609E-02  0.8827176E-01
        2   -1    0    0  501    0  0.00000000000E+00  0.00000000000E+00  0.65285218415E+03  0.65285218416E+03  0.25500000920E-02 0.  1.
       -2   -1    0    0    0  501  0.00000000000E+00  0.00000000000E+00 -0.96719140849E+03  0.96719140850E+03  0.25500000920E-02 0. -1.
    10030    2    1    2    0    0  0.00000000000E+00  0.00000000000E+00 -0.31433922434E+03  0.16200435927E+04  0.15892552011E+04 0.  0.
        4    1    3    3  502    0  0.35268020609E+03  0.38260527462E+03  0.45501558402E+03  0.69123868420E+03  0.12699999809E+01 0.  1.
       -4    1    3    3    0  502 -0.35268020609E+03 -0.38260527462E+03 -0.76935480836E+03  0.92880490846E+03  0.12699999809E+01 0. -1.
</event>
<event>
 5   0  0.7302027E-04  0.1613090E+04  0.7818609E-02  0.8812546E-01
        1   -1    0    0  501    0  0.00000000000E+00  0.00000000000E+00  0.13108657227E+04  0.13108657228E+04  0.50400001928E-02 0.  1.
       -1   -1    0    0    0  501  0.00000000000E+00  0.00000000000E+00 -0.49624824403E+03  0.49624824405E+03  0.50400001928E-02 0. -1.
    10030    2    1    2    0    0  0.00000000000E+00  0.00000000000E+00  0.81461747872E+03  0.18071139668E+04  0.16130899703E+04 0.  0.
        5    1    3    3  502    0 -0.44966054787E+03 -0.65133029494E+03  0.58110386224E+03  0.98190098794E+03  0.46999998093E+01 0. -1.
       -5    1    3    3    0  502  0.44966054787E+03  0.65133029494E+03  0.23351361647E+03  0.82521297887E+03  0.46999998093E+01 0.  1.
</event>
<event>
 5   0  0.1354766E-03  0.1529345E+04  0.7818609E-02  0.8865170E-01
        2   -1    0    0  501    0  0.00000000000E+00  0.00000000000E+00  0.10914075191E+04  0.10914075191E+04  0.25500000920E-02 0.  1.
       -2   -1    0    0    0  501  0.00000000000E+00  0.00000000000E+00 -0.53575224049E+03  0.53575224050E+03  0.25500000920E-02 0. -1.
    10030    2    1    2    0    0  0.00000000000E+00  0.00000000000E+00  0.55565527865E+03  0.16271597596E+04  0.15293449888E+04 0.  0.
        3    1    3    3  502    0 -0.58080073485E+03  0.47067982165E+03  0.44890684106E+03  0.87200134763E+03  0.10100000352E+00 0. -1.
       -3    1    3    3    0  502  0.58080073485E+03 -0.47067982165E+03  0.10674843759E+03  0.75515841202E+03  0.10100000352E+00 0.  1.
</event>
<event>
 5   0  0.7302027E-04  0.1586954E+04  0.7818609E-02  0.8828603E-01
       -1   -1    0    0    0  501  0.00000000000E+00  0.00000000000E+00  0.45975653323E+03  0.45975653326E+03  0.50400001928E-02 0.  1.
        1   -1    0    0  501    0  0.00000000000E+00  0.00000000000E+00 -0.13694330049E+04  0.13694330049E+04  0.50400001928E-02 0. -1.
    10030    2    1    2    0    0  0.00000000000E+00  0.00000000000E+00 -0.90967647162E+03  0.18291895381E+04  0.15869540269E+04 0.  0.
        5    1    3    3  502    0  0.66801273776E+03 -0.32218516954E+03 -0.12976182006E+03  0.75293062178E+03  0.46999998093E+01 0.  1.
       -5    1    3    3    0  502 -0.66801273776E+03  0.32218516954E+03 -0.77991465156E+03  0.10762589163E+04  0.46999998093E+01 0. -1.
</event>
<event>
 5   0  0.7499834E-04  0.1078162E+04  0.7818609E-02  0.9226742E-01
        1   -1    0    0  501    0  0.00000000000E+00  0.00000000000E+00  0.46415404873E+03  0.46415404876E+03  0.50400001928E-02 0. -1.
       -1   -1    0    0    0  501  0.00000000000E+00  0.00000000000E+00 -0.62610347672E+03  0.62610347674E+03  0.50400001928E-02 0.  1.
    10030    2    1    2    0    0  0.00000000000E+00  0.00000000000E+00 -0.16194942799E+03  0.10902575255E+04  0.10781622580E+04 0.  0.
        3    1    3    3  502    0 -0.29793156709E+03  0.13256495255E+02 -0.53508891055E+03  0.61258395810E+03  0.10100000352E+00 0.  1.
       -3    1    3    3    0  502  0.29793156709E+03 -0.13256495255E+02  0.37313948256E+03  0.47767356739E+03  0.10100000352E+00 0. -1.
</event>
<event>
 5   0  0.7499834E-04  0.1633130E+04  0.7818609E-02  0.8800449E-01
        1   -1    0    0  501    0  0.00000000000E+00  0.00000000000E+00  0.65325622424E+03  0.65325622426E+03  0.50400001928E-02 0. -1.
       -1   -1    0    0    0  501  0.00000000000E+00  0.00000000000E+00 -0.10207002104E+04  0.10207002104E+04  0.50400001928E-02 0.  1.
    10030    2    1    2    0    0  0.00000000000E+00  0.00000000000E+00 -0.36744398612E+03  0.16739564346E+04  0.16331304486E+04 0.  0.
        3    1    3    3  502    0  0.92324277955E+02 -0.80900999382E+03 -0.24655543535E+03  0.85077055385E+03  0.10100000352E+00 0. -1.
       -3    1    3    3    0  502 -0.92324277955E+02  0.80900999382E+03 -0.12088855077E+03  0.82318588077E+03  0.10100000352E+00 0.  1.
</event>
<event>
 5   0  0.7302027E-04  0.1622554E+04  0.7818609E-02  0.8806811E-01
        1   -1    0    0  501    0  0.00000000000E+00  0.00000000000E+00  0.12065635697E+04  0.12065635697E+04  0.50400001928E-02 0.  1.
       -1   -1    0    0    0  501  0.00000000000E+00  0.00000000000E+00 -0.54549171270E+03  0.54549171273E+03  0.50400001928E-02 0. -1.
    10030    2    1    2    0    0  0.00000000000E+00  0.00000000000E+00  0.66107185698E+03  0.17520552824E+04  0.16225540708E+04 0.  0.
        5    1    3    3  502    0  0.51815651654E+03 -0.60264521075E+03  0.15481839448E+03  0.80972726948E+03  0.46999998093E+01 0.  1.
       -5    1    3    3    0  502 -0.51815651654E+03  0.60264521075E+03  0.50625346250E+03  0.94232801294E+03  0.46999998093E+01 0. -1.
</event>
<event>
 5   0  0.1414796E-03  0.1627410E+04  0.7818609E-02  0.8803884E-01
        2   -1    0    0  501    0  0.00000000000E+00  0.00000000000E+00  0.14075205646E+04  0.14075205646E+04  0.25500000920E-02 0. -1.
       -2   -1    0    0    0  501  0.00000000000E+00  0.00000000000E+00 -0.47041282998E+03  0.47041282998E+03  0.25500000920E-02 0.  1.
    10030    2    1    2    0    0  0.00000000000E+00  0.00000000000E+00  0.93710773458E+03  0.18779333945E+04  0.16274098833E+04 0.  0.
        4    1    3    3  502    0  0.48073678189E+02 -0.30000789700E+03 -0.40249758913E+03  0.50430322124E+03  0.12699999809E+01 0.  1.
       -4    1    3    3    0  502 -0.48073678189E+02  0.30000789700E+03  0.13396053237E+04  0.13736301733E+04  0.12699999809E+01 0. -1.
</event>
<event>
 5   0  0.1354766E-03  0.1615729E+04  0.7818609E-02  0.8810943E-01
        2   -1    0    0  501    0  0.00000000000E+00  0.00000000000E+00  0.49400405214E+03  0.49400405215E+03  0.25500000920E-02 0. -1.
       -2   -1    0    0    0  501  0.00000000000E+00  0.00000000000E+00 -0.13211336713E+04  0.13211336713E+04  0.25500000920E-02 0.  1.
    10030    2    1    2    0    0  0.00000000000E+00  0.00000000000E+00 -0.82712961917E+03  0.18151377235E+04  0.16157294168E+04 0.  0.
        3    1    3    3  502    0  0.52792428284E+03 -0.11265841511E+03 -0.10887836066E+04  0.12152554131E+04  0.10100000352E+00 0.  1.
       -3    1    3    3    0  502 -0.52792428284E+03  0.11265841511E+03  0.26165398744E+03  0.59988231033E+03  0.10100000352E+00 0. -1.
</event>
<event>
 5   0  0.1414751E-03  0.1513342E+04  0.7818609E-02  0.8875629E-01
       -2   -1    0    0    0  501  0.00000000000E+00  0.00000000000E+00  0.11511634814E+04  0.11511634814E+04  0.25500000920E-02 0. -1.
        2   -1    0    0  501    0  0.00000000000E+00  0.00000000000E+00 -0.49736724552E+03  0.49736724553E+03  0.25500000920E-02 0.  1.
    10030    2    1    2    0    0  0.00000000000E+00  0.00000000000E+00  0.65379623585E+03  0.16485307269E+04  0.15133420101E+04 0.  0.
        2    1    3    3  502    0 -0.63239162616E+03 -0.41404382173E+03  0.28916957866E+03  0.80930247768E+03  0.25500000920E-02 0. -1.
       -2    1    3    3    0  502  0.63239162616E+03  0.41404382173E+03  0.36462665719E+03  0.83922824922E+03  0.25500000920E-02 0.  1.
</event>
<event>
 5   0  0.1375777E-03  0.1578860E+04  0.7818609E-02  0.8833641E-01
       -2   -1    0    0    0  501  0.00000000000E+00  0.00000000000E+00  0.37593940218E+03  0.37593940219E+03  0.25500000920E-02 0.  1.
        2   -1    0    0  501    0  0.00000000000E+00  0.00000000000E+00 -0.16577130247E+04  0.16577130247E+04  0.25500000920E-02 0. -1.
    10030    2    1    2    0    0  0.00000000000E+00  0.00000000000E+00 -0.12817736225E+04  0.20336524269E+04  0.15788598969E+04 0.  0.
        1    1    3    3  502    0  0.20191503271E+02  0.71289696180E+03 -0.10768685940E+04  0.12916174913E+04  0.50400001928E-02 0.  1.
       -1    1    3    3    0  502 -0.20191503271E+02 -0.71289696180E+03 -0.20490502850E+03  0.74203493561E+03  0.50400001928E-02 0. -1.
</event>
<event>
 5   0  0.1339162E-03  0.1589306E+04  0.7818609E-02  0.8827145E-01
        2   -1    0    0  501    0  0.00000000000E+00  0.00000000000E+00  0.14045811782E+04  0.14045811782E+04  0.25500000920E-02 0.  1.
       -2   -1    0    0    0  501  0.00000000000E+00  0.00000000000E+00 -0.44958137590E+03  0.44958137591E+03  0.25500000920E-02 0. -1.
    10030    2    1    2    0    0  0.00000000000E+00  0.00000000000E+00  0.95499980226E+03  0.18541625541E+04  0.15893061866E+04 0.  0.
        5    1    3    3  502    0  0.74930428540E+03  0.16523597018E+03  0.71855232468E+03  0.10512370671E+04  0.46999998093E+01 0.  1.
       -5    1    3    3    0  502 -0.74930428540E+03 -0.16523597018E+03  0.23644747758E+03  0.80292548696E+03  0.46999998093E+01 0. -1.
</event>
<event>
 5   0  0.1354766E-03  0.1392879E+04  0.7818609E-02  0.8958989E-01
        2   -1    0    0  501    0  0.00000000000E+00  0.00000000000E+00  0.99650512728E+03  0.99650512728E+03  0.25500000920E-02 0. -1.
       -2   -1    0    0    0  501  0.00000000000E+00  0.00000000000E+00 -0.48672936392E+03  0.48672936393E+03  0.25500000920E-02 0.  1.
    10030    2    1    2    0    0  0.00000000000E+00  0.00000000000E+00  0.50977576336E+03  0.14832344912E+04  0.13928794732E+04 0.  0.
        3    1    3    3  502    0 -0.25617193725E+03 -0.16161863553E+03  0.92269220242E+03  0.97113621877E+03  0.10100000352E+00 0. -1.
       -3    1    3    3    0  502  0.25617193725E+03  0.16161863553E+03 -0.41291643906E+03  0.51209827244E+03  0.10100000352E+00 0.  1.
</event>
<event>
 5   0  0.7633213E-04  0.1511341E+04  0.7818609E-02  0.8876946E-01
       -1   -1    0    0    0  501  0.00000000000E+00  0.00000000000E+00  0.49613694217E+03  0.49613694219E+03  0.50400001928E-02 0. -1.
        1   -1    0    0  501    0  0.00000000000E+00  0.00000000000E+00 -0.11509680807E+04  0.11509680807E+04  0.50400001928E-02 0.  1.
    10030    2    1    2    0    0  0.00000000000E+00  0.00000000000E+00 -0.65483113849E+03  0.16471050229E+04  0.15113408406E+04 0.  0.
        1    1    3    3  502    0  0.49823229448E+03 -0.38145238495E+03  0.13147473780E+03  0.64111383385E+03  0.50400001928E-02 0. -1.
       -1    1    3    3    0  502 -0.49823229448E+03  0.38145238495E+03 -0.78630587629E+03  0.10059911890E+04  0.50400001928E-02 0.  1.
</event>
<event>
 5   0  0.7499834E-04  0.1155572E+04  0.7818609E-02  0.9152659E-01
       -1   -1    0    0    0  501  0.00000000000E+00  0.00000000000E+00  0.47903937388E+03  0.47903937391E+03  0.50400001928E-02 0.  1.
        1   -1    0    0  501    0  0.00000000000E+00  0.00000000000E+00 -0.69688765115E+03  0.69688765117E+03  0.50400001928E-02 0. -1.
    10030    2    1    2    0    0  0.00000000000E+00  0.00000000000E+00 -0.21784827727E+03  0.11759270251E+04  0.11555719348E+04 0.  0.
        3    1    3    3  502    0 -0.43335729111E+03  0.31390260953E+03  0.11286737667E+03  0.54687516395E+03  0.10100000352E+00 0.  1.
       -3    1    3    3    0  502  0.43335729111E+03 -0.31390260953E+03 -0.33071565394E+03  0.62905186113E+03  0.10100000352E+00 0. -1.
</event>
<event>
 5   0  0.7302027E-04  0.1582152E+04  0.7818609E-02  0.8831588E-01
       -1   -1    0    0    0  501  0.00000000000E+00  0.00000000000E+00  0.10808196479E+04  0.10808196479E+04  0.50400001928E-02 0.  1.
        1   -1    0    0  501    0  0.00000000000E+00  0.00000000000E+00 -0.57900641327E+03  0.57900641330E+03  0.50400001928E-02 0. -1.
    10030    2    1    2    0    0  0.00000000000E+00  0.00000000000E+00  0.50181323466E+03  0.16598260612E+04  0.15821523413E+04 0.  0.
        5    1    3    3  502    0  0.12604612126E+03 -0.23181018621E+03 -0.53146399384E+03  0.59337985630E+03  0.46999998093E+01 0. -1.
       -5    1    3    3    0  502 -0.12604612126E+03  0.23181018621E+03  0.10332772285E+04  0.10664462049E+04  0.46999998093E+01 0.  1.
</event>
<event>
 5   0  0.7499834E-04  0.1545470E+04  0.7818609E-02  0.8854766E-01
       -1   -1    0    0    0  501  0.00000000000E+00  0.00000000000E+00  0.39777545143E+03  0.39777545146E+03  0.50400001928E-02 0.  1.
        1   -1    0    0  501    0  0.00000000000E+00  0.00000000000E+00 -0.15011477667E+04  0.15011477667E+04  0.50400001928E-02 0. -1.
    10030    2    1    2    0    0  0.00000000000E+00  0.00000000000E+00 -0.11033723152E+04  0.18989232181E+04  0.15454704534E+04 0.  0.
        3    1    3    3  502    0  0.57720584519E+03  0.43365233672E+03 -0.89019039201E+03  0.11461500256E+04  0.10100000352E+00 0. -1.
       -3    1    3    3    0  502 -0.57720584519E+03 -0.43365233672E+03 -0.21318192321E+03  0.75277319257E+03  0.10100000352E+00 0.  1.
</event>
<event>
 5   0  0.1414751E-03  0.1672713E+04  0.7818609E-02  0.8777082E-01
        2   -1    0    0  501    0  0.00000000000E+00  0.00000000000E+00  0.67616172556E+03  0.67616172557E+03  0.25500000920E-02 0.  1.
       -2   -1    0    0    0  501  0.00000000000E+00  0.00000000000E+00 -0.10345043850E+04  0.10345043850E+04  0.25500000920E-02 0. -1.
    10030    2    1    2    0    0  0.00000000000E+00  0.00000000000E+00 -0.35834265943E+03  0.17106661106E+04  0.16727130896E+04 0.  0.
        2    1    3    3  502    0  0.17058605922E+03  0.68431809622E+03  0.28058579460E+03  0.75902519626E+03  0.25500000920E-02 0.  1.
       -2    1    3    3    0  502 -0.17058605922E+03 -0.68431809622E+03 -0.63892845402E+03  0.95164091431E+03  0.25500000920E-02 0. -1.
</event>
<event>
 5   0  0.1354766E-03  0.1587387E+04  0.7818609E-02  0.8828334E-01
        2   -1    0    0  501    0  0.00000000000E+00  0.00000000000E+00  0.16173025737E+04  0.16173025737E+04  0.25500000920E-02 0.  1.
       -2   -1    0    0    0  501  0.00000000000E+00  0.00000000000E+00 -0.38950611013E+03  0.38950611014E+03  0.25500000920E-02 0. -1.
    10030    2    1    2    0    0  0.00000000000E+00  0.00000000000E+00  0.12277964635E+04  0.20068086838E+04  0.15873868267E+04 0.  0.
        3    1    3    3  502    0 -0.62924610500E+03 -0.48364963662E+03  0.60247869807E+03  0.99641769529E+03  0.10100000352E+00 0.  1.
       -3    1    3    3    0  502  0.62924610500E+03  0.48364963662E+03  0.62531776546E+03  0.10103909885E+04  0.10100000352E+00 0. -1.
</event>
<event>
 5   0  0.7499834E-04  0.1588205E+04  0.7818609E-02  0.8827827E-01
        1   -1    0    0  501    0  0.00000000000E+00  0.00000000000E+00  0.99191325496E+03  0.99191325497E+03  0.50400001928E-02 0. -1.
       -1   -1    0    0    0  501  0.00000000000E+00  0.00000000000E+00 -0.63573995628E+03  0.63573995630E+03  0.50400001928E-02 0.  1.
    10030    2    1    2    0    0  0.00000000000E+00  0.00000000000E+00  0.35617329868E+03  0.16276532113E+04  0.15882051371E+04 0.  0.
        3    1    3    3  502    0  0.36326684750E+02  0.25747254803E+03  0.94704801346E+03  0.98209556104E+03  0.10100000352E+00 0. -1.
       -3    1    3    3    0  502 -0.36326684750E+02 -0.25747254803E+03 -0.59087471478E+03  0.64555765024E+03  0.10100000352E+00 0.  1.
</event>
<event>
 5   0  0.7124495E-04  0.1621098E+04  0.7818609E-02  0.8807691E-01
        1   -1    0    0  501    0  0.00000000000E+00  0.00000000000E+00  0.10530161319E+04  0.10530161319E+04  0.50400001928E-02 0.  1.
       -1   -1    0    0    0  501  0.00000000000E+00  0.00000000000E+00 -0.62391199834E+03  0.62391199836E+03  0.50400001928E-02 0. -1.
    10030    2    1    2    0    0  0.00000000000E+00  0.00000000000E+00  0.42910413359E+03  0.16769281303E+04  0.16210976518E+04 0.  0.
        2    1    3    3  502    0 -0.42723426803E+03 -0.47399026488E+03 -0.30245424727E+03  0.70616886272E+03  0.25500000920E-02 0. -1.
       -2    1    3    3    0  502  0.42723426803E+03  0.47399026488E+03  0.73155838086E+03  0.97075926758E+03  0.25500000920E-02 0.  1.
</event>
<event>
 5   0  0.1414751E-03  0.1623322E+04  0.7818609E-02  0.8806347E-01
        2   -1    0    0  501    0  0.00000000000E+00  0.00000000000E+00  0.17258935737E+04  0.17258935737E+04  0.25500000920E-02 0.  1.
       -2   -1    0    0    0  501  0.00000000000E+00  0.00000000000E+00 -0.38171148835E+03  0.38171148835E+03  0.25500000920E-02 0. -1.
    10030    2    1    2    0    0  0.00000000000E+00  0.00000000000E+00  0.13441820853E+04  0.21076050620E+04  0.16233217854E+04 0.  0.
        2    1    3    3  502    0  0.31168475548E+03 -0.72195742799E+03  0.41105437328E+03  0.88731934072E+03  0.25500000920E-02 0. -1.
       -2    1    3    3    0  502 -0.31168475548E+03  0.72195742799E+03  0.93312771204E+03  0.12202857213E+04  0.25500000920E-02 0.  1.
</event>
<event>
 5   0  0.7601145E-04  0.1608208E+04  0.7818609E-02  0.8815521E-01
       -1   -1    0    0    0  501  0.00000000000E+00  0.00000000000E+00  0.60159202784E+03  0.60159202787E+03  0.50400001928E-02 0.  1.
        1   -1    0    0  501    0  0.00000000000E+00  0.00000000000E+00 -0.10747866854E+04  0.10747866854E+04  0.50400001928E-02 0. -1.
    10030    2    1    2    0    0  0.00000000000E+00  0.00000000000E+00 -0.47319465751E+03  0.16763787132E+04  0.16082078243E+04 0.  0.
        4    1    3    3  502    0  0.60679149820E+03  0.19041811044E+03 -0.74951910491E+03  0.98297277714E+03  0.12699999809E+01 0. -1.
       -4    1    3    3    0  502 -0.60679149820E+03 -0.19041811044E+03  0.27632444740E+03  0.69340593609E+03  0.12699999809E+01 0.  1.
</event>
<event>
 5   0  0.1375777E-03  0.1628629E+04  0.7818609E-02  0.8803151E-01
        2   -1    0    0  501    0  0.00000000000E+00  0.00000000000E+00  0.13725586051E+04  0.13725586051E+04  0.25500000920E-02 0.  1.
       -2   -1    0    0    0  501  0.00000000000E+00  0.00000000000E+00 -0.48311822804E+03  0.48311822805E+03  0.25500000920E-02 0. -1.
    10030    2    1    2    0    0  0.00000000000E+00  0.00000000000E+00  0.88944037708E+03  0.18556768332E+04  0.16286289709E+04 0.  0.
        1    1    3    3  502    0 -0.26028875146E+03  0.22624961269E+03  0.12852382934E+04  0.13307052988E+04  0.50400001928E-02 0.  1.
       -1    1    3    3    0  502  0.26028875146E+03 -0.22624961269E+03 -0.39579791629E+03  0.52497153442E+03  0.50400001928E-02 0. -1.
</event>
<event>
 5   0  0.7601145E-04  0.1646280E+04  0.7818609E-02  0.8792610E-01
        1   -1    0    0  501    0  0.00000000000E+00  0.00000000000E+00  0.69242769750E+03  0.69242769752E+03  0.50400001928E-02 0. -1.
       -1   -1    0    0    0  501  0.00000000000E+00  0.00000000000E+00 -0.97852720901E+03  0.97852720902E+03  0.50400001928E-02 0.  1.
    10030    2    1    2    0    0  0.00000000000E+00  0.00000000000E+00 -0.28609951151E+03  0.16709549065E+04  0.16462798575E+04 0.  0.
        4    1    3    3  502    0  0.33541396125E+03  0.69556077837E+03  0.14626716854E+03  0.78594084975E+03  0.12699999809E+01 0. -1.
       -4    1    3    3    0  502 -0.33541396125E+03 -0.69556077837E+03 -0.43236668004E+03  0.88501405679E+03  0.12699999809E+01 0.  1.
</event>
<event>
 5   0  0.7499834E-04  0.1527969E+04  0.7818609E-02  0.8866064E-01
       -1   -1    0    0    0  501  0.00000000000E+00  0.00000000000E+00  0.42943875114E+03  0.42943875117E+03  0.50400001928E-02 0. -1.
        1   -1    0    0  501    0  0.00000000000E+00  0.00000000000E+00 -0.13591506763E+04  0.13591506764E+04  0.50400001928E-02 0.  1.
    10030    2    1    2    0    0  0.00000000000E+00  0.00000000000E+00 -0.92971192520E+03  0.17885894275E+04  0.15279685456E+04 0.  0.
        3    1    3    3  502    0  0.49767587081E+03 -0.33904966498E+03 -0.10151917594E+04  0.11803602273E+04  0.10100000352E+00 0.  1.
       -3    1    3    3    0  502 -0.49767587081E+03  0.33904966498E+03  0.85479834194E+02  0.60822920019E+03  0.10100000352E+00 0. -1.
</event>
<event>
 5   0  0.7124495E-04  0.1573727E+04  0.7818609E-02  0.8836853E-01
        1   -1    0    0  501    0  0.00000000000E+00  0.00000000000E+00  0.91002867728E+03  0.91002867729E+03  0.50400001928E-02 0. -1.
       -1   -1    0    0    0  501  0.00000000000E+00  0.00000000000E+00 -0.68036803464E+03  0.68036803466E+03  0.50400001928E-02 0.  1.
    10030    2    1    2    0    0  0.00000000000E+00  0.00000000000E+00  0.22966064263E+03  0.15903967120E+04  0.15737273241E+04 0.  0.
        2    1    3    3  502    0  0.22668186639E+03  0.38139626787E+03  0.77156498423E+03  0.89003387946E+03  0.25500000920E-02 0. -1.
       -2    1    3    3    0  502 -0.22668186639E+03 -0.38139626787E+03 -0.54190434160E+03  0.70036283249E+03  0.25500000920E-02 0.  1.
</event>
<event>
 5   0  0.1375777E-03  0.1623975E+04  0.7818609E-02  0.8805953E-01
       -2   -1    0    0    0  501  0.00000000000E+00  0.00000000000E+00  0.65458854096E+03  0.65458854096E+03  0.25500000920E-02 0.  1.
        2   -1    0    0  501    0  0.00000000000E+00  0.00000000000E+00 -0.10072340833E+04  0.10072340833E+04  0.25500000920E-02 0. -1.
    10030    2    1    2    0    0  0.00000000000E+00  0.00000000000E+00 -0.35264554233E+03  0.16618226243E+04  0.16239752326E+04 0.  0.
        1    1    3    3  502    0  0.32218275480E+03 -0.11048952077E+03  0.57795412374E+03  0.67085067702E+03  0.50400001928E-02 0.  1.
       -1    1    3    3    0  502 -0.32218275480E+03  0.11048952077E+03 -0.93059966607E+03  0.99097194723E+03  0.50400001928E-02 0. -1.
</event>
<event>
 5   0  0.1339162E-03  0.1508406E+04  0.7818609E-02  0.8878882E-01
       -2   -1    0    0    0  501  0.00000000000E+00  0.00000000000E+00  0.85290953814E+03  0.85290953814E+03  0.25500000920E-02 0.  1.
        2   -1    0    0  501    0  0.00000000000E+00  0.00000000000E+00 -0.66691977456E+03  0.66691977457E+03  0.25500000920E-02 0. -1.
    10030    2    1    2    0    0  0.00000000000E+00  0.00000000000E+00  0.18598976358E+03  0.15198293127E+04  0.15084060951E+04 0.  0.
        5    1    3    3  502    0  0.63824538384E+03  0.37789956818E+03  0.23053835691E+03  0.77674659808E+03  0.46999998093E+01 0. -1.
       -5    1    3    3    0  502 -0.63824538384E+03 -0.37789956818E+03 -0.44548593329E+02  0.74308271463E+03  0.46999998093E+01 0.  1.
</event>
<event>
 5   0  0.7302027E-04  0.1604205E+04  0.7818609E-02  0.8817969E-01
        1   -1    0    0  501    0  0.00000000000E+00  0.00000000000E+00  0.91260678054E+03  0.91260678055E+03  0.50400001928E-02 0. -1.
       -1   -1    0    0    0  501  0.00000000000E+00  0.00000000000E+00 -0.70497845136E+03  0.70497845138E+03  0.50400001928E-02 0.  1.
    10030    2    1    2    0    0  0.00000000000E+00  0.00000000000E+00  0.20762832918E+03  0.16175852319E+04  0.16042046190E+04 0.  0.
        5    1    3    3  502    0 -0.70660049781E+03  0.35159745969E+03 -0.40350341794E+02  0.79028809763E+03  0.46999998093E+01 0.  1.
       -5    1    3    3    0  502  0.70660049781E+03 -0.35159745969E+03  0.24797867097E+03  0.82729713430E+03  0.46999998093E+01 0. -1.
</event>
<event>
 5   0  0.1414796E-03  0.1626027E+04  0.7818609E-02  0.8804717E-01
       -2   -1    0    0    0  501  0.00000000000E+00  0.00000000000E+00  0.12881413576E+04  0.12881413576E+04  0.25500000920E-02 0.  1.
        2   -1    0    0  501    0  0.00000000000E+00  0.00000000000E+00 -0.51313514340E+03  0.51313514340E+03  0.25500000920E-02 0. -1.
    10030    2    1    2    0    0  0.00000000000E+00  0.00000000000E+00  0.77500621424E+03  0.18012765010E+04  0.16260265684E+04 0.  0.
        4    1    3    3  502    0 -0.30117545405E+03  0.66475611948E+03  0.78442421680E+03  0.10714151004E+04  0.12699999809E+01 0.  1.
       -4    1    3    3    0  502  0.30117545405E+03 -0.66475611948E+03 -0.94180025605E+01  0.72986140066E+03  0.12699999809E+01 0. -1.
</event>
<event>
 5   0  0.7633213E-04  0.1628728E+04  0.7818609E-02  0.8803091E-01
       -1   -1    0    0    0  501  0.00000000000E+00  0.00000000000E+00  0.89792551945E+03  0.89792551946E+03  0.50400001928E-02 0.  1.
        1   -1    0    0  501    0  0.00000000000E+00  0.00000000000E+00 -0.73857847847E+03  0.73857847848E+03  0.50400001928E-02 0. -1.
    10030    2    1    2    0    0  0.00000000000E+00  0.00000000000E+00  0.15934704098E+03  0.16365039979E+04  0.16287276801E+04 0.  0.
        1    1    3    3  502    0 -0.12554108520E+03 -0.10682113820E+03 -0.72164098534E+03  0.74022768888E+03  0.50400001928E-02 0. -1.
       -1    1    3    3    0  502  0.12554108520E+03  0.10682113820E+03  0.88098802632E+03  0.89627630906E+03  0.50400001928E-02 0.  1.
</event>
<event>
 5   0  0.7302027E-04  0.1478558E+04  0.7818609E-02  0.8898838E-01
       -1   -1    0    0    0  501  0.00000000000E+00  0.00000000000E+00  0.44542062713E+03  0.44542062716E+03  0.50400001928E-02 0.  1.
        1   -1    0    0  501    0  0.00000000000E+00  0.00000000000E+00 -0.12270051085E+04  0.12270051085E+04  0.50400001928E-02 0. -1.
    10030    2    1    2    0    0  0.00000000000E+00  0.00000000000E+00 -0.78158448134E+03  0.16724257356E+04  0.14785579257E+04 0.  0.
        5    1    3    3  502    0 -0.32278053696E+03  0.49874847120E+02  0.35936817088E+03  0.48563602385E+03  0.46999998093E+01 0.  1.
       -5    1    3    3    0  502  0.32278053696E+03 -0.49874847120E+02 -0.11409526522E+04  0.11867897118E+04  0.46999998093E+01 0. -1.
</event>
<event>
 5   0  0.7124495E-04  0.1649189E+04  0.7818609E-02  0.8790887E-01
        1   -1    0    0  501    0  0.00000000000E+00  0.00000000000E+00  0.95188640372E+03  0.95188640374E+03  0.50400001928E-02 0.  1.
       -1   -1    0    0    0  501  0.00000000000E+00  0.00000000000E+00 -0.71432455718E+03  0.71432455720E+03  0.50400001928E-02 0. -1.
    10030    2    1    2    0    0  0.00000000000E+00  0.00000000000E+00  0.23756184654E+03  0.16662109609E+04  0.16491886901E+04 0.  0.
        2    1    3    3  502    0  0.18579300367E+03  0.80162341176E+03  0.17259133234E+03  0.84077755828E+03  0.25500000920E-02 0. -1.
       -2    1    3    3    0  502 -0.18579300367E+03 -0.80162341176E+03  0.64970514202E+02  0.82543340266E+03  0.25500000920E-02 0.  1.
</event>
<event>
 5   0  0.7124495E-04  0.1670534E+04  0.7818609E-02  0.8778351E-01
       -1   -1    0    0    0  501  0.00000000000E+00  0.00000000000E+00  0.10397931594E+04  0.10397931594E+04  0.50400001928E-02 0. -1.
        1   -1    0    0  501    0  0.00000000000E+00  0.00000000000E+00 -0.67097078784E+03  0.67097078785E+03  0.50400001928E-02 0.  1.
    10030    2    1    2    0    0  0.00000000000E+00  0.00000000000E+00  0.36882237153E+03  0.17107639472E+04  0.16705338492E+04 0.  0.
        2    1    3    3  502    0  0.63942034212E+03  0.52807977106E+03  0.82288999868E+02  0.83336552486E+03  0.25500000920E-02 0.  1.
       -2    1    3    3    0  502 -0.63942034212E+03 -0.52807977106E+03  0.28653337167E+03  0.87739842238E+03  0.25500000920E-02 0. -1.
</event>
<event>
 5   0  0.7302027E-04  0.1577383E+04  0.7818609E-02  0.8834564E-01
        1   -1    0    0  501    0  0.00000000000E+00  0.00000000000E+00  0.82490644574E+03  0.82490644575E+03  0.50400001928E-02 0.  1.
       -1   -1    0    0    0  501  0.00000000000E+00  0.00000000000E+00 -0.75406615929E+03  0.75406615931E+03  0.50400001928E-02 0. -1.
    10030    2    1    2    0    0  0.00000000000E+00  0.00000000000E+00  0.70840286444E+02  0.15789726051E+04  0.15773826870E+04 0.  0.
        5    1    3    3  502    0 -0.35539838578E+03  0.58660183455E+03  0.42517389681E+03  0.80697252583E+03  0.46999998093E+01 0.  1.
       -5    1    3    3    0  502  0.35539838578E+03 -0.58660183455E+03 -0.35433361036E+03  0.77200007924E+03  0.46999998093E+01 0. -1.
</event>
<event>
 5   0  0.7302027E-04  0.1318711E+04  0.7818609E-02  0.9014857E-01
        1   -1    0    0  501    0  0.00000000000E+00  0.00000000000E+00  0.94916405097E+03  0.94916405098E+03  0.50400001928E-02 0.  1.
       -1   -1    0    0    0  501  0.00000000000E+00  0.00000000000E+00 -0.45803439930E+03  0.45803439933E+03  0.50400001928E-02 0. -1.
    10030    2    1    2    0    0  0.00000000000E+00  0.00000000000E+00  0.49112965167E+03  0.14071984503E+04  0.13187111677E+04 0.  0.
        5    1    3    3  502    0  0.32646454508E+03  0.36102169247E+03 -0.22903973676E+03  0.53795636685E+03  0.46999998093E+01 0. -1.
       -5    1    3    3    0  502 -0.32646454508E+03 -0.36102169247E+03  0.72016938843E+03  0.86924208346E+03  0.46999998093E+01 0.  1.
</event>
<event>
 5   0  0.7124495E-04  0.1598181E+04  0.7818609E-02  0.8821666E-01
        1   -1    0    0  501    0  0.00000000000E+00  0.00000000000E+00  0.17459941513E+04  0.17459941513E+04  0.50400001928E-02 0.  1.
       -1   -1    0    0    0  501  0.00000000000E+00  0.00000000000E+00 -0.36572027891E+03  0.36572027894E+03  0.50400001928E-02 0. -1.
    10030    2    1    2    0    0  0.00000000000E+00  0.00000000000E+00  0.13802738724E+04  0.21117144303E+04  0.15981808008E+04 0.  0.
        2    1    3    3  502    0  0.57499552500E+03 -0.16665607899E+03  0.13895047645E+04  0.15129830115E+04  0.25500000920E-02 0.  1.
       -2    1    3    3    0  502 -0.57499552500E+03  0.16665607899E+03 -0.92308921323E+01  0.59873141876E+03  0.25500000920E-02 0. -1.
</event>
<event>
 5   0  0.7124495E-04  0.1281961E+04  0.7818609E-02  0.9043994E-01
        1   -1    0    0  501    0  0.00000000000E+00  0.00000000000E+00  0.11369153864E+04  0.11369153864E+04  0.50400001928E-02 0.  1.
       -1   -1    0    0    0  501  0.00000000000E+00  0.00000000000E+00 -0.36137796082E+03  0.36137796086E+03  0.50400001928E-02 0. -1.
    10030    2    1    2    0    0  0.00000000000E+00  0.00000000000E+00  0.77553742556E+03  0.14982933473E+04  0.12819612537E+04 0.  0.
        2    1    3    3  502    0 -0.10089879015E+03 -0.16225322742E+01 -0.35203579325E+03  0.36621359642E+03  0.25500000920E-02 0. -1.
       -2    1    3    3    0  502  0.10089879015E+03  0.16225322742E+01  0.11275732188E+04  0.11320797508E+04  0.25500000920E-02 0.  1.
</event>
<event>
 5   0  0.5095750E-04  0.1597360E+04  0.7818609E-02  0.8822172E-01
        4   -1    0    0  501    0  0.00000000000E+00  0.00000000000E+00  0.64860247835E+03  0.64860372171E+03  0.12699999809E+01 0.  1.
       -4   -1    0    0    0  501  0.00000000000E+00  0.00000000000E+00 -0.98348050355E+03  0.98348132355E+03  0.12699999809E+01 0. -1.
    10030    2    1    2    0    0  0.00000000000E+00  0.00000000000E+00 -0.33487802521E+03  0.16320850453E+04  0.15973597914E+04 0.  0.
        5    1    3    3  502    0  0.34182001664E+03 -0.24956921449E+03  0.52458980490E+03  0.67404915993E+03  0.46999998093E+01 0.  1.
       -5    1    3    3    0  502 -0.34182001664E+03  0.24956921449E+03 -0.85946783010E+03  0.95803588533E+03  0.46999998093E+01 0. -1.
</event>
<event>
 5   0  0.1375777E-03  0.1808710E+04  0.7818609E-02  0.8701681E-01
        2   -1    0    0  501    0  0.00000000000E+00  0.00000000000E+00  0.13229151107E+04  0.13229151107E+04  0.25500000920E-02 0. -1.
       -2   -1    0    0    0  501  0.00000000000E+00  0.00000000000E+00 -0.61822382358E+03  0.61822382359E+03  0.25500000920E-02 0.  1.
    10030    2    1    2    0    0  0.00000000000E+00  0.00000000000E+00  0.70469128708E+03  0.19411389343E+04  0.18087096373E+04 0.  0.
        1    1    3    3  502    0 -0.22217378037E+03 -0.45335927683E+03 -0.45289787370E+03  0.67824207079E+03  0.50400001928E-02 0.  1.
       -1    1    3    3    0  502  0.22217378037E+03  0.45335927683E+03  0.11575891608E+04  0.12628968635E+04  0.50400001928E-02 0. -1.
</event>
<event>
 5   0  0.7302027E-04  0.1609692E+04  0.7818609E-02  0.8814616E-01
        1   -1    0    0  501    0  0.00000000000E+00  0.00000000000E+00  0.97002936399E+03  0.97002936400E+03  0.50400001928E-02 0.  1.
       -1   -1    0    0    0  501  0.00000000000E+00  0.00000000000E+00 -0.66779138954E+03  0.66779138956E+03  0.50400001928E-02 0. -1.
    10030    2    1    2    0    0  0.00000000000E+00  0.00000000000E+00  0.30223797444E+03  0.16378207536E+04  0.16096922152E+04 0.  0.
        5    1    3    3  502    0 -0.43520200990E+03  0.18908262752E+03  0.81255733618E+03  0.94097000167E+03  0.46999998093E+01 0.  1.
       -5    1    3    3    0  502  0.43520200990E+03 -0.18908262752E+03 -0.51031936174E+03  0.69685075190E+03  0.46999998093E+01 0. -1.
</event>
<event>
 5   0  0.7124495E-04  0.1464906E+04  0.7818609E-02  0.8908131E-01
       -1   -1    0    0    0  501  0.00000000000E+00  0.00000000000E+00  0.43837195025E+03  0.43837195028E+03  0.50400001928E-02 0.  1.
        1   -1    0    0  501    0  0.00000000000E+00  0.00000000000E+00 -0.12238180695E+04  0.12238180696E+04  0.50400001928E-02 0. -1.
    10030    2    1    2    0    0  0.00000000000E+00  0.00000000000E+00 -0.78544611929E+03  0.16621900198E+04  0.14649061594E+04 0.  0.
        2    1    3    3  502    0  0.21325982946E+02 -0.44568352453E+03 -0.10518099972E+04  0.11425379083E+04  0.25500000920E-02 0. -1.
       -2    1    3    3    0  502 -0.21325982946E+02  0.44568352453E+03  0.26636387792E+03  0.51965211157E+03  0.25500000920E-02 0.  1.
</event>
<event>
 5   0  0.7633213E-04  0.1601643E+04  0.7818609E-02  0.8819539E-01
        1   -1    0    0  501    0  0.00000000000E+00  0.00000000000E+00  0.66111713400E+03  0.66111713402E+03  0.50400001928E-02 0. -1.
       -1   -1    0    0    0  501  0.00000000000E+00  0.00000000000E+00 -0.97004739709E+03  0.97004739711E+03  0.50400001928E-02 0.  1.
    10030    2    1    2    0    0  0.00000000000E+00  0.00000000000E+00 -0.30893026310E+03  0.16311645311E+04  0.16016428504E+04 0.  0.
        1    1    3    3  502    0  0.33769929357E+03 -0.47834563390E+03 -0.71084942796E+03  0.92095725612E+03  0.50400001928E-02 0.  1.
       -1    1    3    3    0  502 -0.33769929357E+03  0.47834563390E+03  0.40191916486E+03  0.71020727500E+03  0.50400001928E-02 0. -1.
</event>
<event>
 5   0  0.1339162E-03  0.1502330E+04  0.7818609E-02  0.8882905E-01
        2   -1    0    0  501    0  0.00000000000E+00  0.00000000000E+00  0.67304916364E+03  0.67304916364E+03  0.25500000920E-02 0.  1.
       -2   -1    0    0    0  501  0.00000000000E+00  0.00000000000E+00 -0.83834753522E+03  0.83834753523E+03  0.25500000920E-02 0. -1.
    10030    2    1    2    0    0  0.00000000000E+00  0.00000000000E+00 -0.16529837159E+03  0.15113966989E+04  0.15023303331E+04 0.  0.
        5    1    3    3  502    0 -0.44616401149E+03  0.51794720333E+03  0.23050958791E+03  0.72144881364E+03  0.46999998093E+01 0.  1.
       -5    1    3    3    0  502  0.44616401149E+03 -0.51794720333E+03 -0.39580795949E+03  0.78994788523E+03  0.46999998093E+01 0. -1.
</event>
<event>
 5   0  0.1339162E-03  0.1707791E+04  0.7818609E-02  0.8756934E-01
       -2   -1    0    0    0  501  0.00000000000E+00  0.00000000000E+00  0.92986226346E+03  0.92986226346E+03  0.25500000920E-02 0.  1.
        2   -1    0    0  501    0  0.00000000000E+00  0.00000000000E+00 -0.78413454954E+03  0.78413454955E+03  0.25500000920E-02 0. -1.
    10030    2    1    2    0    0  0.00000000000E+00  0.00000000000E+00  0.14572771392E+03  0.17139968130E+04  0.17077905341E+04 0.  0.
        5    1    3    3  502    0  0.30155254151E+03 -0.54420069560E+03 -0.51409196691E+03  0.80709415363E+03  0.46999998093E+01 0. -1.
       -5    1    3    3    0  502 -0.30155254151E+03  0.54420069560E+03  0.65981968083E+03  0.90690265938E+03  0.46999998093E+01 0.  1.
</event>
<event>
 5   0  0.1414796E-03  0.1644208E+04  0.7818609E-02  0.8793840E-01
        2   -1    0    0  501    0  0.00000000000E+00  0.00000000000E+00  0.21528702338E+04  0.21528702338E+04  0.25500000920E-02 0.  1.
       -2   -1    0    0    0  501  0.00000000000E+00  0.00000000000E+00 -0.31393213607E+03  0.31393213608E+03  0.25500000920E-02 0. -1.
    10030    2    1    2    0    0  0.00000000000E+00  0.00000000000E+00  0.18389380978E+04  0.24668023699E+04  0.16442082000E+04 0.  0.
        4    1    3    3  502    0  0.33384992297E+03 -0.43233481198E+02 -0.20578313355E+03  0.39455445241E+03  0.12699999809E+01 0. -1.
       -4    1    3    3    0  502 -0.33384992297E+03  0.43233481198E+02  0.20447212313E+04  0.20722479175E+04  0.12699999809E+01 0.  1.
</event>
<event>
 5   0  0.7302027E-04  0.1631829E+04  0.7818609E-02  0.8801229E-01
       -1   -1    0    0    0  501  0.00000000000E+00  0.00000000000E+00  0.29709541805E+03  0.29709541810E+03  0.50400001928E-02 0.  1.
        1   -1    0    0  501    0  0.00000000000E+00  0.00000000000E+00 -0.22407497751E+04  0.22407497751E+04  0.50400001928E-02 0. -1.
    10030    2    1    2    0    0  0.00000000000E+00  0.00000000000E+00 -0.19436543570E+04  0.25378451932E+04  0.16318290244E+04 0.  0.
        5    1    3    3  502    0 -0.31020884104E+03 -0.42986404016E+03 -0.19364139103E+04  0.20076686828E+04  0.46999998093E+01 0. -1.
       -5    1    3    3    0  502  0.31020884104E+03  0.42986404016E+03 -0.72404467646E+01  0.53017651037E+03  0.46999998093E+01 0.  1.
</event>
<event>
 5   0  0.1414751E-03  0.1618650E+04  0.7818609E-02  0.8809172E-01
       -2   -1    0    0    0  501  0.00000000000E+00  0.00000000000E+00  0.56803357574E+03  0.56803357575E+03  0.25500000920E-02 0. -1.
        2   -1    0    0  501    0  0.00000000000E+00  0.00000000000E+00 -0.11531125391E+04  0.11531125391E+04  0.25500000920E-02 0.  1.
    10030    2    1    2    0    0  0.00000000000E+00  0.00000000000E+00 -0.58507896331E+03  0.17211461148E+04  0.16186496085E+04 0.  0.
        2    1    3    3  502    0 -0.15013848663E+03  0.33855650450E+03 -0.10577212370E+04  0.11206856326E+04  0.25500000920E-02 0.  1.
       -2    1    3    3    0  502  0.15013848663E+03 -0.33855650450E+03  0.47264227364E+03  0.60046048225E+03  0.25500000920E-02 0. -1.
</event>
<event>
 5   0  0.7124495E-04  0.1626252E+04  0.7818609E-02  0.8804580E-01
       -1   -1    0    0    0  501  0.00000000000E+00  0.00000000000E+00  0.83787358727E+03  0.83787358729E+03  0.50400001928E-02 0. -1.
        1   -1    0    0  501    0  0.00000000000E+00  0.00000000000E+00 -0.78910982768E+03  0.78910982769E+03  0.50400001928E-02 0.  1.
    10030    2    1    2    0    0  0.00000000000E+00  0.00000000000E+00  0.48763759596E+02  0.16269834150E+04  0.16262524799E+04 0.  0.
        2    1    3    3  502    0 -0.72176768950E+03 -0.32154497102E+03 -0.16762758559E+03  0.80773682190E+03  0.25500000920E-02 0.  1.
       -2    1    3    3    0  502  0.72176768950E+03  0.32154497102E+03  0.21639134519E+03  0.81924659308E+03  0.25500000920E-02 0. -1.
</event>
<event>
 5   0  0.1414751E-03  0.1308199E+04  0.7818609E-02  0.9023088E-01
        2   -1    0    0  501    0  0.00000000000E+00  0.00000000000E+00  0.52043638952E+03  0.52043638953E+03  0.25500000920E-02 0. -1.
       -2   -1    0    0    0  501  0.00000000000E+00  0.00000000000E+00 -0.82209151253E+03  0.82209151254E+03  0.25500000920E-02 0.  1.
    10030    2    1    2    0    0  0.00000000000E+00  0.00000000000E+00 -0.30165512301E+03  0.13425279021E+04  0.13081992794E+04 0.  0.
        2    1    3    3  502    0 -0.37997368123E+03 -0.33867957253E+03 -0.57241471999E+03  0.76599116375E+03  0.25500000920E-02 0.  1.
       -2    1    3    3    0  502  0.37997368123E+03  0.33867957253E+03  0.27075959698E+03  0.57653673832E+03  0.25500000920E-02 0. -1.
</event>
<event>
 5   0  0.7302027E-04  0.1566794E+04  0.7818609E-02  0.8841211E-01
        1   -1    0    0  501    0  0.00000000000E+00  0.00000000000E+00  0.69156129866E+03  0.69156129868E+03  0.50400001928E-02 0. -1.
       -1   -1    0    0    0  501  0.00000000000E+00  0.00000000000E+00 -0.88742854977E+03  0.88742854979E+03  0.50400001928E-02 0.  1.
    10030    2    1    2    0    0  0.00000000000E+00  0.00000000000E+00 -0.19586725111E+03  0.15789898485E+04  0.15667944860E+04 0.  0.
        5    1    3    3  502    0  0.11960331978E+02 -0.32070023542E+03 -0.81812705071E+03  0.87883198146E+03  0.46999998093E+01 0.  1.
       -5    1    3    3    0  502 -0.11960331978E+02  0.32070023542E+03  0.62225979960E+03  0.70015786701E+03  0.46999998093E+01 0. -1.
</event>
<event>
 5   0  0.1414796E-03  0.1607923E+04  0.7818609E-02  0.8815695E-01
        2   -1    0    0  501    0  0.00000000000E+00  0.00000000000E+00  0.14018627911E+04  0.14018627911E+04  0.25500000920E-02 0. -1.
       -2   -1    0    0    0  501  0.00000000000E+00  0.00000000000E+00 -0.46106804412E+03  0.46106804412E+03  0.25500000920E-02 0.  1.
    10030    2    1    2    0    0  0.00000000000E+00  0.00000000000E+00  0.94079474701E+03  0.18629308353E+04  0.16079230519E+04 0.  0.
        4    1    3    3  502    0 -0.67401412564E+03 -0.43499224537E+03  0.40866236020E+03  0.90028874959E+03  0.12699999809E+01 0.  1.
       -4    1    3    3    0  502  0.67401412564E+03  0.43499224537E+03  0.53213238681E+03  0.96264208566E+03  0.12699999809E+01 0. -1.
</event>
<event>
 5   0  0.7633213E-04  0.1601818E+04  0.7818609E-02  0.8819432E-01
       -1   -1    0    0    0  501  0.00000000000E+00  0.00000000000E+00  0.14695164808E+04  0.14695164809E+04  0.50400001928E-02 0.  1.
        1   -1    0    0  501    0  0.00000000000E+00  0.00000000000E+00 -0.43650770536E+03  0.43650770539E+03  0.50400001928E-02 0. -1.
    10030    2    1    2    0    0  0.00000000000E+00  0.00000000000E+00  0.10330087755E+04  0.19060241862E+04  0.16018180509E+04 0.  0.
        1    1    3    3  502    0  0.15412623003E+03 -0.67557321082E+03  0.38607683752E+02  0.69400620403E+03  0.50400001928E-02 0. -1.
       -1    1    3    3    0  502 -0.15412623003E+03  0.67557321082E+03  0.99440109173E+03  0.12120179822E+04  0.50400001928E-02 0.  1.
</event>
<event>
 5   0  0.7302027E-04  0.1575810E+04  0.7818609E-02  0.8835548E-01
       -1   -1    0    0    0  501  0.00000000000E+00  0.00000000000E+00  0.63321631721E+03  0.63321631723E+03  0.50400001928E-02 0. -1.
        1   -1    0    0  501    0  0.00000000000E+00  0.00000000000E+00 -0.98038216706E+03  0.98038216708E+03  0.50400001928E-02 0.  1.
    10030    2    1    2    0    0  0.00000000000E+00  0.00000000000E+00 -0.34716584986E+03  0.16135984843E+04  0.15758096145E+04 0.  0.
        5    1    3    3  502    0 -0.64226668003E+03 -0.45388778994E+03 -0.12499743333E+03  0.79634606954E+03  0.46999998093E+01 0.  1.
       -5    1    3    3    0  502  0.64226668003E+03  0.45388778994E+03 -0.22216841652E+03  0.81725241476E+03  0.46999998093E+01 0. -1.
</event>
<event>
 5   0  0.7633213E-04  0.1745589E+04  0.7818609E-02  0.8735782E-01
       -1   -1    0    0    0  501  0.00000000000E+00  0.00000000000E+00  0.62477436521E+03  0.62477436523E+03  0.50400001928E-02 0.  1.
        1   -1    0    0  501    0  0.00000000000E+00  0.00000000000E+00 -0.12192728968E+04  0.12192728968E+04  0.50400001928E-02 0. -1.
    10030    2    1    2    0    0  0.00000000000E+00  0.00000000000E+00 -0.59449853159E+03  0.18440472620E+04  0.17455892417E+04 0.  0.
        1    1    3    3  502    0  0.22387037839E+03 -0.58747234560E+03 -0.93681326878E+03  0.11282113294E+04  0.50400001928E-02 0. -1.
       -1    1    3    3    0  502 -0.22387037839E+03  0.58747234560E+03  0.34231473719E+03  0.71583593266E+03  0.50400001928E-02 0.  1.
</event>
<event>
 5   0  0.1414751E-03  0.1427953E+04  0.7818609E-02  0.8933829E-01
       -2   -1    0    0    0  501  0.00000000000E+00  0.00000000000E+00  0.29333170297E+03  0.29333170298E+03  0.25500000920E-02 0. -1.
        2   -1    0    0  501    0  0.00000000000E+00  0.00000000000E+00 -0.17378369720E+04  0.17378369720E+04  0.25500000920E-02 0.  1.
    10030    2    1    2    0    0  0.00000000000E+00  0.00000000000E+00 -0.14445052691E+04  0.20311686750E+04  0.14279533305E+04 0.  0.
        2    1    3    3  502    0  0.13626223495E+03 -0.26632856279E+03 -0.16443850032E+04  0.16713767794E+04  0.25500000920E-02 0.  1.
       -2    1    3    3    0  502 -0.13626223495E+03  0.26632856279E+03  0.19987973412E+03  0.35979189562E+03  0.25500000920E-02 0. -1.
</event>
<event>
 5   0  0.1354766E-03  0.1580603E+04  0.7818609E-02  0.8832554E-01
        2   -1    0    0  501    0  0.00000000000E+00  0.00000000000E+00  0.94608340647E+03  0.94608340647E+03  0.25500000920E-02 0. -1.
       -2   -1    0    0    0  501  0.00000000000E+00  0.00000000000E+00 -0.66017043728E+03  0.66017043729E+03  0.25500000920E-02 0.  1.
    10030    2    1    2    0    0  0.00000000000E+00  0.00000000000E+00  0.28591296919E+03  0.16062538438E+04  0.15806027915E+04 0.  0.
        3    1    3    3  502    0  0.27458835079E+03  0.73252388104E+03  0.25696577834E+03  0.82342056091E+03  0.10100000352E+00 0.  1.
       -3    1    3    3    0  502 -0.27458835079E+03 -0.73252388104E+03  0.28947190849E+02  0.78283328285E+03  0.10100000352E+00 0. -1.
</event>
<event>
 5   0  0.7302027E-04  0.1630537E+04  0.7818609E-02  0.8802004E-01
       -1   -1    0    0    0  501  0.00000000000E+00  0.00000000000E+00  0.63686480138E+03  0.63686480140E+03  0.50400001928E-02 0. -1.
        1   -1    0    0  501    0  0.00000000000E+00  0.00000000000E+00 -0.10436481769E+04  0.10436481769E+04  0.50400001928E-02 0.  1.
    10030    2    1    2    0    0  0.00000000000E+00  0.00000000000E+00 -0.40678337555E+03  0.16805129783E+04  0.16305370759E+04 0.  0.
        5    1    3    3  502    0 -0.57817232874E+02  0.55544030669E+03 -0.81555259323E+03  0.98843557658E+03  0.46999998093E+01 0.  1.
       -5    1    3    3    0  502  0.57817232874E+02 -0.55544030669E+03  0.40876921768E+03  0.69207740177E+03  0.46999998093E+01 0. -1.
</event>
<event>
 5   0  0.1339162E-03  0.1545088E+04  0.7818609E-02  0.8855012E-01
       -2   -1    0    0    0  501  0.00000000000E+00  0.00000000000E+00  0.37233195052E+03  0.37233195052E+03  0.25500000920E-02 0. -1.
        2   -1    0    0  501    0  0.00000000000E+00  0.00000000000E+00 -0.16029351866E+04  0.16029351866E+04  0.25500000920E-02 0.  1.
    10030    2    1    2    0    0  0.00000000000E+00  0.00000000000E+00 -0.12306032361E+04  0.19752671371E+04  0.15450876798E+04 0.  0.
        5    1    3    3  502    0  0.42090102943E+03  0.38137396253E+03 -0.12847312683E+04  0.14046922431E+04  0.46999998093E+01 0.  1.
       -5    1    3    3    0  502 -0.42090102943E+03 -0.38137396253E+03  0.54128032241E+02  0.57057489408E+03  0.46999998093E+01 0. -1.
</event>
<event>
 5   0  0.1339162E-03  0.1433351E+04  0.7818609E-02  0.8930025E-01
       -2   -1    0    0    0  501  0.00000000000E+00  0.00000000000E+00  0.77681484128E+03  0.77681484128E+03  0.25500000920E-02 0.  1.
        2   -1    0    0  501    0  0.00000000000E+00  0.00000000000E+00 -0.66119217522E+03  0.66119217523E+03  0.25500000920E-02 0. -1.
    10030    2    1    2    0    0  0.00000000000E+00  0.00000000000E+00  0.11562266606E+03  0.14380070165E+04  0.14333511707E+04 0.  0.
        5    1    3    3  502    0 -0.47858787280E+03  0.22817142948E+03 -0.42593042124E+03  0.68010834942E+03  0.46999998093E+01 0. -1.
       -5    1    3    3    0  502  0.47858787280E+03 -0.22817142948E+03  0.54155308730E+03  0.75789866709E+03  0.46999998093E+01 0.  1.
</event>
<event>
 5   0  0.1339162E-03  0.1591988E+04  0.7818609E-02  0.8825485E-01
       -2   -1    0    0    0  501  0.00000000000E+00  0.00000000000E+00  0.43394089684E+03  0.43394089685E+03  0.25500000920E-02 0.  1.
        2   -1    0    0  501    0  0.00000000000E+00  0.00000000000E+00 -0.14601212519E+04  0.14601212519E+04  0.25500000920E-02 0. -1.
    10030    2    1    2    0    0  0.00000000000E+00  0.00000000000E+00 -0.10261803551E+04  0.18940621488E+04  0.15919878461E+04 0.  0.
        5    1    3    3  502    0 -0.11864607218E+03  0.69780678642E+03 -0.94628382064E+03  0.11817302403E+04  0.46999998093E+01 0. -1.
       -5    1    3    3    0  502  0.11864607218E+03 -0.69780678642E+03 -0.79896534433E+02  0.71233190847E+03  0.46999998093E+01 0.  1.
</event>
<event>
 5   0  0.7633213E-04  0.1554483E+04  0.7818609E-02  0.8849010E-01
        1   -1    0    0  501    0  0.00000000000E+00  0.00000000000E+00  0.10258856307E+04  0.10258856307E+04  0.50400001928E-02 0.  1.
       -1   -1    0    0    0  501  0.00000000000E+00  0.00000000000E+00 -0.58886097529E+03  0.58886097531E+03  0.50400001928E-02 0. -1.
    10030    2    1    2    0    0  0.00000000000E+00  0.00000000000E+00  0.43702465544E+03  0.16147466060E+04  0.15544825674E+04 0.  0.
        1    1    3    3  502    0  0.93589399868E+02  0.71487708197E+03  0.52010548213E+03  0.88899827371E+03  0.50400001928E-02 0.  1.
       -1    1    3    3    0  502 -0.93589399868E+02 -0.71487708197E+03 -0.83080826687E+02  0.72574833233E+03  0.50400001928E-02 0. -1.
</event>
<event>
 5   0  0.1414796E-03  0.1549225E+04  0.7818609E-02  0.8852363E-01
       -2   -1    0    0    0  501  0.00000000000E+00  0.00000000000E+00  0.61726414299E+03  0.61726414300E+03  0.25500000920E-02 0.  1.
        2   -1    0    0  501    0  0.00000000000E+00  0.00000000000E+00 -0.97207032851E+03  0.97207032852E+03  0.25500000920E-02 0. -1.
    10030    2    1    2    0    0  0.00000000000E+00  0.00000000000E+00 -0.35480618552E+03  0.15893344715E+04  0.15492245264E+04 0.  0.
        4    1    3    3  502    0  0.23996933897E+03 -0.47515587572E+03 -0.75470154412E+03  0.92354448916E+03  0.12699999809E+01 0. -1.
       -4    1    3    3    0  502 -0.23996933897E+03  0.47515587572E+03  0.39989535859E+03  0.66578998235E+03  0.12699999809E+01 0.  1.
</event>
<event>
 5   0  0.7633213E-04  0.1658898E+04  0.7818609E-02  0.8785160E-01
        1   -1    0    0  501    0  0.00000000000E+00  0.00000000000E+00  0.16895577692E+04  0.16895577693E+04  0.50400001928E-02 0. -1.
       -1   -1    0    0    0  501  0.00000000000E+00  0.00000000000E+00 -0.40719845702E+03  0.40719845705E+03  0.50400001928E-02 0.  1.
    10030    2    1    2    0    0  0.00000000000E+00  0.00000000000E+00  0.12823593122E+04  0.20967562263E+04  0.16588976059E+04 0.  0.
        1    1    3    3  502    0  0.72867177599E+03 -0.39134224535E+03  0.71984954516E+03  0.10964919871E+04  0.50400001928E-02 0.  1.
       -1    1    3    3    0  502 -0.72867177599E+03  0.39134224535E+03  0.56250976706E+03  0.10002642392E+04  0.50400001928E-02 0. -1.
</event>
<event>
 5   0  0.7499834E-04  0.1585355E+04  0.7818609E-02  0.8829596E-01
       -1   -1    0    0    0  501  0.00000000000E+00  0.00000000000E+00  0.44853291593E+03  0.44853291596E+03  0.50400001928E-02 0.  1.
        1   -1    0    0  501    0  0.00000000000E+00  0.00000000000E+00 -0.14008735448E+04  0.14008735448E+04  0.50400001928E-02 0. -1.
    10030    2    1    2    0    0  0.00000000000E+00  0.00000000000E+00 -0.95234062887E+03  0.18494064608E+04  0.15853553494E+04 0.  0.
        3    1    3    3  502    0  0.33503285394E+03  0.31361752851E+03 -0.12301439114E+04  0.13129573566E+04  0.10100000352E+00 0. -1.
       -3    1    3    3    0  502 -0.33503285394E+03 -0.31361752851E+03  0.27780328248E+03  0.53644910417E+03  0.10100000352E+00 0.  1.
</event>
<event>
 5   0  0.7124495E-04  0.1584461E+04  0.7818609E-02  0.8830151E-01
        1   -1    0    0  501    0  0.00000000000E+00  0.00000000000E+00  0.64139048781E+03  0.64139048783E+03  0.50400001928E-02 0. -1.
       -1   -1    0    0    0  501  0.00000000000E+00  0.00000000000E+00 -0.97854462341E+03  0.97854462342E+03  0.50400001928E-02 0.  1.
    10030    2    1    2    0    0  0.00000000000E+00  0.00000000000E+00 -0.33715413560E+03  0.16199351112E+04  0.15844610609E+04 0.  0.
        2    1    3    3  502    0  0.60655999673E+03  0.41897352821E+03  0.12804848168E+03  0.74823142185E+03  0.25500000920E-02 0. -1.
       -2    1    3    3    0  502 -0.60655999673E+03 -0.41897352821E+03 -0.46520261727E+03  0.87170368939E+03  0.25500000920E-02 0.  1.
</event>
<event>
 5   0  0.1414796E-03  0.1318934E+04  0.7818609E-02  0.9014683E-01
        2   -1    0    0  501    0  0.00000000000E+00  0.00000000000E+00  0.76432463935E+03  0.76432463935E+03  0.25500000920E-02 0.  1.
       -2   -1    0    0    0  501  0.00000000000E+00  0.00000000000E+00 -0.56899493088E+03  0.56899493088E+03  0.25500000920E-02 0. -1.
    10030    2    1    2    0    0  0.00000000000E+00  0.00000000000E+00  0.19532970847E+03  0.13333195702E+04  0.13189341839E+04 0.  0.
        4    1    3    3  502    0  0.16719608853E+03  0.57329516616E+03  0.38049005105E+03  0.70809333524E+03  0.12699999809E+01 0.  1.
       -4    1    3    3    0  502 -0.16719608853E+03 -0.57329516616E+03 -0.18516034257E+03  0.62522623500E+03  0.12699999809E+01 0. -1.
</event>
<event>
 5   0  0.7601145E-04  0.1577899E+04  0.7818609E-02  0.8834242E-01
        1   -1    0    0  501    0  0.00000000000E+00  0.00000000000E+00  0.10069305367E+04  0.10069305367E+04  0.50400001928E-02 0. -1.
       -1   -1    0    0    0  501  0.00000000000E+00  0.00000000000E+00 -0.61815738482E+03  0.61815738484E+03  0.50400001928E-02 0.  1.
    10030    2    1    2    0    0  0.00000000000E+00  0.00000000000E+00  0.38877315192E+03  0.16250879216E+04  0.15778992963E+04 0.  0.
        4    1    3    3  502    0  0.70430311395E+03 -0.45812207528E+02 -0.16871670566E+03  0.72567801010E+03  0.12699999809E+01 0.  1.
       -4    1    3    3    0  502 -0.70430311395E+03  0.45812207528E+02  0.55748985758E+03  0.89940991149E+03  0.12699999809E+01 0. -1.
</event>
<event>
 5   0  0.7499834E-04  0.1613984E+04  0.7818609E-02  0.8812003E-01
       -1   -1    0    0    0  501  0.00000000000E+00  0.00000000000E+00  0.66280547110E+03  0.66280547112E+03  0.50400001928E-02 0.  1.
        1   -1    0    0  501    0  0.00000000000E+00  0.00000000000E+00 -0.98254520447E+03  0.98254520449E+03  0.50400001928E-02 0. -1.
    10030    2    1    2    0    0  0.00000000000E+00  0.00000000000E+00 -0.31973973338E+03  0.16453506756E+04  0.16139843087E+04 0.  0.
        3    1    3    3  502    0 -0.48305869849E+03 -0.40933734584E+03 -0.66992685450E+03  0.92179432059E+03  0.10100000352E+00 0. -1.
       -3    1    3    3    0  502  0.48305869849E+03  0.40933734584E+03  0.35018712113E+03  0.72355635502E+03  0.10100000352E+00 0.  1.
</event>
<event>
 5   0  0.1375777E-03  0.1571584E+04  0.7818609E-02  0.8838198E-01
        2   -1    0    0  501    0  0.00000000000E+00  0.00000000000E+00  0.26459290623E+04  0.26459290623E+04  0.25500000920E-02 0.  1.
       -2   -1    0    0    0  501  0.00000000000E+00  0.00000000000E+00 -0.23336578548E+03  0.23336578549E+03  0.25500000920E-02 0. -1.
    10030    2    1    2    0    0  0.00000000000E+00  0.00000000000E+00  0.24125632768E+04  0.28792948478E+04  0.15715843139E+04 0.  0.
        1    1    3    3  502    0 -0.31742705295E+03 -0.71880566154E+03  0.12159416600E+04  0.14477415631E+04  0.50400001928E-02 0.  1.
       -1    1    3    3    0  502  0.31742705295E+03  0.71880566154E+03  0.11966216168E+04  0.14315532847E+04  0.50400001928E-02 0. -1.
</event>
<event>
 5   0  0.1339162E-03  0.1619622E+04  0.7818609E-02  0.8808583E-01
       -2   -1    0    0    0  501  0.00000000000E+00  0.00000000000E+00  0.61780650039E+03  0.61780650039E+03  0.25500000920E-02 0. -1.
        2   -1    0    0  501    0  0.00000000000E+00  0.00000000000E+00 -0.10614878644E+04  0.10614878644E+04  0.25500000920E-02 0.  1.
    10030    2    1    2    0    0  0.00000000000E+00  0.00000000000E+00 -0.44368136406E+03  0.16792943648E+04  0.16196223050E+04 0.  0.
        5    1    3    3  502    0 -0.70615971388E+03  0.31950876865E+03 -0.46505637845E+03  0.90390647740E+03  0.46999998093E+01 0.  1.
       -5    1    3    3    0  502  0.70615971388E+03 -0.31950876865E+03  0.21375014395E+02  0.77538788744E+03  0.46999998093E+01 0. -1.
</event>
<event>
 5   0  0.7601145E-04  0.1705463E+04  0.7818609E-02  0.8758255E-01
       -1   -1    0    0    0  501  0.00000000000E+00  0.00000000000E+00  0.44669678755E+03  0.44669678757E+03  0.50400001928E-02 0.  1.
        1   -1    0    0  501    0  0.00000000000E+00  0.00000000000E+00 -0.16278401423E+04  0.16278401423E+04  0.50400001928E-02 0. -1.
    10030    2    1    2    0    0  0.00000000000E+00  0.00000000000E+00 -0.11811433547E+04  0.20745369298E+04  0.17054629427E+04 0.  0.
        4    1    3    3  502    0 -0.34515066704E+02 -0.64144496454E+03  0.91599928187E+02  0.64887216931E+03  0.12699999809E+01 0.  1.
       -4    1    3    3    0  502  0.34515066704E+02  0.64144496454E+03 -0.12727432829E+04  0.14256647605E+04  0.12699999809E+01 0. -1.
</event>
<event>
 5   0  0.1414796E-03  0.1596649E+04  0.7818609E-02  0.8822609E-01
        2   -1    0    0  501    0  0.00000000000E+00  0.00000000000E+00  0.97685443829E+03  0.97685443829E+03  0.25500000920E-02 0.  1.
       -2   -1    0    0    0  501  0.00000000000E+00  0.00000000000E+00 -0.65242253991E+03  0.65242253991E+03  0.25500000920E-02 0. -1.
    10030    2    1    2    0    0  0.00000000000E+00  0.00000000000E+00  0.32443189838E+03  0.16292769782E+04  0.15966488077E+04 0.  0.
        4    1    3    3  502    0  0.57381327905E+02 -0.71606019528E+03 -0.19316146220E+03  0.74387349962E+03  0.12699999809E+01 0. -1.
       -4    1    3    3    0  502 -0.57381327905E+02  0.71606019528E+03  0.51759336059E+03  0.88540347858E+03  0.12699999809E+01 0.  1.
</event>
<event>
 5   0  0.1414751E-03  0.1546189E+04  0.7818609E-02  0.8854306E-01
        2   -1    0    0  501    0  0.00000000000E+00  0.00000000000E+00  0.54460964579E+03  0.54460964579E+03  0.25500000920E-02 0.  1.
       -2   -1    0    0    0  501  0.00000000000E+00  0.00000000000E+00 -0.10974369219E+04  0.10974369219E+04  0.25500000920E-02 0. -1.
    10030    2    1    2    0    0  0.00000000000E+00  0.00000000000E+00 -0.55282727615E+03  0.16420465677E+04  0.15461885180E+04 0.  0.
        2    1    3    3  502    0  0.58013020314E+03  0.60240621570E+02 -0.81531243415E+03  0.10024541637E+04  0.25500000920E-02 0. -1.
       -2    1    3    3    0  502 -0.58013020314E+03 -0.60240621570E+02  0.26248515800E+03  0.63959240401E+03  0.25500000920E-02 0.  1.
</event>
<event>
 5   0  0.7633213E-04  0.1594904E+04  0.7818609E-02  0.8823685E-01
        1   -1    0    0  501    0  0.00000000000E+00  0.00000000000E+00  0.92428552429E+03  0.92428552431E+03  0.50400001928E-02 0. -1.
       -1   -1    0    0    0  501  0.00000000000E+00  0.00000000000E+00 -0.68802290387E+03  0.68802290389E+03  0.50400001928E-02 0.  1.
    10030    2    1    2    0    0  0.00000000000E+00  0.00000000000E+00  0.23626262043E+03  0.16123084282E+04  0.15949038974E+04 0.  0.
        1    1    3    3  502    0 -0.73276264091E+03 -0.29330703325E+03  0.23321342692E+03  0.82301798655E+03  0.50400001928E-02 0. -1.
       -1    1    3    3    0  502  0.73276264091E+03  0.29330703325E+03  0.30491935053E+01  0.78929044164E+03  0.50400001928E-02 0.  1.
</event>
<event>
 5   0  0.1414751E-03  0.1577141E+04  0.7818609E-02  0.8834716E-01
       -2   -1    0    0    0  501  0.00000000000E+00  0.00000000000E+00  0.69952701960E+03  0.69952701961E+03  0.25500000920E-02 0. -1.
        2   -1    0    0  501    0  0.00000000000E+00  0.00000000000E+00 -0.88894797147E+03  0.88894797147E+03  0.25500000920E-02 0.  1.
    10030    2    1    2    0    0  0.00000000000E+00  0.00000000000E+00 -0.18942095187E+03  0.15884749911E+04  0.15771406089E+04 0.  0.
        2    1    3    3  502    0 -0.54168658534E+03  0.84540823773E+02  0.47617125779E+03  0.72616153463E+03  0.25500000920E-02 0. -1.
       -2    1    3    3    0  502  0.54168658534E+03 -0.84540823773E+02 -0.66559220966E+03  0.86231345646E+03  0.25500000920E-02 0.  1.
</event>
<event>
 5   0  0.7124495E-04  0.1575092E+04  0.7818609E-02  0.8835998E-01
        1   -1    0    0  501    0  0.00000000000E+00  0.00000000000E+00  0.17606449043E+04  0.17606449043E+04  0.50400001928E-02 0. -1.
       -1   -1    0    0    0  501  0.00000000000E+00  0.00000000000E+00 -0.35227373174E+03  0.35227373178E+03  0.50400001928E-02 0.  1.
    10030    2    1    2    0    0  0.00000000000E+00  0.00000000000E+00  0.14083711725E+04  0.21129186361E+04  0.15750923157E+04 0.  0.
        2    1    3    3  502    0  0.11120170269E+03  0.12187697530E+03 -0.32883137569E+03  0.36789929252E+03  0.25500000920E-02 0.  1.
       -2    1    3    3    0  502 -0.11120170269E+03 -0.12187697530E+03  0.17372025482E+04  0.17450193436E+04  0.25500000920E-02 0. -1.
</event>
<event>
 5   0  0.7601145E-04  0.1719068E+04  0.7818609E-02  0.8750563E-01
       -1   -1    0    0    0  501  0.00000000000E+00  0.00000000000E+00  0.67098004321E+03  0.67098004323E+03  0.50400001928E-02 0.  1.
        1   -1    0    0  501    0  0.00000000000E+00  0.00000000000E+00 -0.11010738352E+04  0.11010738352E+04  0.50400001928E-02 0. -1.
    10030    2    1    2    0    0  0.00000000000E+00  0.00000000000E+00 -0.43009379198E+03  0.17720538784E+04  0.17190678515E+04 0.  0.
        4    1    3    3  502    0  0.44785284328E+03  0.21251484081E+03 -0.93887388327E+03  0.10617064135E+04  0.12699999809E+01 0. -1.
       -4    1    3    3    0  502 -0.44785284328E+03 -0.21251484081E+03  0.50878009129E+03  0.71034746497E+03  0.12699999809E+01 0.  1.
</event>
<event>
 5   0  0.1375777E-03  0.1498723E+04  0.7818609E-02  0.8885302E-01
        2   -1    0    0  501    0  0.00000000000E+00  0.00000000000E+00  0.24322239235E+04  0.24322239235E+04  0.25500000920E-02 0.  1.
       -2   -1    0    0    0  501  0.00000000000E+00  0.00000000000E+00 -0.23087632694E+03  0.23087632696E+03  0.25500000920E-02 0. -1.
    10030    2    1    2    0    0  0.00000000000E+00  0.00000000000E+00  0.22013475966E+04  0.26631002505E+04  0.14987233578E+04 0.  0.
        1    1    3    3  502    0  0.28528488959E+03  0.50948884671E+03  0.19352110584E+04  0.20213876901E+04  0.50400001928E-02 0.  1.
       -1    1    3    3    0  502 -0.28528488959E+03 -0.50948884671E+03  0.26613653817E+03  0.64171256037E+03  0.50400001928E-02 0. -1.
</event>
<event>
 5   0  0.1414751E-03  0.1599499E+04  0.7818609E-02  0.8820856E-01
        2   -1    0    0  501    0  0.00000000000E+00  0.00000000000E+00  0.64956789683E+03  0.64956789683E+03  0.25500000920E-02 0.  1.
       -2   -1    0    0    0  501  0.00000000000E+00  0.00000000000E+00 -0.98465334253E+03  0.98465334254E+03  0.25500000920E-02 0. -1.
    10030    2    1    2    0    0  0.00000000000E+00  0.00000000000E+00 -0.33508544571E+03  0.16342212394E+04  0.15994989226E+04 0.  0.
        2    1    3    3  502    0 -0.58626509334E+03 -0.14400526078E+03  0.36839650327E+03  0.70722009193E+03  0.25500000920E-02 0.  1.
       -2    1    3    3    0  502  0.58626509334E+03  0.14400526078E+03 -0.70348194898E+03  0.92700114744E+03  0.25500000920E-02 0. -1.
</event>
<event>
 5   0  0.7633213E-04  0.1604152E+04  0.7818609E-02  0.8818001E-01
       -1   -1    0    0    0  501  0.00000000000E+00  0.00000000000E+00  0.60372687347E+03  0.60372687349E+03  0.50400001928E-02 0. -1.
        1   -1    0    0  501    0  0.00000000000E+00  0.00000000000E+00 -0.10655912803E+04  0.10655912803E+04  0.50400001928E-02 0.  1.
    10030    2    1    2    0    0  0.00000000000E+00  0.00000000000E+00 -0.46186440680E+03  0.16693181538E+04  0.16041522273E+04 0.  0.
        1    1    3    3  502    0  0.62515408915E+03 -0.32603972139E+03 -0.62883497355E+03  0.94475020990E+03  0.50400001928E-02 0.  1.
       -1    1    3    3    0  502 -0.62515408915E+03  0.32603972139E+03  0.16697056676E+03  0.72456794388E+03  0.50400001928E-02 0. -1.
</event>
<event>
 5   0  0.7124495E-04  0.1618834E+04  0.7818609E-02  0.8809061E-01
       -1   -1    0    0    0  501  0.00000000000E+00  0.00000000000E+00  0.10248604143E+04  0.10248604143E+04  0.50400001928E-02 0. -1.
        1   -1    0    0  501    0  0.00000000000E+00  0.00000000000E+00 -0.63926321098E+03  0.63926321100E+03  0.50400001928E-02 0.  1.
    10030    2    1    2    0    0  0.00000000000E+00  0.00000000000E+00  0.38559720332E+03  0.16641236253E+04  0.16188336039E+04 0.  0.
        2    1    3    3  502    0  0.20502609415E+03 -0.62164155977E+03 -0.29663247300E+03  0.71865482129E+03  0.25500000920E-02 0.  1.
       -2    1    3    3    0  502 -0.20502609415E+03  0.62164155977E+03  0.68222967632E+03  0.94546880402E+03  0.25500000920E-02 0. -1.
</event>
<event>
 5   0  0.1375777E-03  0.1602606E+04  0.7818609E-02  0.8818949E-01
        2   -1    0    0  501    0  0.00000000000E+00  0.00000000000E+00  0.13894630934E+04  0.13894630934E+04  0.25500000920E-02 0.  1.
       -2   -1    0    0    0  501  0.00000000000E+00  0.00000000000E+00 -0.46211125202E+03  0.46211125202E+03  0.25500000920E-02 0. -1.
    10030    2    1    2    0    0  0.00000000000E+00  0.00000000000E+00  0.92735184141E+03  0.18515743455E+04  0.16026060399E+04 0.  0.
        1    1    3    3  502    0  0.53555038399E+02 -0.65008596149E+03 -0.74036728104E+02  0.65647645547E+03  0.50400001928E-02 0. -1.
       -1    1    3    3    0  502 -0.53555038399E+02  0.65008596149E+03  0.10013885695E+04  0.11950978900E+04  0.50400001928E-02 0.  1.
</event>
<event>
 5   0  0.7124495E-04  0.1517925E+04  0.7818609E-02  0.8872620E-01
       -1   -1    0    0    0  501  0.00000000000E+00  0.00000000000E+00  0.40364036476E+03  0.40364036479E+03  0.50400001928E-02 0. -1.
        1   -1    0    0  501    0  0.00000000000E+00  0.00000000000E+00 -0.14270718591E+04  0.14270718591E+04  0.50400001928E-02 0.  1.
    10030    2    1    2    0    0  0.00000000000E+00  0.00000000000E+00 -0.10234314944E+04  0.18307122239E+04  0.15179246435E+04 0.  0.
        2    1    3    3  502    0 -0.18103608180E+03  0.36862121097E+02 -0.13995375568E+04  0.14116792311E+04  0.25500000920E-02 0.  1.
       -2    1    3    3    0  502  0.18103608180E+03 -0.36862121097E+02  0.37610606238E+03  0.41903299279E+03  0.25500000920E-02 0. -1.
</event>
<event>
 5   0  0.7499834E-04  0.1411082E+04  0.7818609E-02  0.8945836E-01
       -1   -1    0    0    0  501  0.00000000000E+00  0.00000000000E+00  0.61753975703E+03  0.61753975705E+03  0.50400001928E-02 0. -1.
        1   -1    0    0  501    0  0.00000000000E+00  0.00000000000E+00 -0.80608234912E+03  0.80608234913E+03  0.50400001928E-02 0.  1.
    10030    2    1    2    0    0  0.00000000000E+00  0.00000000000E+00 -0.18854259208E+03  0.14236221062E+04  0.14110817100E+04 0.  0.
        3    1    3    3  502    0  0.49786250937E+03 -0.38807931165E+03 -0.41221523250E+03  0.75391911931E+03  0.10100000352E+00 0. -1.
       -3    1    3    3    0  502 -0.49786250937E+03  0.38807931165E+03  0.22367264042E+03  0.66970298688E+03  0.10100000352E+00 0.  1.
</event>
<event>
 5   0  0.1375777E-03  0.1666814E+04  0.7818609E-02  0.8780521E-01
       -2   -1    0    0    0  501  0.00000000000E+00  0.00000000000E+00  0.71808197892E+03  0.71808197893E+03  0.25500000920E-02 0.  1.
        2   -1    0    0  501    0  0.00000000000E+00  0.00000000000E+00 -0.96725353291E+03  0.96725353291E+03  0.25500000920E-02 0. -1.
    10030    2    1    2    0    0  0.00000000000E+00  0.00000000000E+00 -0.24917155399E+03  0.16853355118E+04  0.16668141241E+04 0.  0.
        1    1    3    3  502    0  0.36544880143E+03  0.21002686873E+03 -0.85153456767E+03  0.95014484791E+03  0.50400001928E-02 0. -1.
       -1    1    3    3    0  502 -0.36544880143E+03 -0.21002686873E+03  0.60236301368E+03  0.73519066393E+03  0.50400001928E-02 0.  1.
</event>
<event>
 5   0  0.1414796E-03  0.1579591E+04  0.7818609E-02  0.8833185E-01
       -2   -1    0    0    0  501  0.00000000000E+00  0.00000000000E+00  0.78065210578E+03  0.78065210578E+03  0.25500000920E-02 0. -1.
        2   -1    0    0  501    0  0.00000000000E+00  0.00000000000E+00 -0.79904628535E+03  0.79904628535E+03  0.25500000920E-02 0.  1.
    10030    2    1    2    0    0  0.00000000000E+00  0.00000000000E+00 -0.18394179571E+02  0.15796983911E+04  0.15795912956E+04 0.  0.
        4    1    3    3  502    0 -0.24909862380E+03  0.63949189227E+03  0.38169453796E+03  0.78529761102E+03  0.12699999809E+01 0. -1.
       -4    1    3    3    0  502  0.24909862380E+03 -0.63949189227E+03 -0.40008871754E+03  0.79440078012E+03  0.12699999809E+01 0.  1.
</event>
<event>
 5   0  0.1414796E-03  0.1566224E+04  0.7818609E-02  0.8841571E-01
       -2   -1    0    0    0  501  0.00000000000E+00  0.00000000000E+00  0.61056623898E+03  0.61056623899E+03  0.25500000920E-02 0.  1.
        2   -1    0    0  501    0  0.00000000000E+00  0.00000000000E+00 -0.10044192598E+04  0.10044192598E+04  0.25500000920E-02 0. -1.
    10030    2    1    2    0    0  0.00000000000E+00  0.00000000000E+00 -0.39385302083E+03  0.16149854988E+04  0.15662241089E+04 0.  0.
        4    1    3    3  502    0  0.70765141141E+03  0.32255563870E+03 -0.29171348206E+03  0.83060883010E+03  0.12699999809E+01 0.  1.
       -4    1    3    3    0  502 -0.70765141141E+03 -0.32255563870E+03 -0.10213953877E+03  0.78437666870E+03  0.12699999809E+01 0. -1.
</event>
<event>
 5   0  0.1354766E-03  0.1506402E+04  0.7818609E-02  0.8880207E-01
        2   -1    0    0  501    0  0.00000000000E+00  0.00000000000E+00  0.11059243633E+04  0.11059243633E+04  0.25500000920E-02 0. -1.
       -2   -1    0    0    0  501  0.00000000000E+00  0.00000000000E+00 -0.51297538576E+03  0.51297538577E+03  0.25500000920E-02 0.  1.
    10030    2    1    2    0    0  0.00000000000E+00  0.00000000000E+00  0.59294897752E+03  0.16188997491E+04  0.15064023060E+04 0.  0.
        3    1    3    3  502    0  0.35201432375E+03 -0.52966419075E+03 -0.13721394087E+03  0.65060426901E+03  0.10100000352E+00 0.  1.
       -3    1    3    3    0  502 -0.35201432375E+03  0.52966419075E+03  0.73016291839E+03  0.96829548005E+03  0.10100000352E+00 0. -1.
</event>
<event>
 5   0  0.7633213E-04  0.1417567E+04  0.7818609E-02  0.8941200E-01
        1   -1    0    0  501    0  0.00000000000E+00  0.00000000000E+00  0.18664475858E+04  0.18664475858E+04  0.50400001928E-02 0. -1.
       -1   -1    0    0    0  501  0.00000000000E+00  0.00000000000E+00 -0.26916063611E+03  0.26916063616E+03  0.50400001928E-02 0.  1.
    10030    2    1    2    0    0  0.00000000000E+00  0.00000000000E+00  0.15972869496E+04  0.21356082219E+04  0.14175672393E+04 0.  0.
        1    1    3    3  502    0  0.49455593629E+03 -0.41867485089E+03  0.36592550686E+03  0.74416105883E+03  0.50400001928E-02 0. -1.
       -1    1    3    3    0  502 -0.49455593629E+03  0.41867485089E+03  0.12313614428E+04  0.13914471631E+04  0.50400001928E-02 0.  1.
</event>
<event>
 5   0  0.1414751E-03  0.1609768E+04  0.7818609E-02  0.8814570E-01
       -2   -1    0    0    0  501  0.00000000000E+00  0.00000000000E+00  0.35177255447E+03  0.35177255448E+03  0.25500000920E-02 0. -1.
        2   -1    0    0  501    0  0.00000000000E+00  0.00000000000E+00 -0.18416387750E+04  0.18416387750E+04  0.25500000920E-02 0.  1.
    10030    2    1    2    0    0  0.00000000000E+00  0.00000000000E+00 -0.14898662205E+04  0.21934113295E+04  0.16097676557E+04 0.  0.
        2    1    3    3  502    0  0.63843791247E+03 -0.24216076757E+03 -0.13255726965E+04  0.14911028734E+04  0.25500000920E-02 0. -1.
       -2    1    3    3    0  502 -0.63843791247E+03  0.24216076757E+03 -0.16429352407E+03  0.70230845609E+03  0.25500000920E-02 0.  1.
</event>
<event>
 5   0  0.1375777E-03  0.1579217E+04  0.7818609E-02  0.8833419E-01
        2   -1    0    0  501    0  0.00000000000E+00  0.00000000000E+00  0.17043992192E+04  0.17043992192E+04  0.25500000920E-02 0.  1.
       -2   -1    0    0    0  501  0.00000000000E+00  0.00000000000E+00 -0.36580721953E+03  0.36580721954E+03  0.25500000920E-02 0. -1.
    10030    2    1    2    0    0  0.00000000000E+00  0.00000000000E+00  0.13385919997E+04  0.20702064387E+04  0.15792169444E+04 0.  0.
        1    1    3    3  502    0  0.68903341216E+03 -0.30745853309E+02  0.16537343662E+03  0.70926773797E+03  0.50400001928E-02 0. -1.
       -1    1    3    3    0  502 -0.68903341216E+03  0.30745853309E+02  0.11732185630E+04  0.13609387008E+04  0.50400001928E-02 0.  1.
</event>
<event>
 5   0  0.7124495E-04  0.1604540E+04  0.7818609E-02  0.8817764E-01
        1   -1    0    0  501    0  0.00000000000E+00  0.00000000000E+00  0.12760426380E+04  0.12760426380E+04  0.50400001928E-02 0. -1.
       -1   -1    0    0    0  501  0.00000000000E+00  0.00000000000E+00 -0.50440077315E+03  0.50440077318E+03  0.50400001928E-02 0.  1.
    10030    2    1    2    0    0  0.00000000000E+00  0.00000000000E+00  0.77164186486E+03  0.17804434112E+04  0.16045396763E+04 0.  0.
        2    1    3    3  502    0 -0.21714990690E+03 -0.28092992019E+03 -0.41246516532E+03  0.54424554636E+03  0.25500000920E-02 0.  1.
       -2    1    3    3    0  502  0.21714990690E+03  0.28092992019E+03  0.11841070302E+04  0.12361978649E+04  0.25500000920E-02 0. -1.
</event>
<event>
 5   0  0.7124495E-04  0.1217977E+04  0.7818609E-02  0.9097265E-01
        1   -1    0    0  501    0  0.00000000000E+00  0.00000000000E+00  0.11630260169E+04  0.11630260169E+04  0.50400001928E-02 0. -1.
       -1   -1    0    0    0  501  0.00000000000E+00  0.00000000000E+00 -0.31888123189E+03  0.31888123193E+03  0.50400001928E-02 0.  1.
    10030    2    1    2    0    0  0.00000000000E+00  0.00000000000E+00  0.84414478502E+03  0.14819072489E+04  0.12179772888E+04 0.  0.
        2    1    3    3  502    0  0.58071229130E+03  0.18146329209E+03  0.38961882965E+03  0.72246697092E+03  0.25500000920E-02 0. -1.
       -2    1    3    3    0  502 -0.58071229130E+03 -0.18146329209E+03  0.45452595537E+03  0.75944027794E+03  0.25500000920E-02 0.  1.
</event>
<event>
 5   0  0.1375777E-03  0.1635241E+04  0.7818609E-02  0.8799186E-01
        2   -1    0    0  501    0  0.00000000000E+00  0.00000000000E+00  0.14100447411E+04  0.14100447411E+04  0.25500000920E-02 0.  1.
       -2   -1    0    0    0  501  0.00000000000E+00  0.00000000000E+00 -0.47410072244E+03  0.47410072245E+03  0.25500000920E-02 0. -1.
    10030    2    1    2    0    0  0.00000000000E+00  0.00000000000E+00  0.93594401866E+03  0.18841454636E+04  0.16352409369E+04 0.  0.
        1    1    3    3  502    0 -0.60447744217E+02 -0.17026790355E+03  0.13867546825E+04  0.13984754692E+04  0.50400001928E-02 0.  1.
       -1    1    3    3    0  502  0.60447744217E+02  0.17026790355E+03 -0.45081066379E+03  0.48566999431E+03  0.50400001928E-02 0. -1.
</event>
<event>
 5   0  0.1414796E-03  0.1624236E+04  0.7818609E-02  0.8805796E-01
       -2   -1    0    0    0  501  0.00000000000E+00  0.00000000000E+00  0.27700284572E+03  0.27700284573E+03  0.25500000920E-02 0.  1.
        2   -1    0    0  501    0  0.00000000000E+00  0.00000000000E+00 -0.23809715489E+04  0.23809715489E+04  0.25500000920E-02 0. -1.
    10030    2    1    2    0    0  0.00000000000E+00  0.00000000000E+00 -0.21039687032E+04  0.26579743946E+04  0.16242363062E+04 0.  0.
        4    1    3    3  502    0 -0.25435985191E+03 -0.46384143875E+03 -0.20603409349E+04  0.21271704669E+04  0.12699999809E+01 0. -1.
       -4    1    3    3    0  502  0.25435985191E+03  0.46384143875E+03 -0.43627768279E+02  0.53080392767E+03  0.12699999809E+01 0.  1.
</event>
<event>
 5   0  0.1414796E-03  0.1249358E+04  0.7818609E-02  0.9070718E-01
       -2   -1    0    0    0  501  0.00000000000E+00  0.00000000000E+00  0.38588395671E+03  0.38588395672E+03  0.25500000920E-02 0. -1.
        2   -1    0    0  501    0  0.00000000000E+00  0.00000000000E+00 -0.10112470047E+04  0.10112470048E+04  0.25500000920E-02 0.  1.
    10030    2    1    2    0    0  0.00000000000E+00  0.00000000000E+00 -0.62536304803E+03  0.13971309615E+04  0.12493582279E+04 0.  0.
        4    1    3    3  502    0  0.56256605741E+03 -0.18428672161E+03 -0.53572201584E+03  0.79839955904E+03  0.12699999809E+01 0.  1.
       -4    1    3    3    0  502 -0.56256605741E+03  0.18428672161E+03 -0.89641032192E+02  0.59873140244E+03  0.12699999809E+01 0. -1.
</event>
<event>
 5   0  0.7499834E-04  0.1858278E+04  0.7818609E-02  0.8675908E-01
        1   -1    0    0  501    0  0.00000000000E+00  0.00000000000E+00  0.55721049747E+03  0.55721049749E+03  0.50400001928E-02 0. -1.
       -1   -1    0    0    0  501  0.00000000000E+00  0.00000000000E+00 -0.15493226507E+04  0.15493226507E+04  0.50400001928E-02 0.  1.
    10030    2    1    2    0    0  0.00000000000E+00  0.00000000000E+00 -0.99211215320E+03  0.21065331482E+04  0.18582775304E+04 0.  0.
        3    1    3    3  502    0 -0.38516666540E+03  0.57754505081E+03 -0.11961249563E+04  0.13829774282E+04  0.10100000352E+00 0.  1.
       -3    1    3    3    0  502  0.38516666540E+03 -0.57754505081E+03  0.20401280305E+03  0.72355571994E+03  0.10100000352E+00 0. -1.
</event>
<event>
 5   0  0.7302027E-04  0.1185196E+04  0.7818609E-02  0.9125914E-01
       -1   -1    0    0    0  501  0.00000000000E+00  0.00000000000E+00  0.24312651643E+03  0.24312651648E+03  0.50400001928E-02 0. -1.
        1   -1    0    0  501    0  0.00000000000E+00  0.00000000000E+00 -0.14444016582E+04  0.14444016582E+04  0.50400001928E-02 0.  1.
    10030    2    1    2    0    0  0.00000000000E+00  0.00000000000E+00 -0.12012751418E+04  0.16875281747E+04  0.11851959223E+04 0.  0.
        5    1    3    3  502    0 -0.18213908825E+03  0.47459098899E+03 -0.10342403793E+04  0.11524263562E+04  0.46999998093E+01 0.  1.
       -5    1    3    3    0  502  0.18213908825E+03 -0.47459098899E+03 -0.16703476249E+03  0.53510181851E+03  0.46999998093E+01 0. -1.
</event>
<event>
 5   0  0.1414751E-03  0.1589508E+04  0.7818609E-02  0.8827020E-01
        2   -1    0    0  501    0  0.00000000000E+00  0.00000000000E+00  0.11719578024E+04  0.11719578024E+04  0.25500000920E-02 0.  1.
       -2   -1    0    0    0  501  0.00000000000E+00  0.00000000000E+00 -0.53895586063E+03  0.53895586064E+03  0.25500000920E-02 0. -1.
    10030    2    1    2    0    0  0.00000000000E+00  0.00000000000E+00  0.63300194174E+03  0.17109136630E+04  0.15895075036E+04 0.  0.
        2    1    3    3  502    0 -0.78183565446E+03  0.14250608186E+03  0.32473735482E+03  0.85850411972E+03  0.25500000920E-02 0.  1.
       -2    1    3    3    0  502  0.78183565446E+03 -0.14250608186E+03  0.30826458692E+03  0.85240954330E+03  0.25500000920E-02 0. -1.
</event>
<event>
 5   0  0.7124495E-04  0.1235521E+04  0.7818609E-02  0.9082321E-01
        1   -1    0    0  501    0  0.00000000000E+00  0.00000000000E+00  0.68144613796E+03  0.68144613798E+03  0.50400001928E-02 0. -1.
       -1   -1    0    0    0  501  0.00000000000E+00  0.00000000000E+00 -0.56002636496E+03  0.56002636498E+03  0.50400001928E-02 0.  1.
    10030    2    1    2    0    0  0.00000000000E+00  0.00000000000E+00  0.12141977300E+03  0.12414725030E+04  0.12355206248E+04 0.  0.
        2    1    3    3  502    0  0.37922370109E+03  0.26332692024E+03  0.47314561751E+03  0.66107371584E+03  0.25500000920E-02 0. -1.
       -2    1    3    3    0  502 -0.37922370109E+03 -0.26332692024E+03 -0.35172584451E+03  0.58039878713E+03  0.25500000920E-02 0.  1.
</event>
<event>
 5   0  0.7124495E-04  0.1542162E+04  0.7818609E-02  0.8856890E-01
       -1   -1    0    0    0  501  0.00000000000E+00  0.00000000000E+00  0.56696859861E+03  0.56696859863E+03  0.50400001928E-02 0. -1.
        1   -1    0    0  501    0  0.00000000000E+00  0.00000000000E+00 -0.10486746290E+04  0.10486746290E+04  0.50400001928E-02 0.  1.
    10030    2    1    2    0    0  0.00000000000E+00  0.00000000000E+00 -0.48170603036E+03  0.16156432276E+04  0.15421615801E+04 0.  0.
        2    1    3    3  502    0  0.30664739761E+03 -0.43852525036E+03  0.34078398518E+03  0.63440582140E+03  0.25500000920E-02 0. -1.
       -2    1    3    3    0  502 -0.30664739761E+03  0.43852525036E+03 -0.82249001554E+03  0.98123740620E+03  0.25500000920E-02 0.  1.
</event>
<event>
 5   0  0.7633213E-04  0.1588277E+04  0.7818609E-02  0.8827782E-01
       -1   -1    0    0    0  501  0.00000000000E+00  0.00000000000E+00  0.35998648587E+03  0.35998648591E+03  0.50400001928E-02 0. -1.
        1   -1    0    0  501    0  0.00000000000E+00  0.00000000000E+00 -0.17518882437E+04  0.17518882437E+04  0.50400001928E-02 0.  1.
    10030    2    1    2    0    0  0.00000000000E+00  0.00000000000E+00 -0.13919017578E+04  0.21118747296E+04  0.15882771705E+04 0.  0.
        1    1    3    3  502    0 -0.70382739506E+03  0.34261703119E+03 -0.87383118123E+03  0.11731753345E+04  0.50400001928E-02 0.  1.
       -1    1    3    3    0  502  0.70382739506E+03 -0.34261703119E+03 -0.51807057661E+03  0.93869939516E+03  0.50400001928E-02 0. -1.
</event>
<event>
 5   0  0.1414751E-03  0.1602676E+04  0.7818609E-02  0.8818906E-01
        2   -1    0    0  501    0  0.00000000000E+00  0.00000000000E+00  0.72928251121E+03  0.72928251121E+03  0.25500000920E-02 0. -1.
       -2   -1    0    0    0  501  0.00000000000E+00  0.00000000000E+00 -0.88051300716E+03  0.88051300717E+03  0.25500000920E-02 0.  1.
    10030    2    1    2    0    0  0.00000000000E+00  0.00000000000E+00 -0.15123049596E+03  0.16097955184E+04  0.16026761832E+04 0.  0.
        2    1    3    3  502    0 -0.25651128283E+01  0.21473810350E+03  0.69983992419E+03  0.73204846315E+03  0.25500000920E-02 0. -1.
       -2    1    3    3    0  502  0.25651128283E+01 -0.21473810350E+03 -0.85107042015E+03  0.87774705523E+03  0.25500000920E-02 0.  1.
</event>
<event>
 5   0  0.1414796E-03  0.1614485E+04  0.7818609E-02  0.8811699E-01
       -2   -1    0    0    0  501  0.00000000000E+00  0.00000000000E+00  0.75429495346E+03  0.75429495346E+03  0.25500000920E-02 0.  1.
        2   -1    0    0  501    0  0.00000000000E+00  0.00000000000E+00 -0.86390637123E+03  0.86390637124E+03  0.25500000920E-02 0. -1.
    10030    2    1    2    0    0  0.00000000000E+00  0.00000000000E+00 -0.10961141777E+03  0.16182013247E+04  0.16144847055E+04 0.  0.
        4    1    3    3  502    0  0.19892235732E+03  0.73768156962E+03  0.20635966545E+03  0.79141021400E+03  0.12699999809E+01 0.  1.
       -4    1    3    3    0  502 -0.19892235732E+03 -0.73768156962E+03 -0.31597108322E+03  0.82679111070E+03  0.12699999809E+01 0. -1.
</event>
<event>
 5   0  0.7499834E-04  0.1652170E+04  0.7818609E-02  0.8789124E-01
        1   -1    0    0  501    0  0.00000000000E+00  0.00000000000E+00  0.96910369493E+03  0.96910369495E+03  0.50400001928E-02 0. -1.
       -1   -1    0    0    0  501  0.00000000000E+00  0.00000000000E+00 -0.70417234318E+03  0.70417234320E+03  0.50400001928E-02 0.  1.
    10030    2    1    2    0    0  0.00000000000E+00  0.00000000000E+00  0.26493135175E+03  0.16732760381E+04  0.16521695066E+04 0.  0.
        3    1    3    3  502    0 -0.52575792712E+03 -0.97180168751E+02  0.77023306629E+03  0.93761632331E+03  0.10100000352E+00 0.  1.
       -3    1    3    3    0  502  0.52575792712E+03  0.97180168751E+02 -0.50530171453E+03  0.73565971484E+03  0.10100000352E+00 0. -1.
</event>
<event>
 5   0  0.1375777E-03  0.1263821E+04  0.7818609E-02  0.9058758E-01
       -2   -1    0    0    0  501  0.00000000000E+00  0.00000000000E+00  0.31782874421E+03  0.31782874422E+03  0.25500000920E-02 0. -1.
        2   -1    0    0  501    0  0.00000000000E+00  0.00000000000E+00 -0.12563702068E+04  0.12563702068E+04  0.25500000920E-02 0.  1.
    10030    2    1    2    0    0  0.00000000000E+00  0.00000000000E+00 -0.93854146258E+03  0.15741989510E+04  0.12638205016E+04 0.  0.
        1    1    3    3  502    0  0.93420160741E+02 -0.53609644023E+03 -0.86938134952E+03  0.10256464550E+04  0.50400001928E-02 0.  1.
       -1    1    3    3    0  502 -0.93420160741E+02  0.53609644023E+03 -0.69160113064E+02  0.54855249605E+03  0.50400001928E-02 0. -1.
</event>
<event>
 5   0  0.7124495E-04  0.1648770E+04  0.7818609E-02  0.8791135E-01
       -1   -1    0    0    0  501  0.00000000000E+00  0.00000000000E+00  0.40782045102E+03  0.40782045105E+03  0.50400001928E-02 0.  1.
        1   -1    0    0  501    0  0.00000000000E+00  0.00000000000E+00 -0.16664451612E+04  0.16664451612E+04  0.50400001928E-02 0. -1.
    10030    2    1    2    0    0  0.00000000000E+00  0.00000000000E+00 -0.12586247102E+04  0.20742656122E+04  0.16487697441E+04 0.  0.
        2    1    3    3  502    0 -0.32713207571E+03 -0.31975081445E+03 -0.14921259546E+04  0.15606715999E+04  0.25500000920E-02 0. -1.
       -2    1    3    3    0  502  0.32713207571E+03  0.31975081445E+03  0.23350124449E+03  0.51359401231E+03  0.25500000920E-02 0.  1.
</event>
<event>
 5   0  0.7633213E-04  0.1603871E+04  0.7818609E-02  0.8818173E-01
        1   -1    0    0  501    0  0.00000000000E+00  0.00000000000E+00  0.50243678219E+03  0.50243678222E+03  0.50400001928E-02 0.  1.
       -1   -1    0    0    0  501  0.00000000000E+00  0.00000000000E+00 -0.12799637082E+04  0.12799637082E+04  0.50400001928E-02 0. -1.
    10030    2    1    2    0    0  0.00000000000E+00  0.00000000000E+00 -0.77752692598E+03  0.17824004904E+04  0.16038713750E+04 0.  0.
        1    1    3    3  502    0 -0.44794872795E+03 -0.39443242054E+03 -0.98398026427E+03  0.11508484512E+04  0.50400001928E-02 0. -1.
       -1    1    3    3    0  502  0.44794872795E+03  0.39443242054E+03  0.20645333829E+03  0.63155203915E+03  0.50400001928E-02 0.  1.
</event>
<event>
 5   0  0.7499834E-04  0.1399825E+04  0.7818609E-02  0.8953946E-01
       -1   -1    0    0    0  501  0.00000000000E+00  0.00000000000E+00  0.55564846349E+03  0.55564846351E+03  0.50400001928E-02 0. -1.
        1   -1    0    0  501    0  0.00000000000E+00  0.00000000000E+00 -0.88163145180E+03  0.88163145181E+03  0.50400001928E-02 0.  1.
    10030    2    1    2    0    0  0.00000000000E+00  0.00000000000E+00 -0.32598298831E+03  0.14372799153E+04  0.13998245055E+04 0.  0.
        3    1    3    3  502    0  0.20765935230E+03  0.11656425487E+03 -0.83875651299E+03  0.87190717992E+03  0.10100000352E+00 0.  1.
       -3    1    3    3    0  502 -0.20765935230E+03 -0.11656425487E+03  0.51277352468E+03  0.56537273539E+03  0.10100000352E+00 0. -1.
</event>
<event>
 5   0  0.7633213E-04  0.8671158E+03  0.7818609E-02  0.9467648E-01
       -1   -1    0    0    0  501  0.00000000000E+00  0.00000000000E+00  0.12760728566E+03  0.12760728576E+03  0.50400001928E-02 0.  1.
        1   -1    0    0  501    0  0.00000000000E+00  0.00000000000E+00 -0.14730542742E+04  0.14730542742E+04  0.50400001928E-02 0. -1.
    10030    2    1    2    0    0  0.00000000000E+00  0.00000000000E+00 -0.13454469885E+04  0.16006615599E+04  0.86711581152E+03 0.  0.
        1    1    3    3  502    0  0.34560571174E+03  0.12384873700E+03 -0.10984591437E+04  0.11581857830E+04  0.50400001928E-02 0.  1.
       -1    1    3    3    0  502 -0.34560571174E+03 -0.12384873700E+03 -0.24698784486E+03  0.44247577695E+03  0.50400001928E-02 0. -1.
</event>
<event>
 5   0  0.7633213E-04  0.1600181E+04  0.7818609E-02  0.8820437E-01
       -1   -1    0    0    0  501  0.00000000000E+00  0.00000000000E+00  0.62364366600E+03  0.62364366602E+03  0.50400001928E-02 0. -1.
        1   -1    0    0  501    0  0.00000000000E+00  0.00000000000E+00 -0.10264596418E+04  0.10264596418E+04  0.50400001928E-02 0.  1.
    10030    2    1    2    0    0  0.00000000000E+00  0.00000000000E+00 -0.40281597580E+03  0.16501033078E+04  0.16001813073E+04 0.  0.
        1    1    3    3  502    0 -0.55562985343E+03  0.56807890290E+03 -0.10518624402E+03  0.80156242420E+03  0.50400001928E-02 0.  1.
       -1    1    3    3    0  502  0.55562985343E+03 -0.56807890290E+03 -0.29762973179E+03  0.84854088364E+03  0.50400001928E-02 0. -1.
</event>
<event>
 5   0  0.7124495E-04  0.1584561E+04  0.7818609E-02  0.8830089E-01
        1   -1    0    0  501    0  0.00000000000E+00  0.00000000000E+00  0.48339787673E+03  0.48339787676E+03  0.50400001928E-02 0.  1.
       -1   -1    0    0    0  501  0.00000000000E+00  0.00000000000E+00 -0.12985340911E+04  0.12985340911E+04  0.50400001928E-02 0. -1.
    10030    2    1    2    0    0  0.00000000000E+00  0.00000000000E+00 -0.81513621440E+03  0.17819319679E+04  0.15845612927E+04 0.  0.
        2    1    3    3  502    0  0.69471584583E+03  0.13547090894E+03 -0.72408187423E+01  0.70783818990E+03  0.25500000920E-02 0.  1.
       -2    1    3    3    0  502 -0.69471584583E+03 -0.13547090894E+03 -0.80789539566E+03  0.10740937780E+04  0.25500000920E-02 0. -1.
</event>
<event>
 5   0  0.7633213E-04  0.1611339E+04  0.7818609E-02  0.8813612E-01
        1   -1    0    0  501    0  0.00000000000E+00  0.00000000000E+00  0.93226940901E+03  0.93226940903E+03  0.50400001928E-02 0. -1.
       -1   -1    0    0    0  501  0.00000000000E+00  0.00000000000E+00 -0.69626166784E+03  0.69626166786E+03  0.50400001928E-02 0.  1.
    10030    2    1    2    0    0  0.00000000000E+00  0.00000000000E+00  0.23600774117E+03  0.16285310769E+04  0.16113391370E+04 0.  0.
        1    1    3    3  502    0  0.66435166975E+03 -0.30877096675E+02  0.57759392774E+03  0.88086961668E+03  0.50400001928E-02 0. -1.
       -1    1    3    3    0  502 -0.66435166975E+03  0.30877096675E+02 -0.34158618657E+03  0.74766146021E+03  0.50400001928E-02 0.  1.
</event>
<event>
 5   0  0.1414751E-03  0.1696912E+04  0.7818609E-02  0.8763128E-01
        2   -1    0    0  501    0  0.00000000000E+00  0.00000000000E+00  0.14197918931E+04  0.14197918931E+04  0.25500000920E-02 0. -1.
       -2   -1    0    0    0  501  0.00000000000E+00  0.00000000000E+00 -0.50703006800E+03  0.50703006800E+03  0.25500000920E-02 0.  1.
    10030    2    1    2    0    0  0.00000000000E+00  0.00000000000E+00  0.91276182513E+03  0.19268219611E+04  0.16969115241E+04 0.  0.
        2    1    3    3  502    0 -0.85263303749E+02  0.48045531254E+02  0.14133611799E+04  0.14167455766E+04  0.25500000920E-02 0. -1.
       -2    1    3    3    0  502  0.85263303749E+02 -0.48045531254E+02 -0.50059935476E+03  0.51007638451E+03  0.25500000920E-02 0.  1.
</event>
<event>
 5   0  0.7124495E-04  0.1631058E+04  0.7818609E-02  0.8801692E-01
        1   -1    0    0  501    0  0.00000000000E+00  0.00000000000E+00  0.99004107563E+03  0.99004107565E+03  0.50400001928E-02 0.  1.
       -1   -1    0    0    0  501  0.00000000000E+00  0.00000000000E+00 -0.67177768984E+03  0.67177768986E+03  0.50400001928E-02 0. -1.
    10030    2    1    2    0    0  0.00000000000E+00  0.00000000000E+00  0.31826338579E+03  0.16618187655E+04  0.16310579471E+04 0.  0.
        2    1    3    3  502    0  0.26430617120E+03 -0.18645052947E+03 -0.60363002194E+03  0.68482899725E+03  0.25500000920E-02 0. -1.
       -2    1    3    3    0  502 -0.26430617120E+03  0.18645052947E+03  0.92189340773E+03  0.97698976827E+03  0.25500000920E-02 0.  1.
</event>
<event>
 5   0  0.7302027E-04  0.1623720E+04  0.7818609E-02  0.8806107E-01
       -1   -1    0    0    0  501  0.00000000000E+00  0.00000000000E+00  0.89064885183E+03  0.89064885185E+03  0.50400001928E-02 0. -1.
        1   -1    0    0  501    0  0.00000000000E+00  0.00000000000E+00 -0.74004060349E+03  0.74004060351E+03  0.50400001928E-02 0.  1.
    10030    2    1    2    0    0  0.00000000000E+00  0.00000000000E+00  0.15060824834E+03  0.16306894554E+04  0.16237195741E+04 0.  0.
        5    1    3    3  502    0 -0.24161799508E+03  0.20010302863E+03  0.82729980642E+03  0.88479802063E+03  0.46999998093E+01 0. -1.
       -5    1    3    3    0  502  0.24161799508E+03 -0.20010302863E+03 -0.67669155808E+03  0.74589143472E+03  0.46999998093E+01 0.  1.
</event>
<event>
 5   0  0.1375777E-03  0.1580252E+04  0.7818609E-02  0.8832772E-01
       -2   -1    0    0    0  501  0.00000000000E+00  0.00000000000E+00  0.63903099161E+03  0.63903099161E+03  0.25500000920E-02 0. -1.
        2   -1    0    0  501    0  0.00000000000E+00  0.00000000000E+00 -0.97694687662E+03  0.97694687662E+03  0.25500000920E-02 0.  1.
    10030    2    1    2    0    0  0.00000000000E+00  0.00000000000E+00 -0.33791588501E+03  0.16159778682E+04  0.15802522980E+04 0.  0.
        1    1    3    3  502    0 -0.51637735274E+03  0.42971179433E+03 -0.59429571848E+03  0.89693098823E+03  0.50400001928E-02 0.  1.
       -1    1    3    3    0  502  0.51637735274E+03 -0.42971179433E+03  0.25637983347E+03  0.71904688001E+03  0.50400001928E-02 0. -1.
</event>
<event>
 5   0  0.1375777E-03  0.1626528E+04  0.7818609E-02  0.8804414E-01
        2   -1    0    0  501    0  0.00000000000E+00  0.00000000000E+00  0.77022842222E+03  0.77022842222E+03  0.25500000920E-02 0. -1.
       -2   -1    0    0    0  501  0.00000000000E+00  0.00000000000E+00 -0.85870434091E+03  0.85870434091E+03  0.25500000920E-02 0.  1.
    10030    2    1    2    0    0  0.00000000000E+00  0.00000000000E+00 -0.88475918693E+02  0.16289327631E+04  0.16265281918E+04 0.  0.
        1    1    3    3  502    0 -0.58522660417E+03 -0.54746462480E+03  0.94497685701E+02  0.80693091790E+03  0.50400001928E-02 0.  1.
       -1    1    3    3    0  502  0.58522660417E+03  0.54746462480E+03 -0.18297360439E+03  0.82200184523E+03  0.50400001928E-02 0. -1.
</event>
<event>
 5   0  0.1414751E-03  0.1638400E+04  0.7818609E-02  0.8797299E-01
        2   -1    0    0  501    0  0.00000000000E+00  0.00000000000E+00  0.97179082261E+03  0.97179082261E+03  0.25500000920E-02 0. -1.
       -2   -1    0    0    0  501  0.00000000000E+00  0.00000000000E+00 -0.69056879381E+03  0.69056879382E+03  0.25500000920E-02 0.  1.
    10030    2    1    2    0    0  0.00000000000E+00  0.00000000000E+00  0.28122202880E+03  0.16623596164E+04  0.16383997268E+04 0.  0.
        2    1    3    3  502    0  0.26531944930E+03  0.75576215596E+03 -0.33708260843E+02  0.80169014800E+03  0.25500000920E-02 0.  1.
       -2    1    3    3    0  502 -0.26531944930E+03 -0.75576215596E+03  0.31493028964E+03  0.86066946843E+03  0.25500000920E-02 0. -1.
</event>
<event>
 5   0  0.1339162E-03  0.1535466E+04  0.7818609E-02  0.8861205E-01
        2   -1    0    0  501    0  0.00000000000E+00  0.00000000000E+00  0.92613959154E+03  0.92613959154E+03  0.25500000920E-02 0. -1.
       -2   -1    0    0    0  501  0.00000000000E+00  0.00000000000E+00 -0.63641995390E+03  0.63641995391E+03  0.25500000920E-02 0.  1.
    10030    2    1    2    0    0  0.00000000000E+00  0.00000000000E+00  0.28971963763E+03  0.15625595454E+04  0.15354656833E+04 0.  0.
        5    1    3    3  502    0 -0.29428966363E+03  0.16670782438E+03  0.84621885393E+03  0.91132120769E+03  0.46999998093E+01 0. -1.
       -5    1    3    3    0  502  0.29428966363E+03 -0.16670782438E+03 -0.55649921630E+03  0.65123833776E+03  0.46999998093E+01 0.  1.
</event>
<event>
 5   0  0.7601145E-04  0.1590329E+04  0.7818609E-02  0.8826511E-01
        1   -1    0    0  501    0  0.00000000000E+00  0.00000000000E+00  0.70458554815E+03  0.70458554817E+03  0.50400001928E-02 0.  1.
       -1   -1    0    0    0  501  0.00000000000E+00  0.00000000000E+00 -0.89738779236E+03  0.89738779237E+03  0.50400001928E-02 0. -1.
    10030    2    1    2    0    0  0.00000000000E+00  0.00000000000E+00 -0.19280224421E+03  0.16019733405E+04  0.15903288586E+04 0.  0.
        4    1    3    3  502    0  0.76830430638E+03  0.67279211593E+01  0.10991084128E+03  0.77615641340E+03  0.12699999809E+01 0.  1.
       -4    1    3    3    0  502 -0.76830430638E+03 -0.67279211593E+01 -0.30271308549E+03  0.82581692714E+03  0.12699999809E+01 0. -1.
</event>
<event>
 5   0  0.1375777E-03  0.1604625E+04  0.7818609E-02  0.8817712E-01
       -2   -1    0    0    0  501  0.00000000000E+00  0.00000000000E+00  0.14669111254E+04  0.14669111254E+04  0.25500000920E-02 0. -1.
        2   -1    0    0  501    0  0.00000000000E+00  0.00000000000E+00 -0.43881677025E+03  0.43881677026E+03  0.25500000920E-02 0.  1.
    10030    2    1    2    0    0  0.00000000000E+00  0.00000000000E+00  0.10280943551E+04  0.19057278957E+04  0.16046248188E+04 0.  0.
        1    1    3    3  502    0  0.26899761085E+03  0.56147601870E+03 -0.86965784462E+02  0.62863191290E+03  0.50400001928E-02 0.  1.
       -1    1    3    3    0  502 -0.26899761085E+03 -0.56147601870E+03  0.11150601396E+04  0.12770959828E+04  0.50400001928E-02 0. -1.
</event>
<event>
 5   0  0.7633213E-04  0.1573239E+04  0.7818609E-02  0.8837159E-01
        1   -1    0    0  501    0  0.00000000000E+00  0.00000000000E+00  0.13972860741E+04  0.13972860741E+04  0.50400001928E-02 0. -1.
       -1   -1    0    0    0  501  0.00000000000E+00  0.00000000000E+00 -0.44283703695E+03  0.44283703698E+03  0.50400001928E-02 0.  1.
    10030    2    1    2    0    0  0.00000000000E+00  0.00000000000E+00  0.95444903710E+03  0.18401231110E+04  0.15732387293E+04 0.  0.
        1    1    3    3  502    0 -0.63591947656E+03  0.40942050925E+03  0.73012464916E+03  0.10512377169E+04  0.50400001928E-02 0. -1.
       -1    1    3    3    0  502  0.63591947656E+03 -0.40942050925E+03  0.22432438793E+03  0.78888539416E+03  0.50400001928E-02 0.  1.
</event>
<event>
 5   0  0.7124495E-04  0.1572821E+04  0.7818609E-02  0.8837421E-01
       -1   -1    0    0    0  501  0.00000000000E+00  0.00000000000E+00  0.11233739835E+04  0.11233739835E+04  0.50400001928E-02 0.  1.
        1   -1    0    0  501    0  0.00000000000E+00  0.00000000000E+00 -0.55052167568E+03  0.55052167570E+03  0.50400001928E-02 0. -1.
    10030    2    1    2    0    0  0.00000000000E+00  0.00000000000E+00  0.57285230780E+03  0.16738956592E+04  0.15728213221E+04 0.  0.
        2    1    3    3  502    0  0.18948999618E+03  0.74510840867E+03  0.11042416932E+03  0.77671519652E+03  0.25500000920E-02 0.  1.
       -2    1    3    3    0  502 -0.18948999618E+03 -0.74510840867E+03  0.46242813848E+03  0.89718046267E+03  0.25500000920E-02 0. -1.
</event>
<event>
 5   0  0.7633213E-04  0.1625359E+04  0.7818609E-02  0.8805119E-01
       -1   -1    0    0    0  501  0.00000000000E+00  0.00000000000E+00  0.62582118482E+03  0.62582118484E+03  0.50400001928E-02 0. -1.
        1   -1    0    0  501    0  0.00000000000E+00  0.00000000000E+00 -0.10553295912E+04  0.10553295912E+04  0.50400001928E-02 0.  1.
    10030    2    1    2    0    0  0.00000000000E+00  0.00000000000E+00 -0.42950840640E+03  0.16811507761E+04  0.16253585637E+04 0.  0.
        1    1    3    3  502    0 -0.12097673613E+03 -0.71911665946E+03  0.15628420741E+03  0.74578072790E+03  0.50400001928E-02 0. -1.
       -1    1    3    3    0  502  0.12097673613E+03  0.71911665946E+03 -0.58579261381E+03  0.93537004817E+03  0.50400001928E-02 0.  1.
</event>
<event>
 5   0  0.7302027E-04  0.1608644E+04  0.7818609E-02  0.8815255E-01
       -1   -1    0    0    0  501  0.00000000000E+00  0.00000000000E+00  0.66337449621E+03  0.66337449623E+03  0.50400001928E-02 0.  1.
        1   -1    0    0  501    0  0.00000000000E+00  0.00000000000E+00 -0.97521712736E+03  0.97521712737E+03  0.50400001928E-02 0. -1.
    10030    2    1    2    0    0  0.00000000000E+00  0.00000000000E+00 -0.31184263114E+03  0.16385916236E+04  0.16086443617E+04 0.  0.
        5    1    3    3  502    0 -0.83792141315E+02  0.67561336812E+03 -0.59219075477E+03  0.90232285030E+03  0.46999998093E+01 0. -1.
       -5    1    3    3    0  502  0.83792141315E+02 -0.67561336812E+03  0.28034812363E+03  0.73626877331E+03  0.46999998093E+01 0.  1.
</event>
<event>
 5   0  0.7124495E-04  0.1537983E+04  0.7818609E-02  0.8859580E-01
       -1   -1    0    0    0  501  0.00000000000E+00  0.00000000000E+00  0.14483218279E+04  0.14483218279E+04  0.50400001928E-02 0.  1.
        1   -1    0    0  501    0  0.00000000000E+00  0.00000000000E+00 -0.40829896870E+03  0.40829896873E+03  0.50400001928E-02 0. -1.
    10030    2    1    2    0    0  0.00000000000E+00  0.00000000000E+00  0.10400228592E+04  0.18566207966E+04  0.15379834963E+04 0.  0.
        2    1    3    3  502    0 -0.10753763648E+03 -0.71425427553E+03  0.20147911207E+03  0.74987822077E+03  0.25500000920E-02 0.  1.
       -2    1    3    3    0  502  0.10753763648E+03  0.71425427553E+03  0.83854374714E+03  0.11067425759E+04  0.25500000920E-02 0. -1.
</event>
<event>
 5   0  0.1375777E-03  0.1560543E+04  0.7818609E-02  0.8845162E-01
       -2   -1    0    0    0  501  0.00000000000E+00  0.00000000000E+00  0.93994863954E+03  0.93994863954E+03  0.25500000920E-02 0.  1.
        2   -1    0    0  501    0  0.00000000000E+00  0.00000000000E+00 -0.64771978895E+03  0.64771978895E+03  0.25500000920E-02 0. -1.
    10030    2    1    2    0    0  0.00000000000E+00  0.00000000000E+00  0.29222885059E+03  0.15876684285E+04  0.15605426421E+04 0.  0.
        1    1    3    3  502    0  0.31216908672E+03 -0.19750366764E+03  0.84535002024E+03  0.92253666278E+03  0.50400001928E-02 0.  1.
       -1    1    3    3    0  502 -0.31216908672E+03  0.19750366764E+03 -0.55312116965E+03  0.66513176572E+03  0.50400001928E-02 0. -1.
</event>
<event>
 5   0  0.1354766E-03  0.8458591E+03  0.7818609E-02  0.9495912E-01
       -2   -1    0    0    0  501  0.00000000000E+00  0.00000000000E+00  0.81603237228E+03  0.81603237229E+03  0.25500000920E-02 0.  1.
        2   -1    0    0  501    0  0.00000000000E+00  0.00000000000E+00 -0.21919400176E+03  0.21919400177E+03  0.25500000920E-02 0. -1.
    10030    2    1    2    0    0  0.00000000000E+00  0.00000000000E+00  0.59683837053E+03  0.10352263741E+04  0.84585909289E+03 0.  0.
        3    1    3    3  502    0 -0.26735950118E+03  0.30214230585E+03  0.45370347456E+03  0.60713913470E+03  0.10100000352E+00 0.  1.
       -3    1    3    3    0  502  0.26735950118E+03 -0.30214230585E+03  0.14313489597E+03  0.42808723936E+03  0.10100000352E+00 0. -1.
</event>
<event>
 5   0  0.7633213E-04  0.1651110E+04  0.7818609E-02  0.8789750E-01
       -1   -1    0    0    0  501  0.00000000000E+00  0.00000000000E+00  0.99560850115E+03  0.99560850116E+03  0.50400001928E-02 0. -1.
        1   -1    0    0  501    0  0.00000000000E+00  0.00000000000E+00 -0.68454727082E+03  0.68454727084E+03  0.50400001928E-02 0.  1.
    10030    2    1    2    0    0  0.00000000000E+00  0.00000000000E+00  0.31106123033E+03  0.16801557720E+04  0.16511100294E+04 0.  0.
        1    1    3    3  502    0 -0.11951574890E+03 -0.75713821330E+03 -0.15645507423E+03  0.78231737712E+03  0.50400001928E-02 0.  1.
       -1    1    3    3    0  502  0.11951574890E+03  0.75713821330E+03  0.46751630456E+03  0.89783839488E+03  0.50400001928E-02 0. -1.
</event>
<event>
 5   0  0.7124495E-04  0.1586586E+04  0.7818609E-02  0.8828831E-01
       -1   -1    0    0    0  501  0.00000000000E+00  0.00000000000E+00  0.29942328165E+03  0.29942328169E+03  0.50400001928E-02 0. -1.
        1   -1    0    0  501    0  0.00000000000E+00  0.00000000000E+00 -0.21017538866E+04  0.21017538866E+04  0.50400001928E-02 0.  1.
    10030    2    1    2    0    0  0.00000000000E+00  0.00000000000E+00 -0.18023306050E+04  0.24011771683E+04  0.15865863305E+04 0.  0.
        2    1    3    3  502    0  0.12641099136E+03  0.67709343455E+03 -0.30556286298E+03  0.75352765118E+03  0.25500000920E-02 0. -1.
       -2    1    3    3    0  502 -0.12641099136E+03 -0.67709343455E+03 -0.14967677420E+04  0.16476495171E+04  0.25500000920E-02 0.  1.
</event>
<event>
 5   0  0.7633213E-04  0.1588271E+04  0.7818609E-02  0.8827786E-01
        1   -1    0    0  501    0  0.00000000000E+00  0.00000000000E+00  0.13703480208E+04  0.13703480208E+04  0.50400001928E-02 0.  1.
       -1   -1    0    0    0  501  0.00000000000E+00  0.00000000000E+00 -0.46021215570E+03  0.46021215573E+03  0.50400001928E-02 0. -1.
    10030    2    1    2    0    0  0.00000000000E+00  0.00000000000E+00  0.91013586507E+03  0.18305601765E+04  0.15882705270E+04 0.  0.
        1    1    3    3  502    0  0.39632060390E+03 -0.57336072109E+03  0.89370084080E+03  0.11333639003E+04  0.50400001928E-02 0. -1.
       -1    1    3    3    0  502 -0.39632060390E+03  0.57336072109E+03  0.16435024271E+02  0.69719627625E+03  0.50400001928E-02 0.  1.
</event>
<event>
 5   0  0.7124495E-04  0.1670683E+04  0.7818609E-02  0.8778264E-01
        1   -1    0    0  501    0  0.00000000000E+00  0.00000000000E+00  0.18642775062E+04  0.18642775062E+04  0.50400001928E-02 0.  1.
       -1   -1    0    0    0  501  0.00000000000E+00  0.00000000000E+00 -0.37429791155E+03  0.37429791158E+03  0.50400001928E-02 0. -1.
    10030    2    1    2    0    0  0.00000000000E+00  0.00000000000E+00  0.14899795946E+04  0.22385754178E+04  0.16706827073E+04 0.  0.
        2    1    3    3  502    0 -0.14910082675E+03  0.55123284200E+02  0.18438239400E+04  0.18506637606E+04  0.25500000920E-02 0.  1.
       -2    1    3    3    0  502  0.14910082675E+03 -0.55123284200E+02 -0.35384434538E+03  0.38791165717E+03  0.25500000920E-02 0. -1.
</event>
<event>
 5   0  0.7499834E-04  0.1617551E+04  0.7818609E-02  0.8809838E-01
       -1   -1    0    0    0  501  0.00000000000E+00  0.00000000000E+00  0.94041164719E+03  0.94041164720E+03  0.50400001928E-02 0. -1.
        1   -1    0    0  501    0  0.00000000000E+00  0.00000000000E+00 -0.69556517037E+03  0.69556517039E+03  0.50400001928E-02 0.  1.
    10030    2    1    2    0    0  0.00000000000E+00  0.00000000000E+00  0.24484647682E+03  0.16359768176E+04  0.16175507258E+04 0.  0.
        3    1    3    3  502    0  0.56457809966E+02 -0.69095211511E+03 -0.29887348721E+03  0.75493554774E+03  0.10100000352E+00 0.  1.
       -3    1    3    3    0  502 -0.56457809966E+02  0.69095211511E+03  0.54371996403E+03  0.88104126985E+03  0.10100000352E+00 0. -1.
</event>
<event>
 5   0  0.1375777E-03  0.1572853E+04  0.7818609E-02  0.8837401E-01
        2   -1    0    0  501    0  0.00000000000E+00  0.00000000000E+00  0.40656289107E+03  0.40656289108E+03  0.25500000920E-02 0. -1.
       -2   -1    0    0    0  501  0.00000000000E+00  0.00000000000E+00 -0.15212077939E+04  0.15212077939E+04  0.25500000920E-02 0.  1.
    10030    2    1    2    0    0  0.00000000000E+00  0.00000000000E+00 -0.11146449028E+04  0.19277706850E+04  0.15728529984E+04 0.  0.
        1    1    3    3  502    0  0.94920847937E+02  0.25757865104E+03 -0.14605789624E+04  0.14861519553E+04  0.50400001928E-02 0.  1.
       -1    1    3    3    0  502 -0.94920847937E+02 -0.25757865104E+03  0.34593405954E+03  0.44161872970E+03  0.50400001928E-02 0. -1.
</event>
<event>
 5   0  0.7302027E-04  0.1403950E+04  0.7818609E-02  0.8950964E-01
       -1   -1    0    0    0  501  0.00000000000E+00  0.00000000000E+00  0.47572207650E+03  0.47572207653E+03  0.50400001928E-02 0.  1.
        1   -1    0    0  501    0  0.00000000000E+00  0.00000000000E+00 -0.10358335698E+04  0.10358335698E+04  0.50400001928E-02 0. -1.
    10030    2    1    2    0    0  0.00000000000E+00  0.00000000000E+00 -0.56011149330E+03  0.15115556463E+04  0.14039499945E+04 0.  0.
        5    1    3    3  502    0  0.66002315553E+03  0.23262000111E+03 -0.22104444598E+03  0.73391100813E+03  0.46999998093E+01 0.  1.
       -5    1    3    3    0  502 -0.66002315553E+03 -0.23262000111E+03 -0.33906704731E+03  0.77764463821E+03  0.46999998093E+01 0. -1.
</event>
<event>
 5   0  0.1414751E-03  0.2166474E+04  0.7818609E-02  0.8532514E-01
        2   -1    0    0  501    0  0.00000000000E+00  0.00000000000E+00  0.26775879881E+04  0.26775879881E+04  0.25500000920E-02 0.  1.
       -2   -1    0    0    0  501  0.00000000000E+00  0.00000000000E+00 -0.43823094190E+03  0.43823094191E+03  0.25500000920E-02 0. -1.
    10030    2    1    2    0    0  0.00000000000E+00  0.00000000000E+00  0.22393570462E+04  0.31158189300E+04  0.21664735457E+04 0.  0.
        2    1    3    3  502    0  0.38210228484E+03 -0.24767211694E+03  0.25332588197E+04  0.25738577819E+04  0.25500000920E-02 0.  1.
       -2    1    3    3    0  502 -0.38210228484E+03  0.24767211694E+03 -0.29390177353E+03  0.54196114813E+03  0.25500000920E-02 0. -1.
</event>
<event>
 5   0  0.7124495E-04  0.1588364E+04  0.7818609E-02  0.8827728E-01
        1   -1    0    0  501    0  0.00000000000E+00  0.00000000000E+00  0.64010061393E+03  0.64010061395E+03  0.50400001928E-02 0. -1.
       -1   -1    0    0    0  501  0.00000000000E+00  0.00000000000E+00 -0.98535322253E+03  0.98535322254E+03  0.50400001928E-02 0.  1.
    10030    2    1    2    0    0  0.00000000000E+00  0.00000000000E+00 -0.34525260860E+03  0.16254538365E+04  0.15883641934E+04 0.  0.
        2    1    3    3  502    0  0.52337283742E+03 -0.94456428323E+02  0.43096338993E+03  0.68452215981E+03  0.25500000920E-02 0. -1.
       -2    1    3    3    0  502 -0.52337283742E+03  0.94456428323E+02 -0.77621599853E+03  0.94093167668E+03  0.25500000920E-02 0.  1.
</event>
<event>
 5   0  0.1354766E-03  0.1576304E+04  0.7818609E-02  0.8835239E-01
       -2   -1    0    0    0  501  0.00000000000E+00  0.00000000000E+00  0.61304032321E+03  0.61304032321E+03  0.25500000920E-02 0.  1.
        2   -1    0    0  501    0  0.00000000000E+00  0.00000000000E+00 -0.10132835543E+04  0.10132835543E+04  0.25500000920E-02 0. -1.
    10030    2    1    2    0    0  0.00000000000E+00  0.00000000000E+00 -0.40024323108E+03  0.16263238775E+04  0.15763041301E+04 0.  0.
        3    1    3    3  502    0  0.51689763376E+03 -0.14142144677E+03  0.39614510270E+03  0.66641889378E+03  0.10100000352E+00 0.  1.
       -3    1    3    3    0  502 -0.51689763376E+03  0.14142144677E+03 -0.79638833378E+03  0.95990498372E+03  0.10100000352E+00 0. -1.
</event>
<event>
 5   0  0.7633213E-04  0.1582172E+04  0.7818609E-02  0.8831576E-01
        1   -1    0    0  501    0  0.00000000000E+00  0.00000000000E+00  0.47948560145E+03  0.47948560147E+03  0.50400001928E-02 0.  1.
       -1   -1    0    0    0  501  0.00000000000E+00  0.00000000000E+00 -0.13051841195E+04  0.13051841195E+04  0.50400001928E-02 0. -1.
    10030    2    1    2    0    0  0.00000000000E+00  0.00000000000E+00 -0.82569851805E+03  0.17846697210E+04  0.15821719155E+04 0.  0.
        1    1    3    3  502    0 -0.59649326485E+03 -0.41996239120E+03 -0.75802877425E+03  0.10520362388E+04  0.50400001928E-02 0. -1.
       -1    1    3    3    0  502  0.59649326485E+03  0.41996239120E+03 -0.67669743805E+02  0.73263348223E+03  0.50400001928E-02 0.  1.
</event>
<event>
 5   0  0.1354766E-03  0.1600866E+04  0.7818609E-02  0.8820016E-01
       -2   -1    0    0    0  501  0.00000000000E+00  0.00000000000E+00  0.39174824882E+03  0.39174824883E+03  0.25500000920E-02 0.  1.
        2   -1    0    0  501    0  0.00000000000E+00  0.00000000000E+00 -0.16354710791E+04  0.16354710791E+04  0.25500000920E-02 0. -1.
    10030    2    1    2    0    0  0.00000000000E+00  0.00000000000E+00 -0.12437228303E+04  0.20272193279E+04  0.16008659297E+04 0.  0.
        3    1    3    3  502    0  0.47960482302E+03 -0.63866636222E+03 -0.55512452364E+03  0.97266579843E+03  0.10100000352E+00 0.  1.
       -3    1    3    3    0  502 -0.47960482302E+03  0.63866636222E+03 -0.68859830665E+03  0.10545535295E+04  0.10100000352E+00 0. -1.
</event>
<event>
 5   0  0.7302027E-04  0.1583530E+04  0.7818609E-02  0.8830731E-01
        1   -1    0    0  501    0  0.00000000000E+00  0.00000000000E+00  0.14547737977E+04  0.14547737977E+04  0.50400001928E-02 0.  1.
       -1   -1    0    0    0  501  0.00000000000E+00  0.00000000000E+00 -0.43092030472E+03  0.43092030475E+03  0.50400001928E-02 0. -1.
    10030    2    1    2    0    0  0.00000000000E+00  0.00000000000E+00  0.10238534930E+04  0.18856941024E+04  0.15835296880E+04 0.  0.
        5    1    3    3  502    0 -0.25797025389E+03  0.34656190506E+03 -0.27816546899E+03  0.51385982920E+03  0.46999998093E+01 0. -1.
       -5    1    3    3    0  502  0.25797025389E+03 -0.34656190506E+03  0.13020189619E+04  0.13718342732E+04  0.46999998093E+01 0.  1.
</event>
<event>
 5   0  0.7302027E-04  0.1554067E+04  0.7818609E-02  0.8849274E-01
       -1   -1    0    0    0  501  0.00000000000E+00  0.00000000000E+00  0.10541411028E+04  0.10541411028E+04  0.50400001928E-02 0. -1.
        1   -1    0    0  501    0  0.00000000000E+00  0.00000000000E+00 -0.57277042357E+03  0.57277042360E+03  0.50400001928E-02 0.  1.
    10030    2    1    2    0    0  0.00000000000E+00  0.00000000000E+00  0.48137067925E+03  0.16269115264E+04  0.15540667244E+04 0.  0.
        5    1    3    3  502    0 -0.58686571132E+03  0.35593742038E+03  0.62197728804E+03  0.92627244760E+03  0.46999998093E+01 0. -1.
       -5    1    3    3    0  502  0.58686571132E+03 -0.35593742038E+03 -0.14060660878E+03  0.70063907883E+03  0.46999998093E+01 0.  1.
</event>
<event>
 5   0  0.7499834E-04  0.1576097E+04  0.7818609E-02  0.8835369E-01
        1   -1    0    0  501    0  0.00000000000E+00  0.00000000000E+00  0.96498007471E+03  0.96498007473E+03  0.50400001928E-02 0.  1.
       -1   -1    0    0    0  501  0.00000000000E+00  0.00000000000E+00 -0.64355756721E+03  0.64355756723E+03  0.50400001928E-02 0. -1.
    10030    2    1    2    0    0  0.00000000000E+00  0.00000000000E+00  0.32142250751E+03  0.16085376420E+04  0.15760967347E+04 0.  0.
        3    1    3    3  502    0 -0.52341396660E+03  0.33193546028E+03 -0.33600652457E+03  0.70501328000E+03  0.10100000352E+00 0. -1.
       -3    1    3    3    0  502  0.52341396660E+03 -0.33193546028E+03  0.65742903208E+03  0.90352436195E+03  0.10100000352E+00 0.  1.
</event>
<event>
 5   0  0.1339162E-03  0.1584078E+04  0.7818609E-02  0.8830390E-01
        2   -1    0    0  501    0  0.00000000000E+00  0.00000000000E+00  0.14149223480E+04  0.14149223480E+04  0.25500000920E-02 0. -1.
       -2   -1    0    0    0  501  0.00000000000E+00  0.00000000000E+00 -0.44336391066E+03  0.44336391067E+03  0.25500000920E-02 0.  1.
    10030    2    1    2    0    0  0.00000000000E+00  0.00000000000E+00  0.97155843732E+03  0.18582862587E+04  0.15840776565E+04 0.  0.
        5    1    3    3  502    0 -0.18288218082E+03 -0.75108586156E+03  0.68804188166E+03  0.10348910979E+04  0.46999998093E+01 0.  1.
       -5    1    3    3    0  502  0.18288218082E+03  0.75108586156E+03  0.28351655566E+03  0.82339516080E+03  0.46999998093E+01 0. -1.
</event>
<event>
 5   0  0.1375777E-03  0.1833317E+04  0.7818609E-02  0.8688780E-01
        2   -1    0    0  501    0  0.00000000000E+00  0.00000000000E+00  0.76982462484E+03  0.76982462485E+03  0.25500000920E-02 0. -1.
       -2   -1    0    0    0  501  0.00000000000E+00  0.00000000000E+00 -0.10914989176E+04  0.10914989176E+04  0.25500000920E-02 0.  1.
    10030    2    1    2    0    0  0.00000000000E+00  0.00000000000E+00 -0.32167429274E+03  0.18613235424E+04  0.18333169336E+04 0.  0.
        1    1    3    3  502    0  0.26163843765E+03  0.61129931139E+03 -0.80144459809E+03  0.10413716743E+04  0.50400001928E-02 0.  1.
       -1    1    3    3    0  502 -0.26163843765E+03 -0.61129931139E+03  0.47977030535E+03  0.81995186815E+03  0.50400001928E-02 0. -1.
</event>
<event>
 5   0  0.1375777E-03  0.1684837E+04  0.7818609E-02  0.8770060E-01
        2   -1    0    0  501    0  0.00000000000E+00  0.00000000000E+00  0.23925405918E+04  0.23925405918E+04  0.25500000920E-02 0. -1.
       -2   -1    0    0    0  501  0.00000000000E+00  0.00000000000E+00 -0.29661716995E+03  0.29661716996E+03  0.25500000920E-02 0.  1.
    10030    2    1    2    0    0  0.00000000000E+00  0.00000000000E+00  0.20959234218E+04  0.26891577618E+04  0.16848366322E+04 0.  0.
        1    1    3    3  502    0 -0.43030216466E+02 -0.43807361732E+03  0.21943845701E+04  0.22380982408E+04  0.50400001928E-02 0.  1.
       -1    1    3    3    0  502  0.43030216466E+02  0.43807361732E+03 -0.98461148284E+02  0.45105952098E+03  0.50400001928E-02 0. -1.
</event>
<event>
 5   0  0.7124495E-04  0.1703896E+04  0.7818609E-02  0.8759145E-01
        1   -1    0    0  501    0  0.00000000000E+00  0.00000000000E+00  0.77482661036E+03  0.77482661038E+03  0.50400001928E-02 0.  1.
       -1   -1    0    0    0  501  0.00000000000E+00  0.00000000000E+00 -0.93674551809E+03  0.93674551811E+03  0.50400001928E-02 0. -1.
    10030    2    1    2    0    0  0.00000000000E+00  0.00000000000E+00 -0.16191890773E+03  0.17115721285E+04  0.17038959529E+04 0.  0.
        2    1    3    3  502    0 -0.20940212238E+03 -0.29719864877E+03  0.69299137909E+03  0.78256842332E+03  0.25500000920E-02 0.  1.
       -2    1    3    3    0  502  0.20940212238E+03  0.29719864877E+03 -0.85491028682E+03  0.92900370516E+03  0.25500000920E-02 0. -1.
</event>
<event>
 5   0  0.5095750E-04  0.1603094E+04  0.7818609E-02  0.8818650E-01
        4   -1    0    0  501    0  0.00000000000E+00  0.00000000000E+00  0.67296584079E+03  0.67296703914E+03  0.12699999809E+01 0.  1.
       -4   -1    0    0    0  501  0.00000000000E+00  0.00000000000E+00 -0.95469297948E+03  0.95469382420E+03  0.12699999809E+01 0. -1.
    10030    2    1    2    0    0  0.00000000000E+00  0.00000000000E+00 -0.28172713869E+03  0.16276608633E+04  0.16030937918E+04 0.  0.
        1    1    3    3  502    0 -0.44535081239E+03  0.66588190706E+03 -0.16850887155E+03  0.81861547754E+03  0.50400001928E-02 0. -1.
       -1    1    3    3    0  502  0.44535081239E+03 -0.66588190706E+03 -0.11321826714E+03  0.80904538580E+03  0.50400001928E-02 0.  1.
</event>
<event>
 5   0  0.1414751E-03  0.1560730E+04  0.7818609E-02  0.8845043E-01
       -2   -1    0    0    0  501  0.00000000000E+00  0.00000000000E+00  0.41844154889E+03  0.41844154890E+03  0.25500000920E-02 0. -1.
        2   -1    0    0  501    0  0.00000000000E+00  0.00000000000E+00 -0.14553270896E+04  0.14553270896E+04  0.25500000920E-02 0.  1.
    10030    2    1    2    0    0  0.00000000000E+00  0.00000000000E+00 -0.10368855407E+04  0.18737686385E+04  0.15607297287E+04 0.  0.
        2    1    3    3  502    0  0.35969613224E+03  0.69032733434E+03 -0.58459620658E+03  0.97349158231E+03  0.25500000920E-02 0.  1.
       -2    1    3    3    0  502 -0.35969613224E+03 -0.69032733434E+03 -0.45228933409E+03  0.90027705615E+03  0.25500000920E-02 0. -1.
</event>
<event>
 5   0  0.7302027E-04  0.1620123E+04  0.7818609E-02  0.8808280E-01
        1   -1    0    0  501    0  0.00000000000E+00  0.00000000000E+00  0.51918456634E+03  0.51918456636E+03  0.50400001928E-02 0.  1.
       -1   -1    0    0    0  501  0.00000000000E+00  0.00000000000E+00 -0.12639049453E+04  0.12639049453E+04  0.50400001928E-02 0. -1.
    10030    2    1    2    0    0  0.00000000000E+00  0.00000000000E+00 -0.74472037893E+03  0.17830895116E+04  0.16201233792E+04 0.  0.
        5    1    3    3  502    0 -0.62723719943E+03 -0.29877298711E+03  0.86053242306E+02  0.70008503247E+03  0.46999998093E+01 0. -1.
       -5    1    3    3    0  502  0.62723719943E+03  0.29877298711E+03 -0.83077362124E+03  0.10830044792E+04  0.46999998093E+01 0.  1.
</event>
<event>
 5   0  0.7601145E-04  0.1606189E+04  0.7818609E-02  0.8816755E-01
       -1   -1    0    0    0  501  0.00000000000E+00  0.00000000000E+00  0.47266958545E+03  0.47266958548E+03  0.50400001928E-02 0.  1.
        1   -1    0    0  501    0  0.00000000000E+00  0.00000000000E+00 -0.13645061135E+04  0.13645061135E+04  0.50400001928E-02 0. -1.
    10030    2    1    2    0    0  0.00000000000E+00  0.00000000000E+00 -0.89183652804E+03  0.18371756990E+04  0.16061887050E+04 0.  0.
        4    1    3    3  502    0 -0.96331276757E+02  0.52737530375E+03  0.23803314553E+03  0.58657123792E+03  0.12699999809E+01 0.  1.
       -4    1    3    3    0  502  0.96331276757E+02 -0.52737530375E+03 -0.11298696736E+04  0.12506044611E+04  0.12699999809E+01 0. -1.
</event>
<event>
 5   0  0.7499834E-04  0.1623582E+04  0.7818609E-02  0.8806190E-01
        1   -1    0    0  501    0  0.00000000000E+00  0.00000000000E+00  0.13077342715E+04  0.13077342715E+04  0.50400001928E-02 0.  1.
       -1   -1    0    0    0  501  0.00000000000E+00  0.00000000000E+00 -0.50392869644E+03  0.50392869646E+03  0.50400001928E-02 0. -1.
    10030    2    1    2    0    0  0.00000000000E+00  0.00000000000E+00  0.80380557508E+03  0.18116629680E+04  0.16235822452E+04 0.  0.
        3    1    3    3  502    0 -0.52400221331E+03 -0.31554609292E+01 -0.28993478862E+03  0.59887433435E+03  0.10100000352E+00 0. -1.
       -3    1    3    3    0  502  0.52400221331E+03  0.31554609292E+01  0.10937403637E+04  0.12127886336E+04  0.10100000352E+00 0.  1.
</event>
<event>
 5   0  0.7302027E-04  0.1468528E+04  0.7818609E-02  0.8905656E-01
       -1   -1    0    0    0  501  0.00000000000E+00  0.00000000000E+00  0.96001518287E+03  0.96001518289E+03  0.50400001928E-02 0.  1.
        1   -1    0    0  501    0  0.00000000000E+00  0.00000000000E+00 -0.56159879176E+03  0.56159879178E+03  0.50400001928E-02 0. -1.
    10030    2    1    2    0    0  0.00000000000E+00  0.00000000000E+00  0.39841639111E+03  0.15216139747E+04  0.14685276529E+04 0.  0.
        5    1    3    3  502    0  0.41213006269E+03  0.12065883160E+03 -0.41789815396E+03  0.59922508233E+03  0.46999998093E+01 0. -1.
       -5    1    3    3    0  502 -0.41213006269E+03 -0.12065883160E+03  0.81631454507E+03  0.92238889234E+03  0.46999998093E+01 0.  1.
</event>
<event>
 5   0  0.1414751E-03  0.1628180E+04  0.7818609E-02  0.8803421E-01
       -2   -1    0    0    0  501  0.00000000000E+00  0.00000000000E+00  0.82701443153E+03  0.82701443153E+03  0.25500000920E-02 0.  1.
        2   -1    0    0  501    0  0.00000000000E+00  0.00000000000E+00 -0.80136762529E+03  0.80136762530E+03  0.25500000920E-02 0. -1.
    10030    2    1    2    0    0  0.00000000000E+00  0.00000000000E+00  0.25646806232E+02  0.16283820568E+04  0.16281800774E+04 0.  0.
        2    1    3    3  502    0  0.36127849261E+03  0.65124254510E+03 -0.31600848701E+03  0.80901196879E+03  0.25500000920E-02 0. -1.
       -2    1    3    3    0  502 -0.36127849261E+03 -0.65124254510E+03  0.34165529325E+03  0.81937008804E+03  0.25500000920E-02 0.  1.
</event>
<event>
 5   0  0.1414751E-03  0.1607922E+04  0.7818609E-02  0.8815696E-01
       -2   -1    0    0    0  501  0.00000000000E+00  0.00000000000E+00  0.21501577968E+03  0.21501577969E+03  0.25500000920E-02 0.  1.
        2   -1    0    0  501    0  0.00000000000E+00  0.00000000000E+00 -0.30060740621E+04  0.30060740621E+04  0.25500000920E-02 0. -1.
    10030    2    1    2    0    0  0.00000000000E+00  0.00000000000E+00 -0.27910582824E+04  0.32210898418E+04  0.16079220855E+04 0.  0.
        2    1    3    3  502    0  0.40451023516E+03  0.56801769791E+03 -0.59402207412E+03  0.91604304486E+03  0.25500000920E-02 0.  1.
       -2    1    3    3    0  502 -0.40451023516E+03 -0.56801769791E+03 -0.21970362083E+04  0.23050467969E+04  0.25500000920E-02 0. -1.
</event>
<event>
 5   0  0.7601145E-04  0.1065029E+04  0.7818609E-02  0.9239964E-01
       -1   -1    0    0    0  501  0.00000000000E+00  0.00000000000E+00  0.36937531283E+03  0.36937531286E+03  0.50400001928E-02 0.  1.
        1   -1    0    0  501    0  0.00000000000E+00  0.00000000000E+00 -0.76770595028E+03  0.76770595030E+03  0.50400001928E-02 0. -1.
    10030    2    1    2    0    0  0.00000000000E+00  0.00000000000E+00 -0.39833063745E+03  0.11370812632E+04  0.10650288739E+04 0.  0.
        4    1    3    3  502    0  0.40167356165E+03  0.23293234354E+03  0.79184912442E+02  0.47103183550E+03  0.12699999809E+01 0.  1.
       -4    1    3    3    0  502 -0.40167356165E+03 -0.23293234354E+03 -0.47751554990E+03  0.66604942766E+03  0.12699999809E+01 0. -1.
</event>
<event>
 5   0  0.7633213E-04  0.1617794E+04  0.7818609E-02  0.8809691E-01
        1   -1    0    0  501    0  0.00000000000E+00  0.00000000000E+00  0.12939120514E+04  0.12939120514E+04  0.50400001928E-02 0. -1.
       -1   -1    0    0    0  501  0.00000000000E+00  0.00000000000E+00 -0.50568672443E+03  0.50568672445E+03  0.50400001928E-02 0.  1.
    10030    2    1    2    0    0  0.00000000000E+00  0.00000000000E+00  0.78822532692E+03  0.17995987758E+04  0.16177937408E+04 0.  0.
        1    1    3    3  502    0  0.35832607738E+03 -0.47935716976E+03 -0.21122283328E+03  0.63466208273E+03  0.50400001928E-02 0.  1.
       -1    1    3    3    0  502 -0.35832607738E+03  0.47935716976E+03  0.99944816020E+03  0.11649366931E+04  0.50400001928E-02 0. -1.
</event>
<event>
 5   0  0.7633213E-04  0.1577546E+04  0.7818609E-02  0.8834462E-01
        1   -1    0    0  501    0  0.00000000000E+00  0.00000000000E+00  0.14740102812E+04  0.14740102813E+04  0.50400001928E-02 0.  1.
       -1   -1    0    0    0  501  0.00000000000E+00  0.00000000000E+00 -0.42208847052E+03  0.42208847055E+03  0.50400001928E-02 0. -1.
    10030    2    1    2    0    0  0.00000000000E+00  0.00000000000E+00  0.10519218107E+04  0.18960987518E+04  0.15775458728E+04 0.  0.
        1    1    3    3  502    0 -0.14929231734E+03  0.24297590808E+03 -0.35795766145E+03  0.45766710101E+03  0.50400001928E-02 0. -1.
       -1    1    3    3    0  502  0.14929231734E+03 -0.24297590808E+03  0.14098794722E+04  0.14384316508E+04  0.50400001928E-02 0.  1.
</event>
<event>
 5   0  0.7302027E-04  0.1571184E+04  0.7818609E-02  0.8838449E-01
        1   -1    0    0  501    0  0.00000000000E+00  0.00000000000E+00  0.10473608132E+04  0.10473608132E+04  0.50400001928E-02 0.  1.
       -1   -1    0    0    0  501  0.00000000000E+00  0.00000000000E+00 -0.58924777394E+03  0.58924777396E+03  0.50400001928E-02 0. -1.
    10030    2    1    2    0    0  0.00000000000E+00  0.00000000000E+00  0.45811303929E+03  0.16366085872E+04  0.15711843020E+04 0.  0.
        5    1    3    3  502    0 -0.56935556064E+03 -0.54055050549E+03  0.20010839980E+03  0.81020124974E+03  0.46999998093E+01 0. -1.
       -5    1    3    3    0  502  0.56935556064E+03  0.54055050549E+03  0.25800463949E+03  0.82640733746E+03  0.46999998093E+01 0.  1.
</event>
<event>
 5   0  0.1375777E-03  0.1584342E+04  0.7818609E-02  0.8830226E-01
        2   -1    0    0  501    0  0.00000000000E+00  0.00000000000E+00  0.16286513162E+04  0.16286513162E+04  0.25500000920E-02 0. -1.
       -2   -1    0    0    0  501  0.00000000000E+00  0.00000000000E+00 -0.38530941311E+03  0.38530941312E+03  0.25500000920E-02 0.  1.
    10030    2    1    2    0    0  0.00000000000E+00  0.00000000000E+00  0.12433419031E+04  0.20139607293E+04  0.15843417344E+04 0.  0.
        1    1    3    3  502    0 -0.69127912728E+03 -0.63330181771E+02  0.13652990228E+03  0.70747293799E+03  0.50400001928E-02 0.  1.
       -1    1    3    3    0  502  0.69127912728E+03  0.63330181771E+02  0.11068120008E+04  0.13064877913E+04  0.50400001928E-02 0. -1.
</event>
<event>
 5   0  0.1354766E-03  0.1580664E+04  0.7818609E-02  0.8832516E-01
        2   -1    0    0  501    0  0.00000000000E+00  0.00000000000E+00  0.12165050848E+04  0.12165050848E+04  0.25500000920E-02 0. -1.
       -2   -1    0    0    0  501  0.00000000000E+00  0.00000000000E+00 -0.51345825104E+03  0.51345825104E+03  0.25500000920E-02 0.  1.
    10030    2    1    2    0    0  0.00000000000E+00  0.00000000000E+00  0.70304683376E+03  0.17299633358E+04  0.15806638773E+04 0.  0.
        3    1    3    3  502    0 -0.30850700867E+03 -0.93191602761E+02 -0.43827736873E+03  0.54401131548E+03  0.10100000352E+00 0.  1.
       -3    1    3    3    0  502  0.30850700867E+03  0.93191602761E+02  0.11413242025E+04  0.11859520204E+04  0.10100000352E+00 0. -1.
</event>
<event>
 5   0  0.1375777E-03  0.1535697E+04  0.7818609E-02  0.8861056E-01
       -2   -1    0    0    0  501  0.00000000000E+00  0.00000000000E+00  0.49443266990E+03  0.49443266990E+03  0.25500000920E-02 0. -1.
        2   -1    0    0  501    0  0.00000000000E+00  0.00000000000E+00 -0.11924608981E+04  0.11924608981E+04  0.25500000920E-02 0.  1.
    10030    2    1    2    0    0  0.00000000000E+00  0.00000000000E+00 -0.69802822819E+03  0.16868935680E+04  0.15356973994E+04 0.  0.
        1    1    3    3  502    0  0.52870152309E+03 -0.28634182810E+03  0.17557656888E+03  0.62637374993E+03  0.50400001928E-02 0. -1.
       -1    1    3    3    0  502 -0.52870152309E+03  0.28634182810E+03 -0.87360479707E+03  0.10605198181E+04  0.50400001928E-02 0.  1.
</event>
<event>
 5   0  0.1354766E-03  0.1721532E+04  0.7818609E-02  0.8749178E-01
       -2   -1    0    0    0  501  0.00000000000E+00  0.00000000000E+00  0.51740694448E+03  0.51740694448E+03  0.25500000920E-02 0. -1.
        2   -1    0    0  501    0  0.00000000000E+00  0.00000000000E+00 -0.14319826851E+04  0.14319826851E+04  0.25500000920E-02 0.  1.
    10030    2    1    2    0    0  0.00000000000E+00  0.00000000000E+00 -0.91457574061E+03  0.19493896296E+04  0.17215316270E+04 0.  0.
        3    1    3    3  502    0  0.41255654606E+03  0.65477247135E+03 -0.30600992495E+02  0.77451037687E+03  0.10100000352E+00 0. -1.
       -3    1    3    3    0  502 -0.41255654606E+03 -0.65477247135E+03 -0.88397474812E+03  0.11748792527E+04  0.10100000352E+00 0.  1.
</event>
<event>
 5   0  0.1339162E-03  0.1582886E+04  0.7818609E-02  0.8831131E-01
       -2   -1    0    0    0  501  0.00000000000E+00  0.00000000000E+00  0.69481781587E+03  0.69481781587E+03  0.25500000920E-02 0. -1.
        2   -1    0    0  501    0  0.00000000000E+00  0.00000000000E+00 -0.90150534066E+03  0.90150534067E+03  0.25500000920E-02 0.  1.
    10030    2    1    2    0    0  0.00000000000E+00  0.00000000000E+00 -0.20668752479E+03  0.15963231565E+04  0.15828859363E+04 0.  0.
        5    1    3    3  502    0  0.40202931224E+03  0.36638080877E+03 -0.68311307985E+03  0.87322851236E+03  0.46999998093E+01 0.  1.
       -5    1    3    3    0  502 -0.40202931224E+03 -0.36638080877E+03  0.47642555506E+03  0.72309464418E+03  0.46999998093E+01 0. -1.
</event>
<event>
 5   0  0.5095750E-04  0.1631279E+04  0.7818609E-02  0.8801559E-01
        4   -1    0    0  501    0  0.00000000000E+00  0.00000000000E+00  0.67002218810E+03  0.67002339171E+03  0.12699999809E+01 0.  1.
       -4   -1    0    0    0  501  0.00000000000E+00  0.00000000000E+00 -0.99290199577E+03  0.99290280798E+03  0.12699999809E+01 0. -1.
    10030    2    1    2    0    0  0.00000000000E+00  0.00000000000E+00 -0.32287980767E+03  0.16629261997E+04  0.16312793064E+04 0.  0.
        1    1    3    3  502    0  0.18657266289E+03 -0.58524935261E+03  0.38557236499E+03  0.72525320540E+03  0.50400001928E-02 0.  1.
       -1    1    3    3    0  502 -0.18657266289E+03  0.58524935261E+03 -0.70845217266E+03  0.93767299430E+03  0.50400001928E-02 0. -1.
</event>
<event>
 5   0  0.7499834E-04  0.1663099E+04  0.7818609E-02  0.8782694E-01
        1   -1    0    0  501    0  0.00000000000E+00  0.00000000000E+00  0.93611577772E+03  0.93611577773E+03  0.50400001928E-02 0.  1.
       -1   -1    0    0    0  501  0.00000000000E+00  0.00000000000E+00 -0.73866393263E+03  0.73866393265E+03  0.50400001928E-02 0. -1.
    10030    2    1    2    0    0  0.00000000000E+00  0.00000000000E+00  0.19745184508E+03  0.16747797104E+04  0.16630994700E+04 0.  0.
        3    1    3    3  502    0  0.34276383088E+03  0.74695923835E+03 -0.28811899210E+02  0.82235350261E+03  0.10100000352E+00 0. -1.
       -3    1    3    3    0  502 -0.34276383088E+03 -0.74695923835E+03  0.22626374429E+03  0.85242620777E+03  0.10100000352E+00 0.  1.
</event>
<event>
 5   0  0.1375777E-03  0.1562754E+04  0.7818609E-02  0.8843762E-01
        2   -1    0    0  501    0  0.00000000000E+00  0.00000000000E+00  0.85717835539E+03  0.85717835539E+03  0.25500000920E-02 0.  1.
       -2   -1    0    0    0  501  0.00000000000E+00  0.00000000000E+00 -0.71227878811E+03  0.71227878811E+03  0.25500000920E-02 0. -1.
    10030    2    1    2    0    0  0.00000000000E+00  0.00000000000E+00  0.14489956728E+03  0.15694571435E+04  0.15627539284E+04 0.  0.
        1    1    3    3  502    0 -0.26369238422E+03  0.39527270029E+03 -0.55051389309E+03  0.72721367397E+03  0.50400001928E-02 0. -1.
       -1    1    3    3    0  502  0.26369238422E+03 -0.39527270029E+03  0.69541346037E+03  0.84224346954E+03  0.50400001928E-02 0.  1.
</event>
<event>
 5   0  0.7499834E-04  0.1556676E+04  0.7818609E-02  0.8847615E-01
        1   -1    0    0  501    0  0.00000000000E+00  0.00000000000E+00  0.12441481531E+04  0.12441481531E+04  0.50400001928E-02 0. -1.
       -1   -1    0    0    0  501  0.00000000000E+00  0.00000000000E+00 -0.48692731631E+03  0.48692731634E+03  0.50400001928E-02 0.  1.
    10030    2    1    2    0    0  0.00000000000E+00  0.00000000000E+00  0.75722083681E+03  0.17310754695E+04  0.15566755877E+04 0.  0.
        3    1    3    3  502    0 -0.66158043506E+03  0.73965214999E+02  0.82709257587E+03  0.10617163766E+04  0.10100000352E+00 0. -1.
       -3    1    3    3    0  502  0.66158043506E+03 -0.73965214999E+02 -0.69871739059E+02  0.66935909287E+03  0.10100000352E+00 0.  1.
</event>
<event>
 5   0  0.7124495E-04  0.1598128E+04  0.7818609E-02  0.8821699E-01
       -1   -1    0    0    0  501  0.00000000000E+00  0.00000000000E+00  0.26104314777E+03  0.26104314782E+03  0.50400001928E-02 0.  1.
        1   -1    0    0  501    0  0.00000000000E+00  0.00000000000E+00 -0.24459678935E+04  0.24459678935E+04  0.50400001928E-02 0. -1.
    10030    2    1    2    0    0  0.00000000000E+00  0.00000000000E+00 -0.21849247457E+04  0.27070110413E+04  0.15981278526E+04 0.  0.
        2    1    3    3  502    0  0.38167853227E+03  0.13371608549E+03 -0.22598094852E+04  0.22957128311E+04  0.25500000920E-02 0. -1.
       -2    1    3    3    0  502 -0.38167853227E+03 -0.13371608549E+03  0.74884739467E+02  0.41129821021E+03  0.25500000920E-02 0.  1.
</event>
<event>
 5   0  0.7601145E-04  0.1661306E+04  0.7818609E-02  0.8783746E-01
        1   -1    0    0  501    0  0.00000000000E+00  0.00000000000E+00  0.12270691600E+04  0.12270691600E+04  0.50400001928E-02 0.  1.
       -1   -1    0    0    0  501  0.00000000000E+00  0.00000000000E+00 -0.56230252610E+03  0.56230252613E+03  0.50400001928E-02 0. -1.
    10030    2    1    2    0    0  0.00000000000E+00  0.00000000000E+00  0.66476663393E+03  0.17893716862E+04  0.16613056172E+04 0.  0.
        4    1    3    3  502    0 -0.62113982946E+03 -0.27953351151E+03  0.84445754719E+03  0.10849257273E+04  0.12699999809E+01 0.  1.
       -4    1    3    3    0  502  0.62113982946E+03  0.27953351151E+03 -0.17969091326E+03  0.70444595890E+03  0.12699999809E+01 0. -1.
</event>
<event>
 5   0  0.1414796E-03  0.1646630E+04  0.7818609E-02  0.8792403E-01
        2   -1    0    0  501    0  0.00000000000E+00  0.00000000000E+00  0.10145443642E+04  0.10145443642E+04  0.25500000920E-02 0. -1.
       -2   -1    0    0    0  501  0.00000000000E+00  0.00000000000E+00 -0.66812986189E+03  0.66812986189E+03  0.25500000920E-02 0.  1.
    10030    2    1    2    0    0  0.00000000000E+00  0.00000000000E+00  0.34641450228E+03  0.16826742261E+04  0.16466297531E+04 0.  0.
        4    1    3    3  502    0  0.28858407552E+03  0.59004490849E+03 -0.33405789131E+03  0.73690572689E+03  0.12699999809E+01 0.  1.
       -4    1    3    3    0  502 -0.28858407552E+03 -0.59004490849E+03  0.68047239358E+03  0.94576849916E+03  0.12699999809E+01 0. -1.
</event>
<event>
 5   0  0.5095750E-04  0.1607639E+04  0.7818609E-02  0.8815869E-01
       -3   -1    0    0    0  501  0.00000000000E+00  0.00000000000E+00  0.49552690625E+03  0.49552691654E+03  0.10100000352E+00 0. -1.
        3   -1    0    0  501    0  0.00000000000E+00  0.00000000000E+00 -0.13039160042E+04  0.13039160081E+04  0.10100000352E+00 0.  1.
    10030    2    1    2    0    0  0.00000000000E+00  0.00000000000E+00 -0.80838909792E+03  0.17994429246E+04  0.16076386116E+04 0.  0.
        2    1    3    3  502    0  0.61190667690E+02 -0.80012819190E+03 -0.45640826291E+03  0.92317816469E+03  0.25500000920E-02 0.  1.
       -2    1    3    3    0  502 -0.61190667690E+02  0.80012819190E+03 -0.35198083501E+03  0.87626475994E+03  0.25500000920E-02 0. -1.
</event>
<event>
 5   0  0.7302027E-04  0.1557234E+04  0.7818609E-02  0.8847261E-01
       -1   -1    0    0    0  501  0.00000000000E+00  0.00000000000E+00  0.46446397602E+03  0.46446397605E+03  0.50400001928E-02 0.  1.
        1   -1    0    0  501    0  0.00000000000E+00  0.00000000000E+00 -0.13052554519E+04  0.13052554519E+04  0.50400001928E-02 0. -1.
    10030    2    1    2    0    0  0.00000000000E+00  0.00000000000E+00 -0.84079147586E+03  0.17697194279E+04  0.15572336202E+04 0.  0.
        5    1    3    3  502    0  0.32394055012E+03  0.14459621972E+03 -0.12080606945E+04  0.12590783448E+04  0.46999998093E+01 0. -1.
       -5    1    3    3    0  502 -0.32394055012E+03 -0.14459621972E+03  0.36726921867E+03  0.51064108310E+03  0.46999998093E+01 0.  1.
</event>
<event>
 5   0  0.7302027E-04  0.1660130E+04  0.7818609E-02  0.8784436E-01
       -1   -1    0    0    0  501  0.00000000000E+00  0.00000000000E+00  0.60717300723E+03  0.60717300725E+03  0.50400001928E-02 0. -1.
        1   -1    0    0  501    0  0.00000000000E+00  0.00000000000E+00 -0.11347802292E+04  0.11347802292E+04  0.50400001928E-02 0.  1.
    10030    2    1    2    0    0  0.00000000000E+00  0.00000000000E+00 -0.52760722198E+03  0.17419532365E+04  0.16601300242E+04 0.  0.
        5    1    3    3  502    0  0.30106077601E+03 -0.55991151556E+03 -0.82381965671E+03  0.10405957010E+04  0.46999998093E+01 0. -1.
       -5    1    3    3    0  502 -0.30106077601E+03  0.55991151556E+03  0.29621243473E+03  0.70135753550E+03  0.46999998093E+01 0.  1.
</event>
<event>
 5   0  0.1339162E-03  0.1568961E+04  0.7818609E-02  0.8839847E-01
        2   -1    0    0  501    0  0.00000000000E+00  0.00000000000E+00  0.21043992421E+04  0.21043992421E+04  0.25500000920E-02 0. -1.
       -2   -1    0    0    0  501  0.00000000000E+00  0.00000000000E+00 -0.29243966624E+03  0.29243966625E+03  0.25500000920E-02 0.  1.
    10030    2    1    2    0    0  0.00000000000E+00  0.00000000000E+00  0.18119595759E+04  0.23968389084E+04  0.15689612003E+04 0.  0.
        5    1    3    3  502    0  0.27601181297E+03  0.28227582094E+03  0.19415546024E+04  0.19812921350E+04  0.46999998093E+01 0. -1.
       -5    1    3    3    0  502 -0.27601181297E+03 -0.28227582094E+03 -0.12959502653E+03  0.41554677340E+03  0.46999998093E+01 0.  1.
</event>
<event>
 5   0  0.1375777E-03  0.1599401E+04  0.7818609E-02  0.8820916E-01
        2   -1    0    0  501    0  0.00000000000E+00  0.00000000000E+00  0.64487778340E+03  0.64487778341E+03  0.25500000920E-02 0. -1.
       -2   -1    0    0    0  501  0.00000000000E+00  0.00000000000E+00 -0.99169282722E+03  0.99169282723E+03  0.25500000920E-02 0.  1.
    10030    2    1    2    0    0  0.00000000000E+00  0.00000000000E+00 -0.34681504382E+03  0.16365706106E+04  0.15994007281E+04 0.  0.
        1    1    3    3  502    0 -0.15417602980E+03 -0.44389367800E+03  0.48870761505E+03  0.67797269751E+03  0.50400001928E-02 0. -1.
       -1    1    3    3    0  502  0.15417602980E+03  0.44389367800E+03 -0.83552265887E+03  0.95859791312E+03  0.50400001928E-02 0.  1.
</event>
<event>
 5   0  0.7124495E-04  0.1563744E+04  0.7818609E-02  0.8843136E-01
        1   -1    0    0  501    0  0.00000000000E+00  0.00000000000E+00  0.11535605586E+04  0.11535605586E+04  0.50400001928E-02 0.  1.
       -1   -1    0    0    0  501  0.00000000000E+00  0.00000000000E+00 -0.52994497384E+03  0.52994497386E+03  0.50400001928E-02 0. -1.
    10030    2    1    2    0    0  0.00000000000E+00  0.00000000000E+00  0.62361558473E+03  0.16835055324E+04  0.15637437387E+04 0.  0.
        2    1    3    3  502    0  0.37628585524E+03  0.68277228608E+03  0.37599421102E+03  0.86552913656E+03  0.25500000920E-02 0.  1.
       -2    1    3    3    0  502 -0.37628585524E+03 -0.68277228608E+03  0.24762137371E+03  0.81797639588E+03  0.25500000920E-02 0. -1.
</event>
<event>
 5   0  0.5095750E-04  0.8854275E+03  0.7818609E-02  0.9443983E-01
        4   -1    0    0  501    0  0.00000000000E+00  0.00000000000E+00  0.21859542844E+03  0.21859911764E+03  0.12699999809E+01 0.  1.
       -4   -1    0    0    0  501  0.00000000000E+00  0.00000000000E+00 -0.89660110421E+03  0.89660200367E+03  0.12699999809E+01 0. -1.
    10030    2    1    2    0    0  0.00000000000E+00  0.00000000000E+00 -0.67800567578E+03  0.11152011213E+04  0.88542749256E+03 0.  0.
        4    1    3    3  502    0 -0.17438131703E+03 -0.32049047347E+03 -0.23193549956E+02  0.36559887989E+03  0.12699999809E+01 0.  1.
       -4    1    3    3    0  502  0.17438131703E+03  0.32049047347E+03 -0.65481212582E+03  0.74960224142E+03  0.12699999809E+01 0. -1.
</event>
<event>
 5   0  0.1375777E-03  0.1582745E+04  0.7818609E-02  0.8831219E-01
        2   -1    0    0  501    0  0.00000000000E+00  0.00000000000E+00  0.61285700561E+03  0.61285700562E+03  0.25500000920E-02 0. -1.
       -2   -1    0    0    0  501  0.00000000000E+00  0.00000000000E+00 -0.10218872918E+04  0.10218872918E+04  0.25500000920E-02 0.  1.
    10030    2    1    2    0    0  0.00000000000E+00  0.00000000000E+00 -0.40903028617E+03  0.16347442974E+04  0.15827454447E+04 0.  0.
        1    1    3    3  502    0 -0.75737009917E+03  0.18423664198E+03 -0.63205906880E+02  0.78201508557E+03  0.50400001928E-02 0. -1.
       -1    1    3    3    0  502  0.75737009917E+03 -0.18423664198E+03 -0.34582437929E+03  0.85272921183E+03  0.50400001928E-02 0.  1.
</event>
<event>
 5   0  0.1375777E-03  0.1661333E+04  0.7818609E-02  0.8783730E-01
        2   -1    0    0  501    0  0.00000000000E+00  0.00000000000E+00  0.65235916598E+03  0.65235916599E+03  0.25500000920E-02 0.  1.
       -2   -1    0    0    0  501  0.00000000000E+00  0.00000000000E+00 -0.10577098709E+04  0.10577098709E+04  0.25500000920E-02 0. -1.
    10030    2    1    2    0    0  0.00000000000E+00  0.00000000000E+00 -0.40535070487E+03  0.17100690368E+04  0.16613328736E+04 0.  0.
        1    1    3    3  502    0 -0.44453226382E+03 -0.67711777646E+03 -0.13128543847E+02  0.81010479289E+03  0.50400001928E-02 0. -1.
       -1    1    3    3    0  502  0.44453226382E+03  0.67711777646E+03 -0.39222216103E+03  0.89996424396E+03  0.50400001928E-02 0.  1.
</event>
<event>
 5   0  0.1354766E-03  0.1604409E+04  0.7818609E-02  0.8817844E-01
       -2   -1    0    0    0  501  0.00000000000E+00  0.00000000000E+00  0.28885805057E+03  0.28885805059E+03  0.25500000920E-02 0. -1.
        2   -1    0    0  501    0  0.00000000000E+00  0.00000000000E+00 -0.22278496096E+04  0.22278496096E+04  0.25500000920E-02 0.  1.
    10030    2    1    2    0    0  0.00000000000E+00  0.00000000000E+00 -0.19389915590E+04  0.25167076602E+04  0.16044092934E+04 0.  0.
        3    1    3    3  502    0  0.34735088585E+03  0.61126351373E+03 -0.15754714984E+04  0.17252264123E+04  0.10100000352E+00 0.  1.
       -3    1    3    3    0  502 -0.34735088585E+03 -0.61126351373E+03 -0.36352006062E+03  0.79148124791E+03  0.10100000352E+00 0. -1.
</event>
<event>
 5   0  0.7601145E-04  0.1577496E+04  0.7818609E-02  0.8834493E-01
        1   -1    0    0  501    0  0.00000000000E+00  0.00000000000E+00  0.13155500405E+04  0.13155500405E+04  0.50400001928E-02 0.  1.
       -1   -1    0    0    0  501  0.00000000000E+00  0.00000000000E+00 -0.47290012875E+03  0.47290012877E+03  0.50400001928E-02 0. -1.
    10030    2    1    2    0    0  0.00000000000E+00  0.00000000000E+00  0.84264991172E+03  0.17884501692E+04  0.15774964768E+04 0.  0.
        4    1    3    3  502    0 -0.74198225670E+03  0.11665805205E+03  0.14834527353E+03  0.76560740817E+03  0.12699999809E+01 0. -1.
       -4    1    3    3    0  502  0.74198225670E+03 -0.11665805205E+03  0.69430463818E+03  0.10228427611E+04  0.12699999809E+01 0.  1.
</event>
<event>
 5   0  0.7601145E-04  0.1605684E+04  0.7818609E-02  0.8817063E-01
       -1   -1    0    0    0  501  0.00000000000E+00  0.00000000000E+00  0.11396729730E+04  0.11396729730E+04  0.50400001928E-02 0. -1.
        1   -1    0    0  501    0  0.00000000000E+00  0.00000000000E+00 -0.56556184616E+03  0.56556184618E+03  0.50400001928E-02 0.  1.
    10030    2    1    2    0    0  0.00000000000E+00  0.00000000000E+00  0.57411112682E+03  0.17052348192E+04  0.16056843409E+04 0.  0.
        4    1    3    3  502    0  0.21975418642E+03  0.36373117942E+03 -0.43632205730E+03  0.60907374259E+03  0.12699999809E+01 0.  1.
       -4    1    3    3    0  502 -0.21975418642E+03 -0.36373117942E+03  0.10104331841E+04  0.10961610766E+04  0.12699999809E+01 0. -1.
</event>
<event>
 5   0  0.7633213E-04  0.1608947E+04  0.7818609E-02  0.8815070E-01
        1   -1    0    0  501    0  0.00000000000E+00  0.00000000000E+00  0.75923960989E+03  0.75923960991E+03  0.50400001928E-02 0.  1.
       -1   -1    0    0    0  501  0.00000000000E+00  0.00000000000E+00 -0.85240221883E+03  0.85240221885E+03  0.50400001928E-02 0. -1.
    10030    2    1    2    0    0  0.00000000000E+00  0.00000000000E+00 -0.93162608939E+02  0.16116418288E+04  0.16089468955E+04 0.  0.
        1    1    3    3  502    0  0.19067403367E+03 -0.20668696029E+03 -0.80156881285E+03  0.84946374168E+03  0.50400001928E-02 0. -1.
       -1    1    3    3    0  502 -0.19067403367E+03  0.20668696029E+03  0.70840620391E+03  0.76217808708E+03  0.50400001928E-02 0.  1.
</event>
<event>
 5   0  0.1339162E-03  0.1546896E+04  0.7818609E-02  0.8853853E-01
        2   -1    0    0  501    0  0.00000000000E+00  0.00000000000E+00  0.12958582475E+04  0.12958582475E+04  0.25500000920E-02 0. -1.
       -2   -1    0    0    0  501  0.00000000000E+00  0.00000000000E+00 -0.46164136865E+03  0.46164136866E+03  0.25500000920E-02 0.  1.
    10030    2    1    2    0    0  0.00000000000E+00  0.00000000000E+00  0.83421687888E+03  0.17574996162E+04  0.15468959564E+04 0.  0.
        5    1    3    3  502    0  0.48078681366E+03  0.58367822000E+03  0.23263436471E+03  0.79118712220E+03  0.46999998093E+01 0.  1.
       -5    1    3    3    0  502 -0.48078681366E+03 -0.58367822000E+03  0.60158251418E+03  0.96631249400E+03  0.46999998093E+01 0. -1.
</event>
<event>
 5   0  0.7499834E-04  0.1597234E+04  0.7818609E-02  0.8822249E-01
        1   -1    0    0  501    0  0.00000000000E+00  0.00000000000E+00  0.16178905784E+04  0.16178905784E+04  0.50400001928E-02 0.  1.
       -1   -1    0    0    0  501  0.00000000000E+00  0.00000000000E+00 -0.39421007653E+03  0.39421007656E+03  0.50400001928E-02 0. -1.
    10030    2    1    2    0    0  0.00000000000E+00  0.00000000000E+00  0.12236805019E+04  0.20121006550E+04  0.15972335694E+04 0.  0.
        3    1    3    3  502    0 -0.35010301496E+03  0.25155403154E+03 -0.23503671685E+03  0.49101305516E+03  0.10100000352E+00 0. -1.
       -3    1    3    3    0  502  0.35010301496E+03 -0.25155403154E+03  0.14587172187E+04  0.15210875998E+04  0.10100000352E+00 0.  1.
</event>
<event>
 5   0  0.1339162E-03  0.1595541E+04  0.7818609E-02  0.8823292E-01
       -2   -1    0    0    0  501  0.00000000000E+00  0.00000000000E+00  0.75800373054E+03  0.75800373054E+03  0.25500000920E-02 0.  1.
        2   -1    0    0  501    0  0.00000000000E+00  0.00000000000E+00 -0.83962395228E+03  0.83962395229E+03  0.25500000920E-02 0. -1.
    10030    2    1    2    0    0  0.00000000000E+00  0.00000000000E+00 -0.81620221744E+02  0.15976276828E+04  0.15955413979E+04 0.  0.
        5    1    3    3  502    0  0.16185621337E+03  0.68438401844E+03  0.33629497584E+03  0.77954815071E+03  0.46999998093E+01 0.  1.
       -5    1    3    3    0  502 -0.16185621337E+03 -0.68438401844E+03 -0.41791519759E+03  0.81807953212E+03  0.46999998093E+01 0. -1.
</event>
<event>
 5   0  0.1375777E-03  0.1631575E+04  0.7818609E-02  0.8801382E-01
       -2   -1    0    0    0  501  0.00000000000E+00  0.00000000000E+00  0.13491133427E+04  0.13491133427E+04  0.25500000920E-02 0.  1.
        2   -1    0    0  501    0  0.00000000000E+00  0.00000000000E+00 -0.49329396533E+03  0.49329396534E+03  0.25500000920E-02 0. -1.
    10030    2    1    2    0    0  0.00000000000E+00  0.00000000000E+00  0.85581937739E+03  0.18424073081E+04  0.16315752763E+04 0.  0.
        1    1    3    3  502    0 -0.37428582182E+03 -0.37494688071E+03 -0.27260217117E+03  0.59580784110E+03  0.50400001928E-02 0. -1.
       -1    1    3    3    0  502  0.37428582182E+03  0.37494688071E+03  0.11284215486E+04  0.12465994670E+04  0.50400001928E-02 0.  1.
</event>
<event>
 5   0  0.1375777E-03  0.1617377E+04  0.7818609E-02  0.8809943E-01
        2   -1    0    0  501    0  0.00000000000E+00  0.00000000000E+00  0.50687755763E+03  0.50687755764E+03  0.25500000920E-02 0.  1.
       -2   -1    0    0    0  501  0.00000000000E+00  0.00000000000E+00 -0.12902069124E+04  0.12902069124E+04  0.25500000920E-02 0. -1.
    10030    2    1    2    0    0  0.00000000000E+00  0.00000000000E+00 -0.78332935477E+03  0.17970844700E+04  0.16173768004E+04 0.  0.
        1    1    3    3  502    0 -0.15089899830E+02 -0.51186903072E+03 -0.10870985879E+04  0.12016742277E+04  0.50400001928E-02 0. -1.
       -1    1    3    3    0  502  0.15089899830E+02  0.51186903072E+03  0.30376923311E+03  0.59541024235E+03  0.50400001928E-02 0.  1.
</event>
<event>
 5   0  0.1339162E-03  0.1521766E+04  0.7818609E-02  0.8870106E-01
        2   -1    0    0  501    0  0.00000000000E+00  0.00000000000E+00  0.13010199135E+04  0.13010199135E+04  0.25500000920E-02 0. -1.
       -2   -1    0    0    0  501  0.00000000000E+00  0.00000000000E+00 -0.44499160176E+03  0.44499160177E+03  0.25500000920E-02 0.  1.
    10030    2    1    2    0    0  0.00000000000E+00  0.00000000000E+00  0.85602831176E+03  0.17460115153E+04  0.15217659942E+04 0.  0.
        5    1    3    3  502    0  0.53321722119E+03  0.53942429628E+03  0.49706255257E+03  0.90685855984E+03  0.46999998093E+01 0. -1.
       -5    1    3    3    0  502 -0.53321722119E+03 -0.53942429628E+03  0.35896575919E+03  0.83915295546E+03  0.46999998093E+01 0.  1.
</event>
<event>
 5   0  0.7601145E-04  0.1955414E+04  0.7818609E-02  0.8627754E-01
        1   -1    0    0  501    0  0.00000000000E+00  0.00000000000E+00  0.96407046656E+03  0.96407046657E+03  0.50400001928E-02 0.  1.
       -1   -1    0    0    0  501  0.00000000000E+00  0.00000000000E+00 -0.99153659371E+03  0.99153659373E+03  0.50400001928E-02 0. -1.
    10030    2    1    2    0    0  0.00000000000E+00  0.00000000000E+00 -0.27466127157E+02  0.19556070603E+04  0.19554141725E+04 0.  0.
        4    1    3    3  502    0 -0.36229106499E+03 -0.16232505947E+03  0.87983439052E+03  0.96525354615E+03  0.12699999809E+01 0.  1.
       -4    1    3    3    0  502  0.36229106499E+03  0.16232505947E+03 -0.90730051768E+03  0.99035351415E+03  0.12699999809E+01 0. -1.
</event>
<event>
 5   0  0.1375777E-03  0.1584105E+04  0.7818609E-02  0.8830373E-01
       -2   -1    0    0    0  501  0.00000000000E+00  0.00000000000E+00  0.31891967952E+03  0.31891967953E+03  0.25500000920E-02 0.  1.
        2   -1    0    0  501    0  0.00000000000E+00  0.00000000000E+00 -0.19670999912E+04  0.19670999912E+04  0.25500000920E-02 0. -1.
    10030    2    1    2    0    0  0.00000000000E+00  0.00000000000E+00 -0.16481803117E+04  0.22860196708E+04  0.15841046667E+04 0.  0.
        1    1    3    3  502    0 -0.39825633427E+03  0.36747527097E+03 -0.16577226969E+04  0.17440443579E+04  0.50400001928E-02 0. -1.
       -1    1    3    3    0  502  0.39825633427E+03 -0.36747527097E+03  0.95423852096E+01  0.54197531282E+03  0.50400001928E-02 0.  1.
</event>
<event>
 5   0  0.7601145E-04  0.1533697E+04  0.7818609E-02  0.8862349E-01
        1   -1    0    0  501    0  0.00000000000E+00  0.00000000000E+00  0.17878708414E+04  0.17878708414E+04  0.50400001928E-02 0. -1.
       -1   -1    0    0    0  501  0.00000000000E+00  0.00000000000E+00 -0.32891450827E+03  0.32891450831E+03  0.50400001928E-02 0.  1.
    10030    2    1    2    0    0  0.00000000000E+00  0.00000000000E+00  0.14589563331E+04  0.21167853497E+04  0.15336970479E+04 0.  0.
        4    1    3    3  502    0  0.17770819682E+03  0.51874036118E+03  0.14693695817E+04  0.15683495612E+04  0.12699999809E+01 0. -1.
       -4    1    3    3    0  502 -0.17770819682E+03 -0.51874036118E+03 -0.10413248528E+02  0.54843578857E+03  0.12699999809E+01 0.  1.
</event>
<event>
 5   0  0.7124495E-04  0.1597412E+04  0.7818609E-02  0.8822139E-01
       -1   -1    0    0    0  501  0.00000000000E+00  0.00000000000E+00  0.67800421770E+03  0.67800421772E+03  0.50400001928E-02 0.  1.
        1   -1    0    0  501    0  0.00000000000E+00  0.00000000000E+00 -0.94089582241E+03  0.94089582243E+03  0.50400001928E-02 0. -1.
    10030    2    1    2    0    0  0.00000000000E+00  0.00000000000E+00 -0.26289160471E+03  0.16189000401E+04  0.15974120771E+04 0.  0.
        2    1    3    3  502    0  0.53728892934E+03  0.42125824907E+03 -0.55150098338E+03  0.87766237282E+03  0.25500000920E-02 0. -1.
       -2    1    3    3    0  502 -0.53728892934E+03 -0.42125824907E+03  0.28860937867E+03  0.74123766732E+03  0.25500000920E-02 0.  1.
</event>
<event>
 5   0  0.7124495E-04  0.1739253E+04  0.7818609E-02  0.8739288E-01
       -1   -1    0    0    0  501  0.00000000000E+00  0.00000000000E+00  0.35714091012E+03  0.35714091016E+03  0.50400001928E-02 0. -1.
        1   -1    0    0  501    0  0.00000000000E+00  0.00000000000E+00 -0.21175120488E+04  0.21175120488E+04  0.50400001928E-02 0.  1.
    10030    2    1    2    0    0  0.00000000000E+00  0.00000000000E+00 -0.17603711387E+04  0.24746529590E+04  0.17392529205E+04 0.  0.
        2    1    3    3  502    0 -0.55230414033E+03 -0.23138805354E+03 -0.17774344263E+04  0.18755941551E+04  0.25500000920E-02 0.  1.
       -2    1    3    3    0  502  0.55230414033E+03  0.23138805354E+03  0.17063287603E+02  0.59905880391E+03  0.25500000920E-02 0. -1.
</event>
<event>
 5   0  0.7633213E-04  0.1675093E+04  0.7818609E-02  0.8775699E-01
       -1   -1    0    0    0  501  0.00000000000E+00  0.00000000000E+00  0.90258948838E+03  0.90258948840E+03  0.50400001928E-02 0.  1.
        1   -1    0    0  501    0  0.00000000000E+00  0.00000000000E+00 -0.77719034177E+03  0.77719034179E+03  0.50400001928E-02 0. -1.
    10030    2    1    2    0    0  0.00000000000E+00  0.00000000000E+00  0.12539914661E+03  0.16797798302E+04  0.16750926338E+04 0.  0.
        1    1    3    3  502    0  0.44412267022E+03 -0.63554389046E+03  0.38032368545E+03  0.86360123243E+03  0.50400001928E-02 0. -1.
       -1    1    3    3    0  502 -0.44412267022E+03  0.63554389046E+03 -0.25492453884E+03  0.81617859776E+03  0.50400001928E-02 0.  1.
</event>
<event>
 5   0  0.7601145E-04  0.1489517E+04  0.7818609E-02  0.8891454E-01
       -1   -1    0    0    0  501  0.00000000000E+00  0.00000000000E+00  0.63921916711E+03  0.63921916713E+03  0.50400001928E-02 0.  1.
        1   -1    0    0  501    0  0.00000000000E+00  0.00000000000E+00 -0.86772257477E+03  0.86772257479E+03  0.50400001928E-02 0. -1.
    10030    2    1    2    0    0  0.00000000000E+00  0.00000000000E+00 -0.22850340766E+03  0.15069417419E+04  0.14895165680E+04 0.  0.
        4    1    3    3  502    0 -0.63168245927E+03 -0.32764874254E+03  0.10806168087E+03  0.71976063216E+03  0.12699999809E+01 0. -1.
       -4    1    3    3    0  502  0.63168245927E+03  0.32764874254E+03 -0.33656508854E+03  0.78718110976E+03  0.12699999809E+01 0.  1.
</event>
<event>
 5   0  0.1414796E-03  0.1307960E+04  0.7818609E-02  0.9023276E-01
        2   -1    0    0  501    0  0.00000000000E+00  0.00000000000E+00  0.12980375200E+04  0.12980375200E+04  0.25500000920E-02 0.  1.
       -2   -1    0    0    0  501  0.00000000000E+00  0.00000000000E+00 -0.32948971894E+03  0.32948971895E+03  0.25500000920E-02 0. -1.
    10030    2    1    2    0    0  0.00000000000E+00  0.00000000000E+00  0.96854780104E+03  0.16275272389E+04  0.13079602710E+04 0.  0.
        4    1    3    3  502    0 -0.53894231698E+03  0.25947264121E+03  0.15528346394E+03  0.61798012884E+03  0.12699999809E+01 0. -1.
       -4    1    3    3    0  502  0.53894231698E+03 -0.25947264121E+03  0.81326433711E+03  0.10095471101E+04  0.12699999809E+01 0.  1.
</event>
<event>
 5   0  0.1414796E-03  0.1616750E+04  0.7818609E-02  0.8810323E-01
        2   -1    0    0  501    0  0.00000000000E+00  0.00000000000E+00  0.83998106084E+03  0.83998106084E+03  0.25500000920E-02 0.  1.
       -2   -1    0    0    0  501  0.00000000000E+00  0.00000000000E+00 -0.77795841782E+03  0.77795841783E+03  0.25500000920E-02 0. -1.
    10030    2    1    2    0    0  0.00000000000E+00  0.00000000000E+00  0.62022643011E+02  0.16179394787E+04  0.16167502430E+04 0.  0.
        4    1    3    3  502    0 -0.16556127313E+03  0.29835158918E+03 -0.70236094295E+03  0.78085639718E+03  0.12699999809E+01 0. -1.
       -4    1    3    3    0  502  0.16556127313E+03 -0.29835158918E+03  0.76438358597E+03  0.83708308149E+03  0.12699999809E+01 0.  1.
</event>
<event>
 5   0  0.7302027E-04  0.1501559E+04  0.7818609E-02  0.8883417E-01
       -1   -1    0    0    0  501  0.00000000000E+00  0.00000000000E+00  0.68288391399E+03  0.68288391401E+03  0.50400001928E-02 0.  1.
        1   -1    0    0  501    0  0.00000000000E+00  0.00000000000E+00 -0.82542553896E+03  0.82542553898E+03  0.50400001928E-02 0. -1.
    10030    2    1    2    0    0  0.00000000000E+00  0.00000000000E+00 -0.14254162497E+03  0.15083094530E+04  0.15015589536E+04 0.  0.
        5    1    3    3  502    0  0.14495971338E+03  0.78250274696E+02 -0.80703306871E+03  0.82368737272E+03  0.46999998093E+01 0. -1.
       -5    1    3    3    0  502 -0.14495971338E+03 -0.78250274696E+02  0.66449144374E+03  0.68462208027E+03  0.46999998093E+01 0.  1.
</event>
<event>
 5   0  0.1414751E-03  0.8575511E+03  0.7818609E-02  0.9480258E-01
       -2   -1    0    0    0  501  0.00000000000E+00  0.00000000000E+00  0.93236356731E+02  0.93236356766E+02  0.25500000920E-02 0. -1.
        2   -1    0    0  501    0  0.00000000000E+00  0.00000000000E+00 -0.19718539035E+04  0.19718539035E+04  0.25500000920E-02 0.  1.
    10030    2    1    2    0    0  0.00000000000E+00  0.00000000000E+00 -0.18786175468E+04  0.20650902603E+04  0.85755110404E+03 0.  0.
        2    1    3    3  502    0  0.29160149353E+03 -0.30766154978E+03 -0.10946545595E+04  0.11738635632E+04  0.25500000920E-02 0. -1.
       -2    1    3    3    0  502 -0.29160149353E+03  0.30766154978E+03 -0.78396298724E+03  0.89122669710E+03  0.25500000920E-02 0.  1.
</event>
<event>
 5   0  0.7302027E-04  0.1616508E+04  0.7818609E-02  0.8810470E-01
       -1   -1    0    0    0  501  0.00000000000E+00  0.00000000000E+00  0.49562239314E+03  0.49562239316E+03  0.50400001928E-02 0.  1.
        1   -1    0    0  501    0  0.00000000000E+00  0.00000000000E+00 -0.13180893438E+04  0.13180893439E+04  0.50400001928E-02 0. -1.
    10030    2    1    2    0    0  0.00000000000E+00  0.00000000000E+00 -0.82246695071E+03  0.18137117370E+04  0.16165080823E+04 0.  0.
        5    1    3    3  502    0  0.43245761002E+03 -0.79596842627E+02  0.34965463114E+03  0.56181464282E+03  0.46999998093E+01 0.  1.
       -5    1    3    3    0  502 -0.43245761002E+03  0.79596842627E+02 -0.11721215818E+04  0.12518970942E+04  0.46999998093E+01 0. -1.
</event>
<event>
 5   0  0.1375777E-03  0.1381369E+04  0.7818609E-02  0.8967416E-01
        2   -1    0    0  501    0  0.00000000000E+00  0.00000000000E+00  0.19602989786E+04  0.19602989786E+04  0.25500000920E-02 0. -1.
       -2   -1    0    0    0  501  0.00000000000E+00  0.00000000000E+00 -0.24335339469E+03  0.24335339471E+03  0.25500000920E-02 0.  1.
    10030    2    1    2    0    0  0.00000000000E+00  0.00000000000E+00  0.17169455840E+04  0.22036523734E+04  0.13813694815E+04 0.  0.
        1    1    3    3  502    0  0.70246066178E+02 -0.52322803844E+02 -0.23445730283E+03  0.25028466292E+03  0.50400001928E-02 0.  1.
       -1    1    3    3    0  502 -0.70246066178E+02  0.52322803844E+02  0.19514028868E+04  0.19533677104E+04  0.50400001928E-02 0. -1.
</event>
<event>
 5   0  0.1414796E-03  0.1437976E+04  0.7818609E-02  0.8926779E-01
        2   -1    0    0  501    0  0.00000000000E+00  0.00000000000E+00  0.10399386391E+04  0.10399386391E+04  0.25500000920E-02 0. -1.
       -2   -1    0    0    0  501  0.00000000000E+00  0.00000000000E+00 -0.49709042991E+03  0.49709042992E+03  0.25500000920E-02 0.  1.
    10030    2    1    2    0    0  0.00000000000E+00  0.00000000000E+00  0.54284820922E+03  0.15370290691E+04  0.14379757233E+04 0.  0.
        4    1    3    3  502    0  0.38803920679E+03  0.18369201991E+03  0.88788822736E+03  0.98623744675E+03  0.12699999809E+01 0. -1.
       -4    1    3    3    0  502 -0.38803920679E+03 -0.18369201991E+03 -0.34504001814E+03  0.55079162230E+03  0.12699999809E+01 0.  1.
</event>
<event>
 5   0  0.7302027E-04  0.1220171E+04  0.7818609E-02  0.9095382E-01
       -1   -1    0    0    0  501  0.00000000000E+00  0.00000000000E+00  0.16877078422E+04  0.16877078422E+04  0.50400001928E-02 0. -1.
        1   -1    0    0  501    0  0.00000000000E+00  0.00000000000E+00 -0.22053819785E+03  0.22053819791E+03  0.50400001928E-02 0.  1.
    10030    2    1    2    0    0  0.00000000000E+00  0.00000000000E+00  0.14671696444E+04  0.19082460402E+04  0.12201705554E+04 0.  0.
        5    1    3    3  502    0 -0.77433176396E+02  0.35035717052E+03 -0.38039933951E+02  0.36085339171E+03  0.46999998093E+01 0.  1.
       -5    1    3    3    0  502  0.77433176396E+02 -0.35035717052E+03  0.15052095783E+04  0.15473926484E+04  0.46999998093E+01 0. -1.
</event>
<event>
 5   0  0.1414796E-03  0.1587240E+04  0.7818609E-02  0.8828425E-01
        2   -1    0    0  501    0  0.00000000000E+00  0.00000000000E+00  0.95110808954E+03  0.95110808954E+03  0.25500000920E-02 0. -1.
       -2   -1    0    0    0  501  0.00000000000E+00  0.00000000000E+00 -0.66220969469E+03  0.66220969470E+03  0.25500000920E-02 0.  1.
    10030    2    1    2    0    0  0.00000000000E+00  0.00000000000E+00  0.28889839485E+03  0.16133177842E+04  0.15872403694E+04 0.  0.
        4    1    3    3  502    0  0.29623688002E+02 -0.43438871137E+03  0.81887156890E+03  0.92742836635E+03  0.12699999809E+01 0. -1.
       -4    1    3    3    0  502 -0.29623688002E+02  0.43438871137E+03 -0.52997317406E+03  0.68588941789E+03  0.12699999809E+01 0.  1.
</event>
<event>
 5   0  0.1339162E-03  0.1652787E+04  0.7818609E-02  0.8788759E-01
        2   -1    0    0  501    0  0.00000000000E+00  0.00000000000E+00  0.14586891426E+04  0.14586891426E+04  0.25500000920E-02 0. -1.
       -2   -1    0    0    0  501  0.00000000000E+00  0.00000000000E+00 -0.46817801829E+03  0.46817801830E+03  0.25500000920E-02 0.  1.
    10030    2    1    2    0    0  0.00000000000E+00  0.00000000000E+00  0.99051112431E+03  0.19268671609E+04  0.16527869701E+04 0.  0.
        5    1    3    3  502    0  0.15819550562E+03  0.78935235457E+03  0.27776938584E+03  0.85163424037E+03  0.46999998093E+01 0.  1.
       -5    1    3    3    0  502 -0.15819550562E+03 -0.78935235457E+03  0.71274173847E+03  0.10752329205E+04  0.46999998093E+01 0. -1.
</event>
<event>
 5   0  0.1375777E-03  0.1603245E+04  0.7818609E-02  0.8818557E-01
       -2   -1    0    0    0  501  0.00000000000E+00  0.00000000000E+00  0.73895303834E+03  0.73895303834E+03  0.25500000920E-02 0. -1.
        2   -1    0    0  501    0  0.00000000000E+00  0.00000000000E+00 -0.86960722229E+03  0.86960722229E+03  0.25500000920E-02 0.  1.
    10030    2    1    2    0    0  0.00000000000E+00  0.00000000000E+00 -0.13065418395E+03  0.16085602606E+04  0.16032453325E+04 0.  0.
        1    1    3    3  502    0 -0.47232965574E+03 -0.64762457135E+03 -0.74631991766E+02  0.80503591431E+03  0.50400001928E-02 0.  1.
       -1    1    3    3    0  502  0.47232965574E+03  0.64762457135E+03 -0.56022192185E+02  0.80352434633E+03  0.50400001928E-02 0. -1.
</event>
<event>
 5   0  0.7601145E-04  0.1648306E+04  0.7818609E-02  0.8791409E-01
       -1   -1    0    0    0  501  0.00000000000E+00  0.00000000000E+00  0.74109903257E+03  0.74109903258E+03  0.50400001928E-02 0. -1.
        1   -1    0    0  501    0  0.00000000000E+00  0.00000000000E+00 -0.91651456590E+03  0.91651456591E+03  0.50400001928E-02 0.  1.
    10030    2    1    2    0    0  0.00000000000E+00  0.00000000000E+00 -0.17541553333E+03  0.16576135985E+04  0.16483058674E+04 0.  0.
        4    1    3    3  502    0  0.19943058924E+03  0.25720674108E+03 -0.84914818922E+03  0.90938557704E+03  0.12699999809E+01 0.  1.
       -4    1    3    3    0  502 -0.19943058924E+03 -0.25720674108E+03  0.67373265588E+03  0.74822802145E+03  0.12699999809E+01 0. -1.
</event>
<event>
 5   0  0.1375777E-03  0.1569193E+04  0.7818609E-02  0.8839700E-01
       -2   -1    0    0    0  501  0.00000000000E+00  0.00000000000E+00  0.46759297592E+03  0.46759297593E+03  0.25500000920E-02 0. -1.
        2   -1    0    0  501    0  0.00000000000E+00  0.00000000000E+00 -0.13165126126E+04  0.13165126126E+04  0.25500000920E-02 0.  1.
    10030    2    1    2    0    0  0.00000000000E+00  0.00000000000E+00 -0.84891963672E+03  0.17841055886E+04  0.15691934876E+04 0.  0.
        1    1    3    3  502    0 -0.70418250433E+03 -0.41275364406E+02 -0.81504286542E+03  0.10779014461E+04  0.50400001928E-02 0.  1.
       -1    1    3    3    0  502  0.70418250433E+03  0.41275364406E+02 -0.33876771291E+02  0.70620414242E+03  0.50400001928E-02 0. -1.
</event>
<event>
 5   0  0.7124495E-04  0.1595930E+04  0.7818609E-02  0.8823052E-01
       -1   -1    0    0    0  501  0.00000000000E+00  0.00000000000E+00  0.63323392370E+03  0.63323392372E+03  0.50400001928E-02 0. -1.
        1   -1    0    0  501    0  0.00000000000E+00  0.00000000000E+00 -0.10055502565E+04  0.10055502565E+04  0.50400001928E-02 0.  1.
    10030    2    1    2    0    0  0.00000000000E+00  0.00000000000E+00 -0.37231633282E+03  0.16387841802E+04  0.15959304928E+04 0.  0.
        2    1    3    3  502    0 -0.54549903777E+03 -0.26214483351E+03 -0.72017979487E+03  0.94071677507E+03  0.25500000920E-02 0.  1.
       -2    1    3    3    0  502  0.54549903777E+03  0.26214483351E+03  0.34786346205E+03  0.69806740518E+03  0.25500000920E-02 0. -1.
</event>
<event>
 5   0  0.1354766E-03  0.1506444E+04  0.7818609E-02  0.8880179E-01
       -2   -1    0    0    0  501  0.00000000000E+00  0.00000000000E+00  0.62570479518E+03  0.62570479518E+03  0.25500000920E-02 0.  1.
        2   -1    0    0  501    0  0.00000000000E+00  0.00000000000E+00 -0.90672721912E+03  0.90672721912E+03  0.25500000920E-02 0. -1.
    10030    2    1    2    0    0  0.00000000000E+00  0.00000000000E+00 -0.28102242394E+03  0.15324320143E+04  0.15064442491E+04 0.  0.
        3    1    3    3  502    0  0.26383986119E+03 -0.32814723213E+03 -0.77582622441E+03  0.88272216409E+03  0.10100000352E+00 0. -1.
       -3    1    3    3    0  502 -0.26383986119E+03  0.32814723213E+03  0.49480380046E+03  0.64970985021E+03  0.10100000352E+00 0.  1.
</event>
<event>
 5   0  0.7601145E-04  0.1613766E+04  0.7818609E-02  0.8812136E-01
        1   -1    0    0  501    0  0.00000000000E+00  0.00000000000E+00  0.10380930584E+04  0.10380930584E+04  0.50400001928E-02 0.  1.
       -1   -1    0    0    0  501  0.00000000000E+00  0.00000000000E+00 -0.62716922186E+03  0.62716922188E+03  0.50400001928E-02 0. -1.
    10030    2    1    2    0    0  0.00000000000E+00  0.00000000000E+00  0.41092383657E+03  0.16652622803E+04  0.16137658017E+04 0.  0.
        4    1    3    3  502    0  0.18744874963E+03  0.78368828245E+03  0.24867970330E+03  0.84329565724E+03  0.12699999809E+01 0.  1.
       -4    1    3    3    0  502 -0.18744874963E+03 -0.78368828245E+03  0.16224413327E+03  0.82196662308E+03  0.12699999809E+01 0. -1.
</event>
<event>
 5   0  0.7633213E-04  0.1216038E+04  0.7818609E-02  0.9098933E-01
        1   -1    0    0  501    0  0.00000000000E+00  0.00000000000E+00  0.68152340180E+03  0.68152340182E+03  0.50400001928E-02 0. -1.
       -1   -1    0    0    0  501  0.00000000000E+00  0.00000000000E+00 -0.54244221453E+03  0.54244221455E+03  0.50400001928E-02 0.  1.
    10030    2    1    2    0    0  0.00000000000E+00  0.00000000000E+00  0.13908118727E+03  0.12239656164E+04  0.12160379326E+04 0.  0.
        1    1    3    3  502    0  0.76524384944E+02 -0.55765758171E+03 -0.16184744636E+03  0.58568981197E+03  0.50400001928E-02 0. -1.
       -1    1    3    3    0  502 -0.76524384944E+02  0.55765758171E+03  0.30092863363E+03  0.63827580441E+03  0.50400001928E-02 0.  1.
</event>
<event>
 5   0  0.1354766E-03  0.1637509E+04  0.7818609E-02  0.8797830E-01
        2   -1    0    0  501    0  0.00000000000E+00  0.00000000000E+00  0.68952943864E+03  0.68952943864E+03  0.25500000920E-02 0.  1.
       -2   -1    0    0    0  501  0.00000000000E+00  0.00000000000E+00 -0.97219769838E+03  0.97219769839E+03  0.25500000920E-02 0. -1.
    10030    2    1    2    0    0  0.00000000000E+00  0.00000000000E+00 -0.28266825975E+03  0.16617271370E+04  0.16375090024E+04 0.  0.
        3    1    3    3  502    0 -0.39175601138E+03 -0.36139079200E+03 -0.77204269267E+03  0.93815031125E+03  0.10100000352E+00 0. -1.
       -3    1    3    3    0  502  0.39175601138E+03  0.36139079200E+03  0.48937443293E+03  0.72357682577E+03  0.10100000352E+00 0.  1.
</event>
<event>
 5   0  0.1414796E-03  0.1677333E+04  0.7818609E-02  0.8774399E-01
        2   -1    0    0  501    0  0.00000000000E+00  0.00000000000E+00  0.13255935024E+04  0.13255935024E+04  0.25500000920E-02 0. -1.
       -2   -1    0    0    0  501  0.00000000000E+00  0.00000000000E+00 -0.53060097077E+03  0.53060097077E+03  0.25500000920E-02 0.  1.
    10030    2    1    2    0    0  0.00000000000E+00  0.00000000000E+00  0.79499253165E+03  0.18561944732E+04  0.16773326435E+04 0.  0.
        4    1    3    3  502    0  0.58498796096E+03 -0.59706795276E+03  0.32196464550E+03  0.89574767682E+03  0.12699999809E+01 0. -1.
       -4    1    3    3    0  502 -0.58498796096E+03  0.59706795276E+03  0.47302788615E+03  0.96044679637E+03  0.12699999809E+01 0.  1.
</event>
<event>
 5   0  0.7302027E-04  0.1566590E+04  0.7818609E-02  0.8841340E-01
       -1   -1    0    0    0  501  0.00000000000E+00  0.00000000000E+00  0.41537095399E+03  0.41537095402E+03  0.50400001928E-02 0.  1.
        1   -1    0    0  501    0  0.00000000000E+00  0.00000000000E+00 -0.14771167478E+04  0.14771167478E+04  0.50400001928E-02 0. -1.
    10030    2    1    2    0    0  0.00000000000E+00  0.00000000000E+00 -0.10617457938E+04  0.18924877018E+04  0.15665904286E+04 0.  0.
        5    1    3    3  502    0  0.83454379055E+02 -0.76091694641E+03 -0.33028878422E+03  0.83370978385E+03  0.46999998093E+01 0.  1.
       -5    1    3    3    0  502 -0.83454379055E+02  0.76091694641E+03 -0.73145700955E+03  0.10587779179E+04  0.46999998093E+01 0. -1.
</event>
<event>
 5   0  0.1375777E-03  0.1563601E+04  0.7818609E-02  0.8843227E-01
        2   -1    0    0  501    0  0.00000000000E+00  0.00000000000E+00  0.17372661182E+04  0.17372661182E+04  0.25500000920E-02 0. -1.
       -2   -1    0    0    0  501  0.00000000000E+00  0.00000000000E+00 -0.35182398711E+03  0.35182398712E+03  0.25500000920E-02 0.  1.
    10030    2    1    2    0    0  0.00000000000E+00  0.00000000000E+00  0.13854421311E+04  0.20890901053E+04  0.15636008345E+04 0.  0.
        1    1    3    3  502    0  0.25291189341E+03  0.56057719537E+03  0.47795092254E+02  0.61684324480E+03  0.50400001928E-02 0.  1.
       -1    1    3    3    0  502 -0.25291189341E+03 -0.56057719537E+03  0.13376470388E+04  0.14722468605E+04  0.50400001928E-02 0. -1.
</event>
<event>
 5   0  0.1354766E-03  0.1671826E+04  0.7818609E-02  0.8777598E-01
        2   -1    0    0  501    0  0.00000000000E+00  0.00000000000E+00  0.10973959233E+04  0.10973959233E+04  0.25500000920E-02 0.  1.
       -2   -1    0    0    0  501  0.00000000000E+00  0.00000000000E+00 -0.63673516118E+03  0.63673516119E+03  0.25500000920E-02 0. -1.
    10030    2    1    2    0    0  0.00000000000E+00  0.00000000000E+00  0.46066076213E+03  0.17341310845E+04  0.16718260318E+04 0.  0.
        3    1    3    3  502    0 -0.49927769201E+03 -0.11676719637E+03 -0.45445309267E+03  0.68515721956E+03  0.10100000352E+00 0. -1.
       -3    1    3    3    0  502  0.49927769201E+03  0.11676719637E+03  0.91511385480E+03  0.10489738649E+04  0.10100000352E+00 0.  1.
</event>
<event>
 5   0  0.7633213E-04  0.1566639E+04  0.7818609E-02  0.8841309E-01
        1   -1    0    0  501    0  0.00000000000E+00  0.00000000000E+00  0.72052599973E+03  0.72052599975E+03  0.50400001928E-02 0. -1.
       -1   -1    0    0    0  501  0.00000000000E+00  0.00000000000E+00 -0.85158573077E+03  0.85158573078E+03  0.50400001928E-02 0.  1.
    10030    2    1    2    0    0  0.00000000000E+00  0.00000000000E+00 -0.13105973103E+03  0.15721117305E+04  0.15666392821E+04 0.  0.
        1    1    3    3  502    0 -0.95751530575E+02 -0.78114125610E+01  0.71459182910E+03  0.72102070429E+03  0.50400001928E-02 0. -1.
       -1    1    3    3    0  502  0.95751530575E+02  0.78114125610E+01 -0.84565156013E+03  0.85109102624E+03  0.50400001928E-02 0.  1.
</event>
<event>
 5   0  0.7633213E-04  0.1239241E+04  0.7818609E-02  0.9079186E-01
        1   -1    0    0  501    0  0.00000000000E+00  0.00000000000E+00  0.66680718894E+03  0.66680718896E+03  0.50400001928E-02 0. -1.
       -1   -1    0    0    0  501  0.00000000000E+00  0.00000000000E+00 -0.57577301018E+03  0.57577301021E+03  0.50400001928E-02 0.  1.
    10030    2    1    2    0    0  0.00000000000E+00  0.00000000000E+00  0.91034178752E+02  0.12425801992E+04  0.12392410297E+04 0.  0.
        1    1    3    3  502    0 -0.24028994786E+03 -0.41818318806E+03 -0.34452095767E+03  0.59271504799E+03  0.50400001928E-02 0.  1.
       -1    1    3    3    0  502  0.24028994786E+03  0.41818318806E+03  0.43555513642E+03  0.64986515117E+03  0.50400001928E-02 0. -1.
</event>
<event>
 5   0  0.7499834E-04  0.1663922E+04  0.7818609E-02  0.8782213E-01
        1   -1    0    0  501    0  0.00000000000E+00  0.00000000000E+00  0.13469982085E+04  0.13469982085E+04  0.50400001928E-02 0.  1.
       -1   -1    0    0    0  501  0.00000000000E+00  0.00000000000E+00 -0.51385289873E+03  0.51385289875E+03  0.50400001928E-02 0. -1.
    10030    2    1    2    0    0  0.00000000000E+00  0.00000000000E+00  0.83314530979E+03  0.18608511073E+04  0.16639217939E+04 0.  0.
        3    1    3    3  502    0 -0.96960977997E+02 -0.78591966911E+03  0.13125516218E+03  0.80268243119E+03  0.10100000352E+00 0.  1.
       -3    1    3    3    0  502  0.96960977997E+02  0.78591966911E+03  0.70189014761E+03  0.10581686761E+04  0.10100000352E+00 0. -1.
</event>
<event>
 5   0  0.7302027E-04  0.1566368E+04  0.7818609E-02  0.8841480E-01
        1   -1    0    0  501    0  0.00000000000E+00  0.00000000000E+00  0.53677966079E+03  0.53677966081E+03  0.50400001928E-02 0. -1.
       -1   -1    0    0    0  501  0.00000000000E+00  0.00000000000E+00 -0.11426979025E+04  0.11426979025E+04  0.50400001928E-02 0.  1.
    10030    2    1    2    0    0  0.00000000000E+00  0.00000000000E+00 -0.60591824169E+03  0.16794775633E+04  0.15663677633E+04 0.  0.
        5    1    3    3  502    0  0.35686009031E+03 -0.47949172077E+02  0.44275351349E+03  0.57070220857E+03  0.46999998093E+01 0. -1.
       -5    1    3    3    0  502 -0.35686009031E+03  0.47949172077E+02 -0.10486717552E+04  0.11087753547E+04  0.46999998093E+01 0.  1.
</event>
<event>
 5   0  0.7302027E-04  0.1581851E+04  0.7818609E-02  0.8831776E-01
       -1   -1    0    0    0  501  0.00000000000E+00  0.00000000000E+00  0.50040780045E+03  0.50040780048E+03  0.50400001928E-02 0. -1.
        1   -1    0    0  501    0  0.00000000000E+00  0.00000000000E+00 -0.12501071262E+04  0.12501071262E+04  0.50400001928E-02 0.  1.
    10030    2    1    2    0    0  0.00000000000E+00  0.00000000000E+00 -0.74969932577E+03  0.17505149267E+04  0.15818512666E+04 0.  0.
        5    1    3    3  502    0  0.34045980795E+03  0.27067946656E+03 -0.11058593673E+04  0.11883296195E+04  0.46999998093E+01 0.  1.
       -5    1    3    3    0  502 -0.34045980795E+03 -0.27067946656E+03  0.35616004151E+03  0.56218530718E+03  0.46999998093E+01 0. -1.
</event>
<event>
 5   0  0.1414796E-03  0.1590882E+04  0.7818609E-02  0.8826169E-01
        2   -1    0    0  501    0  0.00000000000E+00  0.00000000000E+00  0.16227164197E+04  0.16227164197E+04  0.25500000920E-02 0. -1.
       -2   -1    0    0    0  501  0.00000000000E+00  0.00000000000E+00 -0.38991817129E+03  0.38991817130E+03  0.25500000920E-02 0.  1.
    10030    2    1    2    0    0  0.00000000000E+00  0.00000000000E+00  0.12327982484E+04  0.20126345910E+04  0.15908822947E+04 0.  0.
        4    1    3    3  502    0 -0.44386761331E+03  0.18844079587E+03 -0.18392072677E+03  0.51609770231E+03  0.12699999809E+01 0.  1.
       -4    1    3    3    0  502  0.44386761331E+03 -0.18844079587E+03  0.14167189752E+04  0.14965368887E+04  0.12699999809E+01 0. -1.
</event>
<event>
 5   0  0.1375777E-03  0.1546826E+04  0.7818609E-02  0.8853898E-01
        2   -1    0    0  501    0  0.00000000000E+00  0.00000000000E+00  0.86075205152E+03  0.86075205152E+03  0.25500000920E-02 0.  1.
       -2   -1    0    0    0  501  0.00000000000E+00  0.00000000000E+00 -0.69493585011E+03  0.69493585012E+03  0.25500000920E-02 0. -1.
    10030    2    1    2    0    0  0.00000000000E+00  0.00000000000E+00  0.16581620140E+03  0.15556879016E+04  0.15468257286E+04 0.  0.
        1    1    3    3  502    0 -0.23240305068E+03  0.31456321291E+03  0.75396867019E+03  0.84937032473E+03  0.50400001928E-02 0.  1.
       -1    1    3    3    0  502  0.23240305068E+03 -0.31456321291E+03 -0.58815246879E+03  0.70631757691E+03  0.50400001928E-02 0. -1.
</event>
<event>
 5   0  0.7124495E-04  0.1494499E+04  0.7818609E-02  0.8888119E-01
       -1   -1    0    0    0  501  0.00000000000E+00  0.00000000000E+00  0.10201497266E+04  0.10201497266E+04  0.50400001928E-02 0. -1.
        1   -1    0    0  501    0  0.00000000000E+00  0.00000000000E+00 -0.54735274944E+03  0.54735274946E+03  0.50400001928E-02 0.  1.
    10030    2    1    2    0    0  0.00000000000E+00  0.00000000000E+00  0.47279697717E+03  0.15675024761E+04  0.14944989230E+04 0.  0.
        2    1    3    3  502    0 -0.45320665592E+03  0.43044966383E+03  0.66591247543E+03  0.91330313204E+03  0.25500000920E-02 0. -1.
       -2    1    3    3    0  502  0.45320665592E+03 -0.43044966383E+03 -0.19311549827E+03  0.65419934403E+03  0.25500000920E-02 0.  1.
</event>
<event>
 5   0  0.1339162E-03  0.1609069E+04  0.7818609E-02  0.8814996E-01
        2   -1    0    0  501    0  0.00000000000E+00  0.00000000000E+00  0.56367793406E+03  0.56367793407E+03  0.25500000920E-02 0. -1.
       -2   -1    0    0    0  501  0.00000000000E+00  0.00000000000E+00 -0.11483072064E+04  0.11483072064E+04  0.25500000920E-02 0.  1.
    10030    2    1    2    0    0  0.00000000000E+00  0.00000000000E+00 -0.58462927230E+03  0.17119851404E+04  0.16090685924E+04 0.  0.
        5    1    3    3  502    0 -0.68121485961E+03 -0.46149858909E+01 -0.74768264532E+03  0.10114971138E+04  0.46999998093E+01 0.  1.
       -5    1    3    3    0  502  0.68121485961E+03  0.46149858909E+01  0.16305337302E+03  0.70048802666E+03  0.46999998093E+01 0. -1.
</event>
<event>
 5   0  0.7124495E-04  0.1647317E+04  0.7818609E-02  0.8791995E-01
       -1   -1    0    0    0  501  0.00000000000E+00  0.00000000000E+00  0.41813742952E+03  0.41813742955E+03  0.50400001928E-02 0.  1.
        1   -1    0    0  501    0  0.00000000000E+00  0.00000000000E+00 -0.16224653601E+04  0.16224653601E+04  0.50400001928E-02 0. -1.
    10030    2    1    2    0    0  0.00000000000E+00  0.00000000000E+00 -0.12043279306E+04  0.20406027897E+04  0.16473172071E+04 0.  0.
        2    1    3    3  502    0 -0.38306339906E+03 -0.13644366568E+03 -0.14894526007E+04  0.15439635654E+04  0.25500000920E-02 0. -1.
       -2    1    3    3    0  502  0.38306339906E+03  0.13644366568E+03  0.28512467008E+03  0.49663922429E+03  0.25500000920E-02 0.  1.
</event>
<event>
 5   0  0.1414751E-03  0.1360164E+04  0.7818609E-02  0.8983170E-01
        2   -1    0    0  501    0  0.00000000000E+00  0.00000000000E+00  0.83118791593E+03  0.83118791593E+03  0.25500000920E-02 0.  1.
       -2   -1    0    0    0  501  0.00000000000E+00  0.00000000000E+00 -0.55644646430E+03  0.55644646431E+03  0.25500000920E-02 0. -1.
    10030    2    1    2    0    0  0.00000000000E+00  0.00000000000E+00  0.27474145162E+03  0.13876343802E+04  0.13601640739E+04 0.  0.
        2    1    3    3  502    0  0.39883242685E+03  0.24998817801E+03 -0.36340974277E+03  0.59466632240E+03  0.25500000920E-02 0. -1.
       -2    1    3    3    0  502 -0.39883242685E+03 -0.24998817801E+03  0.63815119439E+03  0.79296805784E+03  0.25500000920E-02 0.  1.
</event>
<event>
 5   0  0.1354766E-03  0.1635413E+04  0.7818609E-02  0.8799083E-01
       -2   -1    0    0    0  501  0.00000000000E+00  0.00000000000E+00  0.72244491864E+03  0.72244491864E+03  0.25500000920E-02 0.  1.
        2   -1    0    0  501    0  0.00000000000E+00  0.00000000000E+00 -0.92552936972E+03  0.92552936973E+03  0.25500000920E-02 0. -1.
    10030    2    1    2    0    0  0.00000000000E+00  0.00000000000E+00 -0.20308445108E+03  0.16479742884E+04  0.16354130857E+04 0.  0.
        3    1    3    3  502    0 -0.69093276201E+03  0.21106041877E+02  0.33863140539E+03  0.76974332446E+03  0.10100000352E+00 0.  1.
       -3    1    3    3    0  502  0.69093276201E+03 -0.21106041877E+02 -0.54171585647E+03  0.87823096392E+03  0.10100000352E+00 0. -1.
</event>
<event>
 5   0  0.1375777E-03  0.1605636E+04  0.7818609E-02  0.8817093E-01
       -2   -1    0    0    0  501  0.00000000000E+00  0.00000000000E+00  0.42274461344E+03  0.42274461345E+03  0.25500000920E-02 0. -1.
        2   -1    0    0  501    0  0.00000000000E+00  0.00000000000E+00 -0.15246010044E+04  0.15246010044E+04  0.25500000920E-02 0.  1.
    10030    2    1    2    0    0  0.00000000000E+00  0.00000000000E+00 -0.11018563909E+04  0.19473456178E+04  0.16056361509E+04 0.  0.
        1    1    3    3  502    0  0.62339242304E+03 -0.76564768320E+02  0.55525545717E+02  0.63052625886E+03  0.50400001928E-02 0. -1.
       -1    1    3    3    0  502 -0.62339242304E+03  0.76564768320E+02 -0.11573819366E+04  0.13168193590E+04  0.50400001928E-02 0.  1.
</event>
<event>
 5   0  0.1414796E-03  0.1607218E+04  0.7818609E-02  0.8816126E-01
        2   -1    0    0  501    0  0.00000000000E+00  0.00000000000E+00  0.13211433265E+04  0.13211433265E+04  0.25500000920E-02 0.  1.
       -2   -1    0    0    0  501  0.00000000000E+00  0.00000000000E+00 -0.48880925560E+03  0.48880925560E+03  0.25500000920E-02 0. -1.
    10030    2    1    2    0    0  0.00000000000E+00  0.00000000000E+00  0.83233407092E+03  0.18099525821E+04  0.16072175783E+04 0.  0.
        4    1    3    3  502    0 -0.98301192341E+02  0.44064457209E+03  0.11648214791E+04  0.12492563606E+04  0.12699999809E+01 0.  1.
       -4    1    3    3    0  502  0.98301192341E+02 -0.44064457209E+03 -0.33248740821E+03  0.56069622154E+03  0.12699999809E+01 0. -1.
</event>
<event>
 5   0  0.7302027E-04  0.1523898E+04  0.7818609E-02  0.8868715E-01
        1   -1    0    0  501    0  0.00000000000E+00  0.00000000000E+00  0.11729068574E+04  0.11729068574E+04  0.50400001928E-02 0.  1.
       -1   -1    0    0    0  501  0.00000000000E+00  0.00000000000E+00 -0.49498091917E+03  0.49498091919E+03  0.50400001928E-02 0. -1.
    10030    2    1    2    0    0  0.00000000000E+00  0.00000000000E+00  0.67792593827E+03  0.16678877766E+04  0.15238983095E+04 0.  0.
        5    1    3    3  502    0 -0.52323206238E+03 -0.89004773637E+02  0.93728919334E+03  0.10771382283E+04  0.46999998093E+01 0.  1.
       -5    1    3    3    0  502  0.52323206238E+03  0.89004773637E+02 -0.25936325507E+03  0.59074954838E+03  0.46999998093E+01 0. -1.
</event>
<event>
 5   0  0.7601145E-04  0.1630386E+04  0.7818609E-02  0.8802095E-01
       -1   -1    0    0    0  501  0.00000000000E+00  0.00000000000E+00  0.47325862033E+03  0.47325862035E+03  0.50400001928E-02 0.  1.
        1   -1    0    0  501    0  0.00000000000E+00  0.00000000000E+00 -0.14041788005E+04  0.14041788005E+04  0.50400001928E-02 0. -1.
    10030    2    1    2    0    0  0.00000000000E+00  0.00000000000E+00 -0.93092018015E+03  0.18774374208E+04  0.16303861160E+04 0.  0.
        4    1    3    3  502    0 -0.64630304389E+03 -0.17424456275E+03 -0.10012236539E+04  0.12043750289E+04  0.12699999809E+01 0. -1.
       -4    1    3    3    0  502  0.64630304389E+03  0.17424456275E+03  0.70303473705E+02  0.67306239199E+03  0.12699999809E+01 0.  1.
</event>
<event>
 5   0  0.5095750E-04  0.1571923E+04  0.7818609E-02  0.8837985E-01
        3   -1    0    0  501    0  0.00000000000E+00  0.00000000000E+00  0.22385817705E+03  0.22385819984E+03  0.10100000352E+00 0. -1.
       -3   -1    0    0    0  501  0.00000000000E+00  0.00000000000E+00 -0.27594930015E+04  0.27594930034E+04  0.10100000352E+00 0.  1.
    10030    2    1    2    0    0  0.00000000000E+00  0.00000000000E+00 -0.25356348245E+04  0.29833512032E+04  0.15719225295E+04 0.  0.
        2    1    3    3  502    0  0.26785453069E+03  0.12666990492E+03  0.11380111787E+03  0.31739881673E+03  0.25500000920E-02 0. -1.
       -2    1    3    3    0  502 -0.26785453069E+03 -0.12666990492E+03 -0.26494359423E+04  0.26659523865E+04  0.25500000920E-02 0.  1.
</event>
<event>
 5   0  0.1354766E-03  0.1563764E+04  0.7818609E-02  0.8843124E-01
       -2   -1    0    0    0  501  0.00000000000E+00  0.00000000000E+00  0.22835089337E+04  0.22835089337E+04  0.25500000920E-02 0. -1.
        2   -1    0    0  501    0  0.00000000000E+00  0.00000000000E+00 -0.26771937273E+03  0.26771937274E+03  0.25500000920E-02 0.  1.
    10030    2    1    2    0    0  0.00000000000E+00  0.00000000000E+00  0.20157895609E+04  0.25512283064E+04  0.15637641502E+04 0.  0.
        3    1    3    3  502    0 -0.61045582851E+03 -0.12180954843E+03  0.23601007562E+03  0.66572866143E+03  0.10100000352E+00 0.  1.
       -3    1    3    3    0  502  0.61045582851E+03  0.12180954843E+03  0.17797794853E+04  0.18854996450E+04  0.10100000352E+00 0. -1.
</event>
<event>
 5   0  0.1414751E-03  0.1594319E+04  0.7818609E-02  0.8824046E-01
        2   -1    0    0  501    0  0.00000000000E+00  0.00000000000E+00  0.84925593695E+03  0.84925593695E+03  0.25500000920E-02 0. -1.
       -2   -1    0    0    0  501  0.00000000000E+00  0.00000000000E+00 -0.74825875534E+03  0.74825875534E+03  0.25500000920E-02 0.  1.
    10030    2    1    2    0    0  0.00000000000E+00  0.00000000000E+00  0.10099718161E+03  0.15975146923E+04  0.15943189020E+04 0.  0.
        2    1    3    3  502    0 -0.59265183408E+03 -0.42051955372E+03  0.37886006096E+03  0.81951683161E+03  0.25500000920E-02 0. -1.
       -2    1    3    3    0  502  0.59265183408E+03  0.42051955372E+03 -0.27786287935E+03  0.77799786068E+03  0.25500000920E-02 0.  1.
</event>
<event>
 5   0  0.1339162E-03  0.1586968E+04  0.7818609E-02  0.8828594E-01
        2   -1    0    0  501    0  0.00000000000E+00  0.00000000000E+00  0.13715689067E+04  0.13715689067E+04  0.25500000920E-02 0. -1.
       -2   -1    0    0    0  501  0.00000000000E+00  0.00000000000E+00 -0.45904850361E+03  0.45904850362E+03  0.25500000920E-02 0.  1.
    10030    2    1    2    0    0  0.00000000000E+00  0.00000000000E+00  0.91252040306E+03  0.18306174103E+04  0.15869677428E+04 0.  0.
        5    1    3    3  502    0 -0.49495503960E+03  0.57448465848E+03  0.72575601582E+03  0.10496461302E+04  0.46999998093E+01 0.  1.
       -5    1    3    3    0  502  0.49495503960E+03 -0.57448465848E+03  0.18676438723E+03  0.78097128013E+03  0.46999998093E+01 0. -1.
</event>
<event>
 5   0  0.7601145E-04  0.1318404E+04  0.7818609E-02  0.9015097E-01
       -1   -1    0    0    0  501  0.00000000000E+00  0.00000000000E+00  0.32780784061E+03  0.32780784065E+03  0.50400001928E-02 0.  1.
        1   -1    0    0  501    0  0.00000000000E+00  0.00000000000E+00 -0.13256152238E+04  0.13256152238E+04  0.50400001928E-02 0. -1.
    10030    2    1    2    0    0  0.00000000000E+00  0.00000000000E+00 -0.99780738323E+03  0.16534230645E+04  0.13184036772E+04 0.  0.
        4    1    3    3  502    0 -0.38863366109E+03 -0.52289067044E+03 -0.62490694674E+03  0.90275194863E+03  0.12699999809E+01 0. -1.
       -4    1    3    3    0  502  0.38863366109E+03  0.52289067044E+03 -0.37290043649E+03  0.75067111587E+03  0.12699999809E+01 0.  1.
</event>
<event>
 5   0  0.7633213E-04  0.1131608E+04  0.7818609E-02  0.9174921E-01
       -1   -1    0    0    0  501  0.00000000000E+00  0.00000000000E+00  0.19702931460E+03  0.19702931467E+03  0.50400001928E-02 0. -1.
        1   -1    0    0  501    0  0.00000000000E+00  0.00000000000E+00 -0.16248037900E+04  0.16248037900E+04  0.50400001928E-02 0.  1.
    10030    2    1    2    0    0  0.00000000000E+00  0.00000000000E+00 -0.14277744754E+04  0.18218331047E+04  0.11316076655E+04 0.  0.
        1    1    3    3  502    0 -0.50884655533E+03 -0.67597698984E+02 -0.33073336063E+03  0.61063804471E+03  0.50400001928E-02 0. -1.
       -1    1    3    3    0  502  0.50884655533E+03  0.67597698984E+02 -0.10970411148E+04  0.12111950600E+04  0.50400001928E-02 0.  1.
</event>
<event>
 5   0  0.1414751E-03  0.9365555E+03  0.7818609E-02  0.9381005E-01
        2   -1    0    0  501    0  0.00000000000E+00  0.00000000000E+00  0.41325656508E+03  0.41325656509E+03  0.25500000920E-02 0. -1.
       -2   -1    0    0    0  501  0.00000000000E+00  0.00000000000E+00 -0.53062446481E+03  0.53062446481E+03  0.25500000920E-02 0.  1.
    10030    2    1    2    0    0  0.00000000000E+00  0.00000000000E+00 -0.11736789972E+03  0.94388102991E+03  0.93655548406E+03 0.  0.
        2    1    3    3  502    0 -0.38822871627E+03 -0.15486075498E+03  0.15410886752E+03  0.44548056369E+03  0.25500000920E-02 0.  1.
       -2    1    3    3    0  502  0.38822871627E+03  0.15486075498E+03 -0.27147676725E+03  0.49840046622E+03  0.25500000920E-02 0. -1.
</event>
<event>
 5   0  0.5095750E-04  0.1617609E+04  0.7818609E-02  0.8809803E-01
        3   -1    0    0  501    0  0.00000000000E+00  0.00000000000E+00  0.29088697568E+03  0.29088699322E+03  0.10100000352E+00 0.  1.
       -3   -1    0    0    0  501  0.00000000000E+00  0.00000000000E+00 -0.22488611797E+04  0.22488611819E+04  0.10100000352E+00 0. -1.
    10030    2    1    2    0    0  0.00000000000E+00  0.00000000000E+00 -0.19579742040E+04  0.25397481752E+04  0.16176086701E+04 0.  0.
        5    1    3    3  502    0 -0.43345627640E+03 -0.39402737124E+03 -0.10340333890E+03  0.59485817917E+03  0.46999998093E+01 0.  1.
       -5    1    3    3    0  502  0.43345627640E+03  0.39402737124E+03 -0.18545708651E+04  0.19448899960E+04  0.46999998093E+01 0. -1.
</event>
<event>
 5   0  0.7601145E-04  0.1603937E+04  0.7818609E-02  0.8818133E-01
       -1   -1    0    0    0  501  0.00000000000E+00  0.00000000000E+00  0.64581975624E+03  0.64581975626E+03  0.50400001928E-02 0. -1.
        1   -1    0    0  501    0  0.00000000000E+00  0.00000000000E+00 -0.99587141809E+03  0.99587141810E+03  0.50400001928E-02 0.  1.
    10030    2    1    2    0    0  0.00000000000E+00  0.00000000000E+00 -0.35005166185E+03  0.16416911744E+04  0.16039369520E+04 0.  0.
        4    1    3    3  502    0  0.27968977842E+03 -0.24097603822E+03  0.55367030516E+03  0.66546843867E+03  0.12699999809E+01 0. -1.
       -4    1    3    3    0  502 -0.27968977842E+03  0.24097603822E+03 -0.90372196701E+03  0.97622273570E+03  0.12699999809E+01 0.  1.
</event>
<event>
 5   0  0.1414796E-03  0.1642373E+04  0.7818609E-02  0.8794931E-01
       -2   -1    0    0    0  501  0.00000000000E+00  0.00000000000E+00  0.88733274853E+03  0.88733274853E+03  0.25500000920E-02 0. -1.
        2   -1    0    0  501    0  0.00000000000E+00  0.00000000000E+00 -0.75997134476E+03  0.75997134477E+03  0.25500000920E-02 0.  1.
    10030    2    1    2    0    0  0.00000000000E+00  0.00000000000E+00  0.12736140377E+03  0.16473040933E+04  0.16423732367E+04 0.  0.
        4    1    3    3  502    0 -0.13428801088E+03  0.58166312174E+03 -0.50190995303E+03  0.77992337502E+03  0.12699999809E+01 0.  1.
       -4    1    3    3    0  502  0.13428801088E+03 -0.58166312174E+03  0.62927135679E+03  0.86738071828E+03  0.12699999809E+01 0. -1.
</event>
<event>
 5   0  0.7302027E-04  0.1656786E+04  0.7818609E-02  0.8786402E-01
        1   -1    0    0  501    0  0.00000000000E+00  0.00000000000E+00  0.50490663701E+03  0.50490663704E+03  0.50400001928E-02 0. -1.
       -1   -1    0    0    0  501  0.00000000000E+00  0.00000000000E+00 -0.13591319565E+04  0.13591319565E+04  0.50400001928E-02 0.  1.
    10030    2    1    2    0    0  0.00000000000E+00  0.00000000000E+00 -0.85422531952E+03  0.18640385936E+04  0.16567857381E+04 0.  0.
        5    1    3    3  502    0  0.52025446526E+03 -0.64301531318E+03 -0.37580971299E+03  0.90850890583E+03  0.46999998093E+01 0. -1.
       -5    1    3    3    0  502 -0.52025446526E+03  0.64301531318E+03 -0.47841560653E+03  0.95552968775E+03  0.46999998093E+01 0.  1.
</event>
<event>
 5   0  0.1339162E-03  0.1694440E+04  0.7818609E-02  0.8764542E-01
       -2   -1    0    0    0  501  0.00000000000E+00  0.00000000000E+00  0.44223267414E+03  0.44223267415E+03  0.25500000920E-02 0. -1.
        2   -1    0    0  501    0  0.00000000000E+00  0.00000000000E+00 -0.16230860698E+04  0.16230860698E+04  0.25500000920E-02 0.  1.
    10030    2    1    2    0    0  0.00000000000E+00  0.00000000000E+00 -0.11808533956E+04  0.20653187439E+04  0.16944399582E+04 0.  0.
        5    1    3    3  502    0  0.76534301299E+03 -0.34627313616E+03 -0.72452891418E+03  0.11093327949E+04  0.46999998093E+01 0. -1.
       -5    1    3    3    0  502 -0.76534301299E+03  0.34627313616E+03 -0.45632448144E+03  0.95598594902E+03  0.46999998093E+01 0.  1.
</event>
<event>
 5   0  0.1375777E-03  0.1581881E+04  0.7818609E-02  0.8831757E-01
       -2   -1    0    0    0  501  0.00000000000E+00  0.00000000000E+00  0.38645437656E+03  0.38645437657E+03  0.25500000920E-02 0.  1.
        2   -1    0    0  501    0  0.00000000000E+00  0.00000000000E+00 -0.16187861329E+04  0.16187861329E+04  0.25500000920E-02 0. -1.
    10030    2    1    2    0    0  0.00000000000E+00  0.00000000000E+00 -0.12323317563E+04  0.20052405095E+04  0.15818811407E+04 0.  0.
        1    1    3    3  502    0 -0.76974844143E+03 -0.22441135970E+02 -0.84493967921E+03  0.11432144721E+04  0.50400001928E-02 0. -1.
       -1    1    3    3    0  502  0.76974844143E+03  0.22441135970E+02 -0.38739207712E+03  0.86202603737E+03  0.50400001928E-02 0.  1.
</event>
<event>
 5   0  0.7499834E-04  0.1548692E+04  0.7818609E-02  0.8852703E-01
        1   -1    0    0  501    0  0.00000000000E+00  0.00000000000E+00  0.85622437108E+03  0.85622437110E+03  0.50400001928E-02 0. -1.
       -1   -1    0    0    0  501  0.00000000000E+00  0.00000000000E+00 -0.70029774923E+03  0.70029774925E+03  0.50400001928E-02 0.  1.
    10030    2    1    2    0    0  0.00000000000E+00  0.00000000000E+00  0.15592662185E+03  0.15565221203E+04  0.15486923515E+04 0.  0.
        3    1    3    3  502    0  0.13827618323E+03  0.37357019178E+03  0.74535134284E+03  0.84511752172E+03  0.10100000352E+00 0. -1.
       -3    1    3    3    0  502 -0.13827618323E+03 -0.37357019178E+03 -0.58942472099E+03  0.71140459863E+03  0.10100000352E+00 0.  1.
</event>
<event>
 5   0  0.7601145E-04  0.1432166E+04  0.7818609E-02  0.8930859E-01
        1   -1    0    0  501    0  0.00000000000E+00  0.00000000000E+00  0.11197408039E+04  0.11197408039E+04  0.50400001928E-02 0. -1.
       -1   -1    0    0    0  501  0.00000000000E+00  0.00000000000E+00 -0.45794047898E+03  0.45794047900E+03  0.50400001928E-02 0.  1.
    10030    2    1    2    0    0  0.00000000000E+00  0.00000000000E+00  0.66180032493E+03  0.15776812829E+04  0.14321656889E+04 0.  0.
        4    1    3    3  502    0  0.13885109991E+03 -0.62215338996E+03 -0.28463941686E+02  0.63809582153E+03  0.12699999809E+01 0.  1.
       -4    1    3    3    0  502 -0.13885109991E+03  0.62215338996E+03  0.69026426661E+03  0.93958546138E+03  0.12699999809E+01 0. -1.
</event>
<event>
 5   0  0.7601145E-04  0.1315165E+04  0.7818609E-02  0.9017625E-01
        1   -1    0    0  501    0  0.00000000000E+00  0.00000000000E+00  0.16287707717E+04  0.16287707717E+04  0.50400001928E-02 0. -1.
       -1   -1    0    0    0  501  0.00000000000E+00  0.00000000000E+00 -0.26548540000E+03  0.26548540005E+03  0.50400001928E-02 0.  1.
    10030    2    1    2    0    0  0.00000000000E+00  0.00000000000E+00  0.13632853717E+04  0.18942561717E+04  0.13151651758E+04 0.  0.
        4    1    3    3  502    0 -0.64886830728E+03  0.12247665797E+02  0.52898825618E+03  0.83726356280E+03  0.12699999809E+01 0. -1.
       -4    1    3    3    0  502  0.64886830728E+03 -0.12247665797E+02  0.83429711549E+03  0.10569926089E+04  0.12699999809E+01 0.  1.
</event>
<event>
 5   0  0.7601145E-04  0.9254226E+03  0.7818609E-02  0.9394348E-01
        1   -1    0    0  501    0  0.00000000000E+00  0.00000000000E+00  0.40605968277E+03  0.40605968281E+03  0.50400001928E-02 0.  1.
       -1   -1    0    0    0  501  0.00000000000E+00  0.00000000000E+00 -0.52726666211E+03  0.52726666213E+03  0.50400001928E-02 0. -1.
    10030    2    1    2    0    0  0.00000000000E+00  0.00000000000E+00 -0.12120697933E+03  0.93332634494E+03  0.92542257067E+03 0.  0.
        4    1    3    3  502    0  0.12510758621E+03  0.87509201909E+02 -0.50112958736E+03  0.52387235542E+03  0.12699999809E+01 0. -1.
       -4    1    3    3    0  502 -0.12510758621E+03 -0.87509201909E+02  0.37992260802E+03  0.40945398952E+03  0.12699999809E+01 0.  1.
</event>
<event>
 5   0  0.7499834E-04  0.1446133E+04  0.7818609E-02  0.8921086E-01
       -1   -1    0    0    0  501  0.00000000000E+00  0.00000000000E+00  0.83145058691E+03  0.83145058692E+03  0.50400001928E-02 0. -1.
        1   -1    0    0  501    0  0.00000000000E+00  0.00000000000E+00 -0.62881083081E+03  0.62881083083E+03  0.50400001928E-02 0.  1.
    10030    2    1    2    0    0  0.00000000000E+00  0.00000000000E+00  0.20263975610E+03  0.14602614177E+04  0.14461329598E+04 0.  0.
        3    1    3    3  502    0  0.45276092069E+03  0.56348004222E+03  0.83174484067E+02  0.72761268151E+03  0.10100000352E+00 0.  1.
       -3    1    3    3    0  502 -0.45276092069E+03 -0.56348004222E+03  0.11946527203E+03  0.73264873624E+03  0.10100000352E+00 0. -1.
</event>
<event>
 5   0  0.1339162E-03  0.1138518E+04  0.7818609E-02  0.9168442E-01
       -2   -1    0    0    0  501  0.00000000000E+00  0.00000000000E+00  0.25008741169E+03  0.25008741170E+03  0.25500000920E-02 0. -1.
        2   -1    0    0  501    0  0.00000000000E+00  0.00000000000E+00 -0.12957703944E+04  0.12957703944E+04  0.25500000920E-02 0.  1.
    10030    2    1    2    0    0  0.00000000000E+00  0.00000000000E+00 -0.10456829827E+04  0.15458578061E+04  0.11385180966E+04 0.  0.
        5    1    3    3  502    0  0.38633918692E+03 -0.26897986672E+03 -0.88297304704E+02  0.47898501027E+03  0.46999998093E+01 0. -1.
       -5    1    3    3    0  502 -0.38633918692E+03  0.26897986672E+03 -0.95738567801E+03  0.10668727958E+04  0.46999998093E+01 0.  1.
</event>
<event>
 5   0  0.1414751E-03  0.1252806E+04  0.7818609E-02  0.9067851E-01
       -2   -1    0    0    0  501  0.00000000000E+00  0.00000000000E+00  0.30336111533E+03  0.30336111534E+03  0.25500000920E-02 0.  1.
        2   -1    0    0  501    0  0.00000000000E+00  0.00000000000E+00 -0.12934452745E+04  0.12934452745E+04  0.25500000920E-02 0. -1.
    10030    2    1    2    0    0  0.00000000000E+00  0.00000000000E+00 -0.99008415913E+03  0.15968063898E+04  0.12528064513E+04 0.  0.
        2    1    3    3  502    0  0.61831881445E+03  0.62280559442E+02 -0.59527311179E+03  0.86055046454E+03  0.25500000920E-02 0. -1.
       -2    1    3    3    0  502 -0.61831881445E+03 -0.62280559442E+02 -0.39481104734E+03  0.73625592527E+03  0.25500000920E-02 0.  1.
</event>
<event>
 5   0  0.7124495E-04  0.1331500E+04  0.7818609E-02  0.9004951E-01
       -1   -1    0    0    0  501  0.00000000000E+00  0.00000000000E+00  0.13359428893E+04  0.13359428893E+04  0.50400001928E-02 0. -1.
        1   -1    0    0  501    0  0.00000000000E+00  0.00000000000E+00 -0.33176812312E+03  0.33176812315E+03  0.50400001928E-02 0.  1.
    10030    2    1    2    0    0  0.00000000000E+00  0.00000000000E+00  0.10041747661E+04  0.16677110124E+04  0.13315003042E+04 0.  0.
        2    1    3    3  502    0  0.22416858190E+03  0.45948132758E+03 -0.32027319759E+02  0.51225032233E+03  0.25500000920E-02 0.  1.
       -2    1    3    3    0  502 -0.22416858190E+03 -0.45948132758E+03  0.10362020859E+04  0.11554606901E+04  0.25500000920E-02 0. -1.
</event>
<event>
 5   0  0.7633213E-04  0.1563762E+04  0.7818609E-02  0.8843125E-01
        1   -1    0    0  501    0  0.00000000000E+00  0.00000000000E+00  0.88559897381E+03  0.88559897382E+03  0.50400001928E-02 0. -1.
       -1   -1    0    0    0  501  0.00000000000E+00  0.00000000000E+00 -0.69030980520E+03  0.69030980522E+03  0.50400001928E-02 0.  1.
    10030    2    1    2    0    0  0.00000000000E+00  0.00000000000E+00  0.19528916861E+03  0.15759087790E+04  0.15637616892E+04 0.  0.
        1    1    3    3  502    0  0.31856075951E+03  0.24660699733E+03 -0.57766643443E+03  0.70426875419E+03  0.50400001928E-02 0.  1.
       -1    1    3    3    0  502 -0.31856075951E+03 -0.24660699733E+03  0.77295560303E+03  0.87164002485E+03  0.50400001928E-02 0. -1.
</event>
<event>
 5   0  0.7499834E-04  0.1473742E+04  0.7818609E-02  0.8902104E-01
       -1   -1    0    0    0  501  0.00000000000E+00  0.00000000000E+00  0.16449167649E+04  0.16449167649E+04  0.50400001928E-02 0.  1.
        1   -1    0    0  501    0  0.00000000000E+00  0.00000000000E+00 -0.33009498594E+03  0.33009498598E+03  0.50400001928E-02 0. -1.
    10030    2    1    2    0    0  0.00000000000E+00  0.00000000000E+00  0.13148217789E+04  0.19750117509E+04  0.14737418721E+04 0.  0.
        3    1    3    3  502    0  0.32262395619E+03 -0.65907281637E+02 -0.22600972282E+03  0.39938752095E+03  0.10100000352E+00 0. -1.
       -3    1    3    3    0  502 -0.32262395619E+03  0.65907281637E+02  0.15408315017E+04  0.15756242299E+04  0.10100000352E+00 0.  1.
</event>
<event>
 5   0  0.7633213E-04  0.1614068E+04  0.7818609E-02  0.8811952E-01
        1   -1    0    0  501    0  0.00000000000E+00  0.00000000000E+00  0.10562447084E+04  0.10562447084E+04  0.50400001928E-02 0.  1.
       -1   -1    0    0    0  501  0.00000000000E+00  0.00000000000E+00 -0.61662177321E+03  0.61662177324E+03  0.50400001928E-02 0. -1.
    10030    2    1    2    0    0  0.00000000000E+00  0.00000000000E+00  0.43962293518E+03  0.16728664816E+04  0.16140675142E+04 0.  0.
        1    1    3    3  502    0 -0.49257155534E+03 -0.44594584047E+03  0.69454695462E+03  0.96119191734E+03  0.50400001928E-02 0.  1.
       -1    1    3    3    0  502  0.49257155534E+03  0.44594584047E+03 -0.25492401944E+03  0.71167456430E+03  0.50400001928E-02 0. -1.
</event>
<event>
 5   0  0.7601145E-04  0.1619238E+04  0.7818609E-02  0.8808816E-01
       -1   -1    0    0    0  501  0.00000000000E+00  0.00000000000E+00  0.62171195001E+03  0.62171195003E+03  0.50400001928E-02 0.  1.
        1   -1    0    0  501    0  0.00000000000E+00  0.00000000000E+00 -0.10543191958E+04  0.10543191958E+04  0.50400001928E-02 0. -1.
    10030    2    1    2    0    0  0.00000000000E+00  0.00000000000E+00 -0.43260724575E+03  0.16760311458E+04  0.16192378987E+04 0.  0.
        4    1    3    3  502    0  0.53117767151E+03 -0.18285460425E+03  0.38715050637E+03  0.68225556245E+03  0.12699999809E+01 0.  1.
       -4    1    3    3    0  502 -0.53117767151E+03  0.18285460425E+03 -0.81975775212E+03  0.99377558335E+03  0.12699999809E+01 0. -1.
</event>
<event>
 5   0  0.7601145E-04  0.1340476E+04  0.7818609E-02  0.8998069E-01
        1   -1    0    0  501    0  0.00000000000E+00  0.00000000000E+00  0.11964815224E+04  0.11964815224E+04  0.50400001928E-02 0.  1.
       -1   -1    0    0    0  501  0.00000000000E+00  0.00000000000E+00 -0.37545014950E+03  0.37545014953E+03  0.50400001928E-02 0. -1.
    10030    2    1    2    0    0  0.00000000000E+00  0.00000000000E+00  0.82103137292E+03  0.15719316720E+04  0.13404762833E+04 0.  0.
        4    1    3    3  502    0  0.43769588598E+02 -0.56272026547E+03 -0.13347189102E+02  0.56457916577E+03  0.12699999809E+01 0. -1.
       -4    1    3    3    0  502 -0.43769588598E+02  0.56272026547E+03  0.83437856202E+03  0.10073525062E+04  0.12699999809E+01 0.  1.
</event>
<event>
 5   0  0.7499834E-04  0.1600885E+04  0.7818609E-02  0.8820004E-01
       -1   -1    0    0    0  501  0.00000000000E+00  0.00000000000E+00  0.71876621463E+03  0.71876621465E+03  0.50400001928E-02 0.  1.
        1   -1    0    0  501    0  0.00000000000E+00  0.00000000000E+00 -0.89140048859E+03  0.89140048860E+03  0.50400001928E-02 0. -1.
    10030    2    1    2    0    0  0.00000000000E+00  0.00000000000E+00 -0.17263427396E+03  0.16101667033E+04  0.16008854487E+04 0.  0.
        3    1    3    3  502    0 -0.38689239928E+03  0.65470147668E+03 -0.33754272691E+03  0.83201854239E+03  0.10100000352E+00 0.  1.
       -3    1    3    3    0  502  0.38689239928E+03 -0.65470147668E+03  0.16490845296E+03  0.77814816086E+03  0.10100000352E+00 0. -1.
</event>
<event>
 5   0  0.1414751E-03  0.1375932E+04  0.7818609E-02  0.8971427E-01
       -2   -1    0    0    0  501  0.00000000000E+00  0.00000000000E+00  0.74816933601E+03  0.74816933601E+03  0.25500000920E-02 0.  1.
        2   -1    0    0  501    0  0.00000000000E+00  0.00000000000E+00 -0.63260687666E+03  0.63260687667E+03  0.25500000920E-02 0. -1.
    10030    2    1    2    0    0  0.00000000000E+00  0.00000000000E+00  0.11556245934E+03  0.13807762127E+04  0.13759317816E+04 0.  0.
        2    1    3    3  502    0  0.97647338073E+02 -0.64435673444E+03 -0.16337268557E+03  0.67187888659E+03  0.25500000920E-02 0. -1.
       -2    1    3    3    0  502 -0.97647338073E+02  0.64435673444E+03  0.27893514492E+03  0.70889732608E+03  0.25500000920E-02 0.  1.
</event>
<event>
 5   0  0.5095750E-04  0.1523033E+04  0.7818609E-02  0.8869279E-01
       -3   -1    0    0    0  501  0.00000000000E+00  0.00000000000E+00  0.40775289009E+03  0.40775290260E+03  0.10100000352E+00 0.  1.
        3   -1    0    0  501    0  0.00000000000E+00  0.00000000000E+00 -0.14222037832E+04  0.14222037868E+04  0.10100000352E+00 0. -1.
    10030    2    1    2    0    0  0.00000000000E+00  0.00000000000E+00 -0.10144508931E+04  0.18299566893E+04  0.15230334436E+04 0.  0.
        2    1    3    3  502    0 -0.53918512370E+03  0.53442740474E+03 -0.57906061952E+03  0.95480073818E+03  0.25500000920E-02 0.  1.
       -2    1    3    3    0  502  0.53918512370E+03 -0.53442740474E+03 -0.43539027356E+03  0.87515595117E+03  0.25500000920E-02 0. -1.
</event>
<event>
 5   0  0.1375777E-03  0.1618225E+04  0.7818609E-02  0.8809429E-01
       -2   -1    0    0    0  501  0.00000000000E+00  0.00000000000E+00  0.43068565767E+03  0.43068565768E+03  0.25500000920E-02 0. -1.
        2   -1    0    0  501    0  0.00000000000E+00  0.00000000000E+00 -0.15200484689E+04  0.15200484689E+04  0.25500000920E-02 0.  1.
    10030    2    1    2    0    0  0.00000000000E+00  0.00000000000E+00 -0.10893628112E+04  0.19507341265E+04  0.16182250455E+04 0.  0.
        1    1    3    3  502    0 -0.12654456711E+03 -0.76497014056E+03 -0.26593120179E+03  0.81970253600E+03  0.50400001928E-02 0. -1.
       -1    1    3    3    0  502  0.12654456711E+03  0.76497014056E+03 -0.82343160940E+03  0.11310315905E+04  0.50400001928E-02 0.  1.
</event>
<event>
 5   0  0.7499834E-04  0.1491464E+04  0.7818609E-02  0.8890149E-01
        1   -1    0    0  501    0  0.00000000000E+00  0.00000000000E+00  0.12317072227E+04  0.12317072227E+04  0.50400001928E-02 0.  1.
       -1   -1    0    0    0  501  0.00000000000E+00  0.00000000000E+00 -0.45150052888E+03  0.45150052891E+03  0.50400001928E-02 0. -1.
    10030    2    1    2    0    0  0.00000000000E+00  0.00000000000E+00  0.78020669381E+03  0.16832077516E+04  0.14914643308E+04 0.  0.
        3    1    3    3  502    0 -0.70768516439E+03  0.15603639259E+03  0.58864920100E+03  0.93363458577E+03  0.10100000352E+00 0. -1.
       -3    1    3    3    0  502  0.70768516439E+03 -0.15603639259E+03  0.19155749281E+03  0.74957316585E+03  0.10100000352E+00 0.  1.
</event>
<event>
 5   0  0.1375777E-03  0.9111948E+03  0.7818609E-02  0.9411695E-01
       -2   -1    0    0    0  501  0.00000000000E+00  0.00000000000E+00  0.28142997656E+03  0.28142997657E+03  0.25500000920E-02 0.  1.
        2   -1    0    0  501    0  0.00000000000E+00  0.00000000000E+00 -0.73755102750E+03  0.73755102750E+03  0.25500000920E-02 0. -1.
    10030    2    1    2    0    0  0.00000000000E+00  0.00000000000E+00 -0.45612105094E+03  0.10189810041E+04  0.91119475062E+03 0.  0.
        1    1    3    3  502    0 -0.42248555092E+03  0.48692219032E+02 -0.45316578240E+02  0.42768980023E+03  0.50400001928E-02 0.  1.
       -1    1    3    3    0  502  0.42248555092E+03 -0.48692219032E+02 -0.41080447270E+03  0.59129120385E+03  0.50400001928E-02 0. -1.
</event>
<event>
 5   0  0.7633213E-04  0.1560028E+04  0.7818609E-02  0.8845487E-01
       -1   -1    0    0    0  501  0.00000000000E+00  0.00000000000E+00  0.10860726487E+04  0.10860726488E+04  0.50400001928E-02 0.  1.
        1   -1    0    0  501    0  0.00000000000E+00  0.00000000000E+00 -0.56020391208E+03  0.56020391210E+03  0.50400001928E-02 0. -1.
    10030    2    1    2    0    0  0.00000000000E+00  0.00000000000E+00  0.52586873666E+03  0.16462765609E+04  0.15600283929E+04 0.  0.
        1    1    3    3  502    0 -0.47041256401E+03  0.51995377679E+03  0.62356173933E+03  0.93833317811E+03  0.50400001928E-02 0.  1.
       -1    1    3    3    0  502  0.47041256401E+03 -0.51995377679E+03 -0.97693002665E+02  0.70794338274E+03  0.50400001928E-02 0. -1.
</event>
<event>
 5   0  0.1339162E-03  0.1596012E+04  0.7818609E-02  0.8823002E-01
       -2   -1    0    0    0  501  0.00000000000E+00  0.00000000000E+00  0.56311351237E+03  0.56311351237E+03  0.25500000920E-02 0.  1.
        2   -1    0    0  501    0  0.00000000000E+00  0.00000000000E+00 -0.11308790992E+04  0.11308790992E+04  0.25500000920E-02 0. -1.
    10030    2    1    2    0    0  0.00000000000E+00  0.00000000000E+00 -0.56776558681E+03  0.16939926116E+04  0.15960116561E+04 0.  0.
        5    1    3    3  502    0 -0.48158939280E+03  0.34853350984E+03  0.28113954053E+03  0.65762107781E+03  0.46999998093E+01 0.  1.
       -5    1    3    3    0  502  0.48158939280E+03 -0.34853350984E+03 -0.84890512734E+03  0.10363715337E+04  0.46999998093E+01 0. -1.
</event>
<event>
 5   0  0.7124495E-04  0.1585564E+04  0.7818609E-02  0.8829466E-01
        1   -1    0    0  501    0  0.00000000000E+00  0.00000000000E+00  0.92049866920E+03  0.92049866921E+03  0.50400001928E-02 0. -1.
       -1   -1    0    0    0  501  0.00000000000E+00  0.00000000000E+00 -0.68278554345E+03  0.68278554346E+03  0.50400001928E-02 0.  1.
    10030    2    1    2    0    0  0.00000000000E+00  0.00000000000E+00  0.23771312575E+03  0.16032842127E+04  0.15855638544E+04 0.  0.
        2    1    3    3  502    0  0.61644584095E+03 -0.81019640858E+02 -0.37850796472E+03  0.72789967467E+03  0.25500000920E-02 0.  1.
       -2    1    3    3    0  502 -0.61644584095E+03  0.81019640858E+02  0.61622109047E+03  0.87538453800E+03  0.25500000920E-02 0. -1.
</event>
<event>
 5   0  0.1354766E-03  0.1577357E+04  0.7818609E-02  0.8834581E-01
       -2   -1    0    0    0  501  0.00000000000E+00  0.00000000000E+00  0.29238133417E+03  0.29238133418E+03  0.25500000920E-02 0. -1.
        2   -1    0    0  501    0  0.00000000000E+00  0.00000000000E+00 -0.21274049023E+04  0.21274049023E+04  0.25500000920E-02 0.  1.
    10030    2    1    2    0    0  0.00000000000E+00  0.00000000000E+00 -0.18350235681E+04  0.24197862365E+04  0.15773566289E+04 0.  0.
        3    1    3    3  502    0  0.50816032930E+03 -0.49492504573E+03 -0.14463473642E+04  0.16109309201E+04  0.10100000352E+00 0.  1.
       -3    1    3    3    0  502 -0.50816032930E+03  0.49492504573E+03 -0.38867620393E+03  0.80885531640E+03  0.10100000352E+00 0. -1.
</event>
<event>
 5   0  0.1414751E-03  0.1560386E+04  0.7818609E-02  0.8845261E-01
        2   -1    0    0  501    0  0.00000000000E+00  0.00000000000E+00  0.75507300246E+03  0.75507300246E+03  0.25500000920E-02 0.  1.
       -2   -1    0    0    0  501  0.00000000000E+00  0.00000000000E+00 -0.80614840110E+03  0.80614840110E+03  0.25500000920E-02 0. -1.
    10030    2    1    2    0    0  0.00000000000E+00  0.00000000000E+00 -0.51075398636E+02  0.15612214036E+04  0.15603857134E+04 0.  0.
        2    1    3    3  502    0 -0.16415361017E+03 -0.55291375310E+03 -0.55121499876E+03  0.79780824824E+03  0.25500000920E-02 0. -1.
       -2    1    3    3    0  502  0.16415361017E+03  0.55291375310E+03  0.50013960012E+03  0.76341315532E+03  0.25500000920E-02 0.  1.
</event>
<event>
 5   0  0.7124495E-04  0.1459011E+04  0.7818609E-02  0.8912177E-01
        1   -1    0    0  501    0  0.00000000000E+00  0.00000000000E+00  0.13547907870E+04  0.13547907870E+04  0.50400001928E-02 0. -1.
       -1   -1    0    0    0  501  0.00000000000E+00  0.00000000000E+00 -0.39281231426E+03  0.39281231429E+03  0.50400001928E-02 0.  1.
    10030    2    1    2    0    0  0.00000000000E+00  0.00000000000E+00  0.96197847273E+03  0.17476031013E+04  0.14590113151E+04 0.  0.
        2    1    3    3  502    0 -0.27786585381E+02 -0.60916745912E+03  0.13884153919E+01  0.60980243955E+03  0.25500000920E-02 0.  1.
       -2    1    3    3    0  502  0.27786585381E+02  0.60916745912E+03  0.96059005733E+03  0.11378006617E+04  0.25500000920E-02 0. -1.
</event>
<event>
 5   0  0.1339162E-03  0.1506587E+04  0.7818609E-02  0.8880085E-01
       -2   -1    0    0    0  501  0.00000000000E+00  0.00000000000E+00  0.42253627582E+03  0.42253627583E+03  0.25500000920E-02 0.  1.
        2   -1    0    0  501    0  0.00000000000E+00  0.00000000000E+00 -0.13429638462E+04  0.13429638462E+04  0.25500000920E-02 0. -1.
    10030    2    1    2    0    0  0.00000000000E+00  0.00000000000E+00 -0.92042757037E+03  0.17655001220E+04  0.15065867942E+04 0.  0.
        5    1    3    3  502    0 -0.39283234583E+03  0.17536758453E+03 -0.11848308852E+04  0.12605226527E+04  0.46999998093E+01 0. -1.
       -5    1    3    3    0  502  0.39283234583E+03 -0.17536758453E+03  0.26440331478E+03  0.50497746929E+03  0.46999998093E+01 0.  1.
</event>
<event>
 5   0  0.1339162E-03  0.1596445E+04  0.7818609E-02  0.8822735E-01
        2   -1    0    0  501    0  0.00000000000E+00  0.00000000000E+00  0.17627507133E+04  0.17627507133E+04  0.25500000920E-02 0. -1.
       -2   -1    0    0    0  501  0.00000000000E+00  0.00000000000E+00 -0.36145712450E+03  0.36145712451E+03  0.25500000920E-02 0.  1.
    10030    2    1    2    0    0  0.00000000000E+00  0.00000000000E+00  0.14012935888E+04  0.21242078378E+04  0.15964445547E+04 0.  0.
        5    1    3    3  502    0 -0.57766942500E+03  0.47167139591E+03  0.10792468557E+04  0.13118581234E+04  0.46999998093E+01 0. -1.
       -5    1    3    3    0  502  0.57766942500E+03 -0.47167139591E+03  0.32204673315E+03  0.81234971449E+03  0.46999998093E+01 0.  1.
</event>
<event>
 5   0  0.1354766E-03  0.1565301E+04  0.7818609E-02  0.8842153E-01
       -2   -1    0    0    0  501  0.00000000000E+00  0.00000000000E+00  0.56537177284E+03  0.56537177284E+03  0.25500000920E-02 0. -1.
        2   -1    0    0  501    0  0.00000000000E+00  0.00000000000E+00 -0.10834312015E+04  0.10834312015E+04  0.25500000920E-02 0.  1.
    10030    2    1    2    0    0  0.00000000000E+00  0.00000000000E+00 -0.51805942863E+03  0.16488029743E+04  0.15653005068E+04 0.  0.
        3    1    3    3  502    0  0.60808109565E+03 -0.33023177803E+03 -0.64422288471E+03  0.94543047417E+03  0.10100000352E+00 0.  1.
       -3    1    3    3    0  502 -0.60808109565E+03  0.33023177803E+03  0.12616345608E+03  0.70337250014E+03  0.10100000352E+00 0. -1.
</event>
<event>
 5   0  0.1375777E-03  0.1649318E+04  0.7818609E-02  0.8790810E-01
       -2   -1    0    0    0  501  0.00000000000E+00  0.00000000000E+00  0.74744162602E+03  0.74744162603E+03  0.25500000920E-02 0. -1.
        2   -1    0    0  501    0  0.00000000000E+00  0.00000000000E+00 -0.90985339908E+03  0.90985339909E+03  0.25500000920E-02 0.  1.
    10030    2    1    2    0    0  0.00000000000E+00  0.00000000000E+00 -0.16241177306E+03  0.16572950251E+04  0.16493178033E+04 0.  0.
        1    1    3    3  502    0 -0.69111556594E+03 -0.31205604374E+03 -0.40687623562E+03  0.86056258985E+03  0.50400001928E-02 0.  1.
       -1    1    3    3    0  502  0.69111556594E+03  0.31205604374E+03  0.24446446256E+03  0.79673243526E+03  0.50400001928E-02 0. -1.
</event>
<event>
 5   0  0.7302027E-04  0.1516138E+04  0.7818609E-02  0.8873791E-01
        1   -1    0    0  501    0  0.00000000000E+00  0.00000000000E+00  0.17108705091E+04  0.17108705091E+04  0.50400001928E-02 0. -1.
       -1   -1    0    0    0  501  0.00000000000E+00  0.00000000000E+00 -0.33589270234E+03  0.33589270238E+03  0.50400001928E-02 0.  1.
    10030    2    1    2    0    0  0.00000000000E+00  0.00000000000E+00  0.13749778068E+04  0.20467632115E+04  0.15161384089E+04 0.  0.
        5    1    3    3  502    0  0.57593968234E+03  0.14606791971E+03  0.51985304573E+02  0.59646199942E+03  0.46999998093E+01 0.  1.
       -5    1    3    3    0  502 -0.57593968234E+03 -0.14606791971E+03  0.13229925022E+04  0.14503012121E+04  0.46999998093E+01 0. -1.
</event>
<event>
 5   0  0.7633213E-04  0.1656380E+04  0.7818609E-02  0.8786641E-01
       -1   -1    0    0    0  501  0.00000000000E+00  0.00000000000E+00  0.40288529831E+03  0.40288529834E+03  0.50400001928E-02 0. -1.
        1   -1    0    0  501    0  0.00000000000E+00  0.00000000000E+00 -0.17024659340E+04  0.17024659340E+04  0.50400001928E-02 0.  1.
    10030    2    1    2    0    0  0.00000000000E+00  0.00000000000E+00 -0.12995806357E+04  0.21053512323E+04  0.16563797822E+04 0.  0.
        1    1    3    3  502    0  0.59094869070E+03  0.11921663419E+02 -0.13871517392E+04  0.15078303713E+04  0.50400001928E-02 0.  1.
       -1    1    3    3    0  502 -0.59094869070E+03 -0.11921663419E+02  0.87571103553E+02  0.59752086098E+03  0.50400001928E-02 0. -1.
</event>
<event>
 5   0  0.1414751E-03  0.1669477E+04  0.7818609E-02  0.8778967E-01
       -2   -1    0    0    0  501  0.00000000000E+00  0.00000000000E+00  0.75014515859E+03  0.75014515859E+03  0.25500000920E-02 0.  1.
        2   -1    0    0  501    0  0.00000000000E+00  0.00000000000E+00 -0.92887180857E+03  0.92887180858E+03  0.25500000920E-02 0. -1.
    10030    2    1    2    0    0  0.00000000000E+00  0.00000000000E+00 -0.17872664998E+03  0.16790169672E+04  0.16694773915E+04 0.  0.
        2    1    3    3  502    0 -0.26918612946E+03 -0.31524392926E+03 -0.81803688161E+03  0.91707374126E+03  0.25500000920E-02 0. -1.
       -2    1    3    3    0  502  0.26918612946E+03  0.31524392926E+03  0.63931023163E+03  0.76194322590E+03  0.25500000920E-02 0.  1.
</event>
<event>
 5   0  0.7124495E-04  0.1512070E+04  0.7818609E-02  0.8876466E-01
        1   -1    0    0  501    0  0.00000000000E+00  0.00000000000E+00  0.89475976783E+03  0.89475976784E+03  0.50400001928E-02 0.  1.
       -1   -1    0    0    0  501  0.00000000000E+00  0.00000000000E+00 -0.63881809421E+03  0.63881809423E+03  0.50400001928E-02 0. -1.
    10030    2    1    2    0    0  0.00000000000E+00  0.00000000000E+00  0.25594167362E+03  0.15335778621E+04  0.15120697466E+04 0.  0.
        2    1    3    3  502    0  0.21197809197E+03  0.20512383283E+03 -0.57804746101E+03  0.64896021870E+03  0.25500000920E-02 0. -1.
       -2    1    3    3    0  502 -0.21197809197E+03 -0.20512383283E+03  0.83398913463E+03  0.88461764337E+03  0.25500000920E-02 0.  1.
</event>
<event>
 5   0  0.1354766E-03  0.1593099E+04  0.7818609E-02  0.8824799E-01
        2   -1    0    0  501    0  0.00000000000E+00  0.00000000000E+00  0.12768030603E+04  0.12768030604E+04  0.25500000920E-02 0.  1.
       -2   -1    0    0    0  501  0.00000000000E+00  0.00000000000E+00 -0.49693735114E+03  0.49693735115E+03  0.25500000920E-02 0. -1.
    10030    2    1    2    0    0  0.00000000000E+00  0.00000000000E+00  0.77986570920E+03  0.17737404115E+04  0.15930990311E+04 0.  0.
        3    1    3    3  502    0 -0.26920859408E+03 -0.46032206752E+03  0.10487374881E+04  0.11765287935E+04  0.10100000352E+00 0.  1.
       -3    1    3    3    0  502  0.26920859408E+03  0.46032206752E+03 -0.26887177885E+03  0.59721161796E+03  0.10100000352E+00 0. -1.
</event>
<event>
 5   0  0.1339162E-03  0.1637128E+04  0.7818609E-02  0.8798058E-01
        2   -1    0    0  501    0  0.00000000000E+00  0.00000000000E+00  0.21805183533E+04  0.21805183533E+04  0.25500000920E-02 0.  1.
       -2   -1    0    0    0  501  0.00000000000E+00  0.00000000000E+00 -0.30728786489E+03  0.30728786490E+03  0.25500000920E-02 0. -1.
    10030    2    1    2    0    0  0.00000000000E+00  0.00000000000E+00  0.18732304884E+04  0.24878062182E+04  0.16371277643E+04 0.  0.
        5    1    3    3  502    0  0.47075336703E+03  0.61675371137E+03  0.54025784029E+03  0.94545993942E+03  0.46999998093E+01 0. -1.
       -5    1    3    3    0  502 -0.47075336703E+03 -0.61675371137E+03  0.13329726481E+04  0.15423462788E+04  0.46999998093E+01 0.  1.
</event>
<event>
 5   0  0.7302027E-04  0.1593592E+04  0.7818609E-02  0.8824494E-01
       -1   -1    0    0    0  501  0.00000000000E+00  0.00000000000E+00  0.85576212177E+03  0.85576212179E+03  0.50400001928E-02 0. -1.
        1   -1    0    0  501    0  0.00000000000E+00  0.00000000000E+00 -0.74189313838E+03  0.74189313840E+03  0.50400001928E-02 0.  1.
    10030    2    1    2    0    0  0.00000000000E+00  0.00000000000E+00  0.11386898339E+03  0.15976552602E+04  0.15935922267E+04 0.  0.
        5    1    3    3  502    0  0.12027475800E+03  0.74108600789E+03 -0.21055556532E+03  0.77976292845E+03  0.46999998093E+01 0. -1.
       -5    1    3    3    0  502 -0.12027475800E+03 -0.74108600789E+03  0.32442454871E+03  0.81789233173E+03  0.46999998093E+01 0.  1.
</event>
<event>
 5   0  0.7302027E-04  0.1643536E+04  0.7818609E-02  0.8794239E-01
        1   -1    0    0  501    0  0.00000000000E+00  0.00000000000E+00  0.18252324704E+04  0.18252324704E+04  0.50400001928E-02 0. -1.
       -1   -1    0    0    0  501  0.00000000000E+00  0.00000000000E+00 -0.36998193141E+03  0.36998193145E+03  0.50400001928E-02 0.  1.
    10030    2    1    2    0    0  0.00000000000E+00  0.00000000000E+00  0.14552505390E+04  0.21952144019E+04  0.16435364732E+04 0.  0.
        5    1    3    3  502    0 -0.45194382384E+03  0.53981299677E+03  0.16153379703E+03  0.72233409789E+03  0.46999998093E+01 0.  1.
       -5    1    3    3    0  502  0.45194382384E+03 -0.53981299677E+03  0.12937167420E+04  0.14728803040E+04  0.46999998093E+01 0. -1.
</event>
<event>
 5   0  0.1375777E-03  0.1606432E+04  0.7818609E-02  0.8816606E-01
        2   -1    0    0  501    0  0.00000000000E+00  0.00000000000E+00  0.18812654797E+04  0.18812654797E+04  0.25500000920E-02 0.  1.
       -2   -1    0    0    0  501  0.00000000000E+00  0.00000000000E+00 -0.34293738705E+03  0.34293738706E+03  0.25500000920E-02 0. -1.
    10030    2    1    2    0    0  0.00000000000E+00  0.00000000000E+00  0.15383280927E+04  0.22242028668E+04  0.16064324050E+04 0.  0.
        1    1    3    3  502    0  0.20213455194E+03  0.50428548514E+03  0.15882741155E+04  0.16786235116E+04  0.50400001928E-02 0.  1.
       -1    1    3    3    0  502 -0.20213455194E+03 -0.50428548514E+03 -0.49946022835E+02  0.54557935521E+03  0.50400001928E-02 0. -1.
</event>
<event>
 5   0  0.1414796E-03  0.1436880E+04  0.7818609E-02  0.8927547E-01
       -2   -1    0    0    0  501  0.00000000000E+00  0.00000000000E+00  0.30921144897E+03  0.30921144898E+03  0.25500000920E-02 0. -1.
        2   -1    0    0  501    0  0.00000000000E+00  0.00000000000E+00 -0.16692653659E+04  0.16692653659E+04  0.25500000920E-02 0.  1.
    10030    2    1    2    0    0  0.00000000000E+00  0.00000000000E+00 -0.13600539169E+04  0.19784768148E+04  0.14368799010E+04 0.  0.
        4    1    3    3  502    0  0.43032750545E+03 -0.20255980141E+03 -0.14214501153E+04  0.14989110308E+04  0.12699999809E+01 0.  1.
       -4    1    3    3    0  502 -0.43032750545E+03  0.20255980141E+03  0.61396198442E+02  0.47956578400E+03  0.12699999809E+01 0. -1.
</event>
<event>
 5   0  0.5095750E-04  0.1588867E+04  0.7818609E-02  0.8827417E-01
        4   -1    0    0  501    0  0.00000000000E+00  0.00000000000E+00  0.11159333172E+04  0.11159340399E+04  0.12699999809E+01 0.  1.
       -4   -1    0    0    0  501  0.00000000000E+00  0.00000000000E+00 -0.56555589272E+03  0.56555731866E+03  0.12699999809E+01 0. -1.
    10030    2    1    2    0    0  0.00000000000E+00  0.00000000000E+00  0.55037742451E+03  0.16814913586E+04  0.15888668539E+04 0.  0.
        5    1    3    3  502    0  0.25486373257E+03 -0.64159428092E+03 -0.14079515429E+03  0.70458790009E+03  0.46999998093E+01 0. -1.
       -5    1    3    3    0  502 -0.25486373257E+03  0.64159428092E+03  0.69117257880E+03  0.97690345847E+03  0.46999998093E+01 0.  1.
</event>
<event>
 5   0  0.7601145E-04  0.1613711E+04  0.7818609E-02  0.8812169E-01
        1   -1    0    0  501    0  0.00000000000E+00  0.00000000000E+00  0.25573833706E+04  0.25573833706E+04  0.50400001928E-02 0.  1.
       -1   -1    0    0    0  501  0.00000000000E+00  0.00000000000E+00 -0.25456318237E+03  0.25456318242E+03  0.50400001928E-02 0. -1.
    10030    2    1    2    0    0  0.00000000000E+00  0.00000000000E+00  0.23028201882E+04  0.28119465530E+04  0.16137108160E+04 0.  0.
        4    1    3    3  502    0  0.17669583269E+03  0.68059715325E+03  0.46188562530E+03  0.84129296090E+03  0.12699999809E+01 0. -1.
       -4    1    3    3    0  502 -0.17669583269E+03 -0.68059715325E+03  0.18409345629E+04  0.19706535921E+04  0.12699999809E+01 0.  1.
</event>
<event>
 5   0  0.1339162E-03  0.1116001E+04  0.7818609E-02  0.9189735E-01
        2   -1    0    0  501    0  0.00000000000E+00  0.00000000000E+00  0.92446032480E+03  0.92446032481E+03  0.25500000920E-02 0. -1.
       -2   -1    0    0    0  501  0.00000000000E+00  0.00000000000E+00 -0.33680677717E+03  0.33680677718E+03  0.25500000920E-02 0.  1.
    10030    2    1    2    0    0  0.00000000000E+00  0.00000000000E+00  0.58765354764E+03  0.12612671020E+04  0.11160009008E+04 0.  0.
        5    1    3    3  502    0  0.30621235771E+03 -0.48626239377E+02  0.81812170273E+03  0.87491469850E+03  0.46999998093E+01 0. -1.
       -5    1    3    3    0  502 -0.30621235771E+03  0.48626239377E+02 -0.23046815509E+03  0.38635240349E+03  0.46999998093E+01 0.  1.
</event>
<event>
 5   0  0.7633213E-04  0.1516099E+04  0.7818609E-02  0.8873817E-01
       -1   -1    0    0    0  501  0.00000000000E+00  0.00000000000E+00  0.31694875626E+03  0.31694875630E+03  0.50400001928E-02 0.  1.
        1   -1    0    0  501    0  0.00000000000E+00  0.00000000000E+00 -0.18130350779E+04  0.18130350779E+04  0.50400001928E-02 0. -1.
    10030    2    1    2    0    0  0.00000000000E+00  0.00000000000E+00 -0.14960863217E+04  0.21299838342E+04  0.15160992224E+04 0.  0.
        1    1    3    3  502    0 -0.32034185648E+03  0.62465613316E+03 -0.11499188650E+04  0.13472667092E+04  0.50400001928E-02 0. -1.
       -1    1    3    3    0  502  0.32034185648E+03 -0.62465613316E+03 -0.34616745671E+03  0.78271712503E+03  0.50400001928E-02 0.  1.
</event>
<event>
 5   0  0.1339162E-03  0.1592480E+04  0.7818609E-02  0.8825181E-01
       -2   -1    0    0    0  501  0.00000000000E+00  0.00000000000E+00  0.55787710995E+03  0.55787710995E+03  0.25500000920E-02 0. -1.
        2   -1    0    0  501    0  0.00000000000E+00  0.00000000000E+00 -0.11364472391E+04  0.11364472391E+04  0.25500000920E-02 0.  1.
    10030    2    1    2    0    0  0.00000000000E+00  0.00000000000E+00 -0.57857012911E+03  0.16943243490E+04  0.15924797033E+04 0.  0.
        5    1    3    3  502    0  0.23548924953E+03  0.71627947339E+02 -0.10949375050E+04  0.11222726849E+04  0.46999998093E+01 0.  1.
       -5    1    3    3    0  502 -0.23548924953E+03 -0.71627947339E+02  0.51636737590E+03  0.57205166408E+03  0.46999998093E+01 0. -1.
</event>
<event>
 5   0  0.7124495E-04  0.1650521E+04  0.7818609E-02  0.8790098E-01
       -1   -1    0    0    0  501  0.00000000000E+00  0.00000000000E+00  0.54500131934E+03  0.54500131936E+03  0.50400001928E-02 0. -1.
        1   -1    0    0  501    0  0.00000000000E+00  0.00000000000E+00 -0.12496393608E+04  0.12496393608E+04  0.50400001928E-02 0.  1.
    10030    2    1    2    0    0  0.00000000000E+00  0.00000000000E+00 -0.70463804143E+03  0.17946406801E+04  0.16505212514E+04 0.  0.
        2    1    3    3  502    0 -0.55166941642E+03 -0.24792213250E+03  0.25817909625E+03  0.65761765073E+03  0.25500000920E-02 0. -1.
       -2    1    3    3    0  502  0.55166941642E+03  0.24792213250E+03 -0.96281713768E+03  0.11370230294E+04  0.25500000920E-02 0.  1.
</event>
<event>
 5   0  0.1375777E-03  0.1580011E+04  0.7818609E-02  0.8832923E-01
        2   -1    0    0  501    0  0.00000000000E+00  0.00000000000E+00  0.13094026999E+04  0.13094026999E+04  0.25500000920E-02 0.  1.
       -2   -1    0    0    0  501  0.00000000000E+00  0.00000000000E+00 -0.47663642362E+03  0.47663642363E+03  0.25500000920E-02 0. -1.
    10030    2    1    2    0    0  0.00000000000E+00  0.00000000000E+00  0.83276627632E+03  0.17860391236E+04  0.15800114177E+04 0.  0.
        1    1    3    3  502    0  0.12109304999E+03 -0.11614859957E+03 -0.45626160156E+03  0.48613647571E+03  0.50400001928E-02 0. -1.
       -1    1    3    3    0  502 -0.12109304999E+03  0.11614859957E+03  0.12890278779E+04  0.12999026479E+04  0.50400001928E-02 0.  1.
</event>
<event>
 5   0  0.1414751E-03  0.1560681E+04  0.7818609E-02  0.8845074E-01
       -2   -1    0    0    0  501  0.00000000000E+00  0.00000000000E+00  0.28046343148E+03  0.28046343149E+03  0.25500000920E-02 0.  1.
        2   -1    0    0  501    0  0.00000000000E+00  0.00000000000E+00 -0.21711608584E+04  0.21711608584E+04  0.25500000920E-02 0. -1.
    10030    2    1    2    0    0  0.00000000000E+00  0.00000000000E+00 -0.18906974269E+04  0.24516242899E+04  0.15606809087E+04 0.  0.
        2    1    3    3  502    0  0.68982193944E+03  0.24582300117E+03 -0.52194804895E+03  0.89928472791E+03  0.25500000920E-02 0.  1.
       -2    1    3    3    0  502 -0.68982193944E+03 -0.24582300117E+03 -0.13687493780E+04  0.15523395620E+04  0.25500000920E-02 0. -1.
</event>
<event>
 5   0  0.5095750E-04  0.1597631E+04  0.7818609E-02  0.8822005E-01
       -3   -1    0    0    0  501  0.00000000000E+00  0.00000000000E+00  0.64896060950E+03  0.64896061736E+03  0.10100000352E+00 0.  1.
        3   -1    0    0  501    0  0.00000000000E+00  0.00000000000E+00 -0.98327355898E+03  0.98327356417E+03  0.10100000352E+00 0. -1.
    10030    2    1    2    0    0  0.00000000000E+00  0.00000000000E+00 -0.33431294948E+03  0.16322341815E+04  0.15976305190E+04 0.  0.
        3    1    3    3  502    0 -0.75917709518E+03 -0.43862515552E+02  0.82747392286E+02  0.76493197296E+03  0.10100000352E+00 0. -1.
       -3    1    3    3    0  502  0.75917709518E+03  0.43862515552E+02 -0.41706034176E+03  0.86730220857E+03  0.10100000352E+00 0.  1.
</event>
<event>
 5   0  0.7601145E-04  0.1542349E+04  0.7818609E-02  0.8856770E-01
       -1   -1    0    0    0  501  0.00000000000E+00  0.00000000000E+00  0.81693866187E+03  0.81693866188E+03  0.50400001928E-02 0. -1.
        1   -1    0    0  501    0  0.00000000000E+00  0.00000000000E+00 -0.72797355299E+03  0.72797355301E+03  0.50400001928E-02 0.  1.
    10030    2    1    2    0    0  0.00000000000E+00  0.00000000000E+00  0.88965108880E+02  0.15449122149E+04  0.15423485213E+04 0.  0.
        4    1    3    3  502    0 -0.44537429763E+01  0.43967372655E+03  0.67907750222E+03  0.80899980752E+03  0.12699999809E+01 0. -1.
       -4    1    3    3    0  502  0.44537429763E+01 -0.43967372655E+03 -0.59011239334E+03  0.73591240737E+03  0.12699999809E+01 0.  1.
</event>
<event>
 5   0  0.1414796E-03  0.1562583E+04  0.7818609E-02  0.8843870E-01
       -2   -1    0    0    0  501  0.00000000000E+00  0.00000000000E+00  0.29449544438E+03  0.29449544439E+03  0.25500000920E-02 0. -1.
        2   -1    0    0  501    0  0.00000000000E+00  0.00000000000E+00 -0.20727536983E+04  0.20727536983E+04  0.25500000920E-02 0.  1.
    10030    2    1    2    0    0  0.00000000000E+00  0.00000000000E+00 -0.17782582539E+04  0.23672491427E+04  0.15625831453E+04 0.  0.
        4    1    3    3  502    0 -0.10082811301E+03 -0.28372375979E+02  0.28380871891E+03  0.30252322543E+03  0.12699999809E+01 0. -1.
       -4    1    3    3    0  502  0.10082811301E+03  0.28372375979E+02 -0.20620669729E+04  0.20647259173E+04  0.12699999809E+01 0.  1.
</event>
<event>
 5   0  0.1339162E-03  0.1581298E+04  0.7818609E-02  0.8832120E-01
       -2   -1    0    0    0  501  0.00000000000E+00  0.00000000000E+00  0.41248290483E+03  0.41248290483E+03  0.25500000920E-02 0. -1.
        2   -1    0    0  501    0  0.00000000000E+00  0.00000000000E+00 -0.15155200179E+04  0.15155200179E+04  0.25500000920E-02 0.  1.
    10030    2    1    2    0    0  0.00000000000E+00  0.00000000000E+00 -0.11030371131E+04  0.19280029227E+04  0.15812983265E+04 0.  0.
        5    1    3    3  502    0  0.22225777674E+03 -0.29715154187E+03  0.29969692378E+03  0.47700932305E+03  0.46999998093E+01 0. -1.
       -5    1    3    3    0  502 -0.22225777674E+03  0.29715154187E+03 -0.14027340369E+04  0.14509935997E+04  0.46999998093E+01 0.  1.
</event>
<event>
 5   0  0.7633213E-04  0.2358593E+04  0.7818609E-02  0.8455170E-01
       -1   -1    0    0    0  501  0.00000000000E+00  0.00000000000E+00  0.60576350549E+03  0.60576350551E+03  0.50400001928E-02 0. -1.
        1   -1    0    0  501    0  0.00000000000E+00  0.00000000000E+00 -0.22958469332E+04  0.22958469332E+04  0.50400001928E-02 0.  1.
    10030    2    1    2    0    0  0.00000000000E+00  0.00000000000E+00 -0.16900834277E+04  0.29016104387E+04  0.23585930436E+04 0.  0.
        1    1    3    3  502    0  0.61651892602E+02  0.97386849998E+03 -0.16597094828E+04  0.19253198120E+04  0.50400001928E-02 0.  1.
       -1    1    3    3    0  502 -0.61651892602E+02 -0.97386849998E+03 -0.30373944826E+02  0.97629062664E+03  0.50400001928E-02 0. -1.
</event>
<event>
 5   0  0.1414796E-03  0.1378085E+04  0.7818609E-02  0.8969836E-01
        2   -1    0    0  501    0  0.00000000000E+00  0.00000000000E+00  0.58588064310E+03  0.58588064310E+03  0.25500000920E-02 0. -1.
       -2   -1    0    0    0  501  0.00000000000E+00  0.00000000000E+00 -0.81036945960E+03  0.81036945961E+03  0.25500000920E-02 0.  1.
    10030    2    1    2    0    0  0.00000000000E+00  0.00000000000E+00 -0.22448881650E+03  0.13962501027E+04  0.13780853096E+04 0.  0.
        4    1    3    3  502    0 -0.56515509366E+03 -0.12179415766E+03 -0.49207800740E+03  0.75919462261E+03  0.12699999809E+01 0.  1.
       -4    1    3    3    0  502  0.56515509366E+03  0.12179415766E+03  0.26758919090E+03  0.63705548010E+03  0.12699999809E+01 0. -1.
</event>
<event>
 5   0  0.7499834E-04  0.1647095E+04  0.7818609E-02  0.8792127E-01
       -1   -1    0    0    0  501  0.00000000000E+00  0.00000000000E+00  0.62724851827E+03  0.62724851829E+03  0.50400001928E-02 0. -1.
        1   -1    0    0  501    0  0.00000000000E+00  0.00000000000E+00 -0.10812792815E+04  0.10812792815E+04  0.50400001928E-02 0.  1.
    10030    2    1    2    0    0  0.00000000000E+00  0.00000000000E+00 -0.45403076321E+03  0.17085277998E+04  0.16470954158E+04 0.  0.
        3    1    3    3  502    0  0.75168298825E+03  0.17371272629E+03 -0.52590717196E+03  0.93369255637E+03  0.10100000352E+00 0.  1.
       -3    1    3    3    0  502 -0.75168298825E+03 -0.17371272629E+03  0.71876408747E+02  0.77483524341E+03  0.10100000352E+00 0. -1.
</event>
<event>
 5   0  0.7124495E-04  0.1620109E+04  0.7818609E-02  0.8808289E-01
        1   -1    0    0  501    0  0.00000000000E+00  0.00000000000E+00  0.12200293591E+04  0.12200293591E+04  0.50400001928E-02 0.  1.
       -1   -1    0    0    0  501  0.00000000000E+00  0.00000000000E+00 -0.53784611389E+03  0.53784611392E+03  0.50400001928E-02 0. -1.
    10030    2    1    2    0    0  0.00000000000E+00  0.00000000000E+00  0.68218324520E+03  0.17578754730E+04  0.16201086996E+04 0.  0.
        2    1    3    3  502    0  0.69972920613E+03  0.22015012939E+03  0.71397305239E+03  0.10236427897E+04  0.25500000920E-02 0. -1.
       -2    1    3    3    0  502 -0.69972920613E+03 -0.22015012939E+03 -0.31789807192E+02  0.73423268331E+03  0.25500000920E-02 0.  1.
</event>
<event>
 5   0  0.7124495E-04  0.1645120E+04  0.7818609E-02  0.8793299E-01
       -1   -1    0    0    0  501  0.00000000000E+00  0.00000000000E+00  0.89242931763E+03  0.89242931764E+03  0.50400001928E-02 0. -1.
        1   -1    0    0  501    0  0.00000000000E+00  0.00000000000E+00 -0.75816091389E+03  0.75816091390E+03  0.50400001928E-02 0.  1.
    10030    2    1    2    0    0  0.00000000000E+00  0.00000000000E+00  0.13426840374E+03  0.16505902315E+04  0.16451200893E+04 0.  0.
        2    1    3    3  502    0  0.29758403381E+03 -0.52505490444E+03 -0.49362140462E+03  0.77968006321E+03  0.25500000920E-02 0.  1.
       -2    1    3    3    0  502 -0.29758403381E+03  0.52505490444E+03  0.62788980836E+03  0.87091016833E+03  0.25500000920E-02 0. -1.
</event>
<event>
 5   0  0.7633213E-04  0.1647321E+04  0.7818609E-02  0.8791993E-01
       -1   -1    0    0    0  501  0.00000000000E+00  0.00000000000E+00  0.11879886149E+04  0.11879886149E+04  0.50400001928E-02 0. -1.
        1   -1    0    0  501    0  0.00000000000E+00  0.00000000000E+00 -0.57106349503E+03  0.57106349505E+03  0.50400001928E-02 0.  1.
    10030    2    1    2    0    0  0.00000000000E+00  0.00000000000E+00  0.61692511983E+03  0.17590521099E+04  0.16473213779E+04 0.  0.
        1    1    3    3  502    0 -0.46855048188E+03 -0.65912681220E+03  0.14156300168E+03  0.82099195618E+03  0.50400001928E-02 0.  1.
       -1    1    3    3    0  502  0.46855048188E+03  0.65912681220E+03  0.47536211815E+03  0.93806015374E+03  0.50400001928E-02 0. -1.
</event>
<event>
 5   0  0.7302027E-04  0.1629238E+04  0.7818609E-02  0.8802785E-01
        1   -1    0    0  501    0  0.00000000000E+00  0.00000000000E+00  0.10760487923E+04  0.10760487923E+04  0.50400001928E-02 0. -1.
       -1   -1    0    0    0  501  0.00000000000E+00  0.00000000000E+00 -0.61670431605E+03  0.61670431607E+03  0.50400001928E-02 0.  1.
    10030    2    1    2    0    0  0.00000000000E+00  0.00000000000E+00  0.45934447620E+03  0.16927531083E+04  0.16292377782E+04 0.  0.
        5    1    3    3  502    0 -0.11895061290E+03 -0.79638849756E+03  0.10158621083E+03  0.81161920603E+03  0.46999998093E+01 0. -1.
       -5    1    3    3    0  502  0.11895061290E+03  0.79638849756E+03  0.35775826538E+03  0.88113390231E+03  0.46999998093E+01 0.  1.
</event>
<event>
 5   0  0.7124495E-04  0.1679706E+04  0.7818609E-02  0.8773024E-01
        1   -1    0    0  501    0  0.00000000000E+00  0.00000000000E+00  0.92047777007E+03  0.92047777008E+03  0.50400001928E-02 0. -1.
       -1   -1    0    0    0  501  0.00000000000E+00  0.00000000000E+00 -0.76629050315E+03  0.76629050317E+03  0.50400001928E-02 0.  1.
    10030    2    1    2    0    0  0.00000000000E+00  0.00000000000E+00  0.15418726692E+03  0.16867682732E+04  0.16797063715E+04 0.  0.
        2    1    3    3  502    0 -0.46015121334E+03 -0.68028655746E+03  0.25340065587E+03  0.85950033845E+03  0.25500000920E-02 0. -1.
       -2    1    3    3    0  502  0.46015121334E+03  0.68028655746E+03 -0.99213388953E+02  0.82726793480E+03  0.25500000920E-02 0.  1.
</event>
<event>
 5   0  0.1414796E-03  0.1660629E+04  0.7818609E-02  0.8784143E-01
       -2   -1    0    0    0  501  0.00000000000E+00  0.00000000000E+00  0.81541247584E+03  0.81541247584E+03  0.25500000920E-02 0.  1.
        2   -1    0    0  501    0  0.00000000000E+00  0.00000000000E+00 -0.84548918146E+03  0.84548918146E+03  0.25500000920E-02 0. -1.
    10030    2    1    2    0    0  0.00000000000E+00  0.00000000000E+00 -0.30076705623E+02  0.16609016573E+04  0.16606293105E+04 0.  0.
        4    1    3    3  502    0 -0.78118427652E+02  0.18885538690E+03  0.78986190063E+03  0.81587516255E+03  0.12699999809E+01 0.  1.
       -4    1    3    3    0  502  0.78118427652E+02 -0.18885538690E+03 -0.81993860625E+03  0.84502649475E+03  0.12699999809E+01 0. -1.
</event>
<event>
 5   0  0.1414796E-03  0.1411013E+04  0.7818609E-02  0.8945885E-01
        2   -1    0    0  501    0  0.00000000000E+00  0.00000000000E+00  0.48812281945E+03  0.48812281946E+03  0.25500000920E-02 0.  1.
       -2   -1    0    0    0  501  0.00000000000E+00  0.00000000000E+00 -0.10197018820E+04  0.10197018820E+04  0.25500000920E-02 0. -1.
    10030    2    1    2    0    0  0.00000000000E+00  0.00000000000E+00 -0.53157906257E+03  0.15078247015E+04  0.14110134764E+04 0.  0.
        4    1    3    3  502    0  0.22432207426E+03 -0.45190262162E+03  0.26120130062E+03  0.56812331828E+03  0.12699999809E+01 0.  1.
       -4    1    3    3    0  502 -0.22432207426E+03  0.45190262162E+03 -0.79278036320E+03  0.93970138321E+03  0.12699999809E+01 0. -1.
</event>
<event>
 5   0  0.1375777E-03  0.1610317E+04  0.7818609E-02  0.8814235E-01
       -2   -1    0    0    0  501  0.00000000000E+00  0.00000000000E+00  0.77981596100E+03  0.77981596101E+03  0.25500000920E-02 0. -1.
        2   -1    0    0  501    0  0.00000000000E+00  0.00000000000E+00 -0.83132433162E+03  0.83132433163E+03  0.25500000920E-02 0.  1.
    10030    2    1    2    0    0  0.00000000000E+00  0.00000000000E+00 -0.51508370622E+02  0.16111402926E+04  0.16103167174E+04 0.  0.
        1    1    3    3  502    0  0.61427657713E+02 -0.51350893947E+03  0.59166367961E+03  0.78583121460E+03  0.50400001928E-02 0. -1.
       -1    1    3    3    0  502 -0.61427657713E+02  0.51350893947E+03 -0.64317205023E+03  0.82530907803E+03  0.50400001928E-02 0.  1.
</event>
<event>
 5   0  0.7601145E-04  0.1513459E+04  0.7818609E-02  0.8875552E-01
       -1   -1    0    0    0  501  0.00000000000E+00  0.00000000000E+00  0.73495472101E+03  0.73495472102E+03  0.50400001928E-02 0.  1.
        1   -1    0    0  501    0  0.00000000000E+00  0.00000000000E+00 -0.77914936782E+03  0.77914936783E+03  0.50400001928E-02 0. -1.
    10030    2    1    2    0    0  0.00000000000E+00  0.00000000000E+00 -0.44194646812E+02  0.15141040889E+04  0.15134589605E+04 0.  0.
        4    1    3    3  502    0 -0.52762444042E+03  0.38935290618E+03  0.35576018919E+03  0.74602289562E+03  0.12699999809E+01 0. -1.
       -4    1    3    3    0  502  0.52762444042E+03 -0.38935290618E+03 -0.39995483600E+03  0.76808119324E+03  0.12699999809E+01 0.  1.
</event>
<event>
 5   0  0.7601145E-04  0.1590749E+04  0.7818609E-02  0.8826251E-01
        1   -1    0    0  501    0  0.00000000000E+00  0.00000000000E+00  0.76901239233E+03  0.76901239235E+03  0.50400001928E-02 0. -1.
       -1   -1    0    0    0  501  0.00000000000E+00  0.00000000000E+00 -0.82264067718E+03  0.82264067719E+03  0.50400001928E-02 0.  1.
    10030    2    1    2    0    0  0.00000000000E+00  0.00000000000E+00 -0.53628284849E+02  0.15916530695E+04  0.15907493520E+04 0.  0.
        4    1    3    3  502    0 -0.10931629705E+03  0.78655204139E+03  0.17989591466E+02  0.79431694235E+03  0.12699999809E+01 0. -1.
       -4    1    3    3    0  502  0.10931629705E+03 -0.78655204139E+03 -0.71617876316E+02  0.79733612719E+03  0.12699999809E+01 0.  1.
</event>
<event>
 5   0  0.1339162E-03  0.1590138E+04  0.7818609E-02  0.8826629E-01
       -2   -1    0    0    0  501  0.00000000000E+00  0.00000000000E+00  0.98116992778E+03  0.98116992778E+03  0.25500000920E-02 0.  1.
        2   -1    0    0  501    0  0.00000000000E+00  0.00000000000E+00 -0.64426658566E+03  0.64426658567E+03  0.25500000920E-02 0. -1.
    10030    2    1    2    0    0  0.00000000000E+00  0.00000000000E+00  0.33690334211E+03  0.16254365135E+04  0.15901383579E+04 0.  0.
        5    1    3    3  502    0  0.53935586302E+03 -0.20803253390E+03 -0.38949497713E+03  0.69707295841E+03  0.46999998093E+01 0.  1.
       -5    1    3    3    0  502 -0.53935586302E+03  0.20803253390E+03  0.72639831924E+03  0.92836355504E+03  0.46999998093E+01 0. -1.
</event>
<event>
 5   0  0.7302027E-04  0.1580825E+04  0.7818609E-02  0.8832415E-01
       -1   -1    0    0    0  501  0.00000000000E+00  0.00000000000E+00  0.45281356994E+03  0.45281356997E+03  0.50400001928E-02 0.  1.
        1   -1    0    0  501    0  0.00000000000E+00  0.00000000000E+00 -0.13797108746E+04  0.13797108746E+04  0.50400001928E-02 0. -1.
    10030    2    1    2    0    0  0.00000000000E+00  0.00000000000E+00 -0.92689730463E+03  0.18325244446E+04  0.15808248564E+04 0.  0.
        5    1    3    3  502    0  0.32918372438E+03  0.19230529068E+03  0.33916936682E+03  0.51029520732E+03  0.46999998093E+01 0.  1.
       -5    1    3    3    0  502 -0.32918372438E+03 -0.19230529068E+03 -0.12660666715E+04  0.13222292372E+04  0.46999998093E+01 0. -1.
</event>
<event>
 5   0  0.5095750E-04  0.1620069E+04  0.7818609E-02  0.8808313E-01
        3   -1    0    0  501    0  0.00000000000E+00  0.00000000000E+00  0.54355790377E+03  0.54355791315E+03  0.10100000352E+00 0. -1.
       -3   -1    0    0    0  501  0.00000000000E+00  0.00000000000E+00 -0.12071494727E+04  0.12071494769E+04  0.10100000352E+00 0.  1.
    10030    2    1    2    0    0  0.00000000000E+00  0.00000000000E+00 -0.66359156889E+03  0.17507073900E+04  0.16200687008E+04 0.  0.
        2    1    3    3  502    0 -0.72489370851E+02  0.40643320736E+03  0.42133429199E+03  0.58988579110E+03  0.25500000920E-02 0. -1.
       -2    1    3    3    0  502  0.72489370851E+02 -0.40643320736E+03 -0.10849258609E+04  0.11608215989E+04  0.25500000920E-02 0.  1.
</event>
<event>
 5   0  0.1414751E-03  0.1646331E+04  0.7818609E-02  0.8792580E-01
       -2   -1    0    0    0  501  0.00000000000E+00  0.00000000000E+00  0.37904405653E+03  0.37904405654E+03  0.25500000920E-02 0. -1.
        2   -1    0    0  501    0  0.00000000000E+00  0.00000000000E+00 -0.17876577441E+04  0.17876577441E+04  0.25500000920E-02 0.  1.
    10030    2    1    2    0    0  0.00000000000E+00  0.00000000000E+00 -0.14086136876E+04  0.21667018006E+04  0.16463305173E+04 0.  0.
        2    1    3    3  502    0 -0.43793387721E+03 -0.35032738468E+03 -0.14973314802E+04  0.15989111667E+04  0.25500000920E-02 0.  1.
       -2    1    3    3    0  502  0.43793387721E+03  0.35032738468E+03  0.88717792670E+02  0.56779063395E+03  0.25500000920E-02 0. -1.
</event>
<event>
 5   0  0.7499834E-04  0.1634132E+04  0.7818609E-02  0.8799850E-01
       -1   -1    0    0    0  501  0.00000000000E+00  0.00000000000E+00  0.28911274837E+03  0.28911274842E+03  0.50400001928E-02 0. -1.
        1   -1    0    0  501    0  0.00000000000E+00  0.00000000000E+00 -0.23091216865E+04  0.23091216865E+04  0.50400001928E-02 0.  1.
    10030    2    1    2    0    0  0.00000000000E+00  0.00000000000E+00 -0.20200089381E+04  0.25982344349E+04  0.16341315947E+04 0.  0.
        3    1    3    3  502    0 -0.14124901048E+03  0.54291093034E+03 -0.65480907788E+02  0.56479316633E+03  0.10100000352E+00 0. -1.
       -3    1    3    3    0  502  0.14124901048E+03 -0.54291093034E+03 -0.19545280304E+04  0.20334412686E+04  0.10100000352E+00 0.  1.
</event>
<event>
 5   0  0.1354766E-03  0.1534356E+04  0.7818609E-02  0.8861922E-01
        2   -1    0    0  501    0  0.00000000000E+00  0.00000000000E+00  0.41207676788E+03  0.41207676789E+03  0.25500000920E-02 0.  1.
       -2   -1    0    0    0  501  0.00000000000E+00  0.00000000000E+00 -0.14282830873E+04  0.14282830873E+04  0.25500000920E-02 0. -1.
    10030    2    1    2    0    0  0.00000000000E+00  0.00000000000E+00 -0.10162063195E+04  0.18403598552E+04  0.15343562536E+04 0.  0.
        3    1    3    3  502    0  0.41528386694E+03  0.38322821903E+03  0.11426087483E+03  0.57652416751E+03  0.10100000352E+00 0.  1.
       -3    1    3    3    0  502 -0.41528386694E+03 -0.38322821903E+03 -0.11304671943E+04  0.12638356877E+04  0.10100000352E+00 0. -1.
</event>
<event>
 5   0  0.1414796E-03  0.1572981E+04  0.7818609E-02  0.8837321E-01
       -2   -1    0    0    0  501  0.00000000000E+00  0.00000000000E+00  0.10364672257E+04  0.10364672257E+04  0.25500000920E-02 0.  1.
        2   -1    0    0  501    0  0.00000000000E+00  0.00000000000E+00 -0.59680390748E+03  0.59680390749E+03  0.25500000920E-02 0. -1.
    10030    2    1    2    0    0  0.00000000000E+00  0.00000000000E+00  0.43966331821E+03  0.16332711332E+04  0.15729814878E+04 0.  0.
        4    1    3    3  502    0  0.34553228925E+03 -0.54544570898E+03  0.68611214534E+03  0.94215448481E+03  0.12699999809E+01 0.  1.
       -4    1    3    3    0  502 -0.34553228925E+03  0.54544570898E+03 -0.24644882714E+03  0.69111664837E+03  0.12699999809E+01 0. -1.
</event>
<event>
 5   0  0.1414796E-03  0.1579385E+04  0.7818609E-02  0.8833314E-01
       -2   -1    0    0    0  501  0.00000000000E+00  0.00000000000E+00  0.34262522153E+03  0.34262522154E+03  0.25500000920E-02 0.  1.
        2   -1    0    0  501    0  0.00000000000E+00  0.00000000000E+00 -0.18201061396E+04  0.18201061396E+04  0.25500000920E-02 0. -1.
    10030    2    1    2    0    0  0.00000000000E+00  0.00000000000E+00 -0.14774809180E+04  0.21627313611E+04  0.15793850313E+04 0.  0.
        4    1    3    3  502    0  0.55430293863E+03 -0.47411842533E+03 -0.11531191343E+04  0.13644505780E+04  0.12699999809E+01 0. -1.
       -4    1    3    3    0  502 -0.55430293863E+03  0.47411842533E+03 -0.32436178371E+03  0.79828078309E+03  0.12699999809E+01 0.  1.
</event>
<event>
 5   0  0.7124495E-04  0.1579033E+04  0.7818609E-02  0.8833533E-01
        1   -1    0    0  501    0  0.00000000000E+00  0.00000000000E+00  0.68240347364E+03  0.68240347365E+03  0.50400001928E-02 0. -1.
       -1   -1    0    0    0  501  0.00000000000E+00  0.00000000000E+00 -0.91344294532E+03  0.91344294534E+03  0.50400001928E-02 0.  1.
    10030    2    1    2    0    0  0.00000000000E+00  0.00000000000E+00 -0.23103947169E+03  0.15958464190E+04  0.15790334245E+04 0.  0.
        2    1    3    3  502    0  0.66971693624E+03  0.20072276580E+03  0.25516377266E+03  0.74425731725E+03  0.25500000920E-02 0. -1.
       -2    1    3    3    0  502 -0.66971693624E+03 -0.20072276580E+03 -0.48620324435E+03  0.85158910175E+03  0.25500000920E-02 0.  1.
</event>
<event>
 5   0  0.1375777E-03  0.1566033E+04  0.7818609E-02  0.8841692E-01
       -2   -1    0    0    0  501  0.00000000000E+00  0.00000000000E+00  0.14099693608E+04  0.14099693608E+04  0.25500000920E-02 0. -1.
        2   -1    0    0  501    0  0.00000000000E+00  0.00000000000E+00 -0.43484243575E+03  0.43484243576E+03  0.25500000920E-02 0.  1.
    10030    2    1    2    0    0  0.00000000000E+00  0.00000000000E+00  0.97512692503E+03  0.18448117965E+04  0.15660325810E+04 0.  0.
        1    1    3    3  502    0 -0.84733602419E+02 -0.93063598630E+02 -0.42284867766E+03  0.44118207239E+03  0.50400001928E-02 0.  1.
       -1    1    3    3    0  502  0.84733602419E+02  0.93063598630E+02  0.13979756027E+04  0.14036297242E+04  0.50400001928E-02 0. -1.
</event>
<event>
 5   0  0.7633213E-04  0.1595484E+04  0.7818609E-02  0.8823327E-01
       -1   -1    0    0    0  501  0.00000000000E+00  0.00000000000E+00  0.88388378332E+03  0.88388378333E+03  0.50400001928E-02 0. -1.
        1   -1    0    0  501    0  0.00000000000E+00  0.00000000000E+00 -0.71999525928E+03  0.71999525930E+03  0.50400001928E-02 0.  1.
    10030    2    1    2    0    0  0.00000000000E+00  0.00000000000E+00  0.16388852404E+03  0.16038790426E+04  0.15954837934E+04 0.  0.
        1    1    3    3  502    0  0.60714861555E+03  0.57483039608E+02 -0.43501687095E+03  0.74911509078E+03  0.50400001928E-02 0.  1.
       -1    1    3    3    0  502 -0.60714861555E+03 -0.57483039608E+02  0.59890539499E+03  0.85476395184E+03  0.50400001928E-02 0. -1.
</event>
<event>
 5   0  0.7302027E-04  0.1485311E+04  0.7818609E-02  0.8894280E-01
        1   -1    0    0  501    0  0.00000000000E+00  0.00000000000E+00  0.19456316950E+04  0.19456316950E+04  0.50400001928E-02 0.  1.
       -1   -1    0    0    0  501  0.00000000000E+00  0.00000000000E+00 -0.28347469415E+03  0.28347469420E+03  0.50400001928E-02 0. -1.
    10030    2    1    2    0    0  0.00000000000E+00  0.00000000000E+00  0.16621570009E+04  0.22291063892E+04  0.14853112128E+04 0.  0.
        5    1    3    3  502    0  0.33314072409E+03  0.12438676163E+03 -0.14737160982E+03  0.38496141352E+03  0.46999998093E+01 0. -1.
       -5    1    3    3    0  502 -0.33314072409E+03 -0.12438676163E+03  0.18095286107E+04  0.18441449757E+04  0.46999998093E+01 0.  1.
</event>
<event>
 5   0  0.1375777E-03  0.1599180E+04  0.7818609E-02  0.8821052E-01
       -2   -1    0    0    0  501  0.00000000000E+00  0.00000000000E+00  0.66956754840E+03  0.66956754841E+03  0.25500000920E-02 0.  1.
        2   -1    0    0  501    0  0.00000000000E+00  0.00000000000E+00 -0.95486181561E+03  0.95486181561E+03  0.25500000920E-02 0. -1.
    10030    2    1    2    0    0  0.00000000000E+00  0.00000000000E+00 -0.28529426721E+03  0.16244293640E+04  0.15991803963E+04 0.  0.
        1    1    3    3  502    0  0.72218948269E+03 -0.71918286012E+02  0.19823223439E+03  0.75234693297E+03  0.50400001928E-02 0.  1.
       -1    1    3    3    0  502 -0.72218948269E+03  0.71918286012E+02 -0.48352650160E+03  0.87208243105E+03  0.50400001928E-02 0. -1.
</event>
<event>
 5   0  0.7302027E-04  0.1593761E+04  0.7818609E-02  0.8824390E-01
        1   -1    0    0  501    0  0.00000000000E+00  0.00000000000E+00  0.82111723370E+03  0.82111723372E+03  0.50400001928E-02 0.  1.
       -1   -1    0    0    0  501  0.00000000000E+00  0.00000000000E+00 -0.77335943154E+03  0.77335943156E+03  0.50400001928E-02 0. -1.
    10030    2    1    2    0    0  0.00000000000E+00  0.00000000000E+00  0.47757802162E+02  0.15944766653E+04  0.15937612834E+04 0.  0.
        5    1    3    3  502    0 -0.67677705216E+03  0.83066524470E+02 -0.38870097194E+03  0.78488073069E+03  0.46999998093E+01 0. -1.
       -5    1    3    3    0  502  0.67677705216E+03 -0.83066524470E+02  0.43645877410E+03  0.80959593459E+03  0.46999998093E+01 0.  1.
</event>
<event>
 5   0  0.7499834E-04  0.1588864E+04  0.7818609E-02  0.8827419E-01
        1   -1    0    0  501    0  0.00000000000E+00  0.00000000000E+00  0.71400524218E+03  0.71400524220E+03  0.50400001928E-02 0. -1.
       -1   -1    0    0    0  501  0.00000000000E+00  0.00000000000E+00 -0.88391763459E+03  0.88391763460E+03  0.50400001928E-02 0.  1.
    10030    2    1    2    0    0  0.00000000000E+00  0.00000000000E+00 -0.16991239241E+03  0.15979228768E+04  0.15888635244E+04 0.  0.
        3    1    3    3  502    0 -0.62052531025E+03 -0.47035200969E+03  0.73546810463E+02  0.78210729265E+03  0.10100000352E+00 0.  1.
       -3    1    3    3    0  502  0.62052531025E+03  0.47035200969E+03 -0.24345920287E+03  0.81581558415E+03  0.10100000352E+00 0. -1.
</event>
<event>
 5   0  0.7601145E-04  0.1449954E+04  0.7818609E-02  0.8918432E-01
        1   -1    0    0  501    0  0.00000000000E+00  0.00000000000E+00  0.19029608575E+04  0.19029608575E+04  0.50400001928E-02 0. -1.
       -1   -1    0    0    0  501  0.00000000000E+00  0.00000000000E+00 -0.27619674045E+03  0.27619674050E+03  0.50400001928E-02 0.  1.
    10030    2    1    2    0    0  0.00000000000E+00  0.00000000000E+00  0.16267641171E+04  0.21791575980E+04  0.14499539111E+04 0.  0.
        4    1    3    3  502    0 -0.50449728401E+03 -0.46792623029E+03  0.47027768246E+03  0.83344776566E+03  0.12699999809E+01 0.  1.
       -4    1    3    3    0  502  0.50449728401E+03  0.46792623029E+03  0.11564864346E+04  0.13457098324E+04  0.12699999809E+01 0. -1.
</event>
<event>
 5   0  0.1339162E-03  0.1157923E+04  0.7818609E-02  0.9150506E-01
       -2   -1    0    0    0  501  0.00000000000E+00  0.00000000000E+00  0.28021726147E+03  0.28021726148E+03  0.25500000920E-02 0. -1.
        2   -1    0    0  501    0  0.00000000000E+00  0.00000000000E+00 -0.11962008599E+04  0.11962008599E+04  0.25500000920E-02 0.  1.
    10030    2    1    2    0    0  0.00000000000E+00  0.00000000000E+00 -0.91598359848E+03  0.14764181214E+04  0.11579225003E+04 0.  0.
        5    1    3    3  502    0 -0.36251768612E+03  0.45021504274E+03 -0.41645187799E+03  0.71243730541E+03  0.46999998093E+01 0. -1.
       -5    1    3    3    0  502  0.36251768612E+03 -0.45021504274E+03 -0.49953172049E+03  0.76398081601E+03  0.46999998093E+01 0.  1.
</event>
<event>
 5   0  0.1375777E-03  0.1549220E+04  0.7818609E-02  0.8852366E-01
        2   -1    0    0  501    0  0.00000000000E+00  0.00000000000E+00  0.48112073999E+03  0.48112074000E+03  0.25500000920E-02 0. -1.
       -2   -1    0    0    0  501  0.00000000000E+00  0.00000000000E+00 -0.12471304051E+04  0.12471304051E+04  0.25500000920E-02 0.  1.
    10030    2    1    2    0    0  0.00000000000E+00  0.00000000000E+00 -0.76600966513E+03  0.17282511451E+04  0.15492195498E+04 0.  0.
        1    1    3    3  502    0 -0.63780841072E+03 -0.43551751368E+03 -0.44942746496E+03  0.89356595716E+03  0.50400001928E-02 0.  1.
       -1    1    3    3    0  502  0.63780841072E+03  0.43551751368E+03 -0.31658220017E+03  0.83468518796E+03  0.50400001928E-02 0. -1.
</event>
<event>
 5   0  0.7124495E-04  0.1221335E+04  0.7818609E-02  0.9094384E-01
        1   -1    0    0  501    0  0.00000000000E+00  0.00000000000E+00  0.11223921354E+04  0.11223921354E+04  0.50400001928E-02 0. -1.
       -1   -1    0    0    0  501  0.00000000000E+00  0.00000000000E+00 -0.33225001048E+03  0.33225001051E+03  0.50400001928E-02 0.  1.
    10030    2    1    2    0    0  0.00000000000E+00  0.00000000000E+00  0.79014212490E+03  0.14546421459E+04  0.12213350053E+04 0.  0.
        2    1    3    3  502    0  0.49153957599E+03 -0.10383524211E+02  0.82647228487E+03  0.96165243722E+03  0.25500000920E-02 0. -1.
       -2    1    3    3    0  502 -0.49153957599E+03  0.10383524211E+02 -0.36330159965E+02  0.49298970869E+03  0.25500000920E-02 0.  1.
</event>
<event>
 5   0  0.7302027E-04  0.1628296E+04  0.7818609E-02  0.8803351E-01
       -1   -1    0    0    0  501  0.00000000000E+00  0.00000000000E+00  0.48308165819E+03  0.48308165822E+03  0.50400001928E-02 0.  1.
        1   -1    0    0  501    0  0.00000000000E+00  0.00000000000E+00 -0.13721011986E+04  0.13721011986E+04  0.50400001928E-02 0. -1.
    10030    2    1    2    0    0  0.00000000000E+00  0.00000000000E+00 -0.88901954038E+03  0.18551828568E+04  0.16282959464E+04 0.  0.
        5    1    3    3  502    0 -0.78516092255E+03  0.11732310474E+03 -0.23888351135E+03  0.82905356112E+03  0.46999998093E+01 0. -1.
       -5    1    3    3    0  502  0.78516092255E+03 -0.11732310474E+03 -0.65013602903E+03  0.10261292957E+04  0.46999998093E+01 0.  1.
</event>
<event>
 5   0  0.1354766E-03  0.1612475E+04  0.7818609E-02  0.8812920E-01
        2   -1    0    0  501    0  0.00000000000E+00  0.00000000000E+00  0.45496295505E+03  0.45496295506E+03  0.25500000920E-02 0.  1.
       -2   -1    0    0    0  501  0.00000000000E+00  0.00000000000E+00 -0.14287296199E+04  0.14287296199E+04  0.25500000920E-02 0. -1.
    10030    2    1    2    0    0  0.00000000000E+00  0.00000000000E+00 -0.97376666481E+03  0.18836925749E+04  0.16124751779E+04 0.  0.
        3    1    3    3  502    0  0.33191895503E+02  0.46959542542E+02 -0.14263307878E+04  0.14274895541E+04  0.10100000352E+00 0. -1.
       -3    1    3    3    0  502 -0.33191895503E+02 -0.46959542542E+02  0.45256412301E+03  0.45620302082E+03  0.10100000352E+00 0.  1.
</event>
<event>
 5   0  0.1375777E-03  0.1020322E+04  0.7818609E-02  0.9286533E-01
       -2   -1    0    0    0  501  0.00000000000E+00  0.00000000000E+00  0.29490208826E+03  0.29490208827E+03  0.25500000920E-02 0.  1.
        2   -1    0    0  501    0  0.00000000000E+00  0.00000000000E+00 -0.88254447469E+03  0.88254447470E+03  0.25500000920E-02 0. -1.
    10030    2    1    2    0    0  0.00000000000E+00  0.00000000000E+00 -0.58764238643E+03  0.11774465630E+04  0.10203219268E+04 0.  0.
        1    1    3    3  502    0  0.44401299090E+03 -0.22358307229E+03 -0.42603944124E+03  0.65471102924E+03  0.50400001928E-02 0.  1.
       -1    1    3    3    0  502 -0.44401299090E+03  0.22358307229E+03 -0.16160294520E+03  0.52273553373E+03  0.50400001928E-02 0. -1.
</event>
<event>
 5   0  0.5095750E-04  0.1583099E+04  0.7818609E-02  0.8830999E-01
       -3   -1    0    0    0  501  0.00000000000E+00  0.00000000000E+00  0.92023270907E+03  0.92023271461E+03  0.10100000352E+00 0.  1.
        3   -1    0    0  501    0  0.00000000000E+00  0.00000000000E+00 -0.68086125340E+03  0.68086126089E+03  0.10100000352E+00 0. -1.
    10030    2    1    2    0    0  0.00000000000E+00  0.00000000000E+00  0.23937145567E+03  0.16010939755E+04  0.15830992466E+04 0.  0.
        1    1    3    3  502    0 -0.58166651839E+03  0.27924924917E+03 -0.34403969519E+03  0.73121774710E+03  0.50400001928E-02 0. -1.
       -1    1    3    3    0  502  0.58166651839E+03 -0.27924924917E+03  0.58341115086E+03  0.86987622841E+03  0.50400001928E-02 0.  1.
</event>
<event>
 5   0  0.7124495E-04  0.1004798E+04  0.7818609E-02  0.9303298E-01
        1   -1    0    0  501    0  0.00000000000E+00  0.00000000000E+00  0.11450387897E+04  0.11450387897E+04  0.50400001928E-02 0. -1.
       -1   -1    0    0    0  501  0.00000000000E+00  0.00000000000E+00 -0.22043327083E+03  0.22043327089E+03  0.50400001928E-02 0.  1.
    10030    2    1    2    0    0  0.00000000000E+00  0.00000000000E+00  0.92460551884E+03  0.13654720606E+04  0.10047977820E+04 0.  0.
        2    1    3    3  502    0  0.31399198321E+03 -0.19367633512E+02  0.99462109882E+03  0.10431860817E+04  0.25500000920E-02 0. -1.
       -2    1    3    3    0  502 -0.31399198321E+03  0.19367633512E+02 -0.70015579988E+02  0.32228597890E+03  0.25500000920E-02 0.  1.
</event>
<event>
 5   0  0.7302027E-04  0.1594858E+04  0.7818609E-02  0.8823713E-01
       -1   -1    0    0    0  501  0.00000000000E+00  0.00000000000E+00  0.76120607209E+03  0.76120607211E+03  0.50400001928E-02 0.  1.
        1   -1    0    0  501    0  0.00000000000E+00  0.00000000000E+00 -0.83537605889E+03  0.83537605891E+03  0.50400001928E-02 0. -1.
    10030    2    1    2    0    0  0.00000000000E+00  0.00000000000E+00 -0.74169986798E+02  0.15965821310E+04  0.15948583994E+04 0.  0.
        5    1    3    3  502    0  0.70686388981E+03  0.22041950447E+03  0.25925846616E+03  0.78452428831E+03  0.46999998093E+01 0.  1.
       -5    1    3    3    0  502 -0.70686388981E+03 -0.22041950447E+03 -0.33342845296E+03  0.81205784271E+03  0.46999998093E+01 0. -1.
</event>
<event>
 5   0  0.7124495E-04  0.1605195E+04  0.7818609E-02  0.8817363E-01
       -1   -1    0    0    0  501  0.00000000000E+00  0.00000000000E+00  0.85241041950E+03  0.85241041952E+03  0.50400001928E-02 0.  1.
        1   -1    0    0  501    0  0.00000000000E+00  0.00000000000E+00 -0.75569596986E+03  0.75569596987E+03  0.50400001928E-02 0. -1.
    10030    2    1    2    0    0  0.00000000000E+00  0.00000000000E+00  0.96714449644E+02  0.16081063894E+04  0.16051954631E+04 0.  0.
        2    1    3    3  502    0 -0.70346222083E+01 -0.60580560948E+03  0.57572726961E+03  0.83577019052E+03  0.25500000920E-02 0.  1.
       -2    1    3    3    0  502  0.70346222083E+01  0.60580560948E+03 -0.47901281996E+03  0.77233619887E+03  0.25500000920E-02 0. -1.
</event>
<event>
 5   0  0.7302027E-04  0.1532553E+04  0.7818609E-02  0.8863090E-01
       -1   -1    0    0    0  501  0.00000000000E+00  0.00000000000E+00  0.44785361367E+03  0.44785361369E+03  0.50400001928E-02 0. -1.
        1   -1    0    0  501    0  0.00000000000E+00  0.00000000000E+00 -0.13110971381E+04  0.13110971381E+04  0.50400001928E-02 0.  1.
    10030    2    1    2    0    0  0.00000000000E+00  0.00000000000E+00 -0.86324352444E+03  0.17589507518E+04  0.15325528914E+04 0.  0.
        5    1    3    3  502    0 -0.38985981590E+01  0.53242973947E+03 -0.10640811270E+04  0.11898686320E+04  0.46999998093E+01 0.  1.
       -5    1    3    3    0  502  0.38985981590E+01 -0.53242973947E+03  0.20083760254E+03  0.56908211985E+03  0.46999998093E+01 0. -1.
</event>
<event>
 5   0  0.7124495E-04  0.1587459E+04  0.7818609E-02  0.8828290E-01
       -1   -1    0    0    0  501  0.00000000000E+00  0.00000000000E+00  0.38653019466E+03  0.38653019470E+03  0.50400001928E-02 0. -1.
        1   -1    0    0  501    0  0.00000000000E+00  0.00000000000E+00 -0.16299021528E+04  0.16299021529E+04  0.50400001928E-02 0.  1.
    10030    2    1    2    0    0  0.00000000000E+00  0.00000000000E+00 -0.12433719582E+04  0.20164323475E+04  0.15874588454E+04 0.  0.
        2    1    3    3  502    0  0.53526072831E+03 -0.21462666434E+03 -0.13144402628E+04  0.14353821292E+04  0.25500000920E-02 0.  1.
       -2    1    3    3    0  502 -0.53526072831E+03  0.21462666434E+03  0.71068304631E+02  0.58105021835E+03  0.25500000920E-02 0. -1.
</event>
<event>
 5   0  0.1354766E-03  0.1606929E+04  0.7818609E-02  0.8816302E-01
       -2   -1    0    0    0  501  0.00000000000E+00  0.00000000000E+00  0.10717176010E+04  0.10717176010E+04  0.25500000920E-02 0. -1.
        2   -1    0    0  501    0  0.00000000000E+00  0.00000000000E+00 -0.60235600866E+03  0.60235600866E+03  0.25500000920E-02 0.  1.
    10030    2    1    2    0    0  0.00000000000E+00  0.00000000000E+00  0.46936159235E+03  0.16740736097E+04  0.16069294155E+04 0.  0.
        3    1    3    3  502    0 -0.17500893629E+03 -0.75984992264E+03  0.43657064689E+03  0.89364085215E+03  0.10100000352E+00 0. -1.
       -3    1    3    3    0  502  0.17500893629E+03  0.75984992264E+03  0.32790945465E+02  0.78043275752E+03  0.10100000352E+00 0.  1.
</event>
<event>
 5   0  0.1414751E-03  0.1612837E+04  0.7818609E-02  0.8812701E-01
        2   -1    0    0  501    0  0.00000000000E+00  0.00000000000E+00  0.51662001788E+03  0.51662001789E+03  0.25500000920E-02 0.  1.
       -2   -1    0    0    0  501  0.00000000000E+00  0.00000000000E+00 -0.12587789830E+04  0.12587789830E+04  0.25500000920E-02 0. -1.
    10030    2    1    2    0    0  0.00000000000E+00  0.00000000000E+00 -0.74215896507E+03  0.17753990008E+04  0.16128365332E+04 0.  0.
        2    1    3    3  502    0  0.46538930122E+03 -0.38230069219E+03  0.21922618686E+03  0.64093770520E+03  0.25500000920E-02 0.  1.
       -2    1    3    3    0  502 -0.46538930122E+03  0.38230069219E+03 -0.96138515193E+03  0.11344612956E+04  0.25500000920E-02 0. -1.
</event>
<event>
 5   0  0.1375777E-03  0.1425784E+04  0.7818609E-02  0.8935363E-01
        2   -1    0    0  501    0  0.00000000000E+00  0.00000000000E+00  0.15653070561E+04  0.15653070561E+04  0.25500000920E-02 0.  1.
       -2   -1    0    0    0  501  0.00000000000E+00  0.00000000000E+00 -0.32467438891E+03  0.32467438892E+03  0.25500000920E-02 0. -1.
    10030    2    1    2    0    0  0.00000000000E+00  0.00000000000E+00  0.12406326672E+04  0.18899814450E+04  0.14257841518E+04 0.  0.
        1    1    3    3  502    0  0.63133346264E+03 -0.19431953558E+03  0.97569136617E+03  0.11782680786E+04  0.50400001928E-02 0.  1.
       -1    1    3    3    0  502 -0.63133346264E+03  0.19431953558E+03  0.26494130103E+03  0.71171336644E+03  0.50400001928E-02 0. -1.
</event>
<event>
 5   0  0.7124495E-04  0.1581576E+04  0.7818609E-02  0.8831947E-01
       -1   -1    0    0    0  501  0.00000000000E+00  0.00000000000E+00  0.96522116750E+03  0.96522116752E+03  0.50400001928E-02 0.  1.
        1   -1    0    0  501    0  0.00000000000E+00  0.00000000000E+00 -0.64787779022E+03  0.64787779024E+03  0.50400001928E-02 0. -1.
    10030    2    1    2    0    0  0.00000000000E+00  0.00000000000E+00  0.31734337728E+03  0.16130989578E+04  0.15815756158E+04 0.  0.
        2    1    3    3  502    0  0.38741947942E+03 -0.39817721133E+03  0.73265528152E+03  0.91946870866E+03  0.25500000920E-02 0.  1.
       -2    1    3    3    0  502 -0.38741947942E+03  0.39817721133E+03 -0.41531190424E+03  0.69363024910E+03  0.25500000920E-02 0. -1.
</event>
<event>
 5   0  0.1414796E-03  0.1591378E+04  0.7818609E-02  0.8825862E-01
       -2   -1    0    0    0  501  0.00000000000E+00  0.00000000000E+00  0.35477539186E+03  0.35477539187E+03  0.25500000920E-02 0. -1.
        2   -1    0    0  501    0  0.00000000000E+00  0.00000000000E+00 -0.17845690202E+04  0.17845690202E+04  0.25500000920E-02 0.  1.
    10030    2    1    2    0    0  0.00000000000E+00  0.00000000000E+00 -0.14297936283E+04  0.21393444120E+04  0.15913782372E+04 0.  0.
        4    1    3    3  502    0 -0.49881328526E+03 -0.15708653696E+03  0.91287708341E+02  0.53087280232E+03  0.12699999809E+01 0. -1.
       -4    1    3    3    0  502  0.49881328526E+03  0.15708653696E+03 -0.15210813366E+04  0.16084716097E+04  0.12699999809E+01 0.  1.
</event>
<event>
 5   0  0.7633213E-04  0.1594329E+04  0.7818609E-02  0.8824040E-01
       -1   -1    0    0    0  501  0.00000000000E+00  0.00000000000E+00  0.90764898116E+03  0.90764898118E+03  0.50400001928E-02 0.  1.
        1   -1    0    0  501    0  0.00000000000E+00  0.00000000000E+00 -0.70012860879E+03  0.70012860881E+03  0.50400001928E-02 0. -1.
    10030    2    1    2    0    0  0.00000000000E+00  0.00000000000E+00  0.20752037238E+03  0.16077775900E+04  0.15943287220E+04 0.  0.
        1    1    3    3  502    0  0.42389712804E+03 -0.45584937655E+02  0.78301781993E+03  0.89156248691E+03  0.50400001928E-02 0.  1.
       -1    1    3    3    0  502 -0.42389712804E+03  0.45584937655E+02 -0.57549744756E+03  0.71621510308E+03  0.50400001928E-02 0. -1.
</event>
<event>
 5   0  0.7601145E-04  0.1612838E+04  0.7818609E-02  0.8812700E-01
       -1   -1    0    0    0  501  0.00000000000E+00  0.00000000000E+00  0.40622964334E+03  0.40622964337E+03  0.50400001928E-02 0.  1.
        1   -1    0    0  501    0  0.00000000000E+00  0.00000000000E+00 -0.16008467122E+04  0.16008467122E+04  0.50400001928E-02 0. -1.
    10030    2    1    2    0    0  0.00000000000E+00  0.00000000000E+00 -0.11946170689E+04  0.20070763556E+04  0.16128377339E+04 0.  0.
        4    1    3    3  502    0 -0.42907577999E+03  0.63138615739E+03 -0.27386174806E+03  0.81102180900E+03  0.12699999809E+01 0.  1.
       -4    1    3    3    0  502  0.42907577999E+03 -0.63138615739E+03 -0.92075532082E+03  0.11960545466E+04  0.12699999809E+01 0. -1.
</event>
<event>
 5   0  0.1354766E-03  0.1277726E+04  0.7818609E-02  0.9047417E-01
        2   -1    0    0  501    0  0.00000000000E+00  0.00000000000E+00  0.59133455728E+03  0.59133455729E+03  0.25500000920E-02 0.  1.
       -2   -1    0    0    0  501  0.00000000000E+00  0.00000000000E+00 -0.69021174809E+03  0.69021174810E+03  0.25500000920E-02 0. -1.
    10030    2    1    2    0    0  0.00000000000E+00  0.00000000000E+00 -0.98877190811E+02  0.12815463054E+04  0.12777261968E+04 0.  0.
        3    1    3    3  502    0  0.23318130001E+03  0.58494904382E+03 -0.15749716710E+03  0.64911036842E+03  0.10100000352E+00 0. -1.
       -3    1    3    3    0  502 -0.23318130001E+03 -0.58494904382E+03  0.58619976285E+02  0.63243593696E+03  0.10100000352E+00 0.  1.
</event>
<event>
 5   0  0.7302027E-04  0.1646694E+04  0.7818609E-02  0.8792364E-01
       -1   -1    0    0    0  501  0.00000000000E+00  0.00000000000E+00  0.45529505985E+03  0.45529505987E+03  0.50400001928E-02 0.  1.
        1   -1    0    0  501    0  0.00000000000E+00  0.00000000000E+00 -0.14889260446E+04  0.14889260446E+04  0.50400001928E-02 0. -1.
    10030    2    1    2    0    0  0.00000000000E+00  0.00000000000E+00 -0.10336309848E+04  0.19442211045E+04  0.16466944739E+04 0.  0.
        5    1    3    3  502    0 -0.75811556018E+03 -0.31603276718E+03 -0.44937523698E+03  0.93625643183E+03  0.46999998093E+01 0. -1.
       -5    1    3    3    0  502  0.75811556018E+03  0.31603276718E+03 -0.58425574777E+03  0.10079646727E+04  0.46999998093E+01 0.  1.
</event>
<event>
 5   0  0.1354766E-03  0.1582840E+04  0.7818609E-02  0.8831160E-01
        2   -1    0    0  501    0  0.00000000000E+00  0.00000000000E+00  0.12424317988E+04  0.12424317988E+04  0.25500000920E-02 0. -1.
       -2   -1    0    0    0  501  0.00000000000E+00  0.00000000000E+00 -0.50412857825E+03  0.50412857825E+03  0.25500000920E-02 0.  1.
    10030    2    1    2    0    0  0.00000000000E+00  0.00000000000E+00  0.73830322056E+03  0.17465603771E+04  0.15828396966E+04 0.  0.
        3    1    3    3  502    0  0.32404866805E+03 -0.70730769218E+03  0.20904457150E+03  0.80559999612E+03  0.10100000352E+00 0. -1.
       -3    1    3    3    0  502 -0.32404866805E+03  0.70730769218E+03  0.52925864907E+03  0.94096038094E+03  0.10100000352E+00 0.  1.
</event>
<event>
 5   0  0.7601145E-04  0.1622611E+04  0.7818609E-02  0.8806776E-01
       -1   -1    0    0    0  501  0.00000000000E+00  0.00000000000E+00  0.66890999450E+03  0.66890999452E+03  0.50400001928E-02 0. -1.
        1   -1    0    0  501    0  0.00000000000E+00  0.00000000000E+00 -0.98401385828E+03  0.98401385829E+03  0.50400001928E-02 0.  1.
    10030    2    1    2    0    0  0.00000000000E+00  0.00000000000E+00 -0.31510386378E+03  0.16529238528E+04  0.16226111112E+04 0.  0.
        4    1    3    3  502    0  0.32313360088E+03  0.21212323854E+02  0.60021959356E+03  0.68200473613E+03  0.12699999809E+01 0. -1.
       -4    1    3    3    0  502 -0.32313360088E+03 -0.21212323854E+02 -0.91532345734E+03  0.97091911669E+03  0.12699999809E+01 0.  1.
</event>
<event>
 5   0  0.7302027E-04  0.1625098E+04  0.7818609E-02  0.8805276E-01
        1   -1    0    0  501    0  0.00000000000E+00  0.00000000000E+00  0.18126792009E+04  0.18126792010E+04  0.50400001928E-02 0.  1.
       -1   -1    0    0    0  501  0.00000000000E+00  0.00000000000E+00 -0.36423219713E+03  0.36423219717E+03  0.50400001928E-02 0. -1.
    10030    2    1    2    0    0  0.00000000000E+00  0.00000000000E+00  0.14484470038E+04  0.21769113981E+04  0.16250983085E+04 0.  0.
        5    1    3    3  502    0 -0.61615997128E+03  0.10086819833E+03  0.27671339566E+02  0.62499223729E+03  0.46999998093E+01 0. -1.
       -5    1    3    3    0  502  0.61615997128E+03 -0.10086819833E+03  0.14207756642E+04  0.15519191608E+04  0.46999998093E+01 0.  1.
</event>
<event>
 5   0  0.1339162E-03  0.1580428E+04  0.7818609E-02  0.8832663E-01
       -2   -1    0    0    0  501  0.00000000000E+00  0.00000000000E+00  0.48467613575E+03  0.48467613576E+03  0.25500000920E-02 0.  1.
        2   -1    0    0  501    0  0.00000000000E+00  0.00000000000E+00 -0.12883622986E+04  0.12883622986E+04  0.25500000920E-02 0. -1.
    10030    2    1    2    0    0  0.00000000000E+00  0.00000000000E+00 -0.80368616281E+03  0.17730384343E+04  0.15804283727E+04 0.  0.
        5    1    3    3  502    0  0.23581159715E+03 -0.11377054057E+03  0.43458422407E+03  0.50738189075E+03  0.46999998093E+01 0.  1.
       -5    1    3    3    0  502 -0.23581159715E+03  0.11377054057E+03 -0.12382703869E+04  0.12656565436E+04  0.46999998093E+01 0. -1.
</event>
<event>
 5   0  0.7633213E-04  0.1466529E+04  0.7818609E-02  0.8907021E-01
        1   -1    0    0  501    0  0.00000000000E+00  0.00000000000E+00  0.10174354727E+04  0.10174354727E+04  0.50400001928E-02 0. -1.
       -1   -1    0    0    0  501  0.00000000000E+00  0.00000000000E+00 -0.52846266189E+03  0.52846266191E+03  0.50400001928E-02 0.  1.
    10030    2    1    2    0    0  0.00000000000E+00  0.00000000000E+00  0.48897281079E+03  0.15458981346E+04  0.14665287699E+04 0.  0.
        1    1    3    3  502    0  0.12815268345E+03  0.25082754245E+03 -0.46916107341E+03  0.54721995501E+03  0.50400001928E-02 0.  1.
       -1    1    3    3    0  502 -0.12815268345E+03 -0.25082754245E+03  0.95813388420E+03  0.99867817960E+03  0.50400001928E-02 0. -1.
</event>
<event>
 5   0  0.1339162E-03  0.1620059E+04  0.7818609E-02  0.8808319E-01
       -2   -1    0    0    0  501  0.00000000000E+00  0.00000000000E+00  0.16359525557E+04  0.16359525557E+04  0.25500000920E-02 0.  1.
        2   -1    0    0  501    0  0.00000000000E+00  0.00000000000E+00 -0.40108013298E+03  0.40108013299E+03  0.25500000920E-02 0. -1.
    10030    2    1    2    0    0  0.00000000000E+00  0.00000000000E+00  0.12348724227E+04  0.20370326887E+04  0.16200593429E+04 0.  0.
        5    1    3    3  502    0 -0.37275855136E+03  0.18481258603E+03 -0.25644064656E+03  0.48876223747E+03  0.46999998093E+01 0. -1.
       -5    1    3    3    0  502  0.37275855136E+03 -0.18481258603E+03  0.14913130693E+04  0.15482704513E+04  0.46999998093E+01 0.  1.
</event>
<event>
 5   0  0.7124495E-04  0.1575071E+04  0.7818609E-02  0.8836011E-01
       -1   -1    0    0    0  501  0.00000000000E+00  0.00000000000E+00  0.52066952209E+03  0.52066952211E+03  0.50400001928E-02 0.  1.
        1   -1    0    0  501    0  0.00000000000E+00  0.00000000000E+00 -0.11911815661E+04  0.11911815661E+04  0.50400001928E-02 0. -1.
    10030    2    1    2    0    0  0.00000000000E+00  0.00000000000E+00 -0.67051204400E+03  0.17118510882E+04  0.15750707118E+04 0.  0.
        2    1    3    3  502    0  0.27665712086E+03  0.67934717293E+03 -0.64678371026E+03  0.97794729498E+03  0.25500000920E-02 0. -1.
       -2    1    3    3    0  502 -0.27665712086E+03 -0.67934717293E+03 -0.23728333745E+02  0.73390379324E+03  0.25500000920E-02 0.  1.
</event>
<event>
 5   0  0.7499834E-04  0.1570323E+04  0.7818609E-02  0.8838990E-01
        1   -1    0    0  501    0  0.00000000000E+00  0.00000000000E+00  0.83125373119E+03  0.83125373120E+03  0.50400001928E-02 0. -1.
       -1   -1    0    0    0  501  0.00000000000E+00  0.00000000000E+00 -0.74162474363E+03  0.74162474365E+03  0.50400001928E-02 0.  1.
    10030    2    1    2    0    0  0.00000000000E+00  0.00000000000E+00  0.89628987557E+02  0.15728784749E+04  0.15703226870E+04 0.  0.
        3    1    3    3  502    0  0.65607555200E+03 -0.23556678021E+03 -0.31709266661E+03  0.76581630127E+03  0.10100000352E+00 0.  1.
       -3    1    3    3    0  502 -0.65607555200E+03  0.23556678021E+03  0.40672165417E+03  0.80706217359E+03  0.10100000352E+00 0. -1.
</event>
<event>
 5   0  0.7302027E-04  0.1623223E+04  0.7818609E-02  0.8806407E-01
        1   -1    0    0  501    0  0.00000000000E+00  0.00000000000E+00  0.16118003431E+04  0.16118003431E+04  0.50400001928E-02 0.  1.
       -1   -1    0    0    0  501  0.00000000000E+00  0.00000000000E+00 -0.40868156654E+03  0.40868156657E+03  0.50400001928E-02 0. -1.
    10030    2    1    2    0    0  0.00000000000E+00  0.00000000000E+00  0.12031187766E+04  0.20204819097E+04  0.16232228303E+04 0.  0.
        5    1    3    3  502    0  0.63307640675E+02  0.26993683437E+03 -0.34788628487E+03  0.44488280380E+03  0.46999998093E+01 0. -1.
       -5    1    3    3    0  502 -0.63307640675E+02 -0.26993683437E+03  0.15510050614E+04  0.15755991059E+04  0.46999998093E+01 0.  1.
</event>
<event>
 5   0  0.1414751E-03  0.1646923E+04  0.7818609E-02  0.8792229E-01
       -2   -1    0    0    0  501  0.00000000000E+00  0.00000000000E+00  0.38547704286E+03  0.38547704287E+03  0.25500000920E-02 0.  1.
        2   -1    0    0  501    0  0.00000000000E+00  0.00000000000E+00 -0.17590906712E+04  0.17590906712E+04  0.25500000920E-02 0. -1.
    10030    2    1    2    0    0  0.00000000000E+00  0.00000000000E+00 -0.13736136283E+04  0.21445677140E+04  0.16469232770E+04 0.  0.
        2    1    3    3  502    0  0.57582603170E+03 -0.56391072974E+03 -0.46690592001E+03  0.93143548785E+03  0.25500000920E-02 0.  1.
       -2    1    3    3    0  502 -0.57582603170E+03  0.56391072974E+03 -0.90670770829E+03  0.12131322262E+04  0.25500000920E-02 0. -1.
</event>
<event>
 5   0  0.1375777E-03  0.8731102E+03  0.7818609E-02  0.9459834E-01
       -2   -1    0    0    0  501  0.00000000000E+00  0.00000000000E+00  0.95774270898E+03  0.95774270899E+03  0.25500000920E-02 0.  1.
        2   -1    0    0  501    0  0.00000000000E+00  0.00000000000E+00 -0.19898909895E+03  0.19898909897E+03  0.25500000920E-02 0. -1.
    10030    2    1    2    0    0  0.00000000000E+00  0.00000000000E+00  0.75875361003E+03  0.11567318080E+04  0.87311020770E+03 0.  0.
        1    1    3    3  502    0  0.33253027576E+03 -0.27823057195E+03  0.44682307263E+03  0.62260701387E+03  0.50400001928E-02 0. -1.
       -1    1    3    3    0  502 -0.33253027576E+03  0.27823057195E+03  0.31193053740E+03  0.53412479408E+03  0.50400001928E-02 0.  1.
</event>
<event>
 5   0  0.7633213E-04  0.1689074E+04  0.7818609E-02  0.8767621E-01
       -1   -1    0    0    0  501  0.00000000000E+00  0.00000000000E+00  0.12467487332E+04  0.12467487332E+04  0.50400001928E-02 0.  1.
        1   -1    0    0  501    0  0.00000000000E+00  0.00000000000E+00 -0.57208203479E+03  0.57208203481E+03  0.50400001928E-02 0. -1.
    10030    2    1    2    0    0  0.00000000000E+00  0.00000000000E+00  0.67466669841E+03  0.18188307680E+04  0.16890737724E+04 0.  0.
        1    1    3    3  502    0 -0.44894559183E+03 -0.70900886735E+03  0.23519507351E+03  0.87152879530E+03  0.50400001928E-02 0. -1.
       -1    1    3    3    0  502  0.44894559183E+03  0.70900886735E+03  0.43947162490E+03  0.94730197272E+03  0.50400001928E-02 0.  1.
</event>
<event>
 5   0  0.7499834E-04  0.1542528E+04  0.7818609E-02  0.8856655E-01
        1   -1    0    0  501    0  0.00000000000E+00  0.00000000000E+00  0.12094218321E+04  0.12094218321E+04  0.50400001928E-02 0.  1.
       -1   -1    0    0    0  501  0.00000000000E+00  0.00000000000E+00 -0.49184506800E+03  0.49184506802E+03  0.50400001928E-02 0. -1.
    10030    2    1    2    0    0  0.00000000000E+00  0.00000000000E+00  0.71757676413E+03  0.17012669002E+04  0.15425280072E+04 0.  0.
        3    1    3    3  502    0 -0.11027597602E+03  0.23027193820E+03 -0.44388504007E+03  0.51207411124E+03  0.10100000352E+00 0. -1.
       -3    1    3    3    0  502  0.11027597602E+03 -0.23027193820E+03  0.11614618042E+04  0.11891927889E+04  0.10100000352E+00 0.  1.
</event>
<event>
 5   0  0.7499834E-04  0.8681211E+03  0.7818609E-02  0.9466333E-01
       -1   -1    0    0    0  501  0.00000000000E+00  0.00000000000E+00  0.11536234772E+04  0.11536234772E+04  0.50400001928E-02 0. -1.
        1   -1    0    0  501    0  0.00000000000E+00  0.00000000000E+00 -0.16331894813E+03  0.16331894820E+03  0.50400001928E-02 0.  1.
    10030    2    1    2    0    0  0.00000000000E+00  0.00000000000E+00  0.99030452904E+03  0.13169424254E+04  0.86812112722E+03 0.  0.
        3    1    3    3  502    0 -0.17138777964E+03 -0.33998880296E+03  0.17896571171E+03  0.42070761025E+03  0.10100000352E+00 0.  1.
       -3    1    3    3    0  502  0.17138777964E+03  0.33998880296E+03  0.81133881733E+03  0.89623481514E+03  0.10100000352E+00 0. -1.
</event>
<event>
 5   0  0.7124495E-04  0.1609269E+04  0.7818609E-02  0.8814874E-01
        1   -1    0    0  501    0  0.00000000000E+00  0.00000000000E+00  0.70519560562E+03  0.70519560563E+03  0.50400001928E-02 0. -1.
       -1   -1    0    0    0  501  0.00000000000E+00  0.00000000000E+00 -0.91809473702E+03  0.91809473703E+03  0.50400001928E-02 0.  1.
    10030    2    1    2    0    0  0.00000000000E+00  0.00000000000E+00 -0.21289913140E+03  0.16232903427E+04  0.16092686216E+04 0.  0.
        2    1    3    3  502    0 -0.46270449310E+03  0.30941794850E+03 -0.69254699877E+03  0.88851351161E+03  0.25500000920E-02 0.  1.
       -2    1    3    3    0  502  0.46270449310E+03 -0.30941794850E+03  0.47964786737E+03  0.73477683106E+03  0.25500000920E-02 0. -1.
</event>
<event>
 5   0  0.1375777E-03  0.1513743E+04  0.7818609E-02  0.8875365E-01
       -2   -1    0    0    0  501  0.00000000000E+00  0.00000000000E+00  0.38640811588E+03  0.38640811589E+03  0.25500000920E-02 0.  1.
        2   -1    0    0  501    0  0.00000000000E+00  0.00000000000E+00 -0.14825108990E+04  0.14825108990E+04  0.25500000920E-02 0. -1.
    10030    2    1    2    0    0  0.00000000000E+00  0.00000000000E+00 -0.10961027832E+04  0.18689190149E+04  0.15137427037E+04 0.  0.
        1    1    3    3  502    0  0.73288420650E+03 -0.16146450338E+03 -0.42667860779E+03  0.86327555297E+03  0.50400001928E-02 0.  1.
       -1    1    3    3    0  502 -0.73288420650E+03  0.16146450338E+03 -0.66942417536E+03  0.10056434620E+04  0.50400001928E-02 0. -1.
</event>
<event>
 5   0  0.1354766E-03  0.1579803E+04  0.7818609E-02  0.8833053E-01
       -2   -1    0    0    0  501  0.00000000000E+00  0.00000000000E+00  0.42981084760E+03  0.42981084760E+03  0.25500000920E-02 0.  1.
        2   -1    0    0  501    0  0.00000000000E+00  0.00000000000E+00 -0.14516714229E+04  0.14516714229E+04  0.25500000920E-02 0. -1.
    10030    2    1    2    0    0  0.00000000000E+00  0.00000000000E+00 -0.10218605753E+04  0.18814822705E+04  0.15798026772E+04 0.  0.
        3    1    3    3  502    0  0.33760496161E+03  0.68242609595E+03 -0.26037072832E+03  0.80465856915E+03  0.10100000352E+00 0.  1.
       -3    1    3    3    0  502 -0.33760496161E+03 -0.68242609595E+03 -0.76148984698E+03  0.10768237014E+04  0.10100000352E+00 0. -1.
</event>
<event>
 5   0  0.7499834E-04  0.1576343E+04  0.7818609E-02  0.8835215E-01
        1   -1    0    0  501    0  0.00000000000E+00  0.00000000000E+00  0.11505970894E+04  0.11505970894E+04  0.50400001928E-02 0.  1.
       -1   -1    0    0    0  501  0.00000000000E+00  0.00000000000E+00 -0.53990577485E+03  0.53990577487E+03  0.50400001928E-02 0. -1.
    10030    2    1    2    0    0  0.00000000000E+00  0.00000000000E+00  0.61069131457E+03  0.16905028643E+04  0.15763426190E+04 0.  0.
        3    1    3    3  502    0 -0.56423882054E+03 -0.53014141714E+03  0.14700956047E+03  0.78805278366E+03  0.10100000352E+00 0. -1.
       -3    1    3    3    0  502  0.56423882054E+03  0.53014141714E+03  0.46368175410E+03  0.90245008064E+03  0.10100000352E+00 0.  1.
</event>
<event>
 5   0  0.1414796E-03  0.1607707E+04  0.7818609E-02  0.8815827E-01
        2   -1    0    0  501    0  0.00000000000E+00  0.00000000000E+00  0.17396820978E+04  0.17396820978E+04  0.25500000920E-02 0.  1.
       -2   -1    0    0    0  501  0.00000000000E+00  0.00000000000E+00 -0.37143579083E+03  0.37143579084E+03  0.25500000920E-02 0. -1.
    10030    2    1    2    0    0  0.00000000000E+00  0.00000000000E+00  0.13682463070E+04  0.21111178887E+04  0.16077066845E+04 0.  0.
        4    1    3    3  502    0  0.38455639951E+03  0.53677655525E+02 -0.24012727445E+03  0.45653875623E+03  0.12699999809E+01 0. -1.
       -4    1    3    3    0  502 -0.38455639951E+03 -0.53677655525E+02  0.16083735814E+04  0.16545791324E+04  0.12699999809E+01 0.  1.
</event>
<event>
 5   0  0.7499834E-04  0.1599106E+04  0.7818609E-02  0.8821098E-01
        1   -1    0    0  501    0  0.00000000000E+00  0.00000000000E+00  0.69631338193E+03  0.69631338195E+03  0.50400001928E-02 0.  1.
       -1   -1    0    0    0  501  0.00000000000E+00  0.00000000000E+00 -0.91809924553E+03  0.91809924554E+03  0.50400001928E-02 0. -1.
    10030    2    1    2    0    0  0.00000000000E+00  0.00000000000E+00 -0.22178586359E+03  0.16144126275E+04  0.15991057384E+04 0.  0.
        3    1    3    3  502    0 -0.37933017564E+02  0.75631727846E+03 -0.36992255070E+03  0.84279145892E+03  0.10100000352E+00 0. -1.
       -3    1    3    3    0  502  0.37933017564E+02 -0.75631727846E+03  0.14813668711E+03  0.77162116857E+03  0.10100000352E+00 0.  1.
</event>
<event>
 5   0  0.7499834E-04  0.1179699E+04  0.7818609E-02  0.9130814E-01
       -1   -1    0    0    0  501  0.00000000000E+00  0.00000000000E+00  0.57901757043E+03  0.57901757045E+03  0.50400001928E-02 0. -1.
        1   -1    0    0  501    0  0.00000000000E+00  0.00000000000E+00 -0.60088426465E+03  0.60088426467E+03  0.50400001928E-02 0.  1.
    10030    2    1    2    0    0  0.00000000000E+00  0.00000000000E+00 -0.21866694222E+02  0.11799018351E+04  0.11796991939E+04 0.  0.
        3    1    3    3  502    0 -0.26141003606E+03 -0.22326012318E+03  0.46846333766E+03  0.58106643208E+03  0.10100000352E+00 0. -1.
       -3    1    3    3    0  502  0.26141003606E+03  0.22326012318E+03 -0.49033003188E+03  0.59883540303E+03  0.10100000352E+00 0.  1.
</event>
<event>
 5   0  0.1339162E-03  0.1549460E+04  0.7818609E-02  0.8852213E-01
        2   -1    0    0  501    0  0.00000000000E+00  0.00000000000E+00  0.72990802434E+03  0.72990802434E+03  0.25500000920E-02 0. -1.
       -2   -1    0    0    0  501  0.00000000000E+00  0.00000000000E+00 -0.82230463689E+03  0.82230463689E+03  0.25500000920E-02 0.  1.
    10030    2    1    2    0    0  0.00000000000E+00  0.00000000000E+00 -0.92396612552E+02  0.15522126612E+04  0.15494602324E+04 0.  0.
        5    1    3    3  502    0  0.47661106320E+03  0.15927417298E+03 -0.63687125989E+03  0.81126657728E+03  0.46999998093E+01 0.  1.
       -5    1    3    3    0  502 -0.47661106320E+03 -0.15927417298E+03  0.54447464733E+03  0.74094608396E+03  0.46999998093E+01 0. -1.
</event>
<event>
 5   0  0.7601145E-04  0.1581016E+04  0.7818609E-02  0.8832297E-01
       -1   -1    0    0    0  501  0.00000000000E+00  0.00000000000E+00  0.49830905551E+03  0.49830905554E+03  0.50400001928E-02 0.  1.
        1   -1    0    0  501    0  0.00000000000E+00  0.00000000000E+00 -0.12540460795E+04  0.12540460795E+04  0.50400001928E-02 0. -1.
    10030    2    1    2    0    0  0.00000000000E+00  0.00000000000E+00 -0.75573702399E+03  0.17523551351E+04  0.15810155186E+04 0.  0.
        4    1    3    3  502    0 -0.77217738360E+03 -0.55635560575E+02 -0.20071013082E+03  0.79977459128E+03  0.12699999809E+01 0.  1.
       -4    1    3    3    0  502  0.77217738360E+03  0.55635560575E+02 -0.55502689318E+03  0.95258054378E+03  0.12699999809E+01 0. -1.
</event>
<event>
 5   0  0.7499834E-04  0.1109203E+04  0.7818609E-02  0.9196269E-01
       -1   -1    0    0    0  501  0.00000000000E+00  0.00000000000E+00  0.36500007169E+03  0.36500007172E+03  0.50400001928E-02 0.  1.
        1   -1    0    0  501    0  0.00000000000E+00  0.00000000000E+00 -0.84269189313E+03  0.84269189315E+03  0.50400001928E-02 0. -1.
    10030    2    1    2    0    0  0.00000000000E+00  0.00000000000E+00 -0.47769182145E+03  0.12076919649E+04  0.11092025990E+04 0.  0.
        3    1    3    3  502    0 -0.15665488757E+03 -0.35330968299E+03  0.19423385998E+03  0.43254512881E+03  0.10100000352E+00 0.  1.
       -3    1    3    3    0  502  0.15665488757E+03  0.35330968299E+03 -0.67192568142E+03  0.77514683606E+03  0.10100000352E+00 0. -1.
</event>
<event>
 5   0  0.1414751E-03  0.1667531E+04  0.7818609E-02  0.8780102E-01
        2   -1    0    0  501    0  0.00000000000E+00  0.00000000000E+00  0.60105619147E+03  0.60105619148E+03  0.25500000920E-02 0.  1.
       -2   -1    0    0    0  501  0.00000000000E+00  0.00000000000E+00 -0.11565719378E+04  0.11565719379E+04  0.25500000920E-02 0. -1.
    10030    2    1    2    0    0  0.00000000000E+00  0.00000000000E+00 -0.55551574637E+03  0.17576281293E+04  0.16675307783E+04 0.  0.
        2    1    3    3  502    0  0.54503458478E+03 -0.63068029720E+03 -0.25819749272E+03  0.87263181304E+03  0.25500000920E-02 0.  1.
       -2    1    3    3    0  502 -0.54503458478E+03  0.63068029720E+03 -0.29731825366E+03  0.88499631629E+03  0.25500000920E-02 0. -1.
</event>
<event>
 5   0  0.7601145E-04  0.1636080E+04  0.7818609E-02  0.8798684E-01
       -1   -1    0    0    0  501  0.00000000000E+00  0.00000000000E+00  0.48287489473E+03  0.48287489476E+03  0.50400001928E-02 0. -1.
        1   -1    0    0  501    0  0.00000000000E+00  0.00000000000E+00 -0.13858436741E+04  0.13858436741E+04  0.50400001928E-02 0.  1.
    10030    2    1    2    0    0  0.00000000000E+00  0.00000000000E+00 -0.90296877940E+03  0.18687185689E+04  0.16360796048E+04 0.  0.
        4    1    3    3  502    0  0.27564093113E+03 -0.47508610809E+03 -0.11439046711E+04  0.12689382343E+04  0.12699999809E+01 0.  1.
       -4    1    3    3    0  502 -0.27564093113E+03  0.47508610809E+03  0.24093589166E+03  0.59978033463E+03  0.12699999809E+01 0. -1.
</event>
<event>
 5   0  0.1375777E-03  0.1577627E+04  0.7818609E-02  0.8834412E-01
       -2   -1    0    0    0  501  0.00000000000E+00  0.00000000000E+00  0.39588893668E+03  0.39588893669E+03  0.25500000920E-02 0. -1.
        2   -1    0    0  501    0  0.00000000000E+00  0.00000000000E+00 -0.15717204346E+04  0.15717204346E+04  0.25500000920E-02 0.  1.
    10030    2    1    2    0    0  0.00000000000E+00  0.00000000000E+00 -0.11758314979E+04  0.19676093713E+04  0.15776269922E+04 0.  0.
        1    1    3    3  502    0  0.53388631026E+03 -0.15542546919E+03  0.10988438234E+03  0.56680353409E+03  0.50400001928E-02 0. -1.
       -1    1    3    3    0  502 -0.53388631026E+03  0.15542546919E+03 -0.12857158803E+04  0.14008058372E+04  0.50400001928E-02 0.  1.
</event>
<event>
 5   0  0.7124495E-04  0.1564962E+04  0.7818609E-02  0.8842367E-01
       -1   -1    0    0    0  501  0.00000000000E+00  0.00000000000E+00  0.36868315126E+03  0.36868315130E+03  0.50400001928E-02 0. -1.
        1   -1    0    0  501    0  0.00000000000E+00  0.00000000000E+00 -0.16607115070E+04  0.16607115070E+04  0.50400001928E-02 0.  1.
    10030    2    1    2    0    0  0.00000000000E+00  0.00000000000E+00 -0.12920283557E+04  0.20293946583E+04  0.15649617909E+04 0.  0.
        2    1    3    3  502    0 -0.39045325658E+02 -0.59563385698E+03  0.10069312479E+02  0.59699716926E+03  0.25500000920E-02 0.  1.
       -2    1    3    3    0  502  0.39045325658E+02  0.59563385698E+03 -0.13020976682E+04  0.14323974890E+04  0.25500000920E-02 0. -1.
</event>
<event>
 5   0  0.7601145E-04  0.1626187E+04  0.7818609E-02  0.8804620E-01
        1   -1    0    0  501    0  0.00000000000E+00  0.00000000000E+00  0.20046778188E+04  0.20046778188E+04  0.50400001928E-02 0.  1.
       -1   -1    0    0    0  501  0.00000000000E+00  0.00000000000E+00 -0.32978911537E+03  0.32978911540E+03  0.50400001928E-02 0. -1.
    10030    2    1    2    0    0  0.00000000000E+00  0.00000000000E+00  0.16748887035E+04  0.23344669342E+04  0.16261868583E+04 0.  0.
        4    1    3    3  502    0  0.10815037098E+03 -0.54205266523E+03 -0.18605791852E+02  0.55305097687E+03  0.12699999809E+01 0. -1.
       -4    1    3    3    0  502 -0.10815037098E+03  0.54205266523E+03  0.16934944953E+04  0.17814159574E+04  0.12699999809E+01 0.  1.
</event>
<event>
 5   0  0.1354766E-03  0.1573669E+04  0.7818609E-02  0.8836889E-01
        2   -1    0    0  501    0  0.00000000000E+00  0.00000000000E+00  0.73320599283E+03  0.73320599284E+03  0.25500000920E-02 0. -1.
       -2   -1    0    0    0  501  0.00000000000E+00  0.00000000000E+00 -0.84438592027E+03  0.84438592027E+03  0.25500000920E-02 0.  1.
    10030    2    1    2    0    0  0.00000000000E+00  0.00000000000E+00 -0.11117992744E+03  0.15775919131E+04  0.15736693643E+04 0.  0.
        3    1    3    3  502    0 -0.68891680339E+03 -0.37986918477E+03 -0.69832673510E+02  0.78979970374E+03  0.10100000352E+00 0. -1.
       -3    1    3    3    0  502  0.68891680339E+03  0.37986918477E+03 -0.41347253928E+02  0.78779220937E+03  0.10100000352E+00 0.  1.
</event>
<event>
 5   0  0.7499834E-04  0.1541770E+04  0.7818609E-02  0.8857142E-01
       -1   -1    0    0    0  501  0.00000000000E+00  0.00000000000E+00  0.54252181758E+03  0.54252181760E+03  0.50400001928E-02 0. -1.
        1   -1    0    0  501    0  0.00000000000E+00  0.00000000000E+00 -0.10953729484E+04  0.10953729484E+04  0.50400001928E-02 0.  1.
    10030    2    1    2    0    0  0.00000000000E+00  0.00000000000E+00 -0.55285113081E+03  0.16378947660E+04  0.15417700515E+04 0.  0.
        3    1    3    3  502    0 -0.48623614740E+01 -0.34745959339E+03 -0.10074499085E+04  0.10656956132E+04  0.10100000352E+00 0.  1.
       -3    1    3    3    0  502  0.48623614740E+01  0.34745959339E+03  0.45459877770E+03  0.57219915282E+03  0.10100000352E+00 0. -1.
</event>
<event>
 5   0  0.1414751E-03  0.1584044E+04  0.7818609E-02  0.8830411E-01
        2   -1    0    0  501    0  0.00000000000E+00  0.00000000000E+00  0.19478689051E+04  0.19478689051E+04  0.25500000920E-02 0.  1.
       -2   -1    0    0    0  501  0.00000000000E+00  0.00000000000E+00 -0.32204347624E+03  0.32204347625E+03  0.25500000920E-02 0. -1.
    10030    2    1    2    0    0  0.00000000000E+00  0.00000000000E+00  0.16258254289E+04  0.22699123814E+04  0.15840435265E+04 0.  0.
        2    1    3    3  502    0  0.17394407140E+03  0.70293964917E+03  0.12726261474E+04  0.14642260759E+04  0.25500000920E-02 0.  1.
       -2    1    3    3    0  502 -0.17394407140E+03 -0.70293964917E+03  0.35319928147E+03  0.80568630545E+03  0.25500000920E-02 0. -1.
</event>
<event>
 5   0  0.1354766E-03  0.1615950E+04  0.7818609E-02  0.8810809E-01
       -2   -1    0    0    0  501  0.00000000000E+00  0.00000000000E+00  0.21887638842E+03  0.21887638843E+03  0.25500000920E-02 0. -1.
        2   -1    0    0  501    0  0.00000000000E+00  0.00000000000E+00 -0.29826120788E+04  0.29826120789E+04  0.25500000920E-02 0.  1.
    10030    2    1    2    0    0  0.00000000000E+00  0.00000000000E+00 -0.27637356904E+04  0.32014884673E+04  0.16159497021E+04 0.  0.
        3    1    3    3  502    0  0.52939715711E+02 -0.29841059205E+03  0.10199800136E+03  0.31977350958E+03  0.10100000352E+00 0. -1.
       -3    1    3    3    0  502 -0.52939715711E+02  0.29841059205E+03 -0.28657336918E+04  0.28817149577E+04  0.10100000352E+00 0.  1.
</event>
<event>
 5   0  0.1414751E-03  0.1550252E+04  0.7818609E-02  0.8851707E-01
        2   -1    0    0  501    0  0.00000000000E+00  0.00000000000E+00  0.94696082374E+03  0.94696082375E+03  0.25500000920E-02 0. -1.
       -2   -1    0    0    0  501  0.00000000000E+00  0.00000000000E+00 -0.63447209713E+03  0.63447209713E+03  0.25500000920E-02 0.  1.
    10030    2    1    2    0    0  0.00000000000E+00  0.00000000000E+00  0.31248872662E+03  0.15814329209E+04  0.15502518760E+04 0.  0.
        2    1    3    3  502    0  0.43162673304E+01  0.81585772750E+02 -0.63006756054E+03  0.63534242683E+03  0.25500000920E-02 0.  1.
       -2    1    3    3    0  502 -0.43162673304E+01 -0.81585772750E+02  0.94255628715E+03  0.94609049405E+03  0.25500000920E-02 0. -1.
</event>
<event>
 5   0  0.1414751E-03  0.1500976E+04  0.7818609E-02  0.8883804E-01
        2   -1    0    0  501    0  0.00000000000E+00  0.00000000000E+00  0.72291396187E+03  0.72291396187E+03  0.25500000920E-02 0.  1.
       -2   -1    0    0    0  501  0.00000000000E+00  0.00000000000E+00 -0.77911378470E+03  0.77911378470E+03  0.25500000920E-02 0. -1.
    10030    2    1    2    0    0  0.00000000000E+00  0.00000000000E+00 -0.56199822829E+02  0.15020277466E+04  0.15009759929E+04 0.  0.
        2    1    3    3  502    0 -0.56989745622E+03  0.44178235836E+03  0.18007823707E+03  0.74322468624E+03  0.25500000920E-02 0. -1.
       -2    1    3    3    0  502  0.56989745622E+03 -0.44178235836E+03 -0.23627805990E+03  0.75880306033E+03  0.25500000920E-02 0.  1.
</event>
<event>
 5   0  0.7302027E-04  0.1577494E+04  0.7818609E-02  0.8834495E-01
        1   -1    0    0  501    0  0.00000000000E+00  0.00000000000E+00  0.54580041722E+03  0.54580041725E+03  0.50400001928E-02 0. -1.
       -1   -1    0    0    0  501  0.00000000000E+00  0.00000000000E+00 -0.11398332749E+04  0.11398332749E+04  0.50400001928E-02 0.  1.
    10030    2    1    2    0    0  0.00000000000E+00  0.00000000000E+00 -0.59403285763E+03  0.16856336921E+04  0.15774935525E+04 0.  0.
        5    1    3    3  502    0  0.23789350590E+03 -0.73446833618E+03 -0.46952164443E+03  0.90360927484E+03  0.46999998093E+01 0. -1.
       -5    1    3    3    0  502 -0.23789350590E+03  0.73446833618E+03 -0.12451121321E+03  0.78202441727E+03  0.46999998093E+01 0.  1.
</event>
<event>
 5   0  0.7601145E-04  0.1630852E+04  0.7818609E-02  0.8801815E-01
        1   -1    0    0  501    0  0.00000000000E+00  0.00000000000E+00  0.99757839889E+03  0.99757839890E+03  0.50400001928E-02 0.  1.
       -1   -1    0    0    0  501  0.00000000000E+00  0.00000000000E+00 -0.66653400124E+03  0.66653400125E+03  0.50400001928E-02 0. -1.
    10030    2    1    2    0    0  0.00000000000E+00  0.00000000000E+00  0.33104439766E+03  0.16641124002E+04  0.16308524419E+04 0.  0.
        4    1    3    3  502    0 -0.30263747863E+03  0.74074136448E+03  0.32566589948E+03  0.86391382876E+03  0.12699999809E+01 0. -1.
       -4    1    3    3    0  502  0.30263747863E+03 -0.74074136448E+03  0.53784981753E+01  0.80019857140E+03  0.12699999809E+01 0.  1.
</event>
<event>
 5   0  0.1414751E-03  0.1504149E+04  0.7818609E-02  0.8881699E-01
       -2   -1    0    0    0  501  0.00000000000E+00  0.00000000000E+00  0.53801393375E+03  0.53801393375E+03  0.25500000920E-02 0.  1.
        2   -1    0    0  501    0  0.00000000000E+00  0.00000000000E+00 -0.10513036192E+04  0.10513036192E+04  0.25500000920E-02 0. -1.
    10030    2    1    2    0    0  0.00000000000E+00  0.00000000000E+00 -0.51328968546E+03  0.15893175530E+04  0.15041489231E+04 0.  0.
        2    1    3    3  502    0  0.20165549635E+03 -0.44968621296E+03  0.34361843704E+03  0.60079635453E+03  0.25500000920E-02 0.  1.
       -2    1    3    3    0  502 -0.20165549635E+03  0.44968621296E+03 -0.85690812250E+03  0.98852119843E+03  0.25500000920E-02 0. -1.
</event>
<event>
 5   0  0.1414751E-03  0.1631848E+04  0.7818609E-02  0.8801218E-01
       -2   -1    0    0    0  501  0.00000000000E+00  0.00000000000E+00  0.50994615824E+03  0.50994615825E+03  0.25500000920E-02 0.  1.
        2   -1    0    0  501    0  0.00000000000E+00  0.00000000000E+00 -0.13054952775E+04  0.13054952775E+04  0.25500000920E-02 0. -1.
    10030    2    1    2    0    0  0.00000000000E+00  0.00000000000E+00 -0.79554911925E+03  0.18154414357E+04  0.16318484015E+04 0.  0.
        2    1    3    3  502    0  0.47696086103E+03 -0.48672997184E+03 -0.89695965771E+03  0.11264698647E+04  0.25500000920E-02 0. -1.
       -2    1    3    3    0  502 -0.47696086103E+03  0.48672997184E+03  0.10141053846E+03  0.68897157108E+03  0.25500000920E-02 0.  1.
</event>
<event>
 5   0  0.5095750E-04  0.1638534E+04  0.7818609E-02  0.8797219E-01
        3   -1    0    0  501    0  0.00000000000E+00  0.00000000000E+00  0.51967964794E+03  0.51967965776E+03  0.10100000352E+00 0. -1.
       -3   -1    0    0    0  501  0.00000000000E+00  0.00000000000E+00 -0.12915613501E+04  0.12915613540E+04  0.10100000352E+00 0.  1.
    10030    2    1    2    0    0  0.00000000000E+00  0.00000000000E+00 -0.77188170211E+03  0.18112410118E+04  0.16385336861E+04 0.  0.
        5    1    3    3  502    0 -0.37702467518E+03  0.72343597921E+03 -0.46916862755E+03  0.94108900365E+03  0.46999998093E+01 0. -1.
       -5    1    3    3    0  502  0.37702467518E+03 -0.72343597921E+03 -0.30271307456E+03  0.87015200811E+03  0.46999998093E+01 0.  1.
</event>
<event>
 5   0  0.1354766E-03  0.1594524E+04  0.7818609E-02  0.8823919E-01
       -2   -1    0    0    0  501  0.00000000000E+00  0.00000000000E+00  0.45167099798E+03  0.45167099799E+03  0.25500000920E-02 0. -1.
        2   -1    0    0  501    0  0.00000000000E+00  0.00000000000E+00 -0.14072782508E+04  0.14072782508E+04  0.25500000920E-02 0.  1.
    10030    2    1    2    0    0  0.00000000000E+00  0.00000000000E+00 -0.95560725284E+03  0.18589492488E+04  0.15945240945E+04 0.  0.
        3    1    3    3  502    0 -0.22392185067E+03 -0.24193905271E+03  0.36849117147E+03  0.49443023176E+03  0.10100000352E+00 0. -1.
       -3    1    3    3    0  502  0.22392185067E+03  0.24193905271E+03 -0.13240984243E+04  0.13645190170E+04  0.10100000352E+00 0.  1.
</event>
<event>
 5   0  0.5095750E-04  0.1612489E+04  0.7818609E-02  0.8812912E-01
       -4   -1    0    0    0  501  0.00000000000E+00  0.00000000000E+00  0.72896761912E+03  0.72896872541E+03  0.12699999809E+01 0. -1.
        4   -1    0    0  501    0  0.00000000000E+00  0.00000000000E+00 -0.89171124448E+03  0.89171214886E+03  0.12699999809E+01 0.  1.
    10030    2    1    2    0    0  0.00000000000E+00  0.00000000000E+00 -0.16274362536E+03  0.16206808743E+04  0.16124890724E+04 0.  0.
        5    1    3    3  502    0  0.44531646069E+03  0.27614536448E+03  0.53447681202E+03  0.74849887446E+03  0.46999998093E+01 0. -1.
       -5    1    3    3    0  502 -0.44531646069E+03 -0.27614536448E+03 -0.69722043738E+03  0.87218199981E+03  0.46999998093E+01 0.  1.
</event>
<event>
 5   0  0.7633213E-04  0.1577651E+04  0.7818609E-02  0.8834397E-01
        1   -1    0    0  501    0  0.00000000000E+00  0.00000000000E+00  0.38707382287E+03  0.38707382290E+03  0.50400001928E-02 0. -1.
       -1   -1    0    0    0  501  0.00000000000E+00  0.00000000000E+00 -0.16075628214E+04  0.16075628214E+04  0.50400001928E-02 0.  1.
    10030    2    1    2    0    0  0.00000000000E+00  0.00000000000E+00 -0.12204889985E+04  0.19946366443E+04  0.15776507685E+04 0.  0.
        1    1    3    3  502    0  0.33515978030E+03  0.14689027127E+03 -0.14937567643E+04  0.15379265591E+04  0.50400001928E-02 0.  1.
       -1    1    3    3    0  502 -0.33515978030E+03 -0.14689027127E+03  0.27326776578E+03  0.45671008524E+03  0.50400001928E-02 0. -1.
</event>
<event>
 5   0  0.1414751E-03  0.1604889E+04  0.7818609E-02  0.8817550E-01
        2   -1    0    0  501    0  0.00000000000E+00  0.00000000000E+00  0.17643733129E+04  0.17643733129E+04  0.25500000920E-02 0. -1.
       -2   -1    0    0    0  501  0.00000000000E+00  0.00000000000E+00 -0.36495526205E+03  0.36495526206E+03  0.25500000920E-02 0.  1.
    10030    2    1    2    0    0  0.00000000000E+00  0.00000000000E+00  0.13994180508E+04  0.21293285749E+04  0.16048891859E+04 0.  0.
        2    1    3    3  502    0 -0.71360034068E+03  0.86579288718E+01  0.21291251703E+03  0.74473629283E+03  0.25500000920E-02 0.  1.
       -2    1    3    3    0  502  0.71360034068E+03 -0.86579288718E+01  0.11865055338E+04  0.13845922821E+04  0.25500000920E-02 0. -1.
</event>
<event>
 5   0  0.1339162E-03  0.1107411E+04  0.7818609E-02  0.9197998E-01
        2   -1    0    0  501    0  0.00000000000E+00  0.00000000000E+00  0.71757834185E+03  0.71757834185E+03  0.25500000920E-02 0. -1.
       -2   -1    0    0    0  501  0.00000000000E+00  0.00000000000E+00 -0.42725651568E+03  0.42725651569E+03  0.25500000920E-02 0.  1.
    10030    2    1    2    0    0  0.00000000000E+00  0.00000000000E+00  0.29032182617E+03  0.11448348575E+04  0.11074114359E+04 0.  0.
        5    1    3    3  502    0  0.11460308661E+03 -0.23010849836E+03  0.65212484606E+03  0.70097980950E+03  0.46999998093E+01 0. -1.
       -5    1    3    3    0  502 -0.11460308661E+03  0.23010849836E+03 -0.36180301989E+03  0.44385504805E+03  0.46999998093E+01 0.  1.
</event>
<event>
 5   0  0.5095750E-04  0.1569377E+04  0.7818609E-02  0.8839585E-01
        4   -1    0    0  501    0  0.00000000000E+00  0.00000000000E+00  0.41128513137E+03  0.41128709217E+03  0.12699999809E+01 0.  1.
       -4   -1    0    0    0  501  0.00000000000E+00  0.00000000000E+00 -0.14970962695E+04  0.14970968082E+04  0.12699999809E+01 0. -1.
    10030    2    1    2    0    0  0.00000000000E+00  0.00000000000E+00 -0.10858111381E+04  0.19083839003E+04  0.15693767181E+04 0.  0.
        5    1    3    3  502    0 -0.18432373097E+03  0.61935068233E+02 -0.14673181349E+04  0.14801539749E+04  0.46999998093E+01 0. -1.
       -5    1    3    3    0  502  0.18432373097E+03 -0.61935068233E+02  0.38150699675E+03  0.42822992544E+03  0.46999998093E+01 0.  1.
</event>
<event>
 5   0  0.7302027E-04  0.1043602E+04  0.7818609E-02  0.9261975E-01
       -1   -1    0    0    0  501  0.00000000000E+00  0.00000000000E+00  0.77378277209E+03  0.77378277211E+03  0.50400001928E-02 0. -1.
        1   -1    0    0  501    0  0.00000000000E+00  0.00000000000E+00 -0.35187682343E+03  0.35187682347E+03  0.50400001928E-02 0.  1.
    10030    2    1    2    0    0  0.00000000000E+00  0.00000000000E+00  0.42190594866E+03  0.11256595956E+04  0.10436018856E+04 0.  0.
        5    1    3    3  502    0 -0.37181652779E+03  0.21068240332E+03 -0.11195111869E+03  0.44180283881E+03  0.46999998093E+01 0.  1.
       -5    1    3    3    0  502  0.37181652779E+03 -0.21068240332E+03  0.53385706735E+03  0.68385675676E+03  0.46999998093E+01 0. -1.
</event>
<event>
 5   0  0.1414796E-03  0.1127075E+04  0.7818609E-02  0.9179197E-01
        2   -1    0    0  501    0  0.00000000000E+00  0.00000000000E+00  0.13113444453E+04  0.13113444453E+04  0.25500000920E-02 0.  1.
       -2   -1    0    0    0  501  0.00000000000E+00  0.00000000000E+00 -0.24217474099E+03  0.24217474100E+03  0.25500000920E-02 0. -1.
    10030    2    1    2    0    0  0.00000000000E+00  0.00000000000E+00  0.10691697043E+04  0.15535191863E+04  0.11270749778E+04 0.  0.
        4    1    3    3  502    0  0.20979715322E+03  0.45305607341E+03  0.89480546510E+03  0.10246721839E+04  0.12699999809E+01 0. -1.
       -4    1    3    3    0  502 -0.20979715322E+03 -0.45305607341E+03  0.17436423922E+03  0.52884700243E+03  0.12699999809E+01 0.  1.
</event>
<event>
 5   0  0.7499834E-04  0.1422631E+04  0.7818609E-02  0.8937598E-01
        1   -1    0    0  501    0  0.00000000000E+00  0.00000000000E+00  0.12864512909E+04  0.12864512909E+04  0.50400001928E-02 0.  1.
       -1   -1    0    0    0  501  0.00000000000E+00  0.00000000000E+00 -0.39330637389E+03  0.39330637393E+03  0.50400001928E-02 0. -1.
    10030    2    1    2    0    0  0.00000000000E+00  0.00000000000E+00  0.89314491701E+03  0.16797576648E+04  0.14226306512E+04 0.  0.
        3    1    3    3  502    0  0.57472968775E+02 -0.29518035642E+02 -0.38983451651E+03  0.39515239722E+03  0.10100000352E+00 0. -1.
       -3    1    3    3    0  502 -0.57472968775E+02  0.29518035642E+02  0.12829794335E+04  0.12846052676E+04  0.10100000352E+00 0.  1.
</event>
<event>
 5   0  0.7124495E-04  0.1604802E+04  0.7818609E-02  0.8817604E-01
       -1   -1    0    0    0  501  0.00000000000E+00  0.00000000000E+00  0.12717646356E+04  0.12717646356E+04  0.50400001928E-02 0. -1.
        1   -1    0    0  501    0  0.00000000000E+00  0.00000000000E+00 -0.50626274702E+03  0.50626274705E+03  0.50400001928E-02 0.  1.
    10030    2    1    2    0    0  0.00000000000E+00  0.00000000000E+00  0.76550188858E+03  0.17780273827E+04  0.16048016177E+04 0.  0.
        2    1    3    3  502    0  0.13190951266E+03 -0.26761479170E+03  0.12080222981E+04  0.12443213689E+04  0.25500000920E-02 0. -1.
       -2    1    3    3    0  502 -0.13190951266E+03  0.26761479170E+03 -0.44252040955E+03  0.53370601378E+03  0.25500000920E-02 0.  1.
</event>
<event>
 5   0  0.1414751E-03  0.1593334E+04  0.7818609E-02  0.8824654E-01
        2   -1    0    0  501    0  0.00000000000E+00  0.00000000000E+00  0.10253973936E+04  0.10253973936E+04  0.25500000920E-02 0. -1.
       -2   -1    0    0    0  501  0.00000000000E+00  0.00000000000E+00 -0.61895823335E+03  0.61895823336E+03  0.25500000920E-02 0.  1.
    10030    2    1    2    0    0  0.00000000000E+00  0.00000000000E+00  0.40643916029E+03  0.16443556270E+04  0.15933338122E+04 0.  0.
        2    1    3    3  502    0 -0.67238739490E+03  0.38533956765E+03  0.12681454360E+02  0.77508206695E+03  0.25500000920E-02 0.  1.
       -2    1    3    3    0  502  0.67238739490E+03 -0.38533956765E+03  0.39375770593E+03  0.86927356005E+03  0.25500000920E-02 0. -1.
</event>
<event>
 5   0  0.1339162E-03  0.1620849E+04  0.7818609E-02  0.8807841E-01
       -2   -1    0    0    0  501  0.00000000000E+00  0.00000000000E+00  0.45453014800E+03  0.45453014801E+03  0.25500000920E-02 0.  1.
        2   -1    0    0  501    0  0.00000000000E+00  0.00000000000E+00 -0.14449814159E+04  0.14449814159E+04  0.25500000920E-02 0. -1.
    10030    2    1    2    0    0  0.00000000000E+00  0.00000000000E+00 -0.99045126794E+03  0.18995115639E+04  0.16208486874E+04 0.  0.
        5    1    3    3  502    0  0.54429207246E+03 -0.36369793613E+03 -0.10551005950E+04  0.12416881269E+04  0.46999998093E+01 0. -1.
       -5    1    3    3    0  502 -0.54429207246E+03  0.36369793613E+03  0.64649327026E+02  0.65782343708E+03  0.46999998093E+01 0.  1.
</event>
<event>
 5   0  0.7601145E-04  0.1472602E+04  0.7818609E-02  0.8902879E-01
        1   -1    0    0  501    0  0.00000000000E+00  0.00000000000E+00  0.10803665352E+04  0.10803665352E+04  0.50400001928E-02 0.  1.
       -1   -1    0    0    0  501  0.00000000000E+00  0.00000000000E+00 -0.50181052730E+03  0.50181052732E+03  0.50400001928E-02 0. -1.
    10030    2    1    2    0    0  0.00000000000E+00  0.00000000000E+00  0.57855600792E+03  0.15821770626E+04  0.14726021876E+04 0.  0.
        4    1    3    3  502    0 -0.21917189683E+03 -0.34941675479E+03  0.94458761980E+03  0.10307161458E+04  0.12699999809E+01 0.  1.
       -4    1    3    3    0  502  0.21917189683E+03  0.34941675479E+03 -0.36603161188E+03  0.55146091673E+03  0.12699999809E+01 0. -1.
</event>
<event>
 5   0  0.1339162E-03  0.1582802E+04  0.7818609E-02  0.8831183E-01
       -2   -1    0    0    0  501  0.00000000000E+00  0.00000000000E+00  0.57974556972E+03  0.57974556973E+03  0.25500000920E-02 0.  1.
        2   -1    0    0  501    0  0.00000000000E+00  0.00000000000E+00 -0.10803287712E+04  0.10803287712E+04  0.25500000920E-02 0. -1.
    10030    2    1    2    0    0  0.00000000000E+00  0.00000000000E+00 -0.50058320143E+03  0.16600743409E+04  0.15828023489E+04 0.  0.
        5    1    3    3  502    0  0.65224048691E+03 -0.26190528811E+03 -0.63175311494E+03  0.94506408298E+03  0.46999998093E+01 0. -1.
       -5    1    3    3    0  502 -0.65224048691E+03  0.26190528811E+03  0.13116991351E+03  0.71501025791E+03  0.46999998093E+01 0.  1.
</event>
<event>
 5   0  0.7499834E-04  0.1626054E+04  0.7818609E-02  0.8804700E-01
       -1   -1    0    0    0  501  0.00000000000E+00  0.00000000000E+00  0.56173614781E+03  0.56173614784E+03  0.50400001928E-02 0. -1.
        1   -1    0    0  501    0  0.00000000000E+00  0.00000000000E+00 -0.11767316395E+04  0.11767316395E+04  0.50400001928E-02 0.  1.
    10030    2    1    2    0    0  0.00000000000E+00  0.00000000000E+00 -0.61499549172E+03  0.17384677874E+04  0.16260537485E+04 0.  0.
        3    1    3    3  502    0 -0.40941901017E+03  0.36271428450E+03  0.33560787095E+03  0.64173065325E+03  0.10100000352E+00 0. -1.
       -3    1    3    3    0  502  0.40941901017E+03 -0.36271428450E+03 -0.95060336266E+03  0.10967371341E+04  0.10100000352E+00 0.  1.
</event>
<event>
 5   0  0.1414751E-03  0.8014250E+03  0.7818609E-02  0.9557957E-01
        2   -1    0    0  501    0  0.00000000000E+00  0.00000000000E+00  0.63148029276E+03  0.63148029276E+03  0.25500000920E-02 0.  1.
       -2   -1    0    0    0  501  0.00000000000E+00  0.00000000000E+00 -0.25427637412E+03  0.25427637413E+03  0.25500000920E-02 0. -1.
    10030    2    1    2    0    0  0.00000000000E+00  0.00000000000E+00  0.37720391864E+03  0.88575666689E+03  0.80142502875E+03 0.  0.
        2    1    3    3  502    0  0.11602698556E+03 -0.73722172326E+02  0.60460406801E+03  0.62003491767E+03  0.25500000920E-02 0.  1.
       -2    1    3    3    0  502 -0.11602698556E+03  0.73722172326E+02 -0.22740014937E+03  0.26572174922E+03  0.25500000920E-02 0. -1.
</event>
<event>
 5   0  0.1354766E-03  0.1561484E+04  0.7818609E-02  0.8844565E-01
       -2   -1    0    0    0  501  0.00000000000E+00  0.00000000000E+00  0.44152621478E+03  0.44152621479E+03  0.25500000920E-02 0.  1.
        2   -1    0    0  501    0  0.00000000000E+00  0.00000000000E+00 -0.13805707768E+04  0.13805707768E+04  0.25500000920E-02 0. -1.
    10030    2    1    2    0    0  0.00000000000E+00  0.00000000000E+00 -0.93904456198E+03  0.18220969916E+04  0.15614841521E+04 0.  0.
        3    1    3    3  502    0  0.48308597300E+03  0.43195688897E+03 -0.97762597554E+03  0.11729072297E+04  0.10100000352E+00 0. -1.
       -3    1    3    3    0  502 -0.48308597300E+03 -0.43195688897E+03  0.38581413554E+02  0.64918976186E+03  0.10100000352E+00 0.  1.
</event>
<event>
 5   0  0.1375777E-03  0.1200263E+04  0.7818609E-02  0.9112626E-01
       -2   -1    0    0    0  501  0.00000000000E+00  0.00000000000E+00  0.35695834789E+03  0.35695834790E+03  0.25500000920E-02 0.  1.
        2   -1    0    0  501    0  0.00000000000E+00  0.00000000000E+00 -0.10089636036E+04  0.10089636036E+04  0.25500000920E-02 0. -1.
    10030    2    1    2    0    0  0.00000000000E+00  0.00000000000E+00 -0.65200525572E+03  0.13659219515E+04  0.12002632728E+04 0.  0.
        1    1    3    3  502    0 -0.47892731250E+03 -0.13919359100E+03 -0.70585502743E+03  0.86427862765E+03  0.50400001928E-02 0. -1.
       -1    1    3    3    0  502  0.47892731250E+03  0.13919359100E+03  0.53849771714E+02  0.50164332386E+03  0.50400001928E-02 0.  1.
</event>
<event>
 5   0  0.7633213E-04  0.1523370E+04  0.7818609E-02  0.8869059E-01
        1   -1    0    0  501    0  0.00000000000E+00  0.00000000000E+00  0.43118061979E+03  0.43118061982E+03  0.50400001928E-02 0.  1.
       -1   -1    0    0    0  501  0.00000000000E+00  0.00000000000E+00 -0.13455239723E+04  0.13455239723E+04  0.50400001928E-02 0. -1.
    10030    2    1    2    0    0  0.00000000000E+00  0.00000000000E+00 -0.91434335247E+03  0.17767045921E+04  0.15233697651E+04 0.  0.
        1    1    3    3  502    0 -0.41272819909E+03 -0.17214757670E+03  0.26195781575E+03  0.51826754842E+03  0.50400001928E-02 0.  1.
       -1    1    3    3    0  502  0.41272819909E+03  0.17214757670E+03 -0.11763011682E+04  0.12584370437E+04  0.50400001928E-02 0. -1.
</event>
<event>
 5   0  0.1354766E-03  0.1595771E+04  0.7818609E-02  0.8823150E-01
        2   -1    0    0  501    0  0.00000000000E+00  0.00000000000E+00  0.11699603626E+04  0.11699603626E+04  0.25500000920E-02 0. -1.
       -2   -1    0    0    0  501  0.00000000000E+00  0.00000000000E+00 -0.54413941049E+03  0.54413941049E+03  0.25500000920E-02 0.  1.
    10030    2    1    2    0    0  0.00000000000E+00  0.00000000000E+00  0.62582095215E+03  0.17140997731E+04  0.15957713395E+04 0.  0.
        3    1    3    3  502    0 -0.53694024130E+03 -0.49365656843E+03 -0.34523742939E+02  0.73020101980E+03  0.10100000352E+00 0.  1.
       -3    1    3    3    0  502  0.53694024130E+03  0.49365656843E+03  0.66034469509E+03  0.98389875333E+03  0.10100000352E+00 0. -1.
</event>
<event>
 5   0  0.7601145E-04  0.1648095E+04  0.7818609E-02  0.8791534E-01
        1   -1    0    0  501    0  0.00000000000E+00  0.00000000000E+00  0.13641530936E+04  0.13641530936E+04  0.50400001928E-02 0.  1.
       -1   -1    0    0    0  501  0.00000000000E+00  0.00000000000E+00 -0.49778458295E+03  0.49778458297E+03  0.50400001928E-02 0. -1.
    10030    2    1    2    0    0  0.00000000000E+00  0.00000000000E+00  0.86636851068E+03  0.18619376766E+04  0.16480951172E+04 0.  0.
        4    1    3    3  502    0  0.37690998710E+03  0.36026155435E+03 -0.28773807820E+03  0.59552022675E+03  0.12699999809E+01 0. -1.
       -4    1    3    3    0  502 -0.37690998710E+03 -0.36026155435E+03  0.11541065889E+04  0.12664174499E+04  0.12699999809E+01 0.  1.
</event>
<event>
 5   0  0.1339162E-03  0.1568183E+04  0.7818609E-02  0.8840336E-01
        2   -1    0    0  501    0  0.00000000000E+00  0.00000000000E+00  0.11022924753E+04  0.11022924753E+04  0.25500000920E-02 0. -1.
       -2   -1    0    0    0  501  0.00000000000E+00  0.00000000000E+00 -0.55774646352E+03  0.55774646353E+03  0.25500000920E-02 0.  1.
    10030    2    1    2    0    0  0.00000000000E+00  0.00000000000E+00  0.54454601180E+03  0.16600389389E+04  0.15681833182E+04 0.  0.
        5    1    3    3  502    0 -0.49048594938E+03  0.52889681566E+03  0.59763503448E+03  0.93674864963E+03  0.46999998093E+01 0. -1.
       -5    1    3    3    0  502  0.49048594938E+03 -0.52889681566E+03 -0.53089022685E+02  0.72329028922E+03  0.46999998093E+01 0.  1.
</event>
<event>
 5   0  0.7601145E-04  0.1469263E+04  0.7818609E-02  0.8905154E-01
       -1   -1    0    0    0  501  0.00000000000E+00  0.00000000000E+00  0.10659131724E+04  0.10659131724E+04  0.50400001928E-02 0. -1.
        1   -1    0    0  501    0  0.00000000000E+00  0.00000000000E+00 -0.50631116540E+03  0.50631116543E+03  0.50400001928E-02 0.  1.
    10030    2    1    2    0    0  0.00000000000E+00  0.00000000000E+00  0.55960200695E+03  0.15722243378E+04  0.14692634080E+04 0.  0.
        4    1    3    3  502    0  0.10462037182E+03 -0.68867373012E+03  0.30068886268E+02  0.69722498490E+03  0.12699999809E+01 0.  1.
       -4    1    3    3    0  502 -0.10462037182E+03  0.68867373012E+03  0.52953312068E+03  0.87499935289E+03  0.12699999809E+01 0. -1.
</event>
<event>
 5   0  0.7302027E-04  0.1593313E+04  0.7818609E-02  0.8824667E-01
       -1   -1    0    0    0  501  0.00000000000E+00  0.00000000000E+00  0.53133829515E+03  0.53133829517E+03  0.50400001928E-02 0. -1.
        1   -1    0    0  501    0  0.00000000000E+00  0.00000000000E+00 -0.11944583068E+04  0.11944583068E+04  0.50400001928E-02 0.  1.
    10030    2    1    2    0    0  0.00000000000E+00  0.00000000000E+00 -0.66312001169E+03  0.17257966020E+04  0.15933128260E+04 0.  0.
        5    1    3    3  502    0  0.51159662810E+02 -0.38085957538E+03  0.42429549738E+03  0.57246841515E+03  0.46999998093E+01 0. -1.
       -5    1    3    3    0  502 -0.51159662810E+02  0.38085957538E+03 -0.10874155091E+04  0.11533281869E+04  0.46999998093E+01 0.  1.
</event>
<event>
 5   0  0.1375777E-03  0.1600407E+04  0.7818609E-02  0.8820298E-01
       -2   -1    0    0    0  501  0.00000000000E+00  0.00000000000E+00  0.25288079605E+03  0.25288079606E+03  0.25500000920E-02 0. -1.
        2   -1    0    0  501    0  0.00000000000E+00  0.00000000000E+00 -0.25321257168E+04  0.25321257168E+04  0.25500000920E-02 0.  1.
    10030    2    1    2    0    0  0.00000000000E+00  0.00000000000E+00 -0.22792449207E+04  0.27850065128E+04  0.16004074068E+04 0.  0.
        1    1    3    3  502    0  0.66127771241E+03 -0.44676663232E+03 -0.10375975333E+04  0.13090062176E+04  0.50400001928E-02 0.  1.
       -1    1    3    3    0  502 -0.66127771241E+03  0.44676663232E+03 -0.12416473875E+04  0.14760002952E+04  0.50400001928E-02 0. -1.
</event>
<event>
 5   0  0.1414796E-03  0.1646763E+04  0.7818609E-02  0.8792324E-01
       -2   -1    0    0    0  501  0.00000000000E+00  0.00000000000E+00  0.27226410567E+03  0.27226410568E+03  0.25500000920E-02 0.  1.
        2   -1    0    0  501    0  0.00000000000E+00  0.00000000000E+00 -0.24900701174E+04  0.24900701174E+04  0.25500000920E-02 0. -1.
    10030    2    1    2    0    0  0.00000000000E+00  0.00000000000E+00 -0.22178060117E+04  0.27623342231E+04  0.16467625373E+04 0.  0.
        4    1    3    3  502    0 -0.80043999377E+03  0.19213045711E+03 -0.10781183572E+04  0.13564509210E+04  0.12699999809E+01 0. -1.
       -4    1    3    3    0  502  0.80043999377E+03 -0.19213045711E+03 -0.11396876546E+04  0.14058833021E+04  0.12699999809E+01 0.  1.
</event>
<event>
 5   0  0.1354766E-03  0.1574673E+04  0.7818609E-02  0.8836260E-01
        2   -1    0    0  501    0  0.00000000000E+00  0.00000000000E+00  0.83889490274E+03  0.83889490274E+03  0.25500000920E-02 0. -1.
       -2   -1    0    0    0  501  0.00000000000E+00  0.00000000000E+00 -0.73894728696E+03  0.73894728697E+03  0.25500000920E-02 0.  1.
    10030    2    1    2    0    0  0.00000000000E+00  0.00000000000E+00  0.99947615779E+02  0.15778421897E+04  0.15746734423E+04 0.  0.
        3    1    3    3  502    0  0.20973923575E+03 -0.74393941110E+03  0.20015104691E+03  0.79843399613E+03  0.10100000352E+00 0. -1.
       -3    1    3    3    0  502 -0.20973923575E+03  0.74393941110E+03 -0.10020343113E+03  0.77940819358E+03  0.10100000352E+00 0.  1.
</event>
<event>
 5   0  0.7124495E-04  0.1571201E+04  0.7818609E-02  0.8838438E-01
        1   -1    0    0  501    0  0.00000000000E+00  0.00000000000E+00  0.99014428720E+03  0.99014428722E+03  0.50400001928E-02 0.  1.
       -1   -1    0    0    0  501  0.00000000000E+00  0.00000000000E+00 -0.62331150431E+03  0.62331150433E+03  0.50400001928E-02 0. -1.
    10030    2    1    2    0    0  0.00000000000E+00  0.00000000000E+00  0.36683278290E+03  0.16134557915E+04  0.15712012286E+04 0.  0.
        2    1    3    3  502    0  0.75324930885E+03  0.11144745127E+03 -0.15077751496E+02  0.76159857817E+03  0.25500000920E-02 0.  1.
       -2    1    3    3    0  502 -0.75324930885E+03 -0.11144745127E+03  0.38191053439E+03  0.85185721337E+03  0.25500000920E-02 0. -1.
</event>
<event>
 5   0  0.7124495E-04  0.1580823E+04  0.7818609E-02  0.8832416E-01
        1   -1    0    0  501    0  0.00000000000E+00  0.00000000000E+00  0.67806522469E+03  0.67806522471E+03  0.50400001928E-02 0.  1.
       -1   -1    0    0    0  501  0.00000000000E+00  0.00000000000E+00 -0.92137237474E+03  0.92137237475E+03  0.50400001928E-02 0. -1.
    10030    2    1    2    0    0  0.00000000000E+00  0.00000000000E+00 -0.24330715005E+03  0.15994375995E+04  0.15808232872E+04 0.  0.
        2    1    3    3  502    0  0.37788705738E+03  0.59606091968E+03 -0.48174220364E+03  0.85449564006E+03  0.25500000920E-02 0. -1.
       -2    1    3    3    0  502 -0.37788705738E+03 -0.59606091968E+03  0.23843505359E+03  0.74494195941E+03  0.25500000920E-02 0.  1.
</event>
<event>
 5   0  0.1339162E-03  0.9665790E+03  0.7818609E-02  0.9345979E-01
        2   -1    0    0  501    0  0.00000000000E+00  0.00000000000E+00  0.69499317528E+03  0.69499317529E+03  0.25500000920E-02 0. -1.
       -2   -1    0    0    0  501  0.00000000000E+00  0.00000000000E+00 -0.33607343286E+03  0.33607343287E+03  0.25500000920E-02 0.  1.
    10030    2    1    2    0    0  0.00000000000E+00  0.00000000000E+00  0.35891974242E+03  0.10310666082E+04  0.96657900295E+03 0.  0.
        5    1    3    3  502    0 -0.24396348448E+03  0.63665155775E+02  0.61924665028E+03  0.66862540910E+03  0.46999998093E+01 0. -1.
       -5    1    3    3    0  502  0.24396348448E+03 -0.63665155775E+02 -0.26032690785E+03  0.36244119905E+03  0.46999998093E+01 0.  1.
</event>
<event>
 5   0  0.7633213E-04  0.1609144E+04  0.7818609E-02  0.8814950E-01
        1   -1    0    0  501    0  0.00000000000E+00  0.00000000000E+00  0.11594323798E+04  0.11594323798E+04  0.50400001928E-02 0.  1.
       -1   -1    0    0    0  501  0.00000000000E+00  0.00000000000E+00 -0.55832173285E+03  0.55832173287E+03  0.50400001928E-02 0. -1.
    10030    2    1    2    0    0  0.00000000000E+00  0.00000000000E+00  0.60111064693E+03  0.17177541127E+04  0.16091442389E+04 0.  0.
        1    1    3    3  502    0  0.75747001995E+03  0.18433148610E+03  0.51297716986E+03  0.93321192916E+03  0.50400001928E-02 0.  1.
       -1    1    3    3    0  502 -0.75747001995E+03 -0.18433148610E+03  0.88133477074E+02  0.78454218351E+03  0.50400001928E-02 0. -1.
</event>
<event>
 5   0  0.1354766E-03  0.1507002E+04  0.7818609E-02  0.8879810E-01
        2   -1    0    0  501    0  0.00000000000E+00  0.00000000000E+00  0.20834064559E+04  0.20834064559E+04  0.25500000920E-02 0.  1.
       -2   -1    0    0    0  501  0.00000000000E+00  0.00000000000E+00 -0.27251716557E+03  0.27251716558E+03  0.25500000920E-02 0. -1.
    10030    2    1    2    0    0  0.00000000000E+00  0.00000000000E+00  0.18108892903E+04  0.23559236215E+04  0.15070023518E+04 0.  0.
        3    1    3    3  502    0 -0.37975142849E+03 -0.33498982017E+03  0.33154371567E+02  0.50747270824E+03  0.10100000352E+00 0. -1.
       -3    1    3    3    0  502  0.37975142849E+03  0.33498982017E+03  0.17777349188E+04  0.18484509132E+04  0.10100000352E+00 0.  1.
</event>
<event>
 5   0  0.7124495E-04  0.8279791E+03  0.7818609E-02  0.9520379E-01
        1   -1    0    0  501    0  0.00000000000E+00  0.00000000000E+00  0.13236918880E+03  0.13236918889E+03  0.50400001928E-02 0. -1.
       -1   -1    0    0    0  501  0.00000000000E+00  0.00000000000E+00 -0.12947677994E+04  0.12947677994E+04  0.50400001928E-02 0.  1.
    10030    2    1    2    0    0  0.00000000000E+00  0.00000000000E+00 -0.11623986106E+04  0.14271369883E+04  0.82797913829E+03 0.  0.
        2    1    3    3  502    0  0.13104904786E+03  0.29133244290E+01 -0.12580541284E+04  0.12648646293E+04  0.25500000920E-02 0.  1.
       -2    1    3    3    0  502 -0.13104904786E+03 -0.29133244290E+01  0.95655517814E+02  0.16227235901E+03  0.25500000920E-02 0. -1.
</event>
<event>
 5   0  0.7601145E-04  0.1519594E+04  0.7818609E-02  0.8871527E-01
       -1   -1    0    0    0  501  0.00000000000E+00  0.00000000000E+00  0.65161708602E+03  0.65161708604E+03  0.50400001928E-02 0.  1.
        1   -1    0    0  501    0  0.00000000000E+00  0.00000000000E+00 -0.88593689266E+03  0.88593689267E+03  0.50400001928E-02 0. -1.
    10030    2    1    2    0    0  0.00000000000E+00  0.00000000000E+00 -0.23431980664E+03  0.15375539787E+04  0.15195941779E+04 0.  0.
        4    1    3    3  502    0 -0.83825179758E+02  0.50135957899E+03  0.45422835844E+03  0.68169868910E+03  0.12699999809E+01 0.  1.
       -4    1    3    3    0  502  0.83825179758E+02 -0.50135957899E+03 -0.68854816509E+03  0.85585528961E+03  0.12699999809E+01 0. -1.
</event>
<event>
 5   0  0.5095750E-04  0.1615131E+04  0.7818609E-02  0.8811306E-01
       -3   -1    0    0    0  501  0.00000000000E+00  0.00000000000E+00  0.57733902399E+03  0.57733903283E+03  0.10100000352E+00 0. -1.
        3   -1    0    0  501    0  0.00000000000E+00  0.00000000000E+00 -0.11296002140E+04  0.11296002185E+04  0.10100000352E+00 0.  1.
    10030    2    1    2    0    0  0.00000000000E+00  0.00000000000E+00 -0.55226118998E+03  0.17069392513E+04  0.16151313215E+04 0.  0.
        1    1    3    3  502    0 -0.57596018695E+03  0.30731588345E+03 -0.77853562532E+03  0.10160171795E+04  0.50400001928E-02 0.  1.
       -1    1    3    3    0  502  0.57596018695E+03 -0.30731588345E+03  0.22627443534E+03  0.69092207179E+03  0.50400001928E-02 0. -1.
</event>
<event>
 5   0  0.1414796E-03  0.1619385E+04  0.7818609E-02  0.8808727E-01
        2   -1    0    0  501    0  0.00000000000E+00  0.00000000000E+00  0.16004134141E+04  0.16004134141E+04  0.25500000920E-02 0.  1.
       -2   -1    0    0    0  501  0.00000000000E+00  0.00000000000E+00 -0.40964523127E+03  0.40964523127E+03  0.25500000920E-02 0. -1.
    10030    2    1    2    0    0  0.00000000000E+00  0.00000000000E+00  0.11907681828E+04  0.20100586453E+04  0.16193847265E+04 0.  0.
        4    1    3    3  502    0 -0.78015806066E+02 -0.62747725977E+03  0.12231489745E+04  0.13769201881E+04  0.12699999809E+01 0. -1.
       -4    1    3    3    0  502  0.78015806066E+02  0.62747725977E+03 -0.32380791720E+02  0.63313845728E+03  0.12699999809E+01 0.  1.
</event>
<event>
 5   0  0.7302027E-04  0.1635468E+04  0.7818609E-02  0.8799050E-01
        1   -1    0    0  501    0  0.00000000000E+00  0.00000000000E+00  0.11172823449E+04  0.11172823449E+04  0.50400001928E-02 0.  1.
       -1   -1    0    0    0  501  0.00000000000E+00  0.00000000000E+00 -0.59849560721E+03  0.59849560723E+03  0.50400001928E-02 0. -1.
    10030    2    1    2    0    0  0.00000000000E+00  0.00000000000E+00  0.51878673766E+03  0.17157779521E+04  0.16354676095E+04 0.  0.
        5    1    3    3  502    0 -0.73051306144E+03  0.36680153781E+03  0.23655792269E+03  0.85098439578E+03  0.46999998093E+01 0.  1.
       -5    1    3    3    0  502  0.73051306144E+03 -0.36680153781E+03  0.28222881496E+03  0.86479355633E+03  0.46999998093E+01 0. -1.
</event>
<event>
 5   0  0.1414751E-03  0.1615463E+04  0.7818609E-02  0.8811104E-01
       -2   -1    0    0    0  501  0.00000000000E+00  0.00000000000E+00  0.64361927976E+03  0.64361927976E+03  0.25500000920E-02 0. -1.
        2   -1    0    0  501    0  0.00000000000E+00  0.00000000000E+00 -0.10136897166E+04  0.10136897166E+04  0.25500000920E-02 0.  1.
    10030    2    1    2    0    0  0.00000000000E+00  0.00000000000E+00 -0.37007043687E+03  0.16573089964E+04  0.16154630857E+04 0.  0.
        2    1    3    3  502    0  0.64289996597E+03 -0.34721985536E+03  0.16819188905E+03  0.74978030499E+03  0.25500000920E-02 0. -1.
       -2    1    3    3    0  502 -0.64289996597E+03  0.34721985536E+03 -0.53826232592E+03  0.90752869140E+03  0.25500000920E-02 0.  1.
</event>
<event>
 5   0  0.7124495E-04  0.1484303E+04  0.7818609E-02  0.8894959E-01
       -1   -1    0    0    0  501  0.00000000000E+00  0.00000000000E+00  0.74921882643E+03  0.74921882644E+03  0.50400001928E-02 0.  1.
        1   -1    0    0  501    0  0.00000000000E+00  0.00000000000E+00 -0.73515105670E+03  0.73515105672E+03  0.50400001928E-02 0. -1.
    10030    2    1    2    0    0  0.00000000000E+00  0.00000000000E+00  0.14067769727E+02  0.14843698832E+04  0.14843032197E+04 0.  0.
        2    1    3    3  502    0  0.49385526623E+03 -0.44651730238E+03 -0.32088065380E+03  0.73907720794E+03  0.25500000920E-02 0. -1.
       -2    1    3    3    0  502 -0.49385526623E+03  0.44651730238E+03  0.33494842353E+03  0.74529267522E+03  0.25500000920E-02 0.  1.
</event>
<event>
 5   0  0.7633213E-04  0.1670820E+04  0.7818609E-02  0.8778184E-01
       -1   -1    0    0    0  501  0.00000000000E+00  0.00000000000E+00  0.73887415806E+03  0.73887415808E+03  0.50400001928E-02 0.  1.
        1   -1    0    0  501    0  0.00000000000E+00  0.00000000000E+00 -0.94455857867E+03  0.94455857868E+03  0.50400001928E-02 0. -1.
    10030    2    1    2    0    0  0.00000000000E+00  0.00000000000E+00 -0.20568442061E+03  0.16834327368E+04  0.16708200676E+04 0.  0.
        1    1    3    3  502    0 -0.27490238828E+03  0.46849101294E+03 -0.74234190574E+03  0.91985143221E+03  0.50400001928E-02 0. -1.
       -1    1    3    3    0  502  0.27490238828E+03 -0.46849101294E+03  0.53665748513E+03  0.76358130455E+03  0.50400001928E-02 0.  1.
</event>
<event>
 5   0  0.1414751E-03  0.1515003E+04  0.7818609E-02  0.8874537E-01
        2   -1    0    0  501    0  0.00000000000E+00  0.00000000000E+00  0.28350022207E+04  0.28350022207E+04  0.25500000920E-02 0. -1.
       -2   -1    0    0    0  501  0.00000000000E+00  0.00000000000E+00 -0.20240142914E+03  0.20240142916E+03  0.25500000920E-02 0.  1.
    10030    2    1    2    0    0  0.00000000000E+00  0.00000000000E+00  0.26326007916E+04  0.30374036499E+04  0.15150029718E+04 0.  0.
        2    1    3    3  502    0  0.13225416644E+03  0.18739203372E+03  0.27637114335E+04  0.27732125462E+04  0.25500000920E-02 0. -1.
       -2    1    3    3    0  502 -0.13225416644E+03 -0.18739203372E+03 -0.13111064189E+03  0.26419110368E+03  0.25500000920E-02 0.  1.
</event>
<event>
 5   0  0.1375777E-03  0.1580922E+04  0.7818609E-02  0.8832355E-01
       -2   -1    0    0    0  501  0.00000000000E+00  0.00000000000E+00  0.61235183741E+03  0.61235183742E+03  0.25500000920E-02 0.  1.
        2   -1    0    0  501    0  0.00000000000E+00  0.00000000000E+00 -0.10203753003E+04  0.10203753003E+04  0.25500000920E-02 0. -1.
    10030    2    1    2    0    0  0.00000000000E+00  0.00000000000E+00 -0.40802346291E+03  0.16327271377E+04  0.15809221233E+04 0.  0.
        1    1    3    3  502    0  0.32376491840E+03  0.54984847305E+03  0.27782959229E+03  0.69594996090E+03  0.50400001928E-02 0.  1.
       -1    1    3    3    0  502 -0.32376491840E+03 -0.54984847305E+03 -0.68585305520E+03  0.93677717684E+03  0.50400001928E-02 0. -1.
</event>
<event>
 5   0  0.7124495E-04  0.1541282E+04  0.7818609E-02  0.8857456E-01
       -1   -1    0    0    0  501  0.00000000000E+00  0.00000000000E+00  0.29854017100E+03  0.29854017104E+03  0.50400001928E-02 0.  1.
        1   -1    0    0  501    0  0.00000000000E+00  0.00000000000E+00 -0.19893043152E+04  0.19893043152E+04  0.50400001928E-02 0. -1.
    10030    2    1    2    0    0  0.00000000000E+00  0.00000000000E+00 -0.16907641442E+04  0.22878444863E+04  0.15412816102E+04 0.  0.
        2    1    3    3  502    0  0.18005496728E+03 -0.49913856882E+03 -0.15817747394E+02  0.53085714017E+03  0.25500000920E-02 0.  1.
       -2    1    3    3    0  502 -0.18005496728E+03  0.49913856882E+03 -0.16749463968E+04  0.17569873461E+04  0.25500000920E-02 0. -1.
</event>
<event>
 5   0  0.7633213E-04  0.1598762E+04  0.7818609E-02  0.8821309E-01
        1   -1    0    0  501    0  0.00000000000E+00  0.00000000000E+00  0.21179223082E+04  0.21179223082E+04  0.50400001928E-02 0.  1.
       -1   -1    0    0    0  501  0.00000000000E+00  0.00000000000E+00 -0.30171567075E+03  0.30171567079E+03  0.50400001928E-02 0. -1.
    10030    2    1    2    0    0  0.00000000000E+00  0.00000000000E+00  0.18162066374E+04  0.24196379790E+04  0.15987624587E+04 0.  0.
        1    1    3    3  502    0  0.55146098110E+03  0.52439944675E+03  0.53767608896E+03  0.93177227373E+03  0.50400001928E-02 0. -1.
       -1    1    3    3    0  502 -0.55146098110E+03 -0.52439944675E+03  0.12785305485E+04  0.14878657052E+04  0.50400001928E-02 0.  1.
</event>
<event>
 5   0  0.7601145E-04  0.1624256E+04  0.7818609E-02  0.8805783E-01
       -1   -1    0    0    0  501  0.00000000000E+00  0.00000000000E+00  0.82479477710E+03  0.82479477712E+03  0.50400001928E-02 0. -1.
        1   -1    0    0  501    0  0.00000000000E+00  0.00000000000E+00 -0.79965611630E+03  0.79965611632E+03  0.50400001928E-02 0.  1.
    10030    2    1    2    0    0  0.00000000000E+00  0.00000000000E+00  0.25138660800E+02  0.16244508934E+04  0.16242563692E+04 0.  0.
        4    1    3    3  502    0 -0.61540832978E+03 -0.26384958289E+03 -0.44705785836E+03  0.80511263583E+03  0.12699999809E+01 0.  1.
       -4    1    3    3    0  502  0.61540832978E+03  0.26384958289E+03  0.47219651916E+03  0.81933825760E+03  0.12699999809E+01 0. -1.
</event>
<event>
 5   0  0.1414796E-03  0.1601497E+04  0.7818609E-02  0.8819629E-01
       -2   -1    0    0    0  501  0.00000000000E+00  0.00000000000E+00  0.65025279197E+03  0.65025279197E+03  0.25500000920E-02 0. -1.
        2   -1    0    0  501    0  0.00000000000E+00  0.00000000000E+00 -0.98607465065E+03  0.98607465065E+03  0.25500000920E-02 0.  1.
    10030    2    1    2    0    0  0.00000000000E+00  0.00000000000E+00 -0.33582185868E+03  0.16363274426E+04  0.16014965435E+04 0.  0.
        4    1    3    3  502    0 -0.59436414660E+03 -0.14782597889E+03  0.35913222997E+03  0.70999917627E+03  0.12699999809E+01 0. -1.
       -4    1    3    3    0  502  0.59436414660E+03  0.14782597889E+03 -0.69495408865E+03  0.92632826635E+03  0.12699999809E+01 0.  1.
</event>
<event>
 5   0  0.7499834E-04  0.1595003E+04  0.7818609E-02  0.8823624E-01
       -1   -1    0    0    0  501  0.00000000000E+00  0.00000000000E+00  0.28368035255E+03  0.28368035260E+03  0.50400001928E-02 0.  1.
        1   -1    0    0  501    0  0.00000000000E+00  0.00000000000E+00 -0.22419895396E+04  0.22419895396E+04  0.50400001928E-02 0. -1.
    10030    2    1    2    0    0  0.00000000000E+00  0.00000000000E+00 -0.19583091871E+04  0.25256698922E+04  0.15950026747E+04 0.  0.
        3    1    3    3  502    0 -0.43143820896E+03  0.62302200585E+03 -0.58578246226E+03  0.95782903026E+03  0.10100000352E+00 0. -1.
       -3    1    3    3    0  502  0.43143820896E+03 -0.62302200585E+03 -0.13725267248E+04  0.15678408620E+04  0.10100000352E+00 0.  1.
</event>
<event>
 5   0  0.7633213E-04  0.1695327E+04  0.7818609E-02  0.8764034E-01
        1   -1    0    0  501    0  0.00000000000E+00  0.00000000000E+00  0.97139151826E+03  0.97139151828E+03  0.50400001928E-02 0.  1.
       -1   -1    0    0    0  501  0.00000000000E+00  0.00000000000E+00 -0.73969538223E+03  0.73969538225E+03  0.50400001928E-02 0. -1.
    10030    2    1    2    0    0  0.00000000000E+00  0.00000000000E+00  0.23169613603E+03  0.17110869005E+04  0.16953274851E+04 0.  0.
        1    1    3    3  502    0 -0.70209493542E+02 -0.84396780779E+03  0.79139842254E+02  0.85057283535E+03  0.50400001928E-02 0.  1.
       -1    1    3    3    0  502  0.70209493542E+02  0.84396780779E+03  0.15255629377E+03  0.86051406518E+03  0.50400001928E-02 0. -1.
</event>
<event>
 5   0  0.7633213E-04  0.1611050E+04  0.7818609E-02  0.8813788E-01
       -1   -1    0    0    0  501  0.00000000000E+00  0.00000000000E+00  0.15828596013E+04  0.15828596013E+04  0.50400001928E-02 0.  1.
        1   -1    0    0  501    0  0.00000000000E+00  0.00000000000E+00 -0.40993569984E+03  0.40993569987E+03  0.50400001928E-02 0. -1.
    10030    2    1    2    0    0  0.00000000000E+00  0.00000000000E+00  0.11729239015E+04  0.19927953012E+04  0.16110501649E+04 0.  0.
        1    1    3    3  502    0 -0.29323018440E+03 -0.56035137710E+03 -0.30644396015E+02  0.63317982113E+03  0.50400001928E-02 0. -1.
       -1    1    3    3    0  502  0.29323018440E+03  0.56035137710E+03  0.12035682975E+04  0.13596154801E+04  0.50400001928E-02 0.  1.
</event>
<event>
 5   0  0.1414796E-03  0.1584099E+04  0.7818609E-02  0.8830376E-01
        2   -1    0    0  501    0  0.00000000000E+00  0.00000000000E+00  0.21445448115E+04  0.21445448115E+04  0.25500000920E-02 0.  1.
       -2   -1    0    0    0  501  0.00000000000E+00  0.00000000000E+00 -0.29252949778E+03  0.29252949779E+03  0.25500000920E-02 0. -1.
    10030    2    1    2    0    0  0.00000000000E+00  0.00000000000E+00  0.18520153137E+04  0.24370743093E+04  0.15840992604E+04 0.  0.
        4    1    3    3  502    0 -0.13958460587E+03  0.44649420802E+02 -0.27148759591E+03  0.30851995172E+03  0.12699999809E+01 0. -1.
       -4    1    3    3    0  502  0.13958460587E+03 -0.44649420802E+02  0.21235029096E+04  0.21285543576E+04  0.12699999809E+01 0.  1.
</event>
<event>
 5   0  0.1354766E-03  0.1607417E+04  0.7818609E-02  0.8816005E-01
       -2   -1    0    0    0  501  0.00000000000E+00  0.00000000000E+00  0.27918826051E+03  0.27918826053E+03  0.25500000920E-02 0. -1.
        2   -1    0    0  501    0  0.00000000000E+00  0.00000000000E+00 -0.23136615559E+04  0.23136615559E+04  0.25500000920E-02 0.  1.
    10030    2    1    2    0    0  0.00000000000E+00  0.00000000000E+00 -0.20344732953E+04  0.25928498164E+04  0.16074167415E+04 0.  0.
        3    1    3    3  502    0 -0.19237923446E+03  0.36533011644E+03  0.95035380467E+02  0.42368336948E+03  0.10100000352E+00 0. -1.
       -3    1    3    3    0  502  0.19237923446E+03 -0.36533011644E+03 -0.21295086758E+04  0.21691664469E+04  0.10100000352E+00 0.  1.
</event>
<event>
 5   0  0.1339162E-03  0.1541604E+04  0.7818609E-02  0.8857248E-01
       -2   -1    0    0    0  501  0.00000000000E+00  0.00000000000E+00  0.61435550761E+03  0.61435550761E+03  0.25500000920E-02 0. -1.
        2   -1    0    0  501    0  0.00000000000E+00  0.00000000000E+00 -0.96708797431E+03  0.96708797431E+03  0.25500000920E-02 0.  1.
    10030    2    1    2    0    0  0.00000000000E+00  0.00000000000E+00 -0.35273246670E+03  0.15814434819E+04  0.15416041299E+04 0.  0.
        5    1    3    3  502    0  0.10213280209E+03  0.49828271524E+03  0.41773488689E+03  0.65821068002E+03  0.46999998093E+01 0. -1.
       -5    1    3    3    0  502 -0.10213280209E+03 -0.49828271524E+03 -0.77046735359E+03  0.92323280190E+03  0.46999998093E+01 0.  1.
</event>
<event>
 5   0  0.1354766E-03  0.1593668E+04  0.7818609E-02  0.8824448E-01
       -2   -1    0    0    0  501  0.00000000000E+00  0.00000000000E+00  0.29389720735E+03  0.29389720736E+03  0.25500000920E-02 0.  1.
        2   -1    0    0  501    0  0.00000000000E+00  0.00000000000E+00 -0.21604290871E+04  0.21604290871E+04  0.25500000920E-02 0. -1.
    10030    2    1    2    0    0  0.00000000000E+00  0.00000000000E+00 -0.18665318798E+04  0.24543262945E+04  0.15936675631E+04 0.  0.
        3    1    3    3  502    0  0.40287779730E+03 -0.42568648675E+03 -0.17646422442E+04  0.18594304947E+04  0.10100000352E+00 0. -1.
       -3    1    3    3    0  502 -0.40287779730E+03  0.42568648675E+03 -0.10188963562E+03  0.59489579979E+03  0.10100000352E+00 0.  1.
</event>
<event>
 5   0  0.7302027E-04  0.1679988E+04  0.7818609E-02  0.8772861E-01
        1   -1    0    0  501    0  0.00000000000E+00  0.00000000000E+00  0.11913303507E+04  0.11913303508E+04  0.50400001928E-02 0.  1.
       -1   -1    0    0    0  501  0.00000000000E+00  0.00000000000E+00 -0.59227075341E+03  0.59227075343E+03  0.50400001928E-02 0. -1.
    10030    2    1    2    0    0  0.00000000000E+00  0.00000000000E+00  0.59905959734E+03  0.17836011042E+04  0.16799882433E+04 0.  0.
        5    1    3    3  502    0  0.53692710144E+03  0.63694384673E+03  0.41377635331E+03  0.93017263813E+03  0.46999998093E+01 0. -1.
       -5    1    3    3    0  502 -0.53692710144E+03 -0.63694384673E+03  0.18528324402E+03  0.85342846605E+03  0.46999998093E+01 0.  1.
</event>
<event>
 5   0  0.1339162E-03  0.1576986E+04  0.7818609E-02  0.8834812E-01
       -2   -1    0    0    0  501  0.00000000000E+00  0.00000000000E+00  0.94789961644E+03  0.94789961644E+03  0.25500000920E-02 0.  1.
        2   -1    0    0  501    0  0.00000000000E+00  0.00000000000E+00 -0.65589347592E+03  0.65589347593E+03  0.25500000920E-02 0. -1.
    10030    2    1    2    0    0  0.00000000000E+00  0.00000000000E+00  0.29200614052E+03  0.16037930924E+04  0.15769859533E+04 0.  0.
        5    1    3    3  502    0  0.67915883208E+03 -0.72909892133E+02 -0.25455319436E+03  0.72896638490E+03  0.46999998093E+01 0. -1.
       -5    1    3    3    0  502 -0.67915883208E+03  0.72909892133E+02  0.54655933487E+03  0.87482670747E+03  0.46999998093E+01 0.  1.
</event>
<event>
 5   0  0.1414751E-03  0.1518068E+04  0.7818609E-02  0.8872526E-01
       -2   -1    0    0    0  501  0.00000000000E+00  0.00000000000E+00  0.30626909812E+03  0.30626909813E+03  0.25500000920E-02 0. -1.
        2   -1    0    0  501    0  0.00000000000E+00  0.00000000000E+00 -0.18811329054E+04  0.18811329054E+04  0.25500000920E-02 0.  1.
    10030    2    1    2    0    0  0.00000000000E+00  0.00000000000E+00 -0.15748638073E+04  0.21874020035E+04  0.15180683494E+04 0.  0.
        2    1    3    3  502    0  0.31693760979E+03 -0.56054463544E+03 -0.13664437207E+04  0.15105721362E+04  0.25500000920E-02 0.  1.
       -2    1    3    3    0  502 -0.31693760979E+03  0.56054463544E+03 -0.20842008660E+03  0.67682986734E+03  0.25500000920E-02 0. -1.
</event>
<event>
 5   0  0.1339162E-03  0.1565179E+04  0.7818609E-02  0.8842230E-01
        2   -1    0    0  501    0  0.00000000000E+00  0.00000000000E+00  0.18342706007E+04  0.18342706007E+04  0.25500000920E-02 0.  1.
       -2   -1    0    0    0  501  0.00000000000E+00  0.00000000000E+00 -0.33389113985E+03  0.33389113986E+03  0.25500000920E-02 0. -1.
    10030    2    1    2    0    0  0.00000000000E+00  0.00000000000E+00  0.15003794609E+04  0.21681617406E+04  0.15651794807E+04 0.  0.
        5    1    3    3  502    0  0.34411595662E+03 -0.64660966504E+03  0.36854256607E+03  0.81997900188E+03  0.46999998093E+01 0. -1.
       -5    1    3    3    0  502 -0.34411595662E+03  0.64660966504E+03  0.11318368948E+04  0.13481827387E+04  0.46999998093E+01 0.  1.
</event>
<event>
 5   0  0.7633213E-04  0.1620233E+04  0.7818609E-02  0.8808214E-01
        1   -1    0    0  501    0  0.00000000000E+00  0.00000000000E+00  0.38911706254E+03  0.38911706258E+03  0.50400001928E-02 0. -1.
       -1   -1    0    0    0  501  0.00000000000E+00  0.00000000000E+00 -0.16866096100E+04  0.16866096100E+04  0.50400001928E-02 0.  1.
    10030    2    1    2    0    0  0.00000000000E+00  0.00000000000E+00 -0.12974925475E+04  0.20757266726E+04  0.16202327946E+04 0.  0.
        1    1    3    3  502    0  0.55490627974E+03 -0.36791410734E+03 -0.12400212362E+04  0.14074567262E+04  0.50400001928E-02 0.  1.
       -1    1    3    3    0  502 -0.55490627974E+03  0.36791410734E+03 -0.57471311241E+02  0.66826994644E+03  0.50400001928E-02 0. -1.
</event>
<event>
 5   0  0.1414751E-03  0.1598998E+04  0.7818609E-02  0.8821164E-01
        2   -1    0    0  501    0  0.00000000000E+00  0.00000000000E+00  0.17651312992E+04  0.17651312992E+04  0.25500000920E-02 0. -1.
       -2   -1    0    0    0  501  0.00000000000E+00  0.00000000000E+00 -0.36212508748E+03  0.36212508748E+03  0.25500000920E-02 0.  1.
    10030    2    1    2    0    0  0.00000000000E+00  0.00000000000E+00  0.14030062117E+04  0.21272563866E+04  0.15989975937E+04 0.  0.
        2    1    3    3  502    0 -0.38872852097E+03 -0.33474817217E+03 -0.11429839532E+03  0.52557618379E+03  0.25500000920E-02 0.  1.
       -2    1    3    3    0  502  0.38872852097E+03  0.33474817217E+03  0.15173046070E+04  0.16016802029E+04  0.25500000920E-02 0. -1.
</event>
<event>
 5   0  0.7302027E-04  0.1608356E+04  0.7818609E-02  0.8815431E-01
       -1   -1    0    0    0  501  0.00000000000E+00  0.00000000000E+00  0.84772045594E+03  0.84772045595E+03  0.50400001928E-02 0. -1.
        1   -1    0    0  501    0  0.00000000000E+00  0.00000000000E+00 -0.76287250557E+03  0.76287250559E+03  0.50400001928E-02 0.  1.
    10030    2    1    2    0    0  0.00000000000E+00  0.00000000000E+00  0.84847950369E+02  0.16105929615E+04  0.16083564633E+04 0.  0.
        5    1    3    3  502    0  0.66819466059E+03 -0.36079709050E+03 -0.22256048934E+03  0.79133678442E+03  0.46999998093E+01 0.  1.
       -5    1    3    3    0  502 -0.66819466059E+03  0.36079709050E+03  0.30740843971E+03  0.81925617713E+03  0.46999998093E+01 0. -1.
</event>
<event>
 5   0  0.7499834E-04  0.1652043E+04  0.7818609E-02  0.8789199E-01
       -1   -1    0    0    0  501  0.00000000000E+00  0.00000000000E+00  0.88597140134E+03  0.88597140136E+03  0.50400001928E-02 0. -1.
        1   -1    0    0  501    0  0.00000000000E+00  0.00000000000E+00 -0.77012799770E+03  0.77012799772E+03  0.50400001928E-02 0.  1.
    10030    2    1    2    0    0  0.00000000000E+00  0.00000000000E+00  0.11584340364E+03  0.16560993991E+04  0.16520428340E+04 0.  0.
        3    1    3    3  502    0  0.15656062746E+00  0.79266690881E+03 -0.17500744963E+03  0.81175641079E+03  0.10100000352E+00 0.  1.
       -3    1    3    3    0  502 -0.15656062746E+00 -0.79266690881E+03  0.29085085327E+03  0.84434298829E+03  0.10100000352E+00 0. -1.
</event>
<event>
 5   0  0.1414796E-03  0.1618119E+04  0.7818609E-02  0.8809493E-01
        2   -1    0    0  501    0  0.00000000000E+00  0.00000000000E+00  0.84951820008E+03  0.84951820008E+03  0.25500000920E-02 0. -1.
       -2   -1    0    0    0  501  0.00000000000E+00  0.00000000000E+00 -0.77052792579E+03  0.77052792579E+03  0.25500000920E-02 0.  1.
    10030    2    1    2    0    0  0.00000000000E+00  0.00000000000E+00  0.78990274293E+02  0.16200461259E+04  0.16181192745E+04 0.  0.
        4    1    3    3  502    0  0.10694134542E+02  0.17606543955E+03 -0.75104151515E+03  0.77147804498E+03  0.12699999809E+01 0.  1.
       -4    1    3    3    0  502 -0.10694134542E+02 -0.17606543955E+03  0.83003178944E+03  0.84856808089E+03  0.12699999809E+01 0. -1.
</event>
<event>
 5   0  0.7302027E-04  0.1568087E+04  0.7818609E-02  0.8840397E-01
        1   -1    0    0  501    0  0.00000000000E+00  0.00000000000E+00  0.67237513284E+03  0.67237513285E+03  0.50400001928E-02 0. -1.
       -1   -1    0    0    0  501  0.00000000000E+00  0.00000000000E+00 -0.91425786089E+03  0.91425786090E+03  0.50400001928E-02 0.  1.
    10030    2    1    2    0    0  0.00000000000E+00  0.00000000000E+00 -0.24188272805E+03  0.15866329938E+04  0.15680870520E+04 0.  0.
        5    1    3    3  502    0 -0.71516471533E+03  0.16497258710E+03 -0.39992989091E+03  0.83584839067E+03  0.46999998093E+01 0.  1.
       -5    1    3    3    0  502  0.71516471533E+03 -0.16497258710E+03  0.15804716286E+03  0.75078460309E+03  0.46999998093E+01 0. -1.
</event>
<event>
 5   0  0.7633213E-04  0.1591588E+04  0.7818609E-02  0.8825732E-01
        1   -1    0    0  501    0  0.00000000000E+00  0.00000000000E+00  0.16142566278E+04  0.16142566278E+04  0.50400001928E-02 0. -1.
       -1   -1    0    0    0  501  0.00000000000E+00  0.00000000000E+00 -0.39230961799E+03  0.39230961802E+03  0.50400001928E-02 0.  1.
    10030    2    1    2    0    0  0.00000000000E+00  0.00000000000E+00  0.12219470098E+04  0.20065662458E+04  0.15915883903E+04 0.  0.
        1    1    3    3  502    0 -0.41158421983E+03 -0.44800379987E+02  0.14677887873E+04  0.15250614965E+04  0.50400001928E-02 0. -1.
       -1    1    3    3    0  502  0.41158421983E+03  0.44800379987E+02 -0.24584177745E+03  0.48150474933E+03  0.50400001928E-02 0.  1.
</event>
<event>
 5   0  0.7302027E-04  0.1570237E+04  0.7818609E-02  0.8839044E-01
       -1   -1    0    0    0  501  0.00000000000E+00  0.00000000000E+00  0.12670880577E+04  0.12670880577E+04  0.50400001928E-02 0.  1.
        1   -1    0    0  501    0  0.00000000000E+00  0.00000000000E+00 -0.48647849234E+03  0.48647849237E+03  0.50400001928E-02 0. -1.
    10030    2    1    2    0    0  0.00000000000E+00  0.00000000000E+00  0.78060956539E+03  0.17535665501E+04  0.15702370369E+04 0.  0.
        5    1    3    3  502    0 -0.38080750725E+03  0.59581587635E+03  0.93331550510E+01  0.70719170942E+03  0.46999998093E+01 0. -1.
       -5    1    3    3    0  502  0.38080750725E+03 -0.59581587635E+03  0.77127641034E+03  0.10463748407E+04  0.46999998093E+01 0.  1.
</event>
<event>
 5   0  0.1339162E-03  0.1596796E+04  0.7818609E-02  0.8822519E-01
       -2   -1    0    0    0  501  0.00000000000E+00  0.00000000000E+00  0.81253521679E+03  0.81253521680E+03  0.25500000920E-02 0. -1.
        2   -1    0    0  501    0  0.00000000000E+00  0.00000000000E+00 -0.78450627444E+03  0.78450627444E+03  0.25500000920E-02 0.  1.
    10030    2    1    2    0    0  0.00000000000E+00  0.00000000000E+00  0.28028942353E+02  0.15970414912E+04  0.15967955107E+04 0.  0.
        5    1    3    3  502    0  0.40706053858E+02 -0.69893963015E+03 -0.36976758213E+03  0.79178516292E+03  0.46999998093E+01 0.  1.
       -5    1    3    3    0  502 -0.40706053858E+02  0.69893963015E+03  0.39779652448E+03  0.80525632833E+03  0.46999998093E+01 0. -1.
</event>
<event>
 5   0  0.7601145E-04  0.9409450E+03  0.7818609E-02  0.9375798E-01
       -1   -1    0    0    0  501  0.00000000000E+00  0.00000000000E+00  0.39383352546E+03  0.39383352549E+03  0.50400001928E-02 0.  1.
        1   -1    0    0  501    0  0.00000000000E+00  0.00000000000E+00 -0.56202515922E+03  0.56202515924E+03  0.50400001928E-02 0. -1.
    10030    2    1    2    0    0  0.00000000000E+00  0.00000000000E+00 -0.16819163376E+03  0.95585868473E+03  0.94094495030E+03 0.  0.
        4    1    3    3  502    0 -0.43742374024E+02  0.38904987504E+03  0.18094079494E+03  0.43129384963E+03  0.12699999809E+01 0.  1.
       -4    1    3    3    0  502  0.43742374024E+02 -0.38904987504E+03 -0.34913242871E+03  0.52456483510E+03  0.12699999809E+01 0. -1.
</event>
<event>
 5   0  0.5095750E-04  0.1592470E+04  0.7818609E-02  0.8825187E-01
        3   -1    0    0  501    0  0.00000000000E+00  0.00000000000E+00  0.13298227972E+04  0.13298228010E+04  0.10100000352E+00 0.  1.
       -3   -1    0    0    0  501  0.00000000000E+00  0.00000000000E+00 -0.47674801374E+03  0.47674802444E+03  0.10100000352E+00 0. -1.
    10030    2    1    2    0    0  0.00000000000E+00  0.00000000000E+00  0.85307478343E+03  0.18065708254E+04  0.15924702701E+04 0.  0.
        4    1    3    3  502    0  0.33845198003E+03 -0.22448051091E+03  0.12034856334E+04  0.12701655503E+04  0.12699999809E+01 0.  1.
       -4    1    3    3    0  502 -0.33845198003E+03  0.22448051091E+03 -0.35041084993E+03  0.53640527515E+03  0.12699999809E+01 0. -1.
</event>
<event>
 5   0  0.1339162E-03  0.1628863E+04  0.7818609E-02  0.8803010E-01
       -2   -1    0    0    0  501  0.00000000000E+00  0.00000000000E+00  0.28432048764E+03  0.28432048765E+03  0.25500000920E-02 0. -1.
        2   -1    0    0  501    0  0.00000000000E+00  0.00000000000E+00 -0.23329246325E+04  0.23329246325E+04  0.25500000920E-02 0.  1.
    10030    2    1    2    0    0  0.00000000000E+00  0.00000000000E+00 -0.20486041448E+04  0.26172451201E+04  0.16288625100E+04 0.  0.
        5    1    3    3  502    0  0.64310037950E+03 -0.28825021746E+03 -0.16801608935E+04  0.18219849077E+04  0.46999998093E+01 0.  1.
       -5    1    3    3    0  502 -0.64310037950E+03  0.28825021746E+03 -0.36844325137E+03  0.79526021242E+03  0.46999998093E+01 0. -1.
</event>
<event>
 5   0  0.7302027E-04  0.1638910E+04  0.7818609E-02  0.8796994E-01
       -1   -1    0    0    0  501  0.00000000000E+00  0.00000000000E+00  0.40269552930E+03  0.40269552933E+03  0.50400001928E-02 0. -1.
        1   -1    0    0  501    0  0.00000000000E+00  0.00000000000E+00 -0.16675290537E+04  0.16675290537E+04  0.50400001928E-02 0.  1.
    10030    2    1    2    0    0  0.00000000000E+00  0.00000000000E+00 -0.12648335244E+04  0.20702245830E+04  0.16389099975E+04 0.  0.
        5    1    3    3  502    0 -0.51538972923E+03 -0.41631363094E+03 -0.12415494858E+04  0.14072707017E+04  0.46999998093E+01 0.  1.
       -5    1    3    3    0  502  0.51538972923E+03  0.41631363094E+03 -0.23284038621E+02  0.66295388131E+03  0.46999998093E+01 0. -1.
</event>
<event>
 5   0  0.1414796E-03  0.1642418E+04  0.7818609E-02  0.8794904E-01
        2   -1    0    0  501    0  0.00000000000E+00  0.00000000000E+00  0.14959839848E+04  0.14959839848E+04  0.25500000920E-02 0. -1.
       -2   -1    0    0    0  501  0.00000000000E+00  0.00000000000E+00 -0.45079666050E+03  0.45079666051E+03  0.25500000920E-02 0.  1.
    10030    2    1    2    0    0  0.00000000000E+00  0.00000000000E+00  0.10451873243E+04  0.19467806453E+04  0.16424184418E+04 0.  0.
        4    1    3    3  502    0 -0.53141784926E+03 -0.44351045332E+03  0.10463848881E+04  0.12546032838E+04  0.12699999809E+01 0. -1.
       -4    1    3    3    0  502  0.53141784926E+03  0.44351045332E+03 -0.11975638461E+01  0.69217736150E+03  0.12699999809E+01 0.  1.
</event>
<event>
 5   0  0.7601145E-04  0.1583198E+04  0.7818609E-02  0.8830937E-01
        1   -1    0    0  501    0  0.00000000000E+00  0.00000000000E+00  0.92838179486E+03  0.92838179487E+03  0.50400001928E-02 0.  1.
       -1   -1    0    0    0  501  0.00000000000E+00  0.00000000000E+00 -0.67496923231E+03  0.67496923233E+03  0.50400001928E-02 0. -1.
    10030    2    1    2    0    0  0.00000000000E+00  0.00000000000E+00  0.25341256254E+03  0.16033510272E+04  0.15831982155E+04 0.  0.
        4    1    3    3  502    0 -0.82727362574E+02 -0.31512733940E+03  0.85733158766E+03  0.91715217967E+03  0.12699999809E+01 0.  1.
       -4    1    3    3    0  502  0.82727362574E+02  0.31512733940E+03 -0.60391902512E+03  0.68619884754E+03  0.12699999809E+01 0. -1.
</event>
<event>
 5   0  0.7124495E-04  0.1162108E+04  0.7818609E-02  0.9146685E-01
       -1   -1    0    0    0  501  0.00000000000E+00  0.00000000000E+00  0.86272534516E+03  0.86272534517E+03  0.50400001928E-02 0.  1.
        1   -1    0    0  501    0  0.00000000000E+00  0.00000000000E+00 -0.39134586538E+03  0.39134586542E+03  0.50400001928E-02 0. -1.
    10030    2    1    2    0    0  0.00000000000E+00  0.00000000000E+00  0.47137947977E+03  0.12540712106E+04  0.11621084232E+04 0.  0.
        2    1    3    3  502    0  0.26318963446E+03 -0.46530644222E+03 -0.10024046439E+02  0.53467686538E+03  0.25500000920E-02 0. -1.
       -2    1    3    3    0  502 -0.26318963446E+03  0.46530644222E+03  0.48140352621E+03  0.71939434521E+03  0.25500000920E-02 0.  1.
</event>
<event>
 5   0  0.7499834E-04  0.1562999E+04  0.7818609E-02  0.8843607E-01
        1   -1    0    0  501    0  0.00000000000E+00  0.00000000000E+00  0.16002631846E+04  0.16002631846E+04  0.50400001928E-02 0. -1.
       -1   -1    0    0    0  501  0.00000000000E+00  0.00000000000E+00 -0.38165043812E+03  0.38165043815E+03  0.50400001928E-02 0.  1.
    10030    2    1    2    0    0  0.00000000000E+00  0.00000000000E+00  0.12186127465E+04  0.19819136227E+04  0.15629985867E+04 0.  0.
        3    1    3    3  502    0 -0.23624274649E+03  0.40815495545E+02 -0.33386927084E+03  0.41102948818E+03  0.10100000352E+00 0.  1.
       -3    1    3    3    0  502  0.23624274649E+03 -0.40815495545E+02  0.15524820173E+04  0.15708841345E+04  0.10100000352E+00 0. -1.
</event>
<event>
 5   0  0.1354766E-03  0.1614820E+04  0.7818609E-02  0.8811495E-01
        2   -1    0    0  501    0  0.00000000000E+00  0.00000000000E+00  0.18250297781E+04  0.18250297781E+04  0.25500000920E-02 0. -1.
       -2   -1    0    0    0  501  0.00000000000E+00  0.00000000000E+00 -0.35720573342E+03  0.35720573343E+03  0.25500000920E-02 0.  1.
    10030    2    1    2    0    0  0.00000000000E+00  0.00000000000E+00  0.14678240447E+04  0.21822355115E+04  0.16148202382E+04 0.  0.
        3    1    3    3  502    0  0.88343532894E+02 -0.65393115735E+02 -0.34704846612E+03  0.36403775549E+03  0.10100000352E+00 0.  1.
       -3    1    3    3    0  502 -0.88343532894E+02  0.65393115735E+02  0.18148725108E+04  0.18181977560E+04  0.10100000352E+00 0. -1.
</event>
<event>
 5   0  0.7124495E-04  0.1573644E+04  0.7818609E-02  0.8836905E-01
       -1   -1    0    0    0  501  0.00000000000E+00  0.00000000000E+00  0.61386139777E+03  0.61386139779E+03  0.50400001928E-02 0.  1.
        1   -1    0    0  501    0  0.00000000000E+00  0.00000000000E+00 -0.10085151379E+04  0.10085151379E+04  0.50400001928E-02 0. -1.
    10030    2    1    2    0    0  0.00000000000E+00  0.00000000000E+00 -0.39465374014E+03  0.16223765357E+04  0.15736435584E+04 0.  0.
        2    1    3    3  502    0 -0.73200773044E+03 -0.28847269496E+03 -0.20357245180E+03  0.81270754661E+03  0.25500000920E-02 0. -1.
       -2    1    3    3    0  502  0.73200773044E+03  0.28847269496E+03 -0.19108128834E+03  0.80966898911E+03  0.25500000920E-02 0.  1.
</event>
<event>
 5   0  0.7124495E-04  0.8641427E+03  0.7818609E-02  0.9471549E-01
       -1   -1    0    0    0  501  0.00000000000E+00  0.00000000000E+00  0.42401102556E+03  0.42401102559E+03  0.50400001928E-02 0.  1.
        1   -1    0    0  501    0  0.00000000000E+00  0.00000000000E+00 -0.44028492270E+03  0.44028492273E+03  0.50400001928E-02 0. -1.
    10030    2    1    2    0    0  0.00000000000E+00  0.00000000000E+00 -0.16273897145E+02  0.86429594832E+03  0.86414272348E+03 0.  0.
        2    1    3    3  502    0  0.55458450061E+02 -0.65810035670E+02 -0.43162560752E+03  0.44012187580E+03  0.25500000920E-02 0. -1.
       -2    1    3    3    0  502 -0.55458450061E+02  0.65810035670E+02  0.41535171038E+03  0.42417407252E+03  0.25500000920E-02 0.  1.
</event>
<event>
 5   0  0.1339162E-03  0.1607827E+04  0.7818609E-02  0.8815754E-01
       -2   -1    0    0    0  501  0.00000000000E+00  0.00000000000E+00  0.33263262203E+03  0.33263262204E+03  0.25500000920E-02 0.  1.
        2   -1    0    0  501    0  0.00000000000E+00  0.00000000000E+00 -0.19429161812E+04  0.19429161812E+04  0.25500000920E-02 0. -1.
    10030    2    1    2    0    0  0.00000000000E+00  0.00000000000E+00 -0.16102835592E+04  0.22755488032E+04  0.16078274830E+04 0.  0.
        5    1    3    3  502    0  0.49976724887E+03 -0.37651105923E+03 -0.90835479522E+02  0.63229823272E+03  0.46999998093E+01 0.  1.
       -5    1    3    3    0  502 -0.49976724887E+03  0.37651105923E+03 -0.15194480797E+04  0.16432505705E+04  0.46999998093E+01 0. -1.
</event>
<event>
 5   0  0.1414796E-03  0.1529909E+04  0.7818609E-02  0.8864804E-01
        2   -1    0    0  501    0  0.00000000000E+00  0.00000000000E+00  0.74297600350E+03  0.74297600350E+03  0.25500000920E-02 0.  1.
       -2   -1    0    0    0  501  0.00000000000E+00  0.00000000000E+00 -0.78758321693E+03  0.78758321693E+03  0.25500000920E-02 0. -1.
    10030    2    1    2    0    0  0.00000000000E+00  0.00000000000E+00 -0.44607213428E+02  0.15305592204E+04  0.15299090574E+04 0.  0.
        4    1    3    3  502    0  0.37465997709E+03  0.33533535022E+03 -0.59903269857E+03  0.78208802726E+03  0.12699999809E+01 0. -1.
       -4    1    3    3    0  502 -0.37465997709E+03 -0.33533535022E+03  0.55442548514E+03  0.74847119317E+03  0.12699999809E+01 0.  1.
</event>
<event>
 5   0  0.7124495E-04  0.1158746E+04  0.7818609E-02  0.9149752E-01
        1   -1    0    0  501    0  0.00000000000E+00  0.00000000000E+00  0.14185482230E+04  0.14185482230E+04  0.50400001928E-02 0.  1.
       -1   -1    0    0    0  501  0.00000000000E+00  0.00000000000E+00 -0.23663150503E+03  0.23663150508E+03  0.50400001928E-02 0. -1.
    10030    2    1    2    0    0  0.00000000000E+00  0.00000000000E+00  0.11819167179E+04  0.16551797280E+04  0.11587462207E+04 0.  0.
        2    1    3    3  502    0  0.26873878410E+03  0.50278575768E+03  0.73843325213E+03  0.93289748636E+03  0.25500000920E-02 0.  1.
       -2    1    3    3    0  502 -0.26873878410E+03 -0.50278575768E+03  0.44348346580E+03  0.72228224168E+03  0.25500000920E-02 0. -1.
</event>
<event>
 5   0  0.7499834E-04  0.1597497E+04  0.7818609E-02  0.8822087E-01
        1   -1    0    0  501    0  0.00000000000E+00  0.00000000000E+00  0.11226677676E+04  0.11226677676E+04  0.50400001928E-02 0. -1.
       -1   -1    0    0    0  501  0.00000000000E+00  0.00000000000E+00 -0.56828881634E+03  0.56828881636E+03  0.50400001928E-02 0.  1.
    10030    2    1    2    0    0  0.00000000000E+00  0.00000000000E+00  0.55437895130E+03  0.16909565840E+04  0.15974974640E+04 0.  0.
        3    1    3    3  502    0 -0.34124621728E+03 -0.64629193797E+03 -0.63933322177E+02  0.73364141771E+03  0.10100000352E+00 0.  1.
       -3    1    3    3    0  502  0.34124621728E+03  0.64629193797E+03  0.61831227347E+03  0.95731516630E+03  0.10100000352E+00 0. -1.
</event>
<event>
 5   0  0.7499834E-04  0.1604592E+04  0.7818609E-02  0.8817732E-01
       -1   -1    0    0    0  501  0.00000000000E+00  0.00000000000E+00  0.36334669135E+03  0.36334669138E+03  0.50400001928E-02 0. -1.
        1   -1    0    0  501    0  0.00000000000E+00  0.00000000000E+00 -0.17715286013E+04  0.17715286013E+04  0.50400001928E-02 0.  1.
    10030    2    1    2    0    0  0.00000000000E+00  0.00000000000E+00 -0.14081819100E+04  0.21348752927E+04  0.16045922298E+04 0.  0.
        3    1    3    3  502    0  0.16518464548E+03 -0.17067876334E+03  0.31549469974E+03  0.39491027224E+03  0.10100000352E+00 0. -1.
       -3    1    3    3    0  502 -0.16518464548E+03  0.17067876334E+03 -0.17236766097E+04  0.17399650205E+04  0.10100000352E+00 0.  1.
</event>
<event>
 5   0  0.1414751E-03  0.1572514E+04  0.7818609E-02  0.8837614E-01
       -2   -1    0    0    0  501  0.00000000000E+00  0.00000000000E+00  0.27878698389E+03  0.27878698390E+03  0.25500000920E-02 0. -1.
        2   -1    0    0  501    0  0.00000000000E+00  0.00000000000E+00 -0.22174652857E+04  0.22174652857E+04  0.25500000920E-02 0.  1.
    10030    2    1    2    0    0  0.00000000000E+00  0.00000000000E+00 -0.19386783018E+04  0.24962522696E+04  0.15725144946E+04 0.  0.
        2    1    3    3  502    0  0.20511249905E+03 -0.73865830896E+03 -0.12466314865E+04  0.14634812256E+04  0.25500000920E-02 0.  1.
       -2    1    3    3    0  502 -0.20511249905E+03  0.73865830896E+03 -0.69204681535E+03  0.10327710440E+04  0.25500000920E-02 0. -1.
</event>
<event>
 5   0  0.7633213E-04  0.1578937E+04  0.7818609E-02  0.8833593E-01
        1   -1    0    0  501    0  0.00000000000E+00  0.00000000000E+00  0.11822230231E+04  0.11822230231E+04  0.50400001928E-02 0.  1.
       -1   -1    0    0    0  501  0.00000000000E+00  0.00000000000E+00 -0.52719362340E+03  0.52719362342E+03  0.50400001928E-02 0. -1.
    10030    2    1    2    0    0  0.00000000000E+00  0.00000000000E+00  0.65502939966E+03  0.17094166465E+04  0.15789369072E+04 0.  0.
        1    1    3    3  502    0  0.68241484793E+03 -0.27099278807E+03  0.64154183314E+03  0.97504001946E+03  0.50400001928E-02 0.  1.
       -1    1    3    3    0  502 -0.68241484793E+03  0.27099278807E+03  0.13487566524E+02  0.73437662703E+03  0.50400001928E-02 0. -1.
</event>
<event>
 5   0  0.1339162E-03  0.1254119E+04  0.7818609E-02  0.9066762E-01
        2   -1    0    0  501    0  0.00000000000E+00  0.00000000000E+00  0.26335622417E+04  0.26335622417E+04  0.25500000920E-02 0.  1.
       -2   -1    0    0    0  501  0.00000000000E+00  0.00000000000E+00 -0.14930481607E+03  0.14930481609E+03  0.25500000920E-02 0. -1.
    10030    2    1    2    0    0  0.00000000000E+00  0.00000000000E+00  0.24842574256E+04  0.27828670578E+04  0.12541188558E+04 0.  0.
        5    1    3    3  502    0  0.30748447659E+03 -0.37798633426E+03  0.21178849009E+04  0.21732185614E+04  0.46999998093E+01 0.  1.
       -5    1    3    3    0  502 -0.30748447659E+03  0.37798633426E+03  0.36637252469E+03  0.60964849633E+03  0.46999998093E+01 0. -1.
</event>
<event>
 5   0  0.7499834E-04  0.1574523E+04  0.7818609E-02  0.8836354E-01
        1   -1    0    0  501    0  0.00000000000E+00  0.00000000000E+00  0.28250890846E+03  0.28250890851E+03  0.50400001928E-02 0. -1.
       -1   -1    0    0    0  501  0.00000000000E+00  0.00000000000E+00 -0.21938440496E+04  0.21938440496E+04  0.50400001928E-02 0.  1.
    10030    2    1    2    0    0  0.00000000000E+00  0.00000000000E+00 -0.19113351411E+04  0.24763529581E+04  0.15745227694E+04 0.  0.
        3    1    3    3  502    0 -0.53513138269E+03  0.31946466575E+03 -0.19917421568E+03  0.65428865786E+03  0.10100000352E+00 0. -1.
       -3    1    3    3    0  502  0.53513138269E+03 -0.31946466575E+03 -0.17121609254E+04  0.18220643002E+04  0.10100000352E+00 0.  1.
</event>
<event>
 5   0  0.1414751E-03  0.1603836E+04  0.7818609E-02  0.8818195E-01
       -2   -1    0    0    0  501  0.00000000000E+00  0.00000000000E+00  0.78572184652E+03  0.78572184652E+03  0.25500000920E-02 0. -1.
        2   -1    0    0  501    0  0.00000000000E+00  0.00000000000E+00 -0.81844783106E+03  0.81844783106E+03  0.25500000920E-02 0.  1.
    10030    2    1    2    0    0  0.00000000000E+00  0.00000000000E+00 -0.32725984534E+02  0.16041696776E+04  0.16038358284E+04 0.  0.
        2    1    3    3  502    0  0.57165577176E+03  0.49461492761E+03  0.25134565553E+03  0.79662342833E+03  0.25500000920E-02 0. -1.
       -2    1    3    3    0  502 -0.57165577176E+03 -0.49461492761E+03 -0.28407164007E+03  0.80754624926E+03  0.25500000920E-02 0.  1.
</event>
<event>
 5   0  0.5095750E-04  0.1434849E+04  0.7818609E-02  0.8928972E-01
        3   -1    0    0  501    0  0.00000000000E+00  0.00000000000E+00  0.56145748327E+03  0.56145749235E+03  0.10100000352E+00 0.  1.
       -3   -1    0    0    0  501  0.00000000000E+00  0.00000000000E+00 -0.91671756136E+03  0.91671756693E+03  0.10100000352E+00 0. -1.
    10030    2    1    2    0    0  0.00000000000E+00  0.00000000000E+00 -0.35526007810E+03  0.14781750593E+04  0.14348490453E+04 0.  0.
        5    1    3    3  502    0  0.44730627693E+03 -0.53255769540E+03  0.36821815933E+01  0.69551150442E+03  0.46999998093E+01 0.  1.
       -5    1    3    3    0  502 -0.44730627693E+03  0.53255769540E+03 -0.35894225969E+03  0.78266355486E+03  0.46999998093E+01 0. -1.
</event>
<event>
 5   0  0.1339162E-03  0.1685130E+04  0.7818609E-02  0.8769891E-01
        2   -1    0    0  501    0  0.00000000000E+00  0.00000000000E+00  0.24347772643E+04  0.24347772643E+04  0.25500000920E-02 0. -1.
       -2   -1    0    0    0  501  0.00000000000E+00  0.00000000000E+00 -0.29157334502E+03  0.29157334503E+03  0.25500000920E-02 0.  1.
    10030    2    1    2    0    0  0.00000000000E+00  0.00000000000E+00  0.21432039192E+04  0.27263506093E+04  0.16851304416E+04 0.  0.
        5    1    3    3  502    0  0.70511743332E+03 -0.27975101722E+03  0.16648236364E+04  0.18295111524E+04  0.46999998093E+01 0. -1.
       -5    1    3    3    0  502 -0.70511743332E+03  0.27975101722E+03  0.47838028282E+03  0.89683945687E+03  0.46999998093E+01 0.  1.
</event>
<event>
 5   0  0.7633213E-04  0.1550655E+04  0.7818609E-02  0.8851449E-01
        1   -1    0    0  501    0  0.00000000000E+00  0.00000000000E+00  0.91242480158E+03  0.91242480159E+03  0.50400001928E-02 0. -1.
       -1   -1    0    0    0  501  0.00000000000E+00  0.00000000000E+00 -0.65882997564E+03  0.65882997566E+03  0.50400001928E-02 0.  1.
    10030    2    1    2    0    0  0.00000000000E+00  0.00000000000E+00  0.25359482594E+03  0.15712547772E+04  0.15506551000E+04 0.  0.
        1    1    3    3  502    0  0.39579102664E+02  0.20888519760E+03  0.88231179374E+03  0.90756467127E+03  0.50400001928E-02 0. -1.
       -1    1    3    3    0  502 -0.39579102664E+02 -0.20888519760E+03 -0.62871696780E+03  0.66369010598E+03  0.50400001928E-02 0.  1.
</event>
<event>
 5   0  0.7601145E-04  0.1643856E+04  0.7818609E-02  0.8794049E-01
        1   -1    0    0  501    0  0.00000000000E+00  0.00000000000E+00  0.88753074139E+03  0.88753074140E+03  0.50400001928E-02 0.  1.
       -1   -1    0    0    0  501  0.00000000000E+00  0.00000000000E+00 -0.76117461851E+03  0.76117461853E+03  0.50400001928E-02 0. -1.
    10030    2    1    2    0    0  0.00000000000E+00  0.00000000000E+00  0.12635612287E+03  0.16487053599E+04  0.16438562875E+04 0.  0.
        4    1    3    3  502    0  0.45956204752E+02 -0.51228101856E+03 -0.57982185390E+03  0.77507342226E+03  0.12699999809E+01 0. -1.
       -4    1    3    3    0  502 -0.45956204752E+02  0.51228101856E+03  0.70617797677E+03  0.87363193767E+03  0.12699999809E+01 0.  1.
</event>
<event>
 5   0  0.1354766E-03  0.1581867E+04  0.7818609E-02  0.8831766E-01
        2   -1    0    0  501    0  0.00000000000E+00  0.00000000000E+00  0.14061325034E+04  0.14061325034E+04  0.25500000920E-02 0.  1.
       -2   -1    0    0    0  501  0.00000000000E+00  0.00000000000E+00 -0.44489103798E+03  0.44489103799E+03  0.25500000920E-02 0. -1.
    10030    2    1    2    0    0  0.00000000000E+00  0.00000000000E+00  0.96124146542E+03  0.18510235414E+04  0.15818669337E+04 0.  0.
        3    1    3    3  502    0 -0.31413318602E+03  0.34059111596E+03  0.12306993300E+04  0.13150295882E+04  0.10100000352E+00 0.  1.
       -3    1    3    3    0  502  0.31413318602E+03 -0.34059111596E+03 -0.26945786460E+03  0.53599395316E+03  0.10100000352E+00 0. -1.
</event>
<event>
 5   0  0.7302027E-04  0.1514859E+04  0.7818609E-02  0.8874632E-01
        1   -1    0    0  501    0  0.00000000000E+00  0.00000000000E+00  0.69353362992E+03  0.69353362993E+03  0.50400001928E-02 0.  1.
       -1   -1    0    0    0  501  0.00000000000E+00  0.00000000000E+00 -0.82721192113E+03  0.82721192115E+03  0.50400001928E-02 0. -1.
    10030    2    1    2    0    0  0.00000000000E+00  0.00000000000E+00 -0.13367829122E+03  0.15207455511E+04  0.15148587873E+04 0.  0.
        5    1    3    3  502    0 -0.45395524447E+03 -0.41002975680E+03 -0.51520371580E+03  0.79978542386E+03  0.46999998093E+01 0. -1.
       -5    1    3    3    0  502  0.45395524447E+03  0.41002975680E+03  0.38152542459E+03  0.72096012722E+03  0.46999998093E+01 0.  1.
</event>
<event>
 5   0  0.1375777E-03  0.1556073E+04  0.7818609E-02  0.8847998E-01
       -2   -1    0    0    0  501  0.00000000000E+00  0.00000000000E+00  0.16800302407E+04  0.16800302407E+04  0.25500000920E-02 0. -1.
        2   -1    0    0  501    0  0.00000000000E+00  0.00000000000E+00 -0.36031529792E+03  0.36031529793E+03  0.25500000920E-02 0.  1.
    10030    2    1    2    0    0  0.00000000000E+00  0.00000000000E+00  0.13197149428E+04  0.20403455387E+04  0.15560727447E+04 0.  0.
        1    1    3    3  502    0 -0.11875851767E+03  0.61753926899E+03  0.59151851080E+02  0.63163064823E+03  0.50400001928E-02 0.  1.
       -1    1    3    3    0  502  0.11875851767E+03 -0.61753926899E+03  0.12605630917E+04  0.14087148904E+04  0.50400001928E-02 0. -1.
</event>
<event>
 5   0  0.7633213E-04  0.1612238E+04  0.7818609E-02  0.8813065E-01
        1   -1    0    0  501    0  0.00000000000E+00  0.00000000000E+00  0.26440294051E+04  0.26440294051E+04  0.50400001928E-02 0.  1.
       -1   -1    0    0    0  501  0.00000000000E+00  0.00000000000E+00 -0.24577168696E+03  0.24577168701E+03  0.50400001928E-02 0. -1.
    10030    2    1    2    0    0  0.00000000000E+00  0.00000000000E+00  0.23982577181E+04  0.28898010921E+04  0.16122376591E+04 0.  0.
        1    1    3    3  502    0 -0.79412791940E+03 -0.82488808505E+02  0.13985951727E+04  0.16104384536E+04  0.50400001928E-02 0.  1.
       -1    1    3    3    0  502  0.79412791940E+03  0.82488808505E+02  0.99966254547E+03  0.12793626385E+04  0.50400001928E-02 0. -1.
</event>
<event>
 5   0  0.1414751E-03  0.1626260E+04  0.7818609E-02  0.8804576E-01
       -2   -1    0    0    0  501  0.00000000000E+00  0.00000000000E+00  0.69702149239E+03  0.69702149240E+03  0.25500000920E-02 0. -1.
        2   -1    0    0  501    0  0.00000000000E+00  0.00000000000E+00 -0.94857968711E+03  0.94857968711E+03  0.25500000920E-02 0.  1.
    10030    2    1    2    0    0  0.00000000000E+00  0.00000000000E+00 -0.25155819471E+03  0.16456011795E+04  0.16262600397E+04 0.  0.
        2    1    3    3  502    0  0.15070248864E+03 -0.74933212498E+03 -0.40651432309E+03  0.86571575502E+03  0.25500000920E-02 0. -1.
       -2    1    3    3    0  502 -0.15070248864E+03  0.74933212498E+03  0.15495612837E+03  0.77988542449E+03  0.25500000920E-02 0.  1.
</event>
<event>
 5   0  0.7499834E-04  0.1638610E+04  0.7818609E-02  0.8797173E-01
        1   -1    0    0  501    0  0.00000000000E+00  0.00000000000E+00  0.64633832452E+03  0.64633832454E+03  0.50400001928E-02 0. -1.
       -1   -1    0    0    0  501  0.00000000000E+00  0.00000000000E+00 -0.10385592362E+04  0.10385592362E+04  0.50400001928E-02 0.  1.
    10030    2    1    2    0    0  0.00000000000E+00  0.00000000000E+00 -0.39222091164E+03  0.16848975607E+04  0.16386099434E+04 0.  0.
        3    1    3    3  502    0  0.13828984205E+02  0.54654377661E+03  0.43133938001E+03  0.69638711325E+03  0.10100000352E+00 0. -1.
       -3    1    3    3    0  502 -0.13828984205E+02 -0.54654377661E+03 -0.82356029165E+03  0.98851044746E+03  0.10100000352E+00 0.  1.
</event>
<event>
 5   0  0.1414796E-03  0.1585310E+04  0.7818609E-02  0.8829624E-01
       -2   -1    0    0    0  501  0.00000000000E+00  0.00000000000E+00  0.39549961246E+03  0.39549961247E+03  0.25500000920E-02 0.  1.
        2   -1    0    0  501    0  0.00000000000E+00  0.00000000000E+00 -0.15886274945E+04  0.15886274945E+04  0.25500000920E-02 0. -1.
    10030    2    1    2    0    0  0.00000000000E+00  0.00000000000E+00 -0.11931278820E+04  0.19841271070E+04  0.15853095072E+04 0.  0.
        4    1    3    3  502    0  0.23474106959E+03 -0.12231435825E+03 -0.15316772935E+04  0.15543812648E+04  0.12699999809E+01 0. -1.
       -4    1    3    3    0  502 -0.23474106959E+03  0.12231435825E+03  0.33854941145E+03  0.42974584219E+03  0.12699999809E+01 0.  1.
</event>
<event>
 5   0  0.1375777E-03  0.1452941E+04  0.7818609E-02  0.8916364E-01
       -2   -1    0    0    0  501  0.00000000000E+00  0.00000000000E+00  0.38949952616E+03  0.38949952616E+03  0.25500000920E-02 0. -1.
        2   -1    0    0  501    0  0.00000000000E+00  0.00000000000E+00 -0.13549678557E+04  0.13549678557E+04  0.25500000920E-02 0.  1.
    10030    2    1    2    0    0  0.00000000000E+00  0.00000000000E+00 -0.96546832957E+03  0.17444673819E+04  0.14529409317E+04 0.  0.
        1    1    3    3  502    0 -0.71803356444E+03  0.10422550421E+02 -0.61468785790E+03  0.94526292210E+03  0.50400001928E-02 0. -1.
       -1    1    3    3    0  502  0.71803356444E+03 -0.10422550421E+02 -0.35078047167E+03  0.79920445979E+03  0.50400001928E-02 0.  1.
</event>
<event>
 5   0  0.7499834E-04  0.1625460E+04  0.7818609E-02  0.8805058E-01
       -1   -1    0    0    0  501  0.00000000000E+00  0.00000000000E+00  0.63739920634E+03  0.63739920636E+03  0.50400001928E-02 0.  1.
        1   -1    0    0  501    0  0.00000000000E+00  0.00000000000E+00 -0.10362897566E+04  0.10362897566E+04  0.50400001928E-02 0. -1.
    10030    2    1    2    0    0  0.00000000000E+00  0.00000000000E+00 -0.39889055026E+03  0.16736889630E+04  0.16254602652E+04 0.  0.
        3    1    3    3  502    0 -0.80226342847E+03 -0.72748827686E+02 -0.31039801356E+03  0.86328786485E+03  0.10100000352E+00 0. -1.
       -3    1    3    3    0  502  0.80226342847E+03  0.72748827686E+02 -0.88492536701E+02  0.81040109812E+03  0.10100000352E+00 0.  1.
</event>
<event>
 5   0  0.7302027E-04  0.1645300E+04  0.7818609E-02  0.8793192E-01
       -1   -1    0    0    0  501  0.00000000000E+00  0.00000000000E+00  0.42435646230E+03  0.42435646233E+03  0.50400001928E-02 0.  1.
        1   -1    0    0  501    0  0.00000000000E+00  0.00000000000E+00 -0.15947741705E+04  0.15947741705E+04  0.50400001928E-02 0. -1.
    10030    2    1    2    0    0  0.00000000000E+00  0.00000000000E+00 -0.11704177082E+04  0.20191306328E+04  0.16452996386E+04 0.  0.
        5    1    3    3  502    0  0.25367597333E+03  0.52504579496E+03 -0.12973152306E+04  0.14223478772E+04  0.46999998093E+01 0. -1.
       -5    1    3    3    0  502 -0.25367597333E+03 -0.52504579496E+03  0.12689752238E+03  0.59678275564E+03  0.46999998093E+01 0.  1.
</event>
<event>
 5   0  0.7499834E-04  0.1312693E+04  0.7818609E-02  0.9019560E-01
        1   -1    0    0  501    0  0.00000000000E+00  0.00000000000E+00  0.84628260615E+03  0.84628260616E+03  0.50400001928E-02 0.  1.
       -1   -1    0    0    0  501  0.00000000000E+00  0.00000000000E+00 -0.50903852508E+03  0.50903852511E+03  0.50400001928E-02 0. -1.
    10030    2    1    2    0    0  0.00000000000E+00  0.00000000000E+00  0.33724408107E+03  0.13553211313E+04  0.13126925758E+04 0.  0.
        3    1    3    3  502    0  0.82601265329E+01  0.22220893844E+03 -0.46896346448E+03  0.51901038836E+03  0.10100000352E+00 0. -1.
       -3    1    3    3    0  502 -0.82601265329E+01 -0.22220893844E+03  0.80620754554E+03  0.83631074291E+03  0.10100000352E+00 0.  1.
</event>
<event>
 5   0  0.5095750E-04  0.1625512E+04  0.7818609E-02  0.8805026E-01
       -3   -1    0    0    0  501  0.00000000000E+00  0.00000000000E+00  0.94164628143E+03  0.94164628684E+03  0.10100000352E+00 0. -1.
        3   -1    0    0  501    0  0.00000000000E+00  0.00000000000E+00 -0.70150804047E+03  0.70150804774E+03  0.10100000352E+00 0.  1.
    10030    2    1    2    0    0  0.00000000000E+00  0.00000000000E+00  0.24013824096E+03  0.16431543346E+04  0.16255121631E+04 0.  0.
        2    1    3    3  502    0  0.73055121130E+03  0.28645942749E+03  0.33404642716E+03  0.85284880925E+03  0.25500000920E-02 0. -1.
       -2    1    3    3    0  502 -0.73055121130E+03 -0.28645942749E+03 -0.93908186206E+02  0.79030552533E+03  0.25500000920E-02 0.  1.
</event>
<event>
 5   0  0.1414751E-03  0.1606223E+04  0.7818609E-02  0.8816734E-01
       -2   -1    0    0    0  501  0.00000000000E+00  0.00000000000E+00  0.10025595151E+04  0.10025595151E+04  0.25500000920E-02 0.  1.
        2   -1    0    0  501    0  0.00000000000E+00  0.00000000000E+00 -0.64334179143E+03  0.64334179144E+03  0.25500000920E-02 0. -1.
    10030    2    1    2    0    0  0.00000000000E+00  0.00000000000E+00  0.35921772363E+03  0.16459013065E+04  0.16062234396E+04 0.  0.
        2    1    3    3  502    0 -0.29988086889E+03  0.68676633641E+03  0.47555442451E+03  0.88754072979E+03  0.25500000920E-02 0.  1.
       -2    1    3    3    0  502  0.29988086889E+03 -0.68676633641E+03 -0.11633670088E+03  0.75836057672E+03  0.25500000920E-02 0. -1.
</event>
<event>
 5   0  0.7499834E-04  0.1595197E+04  0.7818609E-02  0.8823504E-01
        1   -1    0    0  501    0  0.00000000000E+00  0.00000000000E+00  0.87830544298E+03  0.87830544300E+03  0.50400001928E-02 0. -1.
       -1   -1    0    0    0  501  0.00000000000E+00  0.00000000000E+00 -0.72430735853E+03  0.72430735855E+03  0.50400001928E-02 0.  1.
    10030    2    1    2    0    0  0.00000000000E+00  0.00000000000E+00  0.15399808445E+03  0.16026128015E+04  0.15951966592E+04 0.  0.
        3    1    3    3  502    0  0.73214928638E+03 -0.28911462613E+02  0.39355857616E+03  0.83172520299E+03  0.10100000352E+00 0. -1.
       -3    1    3    3    0  502 -0.73214928638E+03  0.28911462613E+02 -0.23956049171E+03  0.77088759856E+03  0.10100000352E+00 0.  1.
</event>
<event>
 5   0  0.1375777E-03  0.1622352E+04  0.7818609E-02  0.8806933E-01
       -2   -1    0    0    0  501  0.00000000000E+00  0.00000000000E+00  0.38423956523E+03  0.38423956524E+03  0.25500000920E-02 0. -1.
        2   -1    0    0  501    0  0.00000000000E+00  0.00000000000E+00 -0.17124911316E+04  0.17124911316E+04  0.25500000920E-02 0.  1.
    10030    2    1    2    0    0  0.00000000000E+00  0.00000000000E+00 -0.13282515664E+04  0.20967306969E+04  0.16223524252E+04 0.  0.
        1    1    3    3  502    0  0.63861906958E+03 -0.46607106742E+03 -0.42952628191E+03  0.89974962228E+03  0.50400001928E-02 0. -1.
       -1    1    3    3    0  502 -0.63861906958E+03  0.46607106742E+03 -0.89872528449E+03  0.11969810746E+04  0.50400001928E-02 0.  1.
</event>
<event>
 5   0  0.1414796E-03  0.1619760E+04  0.7818609E-02  0.8808500E-01
       -2   -1    0    0    0  501  0.00000000000E+00  0.00000000000E+00  0.39117426435E+03  0.39117426436E+03  0.25500000920E-02 0. -1.
        2   -1    0    0  501    0  0.00000000000E+00  0.00000000000E+00 -0.16767597093E+04  0.16767597093E+04  0.25500000920E-02 0.  1.
    10030    2    1    2    0    0  0.00000000000E+00  0.00000000000E+00 -0.12855854449E+04  0.20679339736E+04  0.16197595449E+04 0.  0.
        4    1    3    3  502    0  0.39613504468E+03  0.62289504221E+03 -0.10681101973E+04  0.12983767610E+04  0.12699999809E+01 0. -1.
       -4    1    3    3    0  502 -0.39613504468E+03 -0.62289504221E+03 -0.21747524769E+03  0.76955721261E+03  0.12699999809E+01 0.  1.
</event>
<event>
 5   0  0.7302027E-04  0.1626541E+04  0.7818609E-02  0.8804407E-01
        1   -1    0    0  501    0  0.00000000000E+00  0.00000000000E+00  0.96240190456E+03  0.96240190457E+03  0.50400001928E-02 0.  1.
       -1   -1    0    0    0  501  0.00000000000E+00  0.00000000000E+00 -0.68724776625E+03  0.68724776627E+03  0.50400001928E-02 0. -1.
    10030    2    1    2    0    0  0.00000000000E+00  0.00000000000E+00  0.27515413830E+03  0.16496496708E+04  0.16265405733E+04 0.  0.
        5    1    3    3  502    0 -0.14150522064E+03 -0.60464812534E+03  0.67016966598E+03  0.91365888282E+03  0.46999998093E+01 0.  1.
       -5    1    3    3    0  502  0.14150522064E+03  0.60464812534E+03 -0.39501552768E+03  0.73599078802E+03  0.46999998093E+01 0. -1.
</event>
<event>
 5   0  0.1354766E-03  0.1584282E+04  0.7818609E-02  0.8830263E-01
       -2   -1    0    0    0  501  0.00000000000E+00  0.00000000000E+00  0.50217205174E+03  0.50217205175E+03  0.25500000920E-02 0.  1.
        2   -1    0    0  501    0  0.00000000000E+00  0.00000000000E+00 -0.12495470301E+04  0.12495470301E+04  0.25500000920E-02 0. -1.
    10030    2    1    2    0    0  0.00000000000E+00  0.00000000000E+00 -0.74737497837E+03  0.17517190819E+04  0.15842822929E+04 0.  0.
        3    1    3    3  502    0  0.55195035223E+03 -0.56796389747E+03 -0.39135791492E+03  0.88339866874E+03  0.10100000352E+00 0. -1.
       -3    1    3    3    0  502 -0.55195035223E+03  0.56796389747E+03 -0.35601706345E+03  0.86832041312E+03  0.10100000352E+00 0.  1.
</event>
<event>
 5   0  0.1354766E-03  0.1633547E+04  0.7818609E-02  0.8800200E-01
        2   -1    0    0  501    0  0.00000000000E+00  0.00000000000E+00  0.14285305915E+04  0.14285305915E+04  0.25500000920E-02 0. -1.
       -2   -1    0    0    0  501  0.00000000000E+00  0.00000000000E+00 -0.46699638664E+03  0.46699638665E+03  0.25500000920E-02 0.  1.
    10030    2    1    2    0    0  0.00000000000E+00  0.00000000000E+00  0.96153420481E+03  0.18955269781E+04  0.16335466010E+04 0.  0.
        3    1    3    3  502    0 -0.34138451688E+03 -0.53731938912E+02  0.13395138314E+04  0.13833755182E+04  0.10100000352E+00 0. -1.
       -3    1    3    3    0  502  0.34138451688E+03  0.53731938912E+02 -0.37797962655E+03  0.51215145994E+03  0.10100000352E+00 0.  1.
</event>
<event>
 5   0  0.7124495E-04  0.1590745E+04  0.7818609E-02  0.8826254E-01
       -1   -1    0    0    0  501  0.00000000000E+00  0.00000000000E+00  0.52116739459E+03  0.52116739461E+03  0.50400001928E-02 0. -1.
        1   -1    0    0  501    0  0.00000000000E+00  0.00000000000E+00 -0.12138467162E+04  0.12138467162E+04  0.50400001928E-02 0.  1.
    10030    2    1    2    0    0  0.00000000000E+00  0.00000000000E+00 -0.69267932158E+03  0.17350141108E+04  0.15907448954E+04 0.  0.
        2    1    3    3  502    0 -0.33585741456E+03  0.61445389416E+03 -0.75772544282E+03  0.10317468864E+04  0.25500000920E-02 0.  1.
       -2    1    3    3    0  502  0.33585741456E+03 -0.61445389416E+03  0.65046121242E+02  0.70326722436E+03  0.25500000920E-02 0. -1.
</event>
<event>
 5   0  0.7302027E-04  0.1690193E+04  0.7818609E-02  0.8766977E-01
       -1   -1    0    0    0  501  0.00000000000E+00  0.00000000000E+00  0.67882709873E+03  0.67882709875E+03  0.50400001928E-02 0.  1.
        1   -1    0    0  501    0  0.00000000000E+00  0.00000000000E+00 -0.10520916270E+04  0.10520916270E+04  0.50400001928E-02 0. -1.
    10030    2    1    2    0    0  0.00000000000E+00  0.00000000000E+00 -0.37326452825E+03  0.17309187257E+04  0.16901932514E+04 0.  0.
        5    1    3    3  502    0 -0.20899690786E+03  0.71597975755E+03 -0.59352100170E+03  0.95320301624E+03  0.46999998093E+01 0. -1.
       -5    1    3    3    0  502  0.20899690786E+03 -0.71597975755E+03  0.22025647345E+03  0.77771570950E+03  0.46999998093E+01 0.  1.
</event>
<event>
 5   0  0.7633213E-04  0.1604605E+04  0.7818609E-02  0.8817724E-01
        1   -1    0    0  501    0  0.00000000000E+00  0.00000000000E+00  0.12241303422E+04  0.12241303422E+04  0.50400001928E-02 0. -1.
       -1   -1    0    0    0  501  0.00000000000E+00  0.00000000000E+00 -0.52583389995E+03  0.52583389997E+03  0.50400001928E-02 0.  1.
    10030    2    1    2    0    0  0.00000000000E+00  0.00000000000E+00  0.69829644224E+03  0.17499642422E+04  0.16046049133E+04 0.  0.
        1    1    3    3  502    0  0.19200350898E+03  0.36533500209E+03 -0.40118501481E+03  0.57557312945E+03  0.50400001928E-02 0.  1.
       -1    1    3    3    0  502 -0.19200350898E+03 -0.36533500209E+03  0.10994814571E+04  0.11743911127E+04  0.50400001928E-02 0. -1.
</event>
<event>
 5   0  0.1339162E-03  0.1584760E+04  0.7818609E-02  0.8829966E-01
       -2   -1    0    0    0  501  0.00000000000E+00  0.00000000000E+00  0.37758816658E+03  0.37758816659E+03  0.25500000920E-02 0. -1.
        2   -1    0    0  501    0  0.00000000000E+00  0.00000000000E+00 -0.16628332376E+04  0.16628332376E+04  0.25500000920E-02 0.  1.
    10030    2    1    2    0    0  0.00000000000E+00  0.00000000000E+00 -0.12852450710E+04  0.20404214042E+04  0.15847601125E+04 0.  0.
        5    1    3    3  502    0  0.60018619613E+03  0.28791632535E+03 -0.89248317090E+02  0.67164472195E+03  0.46999998093E+01 0. -1.
       -5    1    3    3    0  502 -0.60018619613E+03 -0.28791632535E+03 -0.11959967539E+04  0.13687766822E+04  0.46999998093E+01 0.  1.
</event>
<event>
 5   0  0.1354766E-03  0.1518704E+04  0.7818609E-02  0.8872110E-01
       -2   -1    0    0    0  501  0.00000000000E+00  0.00000000000E+00  0.65013427839E+03  0.65013427840E+03  0.25500000920E-02 0. -1.
        2   -1    0    0  501    0  0.00000000000E+00  0.00000000000E+00 -0.88691693667E+03  0.88691693667E+03  0.25500000920E-02 0.  1.
    10030    2    1    2    0    0  0.00000000000E+00  0.00000000000E+00 -0.23678265828E+03  0.15370512151E+04  0.15187035295E+04 0.  0.
        3    1    3    3  502    0 -0.74915837150E+03  0.12373059580E+03 -0.12671051901E+03  0.76980717829E+03  0.10100000352E+00 0. -1.
       -3    1    3    3    0  502  0.74915837150E+03 -0.12373059580E+03 -0.11007213927E+03  0.76724403678E+03  0.10100000352E+00 0.  1.
</event>
<event>
 5   0  0.1414796E-03  0.1580138E+04  0.7818609E-02  0.8832844E-01
       -2   -1    0    0    0  501  0.00000000000E+00  0.00000000000E+00  0.10264206996E+04  0.10264206996E+04  0.25500000920E-02 0.  1.
        2   -1    0    0  501    0  0.00000000000E+00  0.00000000000E+00 -0.60814166993E+03  0.60814166994E+03  0.25500000920E-02 0. -1.
    10030    2    1    2    0    0  0.00000000000E+00  0.00000000000E+00  0.41827902964E+03  0.16345623695E+04  0.15801382196E+04 0.  0.
        4    1    3    3  502    0  0.44066753016E+03  0.31312531248E+02  0.88671069496E+03  0.99066937784E+03  0.12699999809E+01 0.  1.
       -4    1    3    3    0  502 -0.44066753016E+03 -0.31312531248E+02 -0.46843166532E+03  0.64389299167E+03  0.12699999809E+01 0. -1.
</event>
<event>
 5   0  0.1354766E-03  0.1551377E+04  0.7818609E-02  0.8850988E-01
       -2   -1    0    0    0  501  0.00000000000E+00  0.00000000000E+00  0.45888899061E+03  0.45888899062E+03  0.25500000920E-02 0. -1.
        2   -1    0    0  501    0  0.00000000000E+00  0.00000000000E+00 -0.13111949027E+04  0.13111949027E+04  0.25500000920E-02 0.  1.
    10030    2    1    2    0    0  0.00000000000E+00  0.00000000000E+00 -0.85230591209E+03  0.17700838933E+04  0.15513773305E+04 0.  0.
        3    1    3    3  502    0 -0.11579296787E+03  0.31831792438E+03 -0.12223534115E+04  0.12684171968E+04  0.10100000352E+00 0.  1.
       -3    1    3    3    0  502  0.11579296787E+03 -0.31831792438E+03  0.37004749939E+03  0.50166669652E+03  0.10100000352E+00 0. -1.
</event>
<event>
 5   0  0.7302027E-04  0.1513817E+04  0.7818609E-02  0.8875316E-01
        1   -1    0    0  501    0  0.00000000000E+00  0.00000000000E+00  0.15687292564E+04  0.15687292564E+04  0.50400001928E-02 0.  1.
       -1   -1    0    0    0  501  0.00000000000E+00  0.00000000000E+00 -0.36520679671E+03  0.36520679674E+03  0.50400001928E-02 0. -1.
    10030    2    1    2    0    0  0.00000000000E+00  0.00000000000E+00  0.12035224596E+04  0.19339360531E+04  0.15138171444E+04 0.  0.
        5    1    3    3  502    0  0.40170997267E+02 -0.43078767380E+03 -0.19163784552E+03  0.47322181137E+03  0.46999998093E+01 0.  1.
       -5    1    3    3    0  502 -0.40170997267E+02  0.43078767380E+03  0.13951603052E+04  0.14607142417E+04  0.46999998093E+01 0. -1.
</event>
<event>
 5   0  0.7601145E-04  0.1561757E+04  0.7818609E-02  0.8844393E-01
       -1   -1    0    0    0  501  0.00000000000E+00  0.00000000000E+00  0.63365315496E+03  0.63365315498E+03  0.50400001928E-02 0. -1.
        1   -1    0    0  501    0  0.00000000000E+00  0.00000000000E+00 -0.96231070157E+03  0.96231070159E+03  0.50400001928E-02 0.  1.
    10030    2    1    2    0    0  0.00000000000E+00  0.00000000000E+00 -0.32865754661E+03  0.15959638566E+04  0.15617569749E+04 0.  0.
        4    1    3    3  502    0 -0.53767171756E+03  0.54942957899E+03 -0.24190678309E+02  0.76912322807E+03  0.12699999809E+01 0. -1.
       -4    1    3    3    0  502  0.53767171756E+03 -0.54942957899E+03 -0.30446686830E+03  0.82684062850E+03  0.12699999809E+01 0.  1.
</event>
<event>
 5   0  0.7302027E-04  0.1582962E+04  0.7818609E-02  0.8831084E-01
        1   -1    0    0  501    0  0.00000000000E+00  0.00000000000E+00  0.11285078154E+04  0.11285078154E+04  0.50400001928E-02 0.  1.
       -1   -1    0    0    0  501  0.00000000000E+00  0.00000000000E+00 -0.55510628256E+03  0.55510628258E+03  0.50400001928E-02 0. -1.
    10030    2    1    2    0    0  0.00000000000E+00  0.00000000000E+00  0.57340153281E+03  0.16836140980E+04  0.15829615008E+04 0.  0.
        5    1    3    3  502    0 -0.76395790238E+03  0.12910053342E+03  0.45859750310E+03  0.90035125601E+03  0.46999998093E+01 0.  1.
       -5    1    3    3    0  502  0.76395790238E+03 -0.12910053342E+03  0.11480402970E+03  0.78326284195E+03  0.46999998093E+01 0. -1.
</event>
<event>
 5   0  0.7601145E-04  0.1538304E+04  0.7818609E-02  0.8859373E-01
        1   -1    0    0  501    0  0.00000000000E+00  0.00000000000E+00  0.16554688942E+04  0.16554688942E+04  0.50400001928E-02 0. -1.
       -1   -1    0    0    0  501  0.00000000000E+00  0.00000000000E+00 -0.35735776231E+03  0.35735776234E+03  0.50400001928E-02 0.  1.
    10030    2    1    2    0    0  0.00000000000E+00  0.00000000000E+00  0.12981111319E+04  0.20128266565E+04  0.15383038187E+04 0.  0.
        4    1    3    3  502    0  0.59719310574E+03  0.22027871738E+02  0.12826425471E+04  0.14150259182E+04  0.12699999809E+01 0. -1.
       -4    1    3    3    0  502 -0.59719310574E+03 -0.22027871738E+02  0.15468584732E+02  0.59780073828E+03  0.12699999809E+01 0.  1.
</event>
<event>
 5   0  0.1354766E-03  0.1608025E+04  0.7818609E-02  0.8815633E-01
       -2   -1    0    0    0  501  0.00000000000E+00  0.00000000000E+00  0.35715646706E+03  0.35715646707E+03  0.25500000920E-02 0.  1.
        2   -1    0    0  501    0  0.00000000000E+00  0.00000000000E+00 -0.18099528679E+04  0.18099528679E+04  0.25500000920E-02 0. -1.
    10030    2    1    2    0    0  0.00000000000E+00  0.00000000000E+00 -0.14527964008E+04  0.21671093350E+04  0.16080253379E+04 0.  0.
        3    1    3    3  502    0 -0.14547191628E+03 -0.44831631215E+03 -0.16042428750E+04  0.16720480873E+04  0.10100000352E+00 0. -1.
       -3    1    3    3    0  502  0.14547191628E+03  0.44831631215E+03  0.15144647417E+03  0.49506124763E+03  0.10100000352E+00 0.  1.
</event>
<event>
 5   0  0.7499834E-04  0.9402364E+03  0.7818609E-02  0.9376636E-01
       -1   -1    0    0    0  501  0.00000000000E+00  0.00000000000E+00  0.20304465302E+03  0.20304465308E+03  0.50400001928E-02 0. -1.
        1   -1    0    0  501    0  0.00000000000E+00  0.00000000000E+00 -0.10884852374E+04  0.10884852374E+04  0.50400001928E-02 0.  1.
    10030    2    1    2    0    0  0.00000000000E+00  0.00000000000E+00 -0.88544058436E+03  0.12915298905E+04  0.94023636897E+03 0.  0.
        3    1    3    3  502    0  0.85234053669E+02 -0.17538274709E+03 -0.10303147714E+04  0.10486050211E+04  0.10100000352E+00 0.  1.
       -3    1    3    3    0  502 -0.85234053669E+02  0.17538274709E+03  0.14487418705E+03  0.24292486937E+03  0.10100000352E+00 0. -1.
</event>
<event>
 5   0  0.5095750E-04  0.1631875E+04  0.7818609E-02  0.8801202E-01
        4   -1    0    0  501    0  0.00000000000E+00  0.00000000000E+00  0.32890617447E+03  0.32890862637E+03  0.12699999809E+01 0.  1.
       -4   -1    0    0    0  501  0.00000000000E+00  0.00000000000E+00 -0.20241357626E+04  0.20241361610E+04  0.12699999809E+01 0. -1.
    10030    2    1    2    0    0  0.00000000000E+00  0.00000000000E+00 -0.16952295881E+04  0.23530447874E+04  0.16318751224E+04 0.  0.
        2    1    3    3  502    0  0.53720185565E+03 -0.51861789337E+03 -0.13219271403E+04  0.15182363838E+04  0.25500000920E-02 0. -1.
       -2    1    3    3    0  502 -0.53720185565E+03  0.51861789337E+03 -0.37330244784E+03  0.83480840353E+03  0.25500000920E-02 0.  1.
</event>
<event>
 5   0  0.1354766E-03  0.1282066E+04  0.7818609E-02  0.9043909E-01
       -2   -1    0    0    0  501  0.00000000000E+00  0.00000000000E+00  0.32695240553E+03  0.32695240554E+03  0.25500000920E-02 0.  1.
        2   -1    0    0  501    0  0.00000000000E+00  0.00000000000E+00 -0.12568295821E+04  0.12568295821E+04  0.25500000920E-02 0. -1.
    10030    2    1    2    0    0  0.00000000000E+00  0.00000000000E+00 -0.92987717659E+03  0.15837819877E+04  0.12820662311E+04 0.  0.
        3    1    3    3  502    0  0.43563859637E+03  0.29045353690E+03 -0.92181103778E+03  0.10601319933E+04  0.10100000352E+00 0.  1.
       -3    1    3    3    0  502 -0.43563859637E+03 -0.29045353690E+03 -0.80661388079E+01  0.52364999431E+03  0.10100000352E+00 0. -1.
</event>
<event>
 5   0  0.7499834E-04  0.1613089E+04  0.7818609E-02  0.8812547E-01
        1   -1    0    0  501    0  0.00000000000E+00  0.00000000000E+00  0.10829831518E+04  0.10829831518E+04  0.50400001928E-02 0. -1.
       -1   -1    0    0    0  501  0.00000000000E+00  0.00000000000E+00 -0.60066879977E+03  0.60066879979E+03  0.50400001928E-02 0.  1.
    10030    2    1    2    0    0  0.00000000000E+00  0.00000000000E+00  0.48231435202E+03  0.16836519516E+04  0.16130891978E+04 0.  0.
        3    1    3    3  502    0  0.51214409275E+03 -0.61963281360E+02  0.88826419641E+03  0.10272021772E+04  0.10100000352E+00 0. -1.
       -3    1    3    3    0  502 -0.51214409275E+03  0.61963281360E+02 -0.40594984438E+03  0.65644977442E+03  0.10100000352E+00 0.  1.
</event>
<event>
 5   0  0.1414796E-03  0.1590995E+04  0.7818609E-02  0.8826100E-01
       -2   -1    0    0    0  501  0.00000000000E+00  0.00000000000E+00  0.26675834761E+03  0.26675834762E+03  0.25500000920E-02 0. -1.
        2   -1    0    0  501    0  0.00000000000E+00  0.00000000000E+00 -0.23722443662E+04  0.23722443662E+04  0.25500000920E-02 0.  1.
    10030    2    1    2    0    0  0.00000000000E+00  0.00000000000E+00 -0.21054860186E+04  0.26390027139E+04  0.15909946414E+04 0.  0.
        4    1    3    3  502    0  0.23557147659E+03 -0.48696856525E+03 -0.20201892243E+04  0.20913628138E+04  0.12699999809E+01 0.  1.
       -4    1    3    3    0  502 -0.23557147659E+03  0.48696856525E+03 -0.85296794365E+02  0.54763990008E+03  0.12699999809E+01 0. -1.
</event>
<event>
 5   0  0.5095750E-04  0.1678266E+04  0.7818609E-02  0.8773858E-01
       -4   -1    0    0    0  501  0.00000000000E+00  0.00000000000E+00  0.94203270065E+03  0.94203355672E+03  0.12699999809E+01 0.  1.
        4   -1    0    0  501    0  0.00000000000E+00  0.00000000000E+00 -0.74747161180E+03  0.74747269071E+03  0.12699999809E+01 0. -1.
    10030    2    1    2    0    0  0.00000000000E+00  0.00000000000E+00  0.19456108885E+03  0.16895062474E+04  0.16782661716E+04 0.  0.
        4    1    3    3  502    0  0.15497623508E+03  0.78553647233E+03  0.35007495859E+03  0.87386456178E+03  0.12699999809E+01 0.  1.
       -4    1    3    3    0  502 -0.15497623508E+03 -0.78553647233E+03 -0.15551386974E+03  0.81564168566E+03  0.12699999809E+01 0. -1.
</event>
<event>
 5   0  0.7124495E-04  0.1599938E+04  0.7818609E-02  0.8820586E-01
        1   -1    0    0  501    0  0.00000000000E+00  0.00000000000E+00  0.90272139439E+03  0.90272139440E+03  0.50400001928E-02 0. -1.
       -1   -1    0    0    0  501  0.00000000000E+00  0.00000000000E+00 -0.70891200137E+03  0.70891200139E+03  0.50400001928E-02 0.  1.
    10030    2    1    2    0    0  0.00000000000E+00  0.00000000000E+00  0.19380939301E+03  0.16116333958E+04  0.15999375368E+04 0.  0.
        2    1    3    3  502    0 -0.83503077261E+02 -0.77191070000E+03  0.29100774606E+03  0.82915885146E+03  0.25500000920E-02 0. -1.
       -2    1    3    3    0  502  0.83503077261E+02  0.77191070000E+03 -0.97198353053E+02  0.78247454433E+03  0.25500000920E-02 0.  1.
</event>
<event>
 5   0  0.7601145E-04  0.1604070E+04  0.7818609E-02  0.8818051E-01
        1   -1    0    0  501    0  0.00000000000E+00  0.00000000000E+00  0.84594533211E+03  0.84594533213E+03  0.50400001928E-02 0.  1.
       -1   -1    0    0    0  501  0.00000000000E+00  0.00000000000E+00 -0.76040415877E+03  0.76040415879E+03  0.50400001928E-02 0. -1.
    10030    2    1    2    0    0  0.00000000000E+00  0.00000000000E+00  0.85541173341E+02  0.16063494909E+04  0.16040702586E+04 0.  0.
        4    1    3    3  502    0  0.22865466845E+03  0.57550671572E+03  0.55316899377E+03  0.83035443385E+03  0.12699999809E+01 0.  1.
       -4    1    3    3    0  502 -0.22865466845E+03 -0.57550671572E+03 -0.46762782043E+03  0.77599505706E+03  0.12699999809E+01 0. -1.
</event>
<event>
 5   0  0.7499834E-04  0.7994879E+03  0.7818609E-02  0.9560759E-01
        1   -1    0    0  501    0  0.00000000000E+00  0.00000000000E+00  0.24500407415E+03  0.24500407420E+03  0.50400001928E-02 0.  1.
       -1   -1    0    0    0  501  0.00000000000E+00  0.00000000000E+00 -0.65221457432E+03  0.65221457434E+03  0.50400001928E-02 0. -1.
    10030    2    1    2    0    0  0.00000000000E+00  0.00000000000E+00 -0.40721050017E+03  0.89721864854E+03  0.79948790600E+03 0.  0.
        3    1    3    3  502    0  0.20318181918E+03 -0.33494537890E+03 -0.29284964004E+03  0.48911366815E+03  0.10100000352E+00 0. -1.
       -3    1    3    3    0  502 -0.20318181918E+03  0.33494537890E+03 -0.11436086013E+03  0.40810498039E+03  0.10100000352E+00 0.  1.
</event>
<event>
 5   0  0.7302027E-04  0.1683008E+04  0.7818609E-02  0.8771115E-01
       -1   -1    0    0    0  501  0.00000000000E+00  0.00000000000E+00  0.48312201699E+03  0.48312201702E+03  0.50400001928E-02 0. -1.
        1   -1    0    0  501    0  0.00000000000E+00  0.00000000000E+00 -0.14657352752E+04  0.14657352752E+04  0.50400001928E-02 0.  1.
    10030    2    1    2    0    0  0.00000000000E+00  0.00000000000E+00 -0.98261325821E+03  0.19488572922E+04  0.16830080006E+04 0.  0.
        5    1    3    3  502    0  0.75849064830E+03  0.22449153621E+03 -0.82370870970E+03  0.11420256748E+04  0.46999998093E+01 0.  1.
       -5    1    3    3    0  502 -0.75849064830E+03 -0.22449153621E+03 -0.15890454851E+03  0.80683161746E+03  0.46999998093E+01 0. -1.
</event>
<event>
 5   0  0.1354766E-03  0.1610654E+04  0.7818609E-02  0.8814030E-01
       -2   -1    0    0    0  501  0.00000000000E+00  0.00000000000E+00  0.83049153242E+03  0.83049153243E+03  0.25500000920E-02 0. -1.
        2   -1    0    0  501    0  0.00000000000E+00  0.00000000000E+00 -0.78092472780E+03  0.78092472781E+03  0.25500000920E-02 0.  1.
    10030    2    1    2    0    0  0.00000000000E+00  0.00000000000E+00  0.49566804621E+02  0.16114162602E+04  0.16106537479E+04 0.  0.
        3    1    3    3  502    0 -0.58178732969E+02  0.43186745163E+03  0.70234629882E+03  0.82654981363E+03  0.10100000352E+00 0. -1.
       -3    1    3    3    0  502  0.58178732969E+02 -0.43186745163E+03 -0.65277949420E+03  0.78486644660E+03  0.10100000352E+00 0.  1.
</event>
<event>
 5   0  0.7633213E-04  0.1511301E+04  0.7818609E-02  0.8876972E-01
       -1   -1    0    0    0  501  0.00000000000E+00  0.00000000000E+00  0.76610791031E+03  0.76610791033E+03  0.50400001928E-02 0.  1.
        1   -1    0    0  501    0  0.00000000000E+00  0.00000000000E+00 -0.74533628897E+03  0.74533628899E+03  0.50400001928E-02 0. -1.
    10030    2    1    2    0    0  0.00000000000E+00  0.00000000000E+00  0.20771621334E+02  0.15114441993E+04  0.15113014615E+04 0.  0.
        1    1    3    3  502    0  0.32826123261E+03  0.35246223033E+03  0.59269759021E+03  0.76372475023E+03  0.50400001928E-02 0.  1.
       -1    1    3    3    0  502 -0.32826123261E+03 -0.35246223033E+03 -0.57192596888E+03  0.74771944909E+03  0.50400001928E-02 0. -1.
</event>
<event>
 5   0  0.1375777E-03  0.1592449E+04  0.7818609E-02  0.8825200E-01
        2   -1    0    0  501    0  0.00000000000E+00  0.00000000000E+00  0.95091642446E+03  0.95091642447E+03  0.25500000920E-02 0. -1.
       -2   -1    0    0    0  501  0.00000000000E+00  0.00000000000E+00 -0.66669716665E+03  0.66669716666E+03  0.25500000920E-02 0.  1.
    10030    2    1    2    0    0  0.00000000000E+00  0.00000000000E+00  0.28421925781E+03  0.16176135911E+04  0.15924487884E+04 0.  0.
        1    1    3    3  502    0  0.70932697358E+03  0.82590330150E+01 -0.22521267349E+03  0.74426723387E+03  0.50400001928E-02 0.  1.
       -1    1    3    3    0  502 -0.70932697358E+03 -0.82590330150E+01  0.50943193130E+03  0.87334635726E+03  0.50400001928E-02 0. -1.
</event>
<event>
 5   0  0.7499834E-04  0.1626374E+04  0.7818609E-02  0.8804507E-01
       -1   -1    0    0    0  501  0.00000000000E+00  0.00000000000E+00  0.29114851838E+03  0.29114851842E+03  0.50400001928E-02 0. -1.
        1   -1    0    0  501    0  0.00000000000E+00  0.00000000000E+00 -0.22712562109E+04  0.22712562109E+04  0.50400001928E-02 0.  1.
    10030    2    1    2    0    0  0.00000000000E+00  0.00000000000E+00 -0.19801076925E+04  0.25624047293E+04  0.16263737341E+04 0.  0.
        3    1    3    3  502    0  0.75774709928E+03  0.29366699712E+03 -0.10360393969E+04  0.13167378683E+04  0.10100000352E+00 0. -1.
       -3    1    3    3    0  502 -0.75774709928E+03 -0.29366699712E+03 -0.94406829562E+03  0.12456668610E+04  0.10100000352E+00 0.  1.
</event>
<event>
 5   0  0.7124495E-04  0.1609282E+04  0.7818609E-02  0.8814866E-01
        1   -1    0    0  501    0  0.00000000000E+00  0.00000000000E+00  0.17775498890E+04  0.17775498890E+04  0.50400001928E-02 0. -1.
       -1   -1    0    0    0  501  0.00000000000E+00  0.00000000000E+00 -0.36423580253E+03  0.36423580257E+03  0.50400001928E-02 0.  1.
    10030    2    1    2    0    0  0.00000000000E+00  0.00000000000E+00  0.14133140865E+04  0.21417856916E+04  0.16092822132E+04 0.  0.
        2    1    3    3  502    0  0.79441650135E+02 -0.10027217508E+03 -0.35061473141E+03  0.37322402757E+03  0.25500000920E-02 0.  1.
       -2    1    3    3    0  502 -0.79441650135E+02  0.10027217508E+03  0.17639288179E+04  0.17685616640E+04  0.25500000920E-02 0. -1.
</event>
<event>
 5   0  0.7302027E-04  0.1686065E+04  0.7818609E-02  0.8769352E-01
       -1   -1    0    0    0  501  0.00000000000E+00  0.00000000000E+00  0.51162668389E+03  0.51162668391E+03  0.50400001928E-02 0.  1.
        1   -1    0    0  501    0  0.00000000000E+00  0.00000000000E+00 -0.13891068029E+04  0.13891068029E+04  0.50400001928E-02 0. -1.
    10030    2    1    2    0    0  0.00000000000E+00  0.00000000000E+00 -0.87748011898E+03  0.19007334868E+04  0.16860653690E+04 0.  0.
        5    1    3    3  502    0  0.72324344955E+02 -0.76416932274E+03 -0.45797910035E+02  0.76896365535E+03  0.46999998093E+01 0.  1.
       -5    1    3    3    0  502 -0.72324344955E+02  0.76416932274E+03 -0.83168220895E+03  0.11317698314E+04  0.46999998093E+01 0. -1.
</event>
<event>
 5   0  0.1339162E-03  0.1592211E+04  0.7818609E-02  0.8825348E-01
       -2   -1    0    0    0  501  0.00000000000E+00  0.00000000000E+00  0.38491978437E+03  0.38491978438E+03  0.25500000920E-02 0. -1.
        2   -1    0    0  501    0  0.00000000000E+00  0.00000000000E+00 -0.16465345174E+04  0.16465345174E+04  0.25500000920E-02 0.  1.
    10030    2    1    2    0    0  0.00000000000E+00  0.00000000000E+00 -0.12616147330E+04  0.20314543018E+04  0.15922106788E+04 0.  0.
        5    1    3    3  502    0  0.51401483376E+02  0.50201590590E+03  0.15475949182E+03  0.52785857251E+03  0.46999998093E+01 0. -1.
       -5    1    3    3    0  502 -0.51401483376E+02 -0.50201590590E+03 -0.14163742248E+04  0.15035957293E+04  0.46999998093E+01 0.  1.
</event>
<event>
 5   0  0.1339162E-03  0.1607543E+04  0.7818609E-02  0.8815927E-01
        2   -1    0    0  501    0  0.00000000000E+00  0.00000000000E+00  0.16162670932E+04  0.16162670932E+04  0.25500000920E-02 0. -1.
       -2   -1    0    0    0  501  0.00000000000E+00  0.00000000000E+00 -0.39971654775E+03  0.39971654776E+03  0.25500000920E-02 0.  1.
    10030    2    1    2    0    0  0.00000000000E+00  0.00000000000E+00  0.12165505454E+04  0.20159836409E+04  0.16075430977E+04 0.  0.
        5    1    3    3  502    0  0.11621129732E+03  0.69130215146E+03  0.11514545763E+03  0.71041135735E+03  0.46999998093E+01 0.  1.
       -5    1    3    3    0  502 -0.11621129732E+03 -0.69130215146E+03  0.11014050878E+04  0.13055722836E+04  0.46999998093E+01 0. -1.
</event>
<event>
 5   0  0.1339162E-03  0.1557176E+04  0.7818609E-02  0.8847297E-01
       -2   -1    0    0    0  501  0.00000000000E+00  0.00000000000E+00  0.30766753116E+03  0.30766753117E+03  0.25500000920E-02 0. -1.
        2   -1    0    0  501    0  0.00000000000E+00  0.00000000000E+00 -0.19703050870E+04  0.19703050870E+04  0.25500000920E-02 0.  1.
    10030    2    1    2    0    0  0.00000000000E+00  0.00000000000E+00 -0.16626375558E+04  0.22779726181E+04  0.15571755222E+04 0.  0.
        5    1    3    3  502    0 -0.50815067216E+03 -0.38917203608E+03 -0.14798002148E+04  0.16122973500E+04  0.46999998093E+01 0.  1.
       -5    1    3    3    0  502  0.50815067216E+03  0.38917203608E+03 -0.18283734103E+03  0.66567526809E+03  0.46999998093E+01 0. -1.
</event>
<event>
 5   0  0.7601145E-04  0.1561454E+04  0.7818609E-02  0.8844585E-01
        1   -1    0    0  501    0  0.00000000000E+00  0.00000000000E+00  0.66236162717E+03  0.66236162719E+03  0.50400001928E-02 0. -1.
       -1   -1    0    0    0  501  0.00000000000E+00  0.00000000000E+00 -0.92024415344E+03  0.92024415345E+03  0.50400001928E-02 0.  1.
    10030    2    1    2    0    0  0.00000000000E+00  0.00000000000E+00 -0.25788252627E+03  0.15826057806E+04  0.15614537007E+04 0.  0.
        4    1    3    3  502    0 -0.23518496552E+03  0.70015092829E+03  0.12748700140E+03  0.74951840459E+03  0.12699999809E+01 0. -1.
       -4    1    3    3    0  502  0.23518496552E+03 -0.70015092829E+03 -0.38536952767E+03  0.83308737606E+03  0.12699999809E+01 0.  1.
</event>
<event>
 5   0  0.1414751E-03  0.1682572E+04  0.7818609E-02  0.8771367E-01
       -2   -1    0    0    0  501  0.00000000000E+00  0.00000000000E+00  0.10277361377E+04  0.10277361377E+04  0.25500000920E-02 0.  1.
        2   -1    0    0  501    0  0.00000000000E+00  0.00000000000E+00 -0.68866153738E+03  0.68866153739E+03  0.25500000920E-02 0. -1.
    10030    2    1    2    0    0  0.00000000000E+00  0.00000000000E+00  0.33907460029E+03  0.17163976751E+04  0.16825722553E+04 0.  0.
        2    1    3    3  502    0  0.15538368559E+03  0.46613850849E+03 -0.52707692491E+03  0.72058260014E+03  0.25500000920E-02 0. -1.
       -2    1    3    3    0  502 -0.15538368559E+03 -0.46613850849E+03  0.86615152520E+03  0.99581507493E+03  0.25500000920E-02 0.  1.
</event>
<event>
 5   0  0.1354766E-03  0.1586643E+04  0.7818609E-02  0.8828796E-01
        2   -1    0    0  501    0  0.00000000000E+00  0.00000000000E+00  0.13120465623E+04  0.13120465623E+04  0.25500000920E-02 0.  1.
       -2   -1    0    0    0  501  0.00000000000E+00  0.00000000000E+00 -0.47967720781E+03  0.47967720782E+03  0.25500000920E-02 0. -1.
    10030    2    1    2    0    0  0.00000000000E+00  0.00000000000E+00  0.83236935451E+03  0.17917237701E+04  0.15866427847E+04 0.  0.
        3    1    3    3  502    0  0.42445546449E+03  0.32747553692E+03 -0.24416976755E+03  0.58908535392E+03  0.10100000352E+00 0. -1.
       -3    1    3    3    0  502 -0.42445546449E+03 -0.32747553692E+03  0.10765391221E+04  0.12026384162E+04  0.10100000352E+00 0.  1.
</event>
<event>
 5   0  0.7499834E-04  0.1574145E+04  0.7818609E-02  0.8836591E-01
        1   -1    0    0  501    0  0.00000000000E+00  0.00000000000E+00  0.91766628818E+03  0.91766628819E+03  0.50400001928E-02 0.  1.
       -1   -1    0    0    0  501  0.00000000000E+00  0.00000000000E+00 -0.67506345113E+03  0.67506345115E+03  0.50400001928E-02 0. -1.
    10030    2    1    2    0    0  0.00000000000E+00  0.00000000000E+00  0.24260283705E+03  0.15927297393E+04  0.15741448110E+04 0.  0.
        3    1    3    3  502    0 -0.21879809785E+03  0.23827594557E+03  0.84729270541E+03  0.90694706169E+03  0.10100000352E+00 0.  1.
       -3    1    3    3    0  502  0.21879809785E+03 -0.23827594557E+03 -0.60468986837E+03  0.68578267765E+03  0.10100000352E+00 0. -1.
</event>
<event>
 5   0  0.1354766E-03  0.1576194E+04  0.7818609E-02  0.8835308E-01
       -2   -1    0    0    0  501  0.00000000000E+00  0.00000000000E+00  0.63947041607E+03  0.63947041608E+03  0.25500000920E-02 0.  1.
        2   -1    0    0  501    0  0.00000000000E+00  0.00000000000E+00 -0.97126748016E+03  0.97126748016E+03  0.25500000920E-02 0. -1.
    10030    2    1    2    0    0  0.00000000000E+00  0.00000000000E+00 -0.33179706408E+03  0.16107378962E+04  0.15761939216E+04 0.  0.
        3    1    3    3  502    0  0.21209416592E+03  0.13940655774E+03  0.59656227572E+03  0.64830909494E+03  0.10100000352E+00 0.  1.
       -3    1    3    3    0  502 -0.21209416592E+03 -0.13940655774E+03 -0.92835933981E+03  0.96242880130E+03  0.10100000352E+00 0. -1.
</event>
<event>
 5   0  0.7601145E-04  0.1574920E+04  0.7818609E-02  0.8836105E-01
        1   -1    0    0  501    0  0.00000000000E+00  0.00000000000E+00  0.43657277887E+03  0.43657277890E+03  0.50400001928E-02 0.  1.
       -1   -1    0    0    0  501  0.00000000000E+00  0.00000000000E+00 -0.14203669305E+04  0.14203669305E+04  0.50400001928E-02 0. -1.
    10030    2    1    2    0    0  0.00000000000E+00  0.00000000000E+00 -0.98379415164E+03  0.18569397094E+04  0.15749203636E+04 0.  0.
        4    1    3    3  502    0  0.20472051654E+03 -0.29617049042E+03  0.33384227875E+03  0.49099870598E+03  0.12699999809E+01 0.  1.
       -4    1    3    3    0  502 -0.20472051654E+03  0.29617049042E+03 -0.13176364304E+04  0.13659410034E+04  0.12699999809E+01 0. -1.
</event>
<event>
 5   0  0.1339162E-03  0.1594196E+04  0.7818609E-02  0.8824121E-01
       -2   -1    0    0    0  501  0.00000000000E+00  0.00000000000E+00  0.10514544419E+04  0.10514544420E+04  0.25500000920E-02 0. -1.
        2   -1    0    0  501    0  0.00000000000E+00  0.00000000000E+00 -0.60427296262E+03  0.60427296262E+03  0.25500000920E-02 0.  1.
    10030    2    1    2    0    0  0.00000000000E+00  0.00000000000E+00  0.44718147933E+03  0.16557274046E+04  0.15941963376E+04 0.  0.
        5    1    3    3  502    0 -0.63225024173E+03  0.17833308976E+03 -0.24527606241E+03  0.70123141392E+03  0.46999998093E+01 0.  1.
       -5    1    3    3    0  502  0.63225024173E+03 -0.17833308976E+03  0.69245754174E+03  0.95449599066E+03  0.46999998093E+01 0. -1.
</event>
<event>
 5   0  0.7499834E-04  0.1573027E+04  0.7818609E-02  0.8837292E-01
       -1   -1    0    0    0  501  0.00000000000E+00  0.00000000000E+00  0.90756472786E+03  0.90756472787E+03  0.50400001928E-02 0. -1.
        1   -1    0    0  501    0  0.00000000000E+00  0.00000000000E+00 -0.68160844924E+03  0.68160844926E+03  0.50400001928E-02 0.  1.
    10030    2    1    2    0    0  0.00000000000E+00  0.00000000000E+00  0.22595627862E+03  0.15891731771E+04  0.15730273828E+04 0.  0.
        3    1    3    3  502    0  0.19865316327E+03 -0.35862923000E+03  0.79107973060E+03  0.89100233123E+03  0.10100000352E+00 0. -1.
       -3    1    3    3    0  502 -0.19865316327E+03  0.35862923000E+03 -0.56512345198E+03  0.69817084590E+03  0.10100000352E+00 0.  1.
</event>
<event>
 5   0  0.1414751E-03  0.1601244E+04  0.7818609E-02  0.8819784E-01
        2   -1    0    0  501    0  0.00000000000E+00  0.00000000000E+00  0.77518171373E+03  0.77518171373E+03  0.25500000920E-02 0. -1.
       -2   -1    0    0    0  501  0.00000000000E+00  0.00000000000E+00 -0.82689761306E+03  0.82689761307E+03  0.25500000920E-02 0.  1.
    10030    2    1    2    0    0  0.00000000000E+00  0.00000000000E+00 -0.51715899334E+02  0.16020793268E+04  0.16012444021E+04 0.  0.
        2    1    3    3  502    0  0.74702214001E+03  0.24133786100E+03 -0.18313364147E+03  0.80611659917E+03  0.25500000920E-02 0.  1.
       -2    1    3    3    0  502 -0.74702214001E+03 -0.24133786100E+03  0.13141774214E+03  0.79596272763E+03  0.25500000920E-02 0. -1.
</event>
<event>
 5   0  0.7302027E-04  0.1584268E+04  0.7818609E-02  0.8830272E-01
       -1   -1    0    0    0  501  0.00000000000E+00  0.00000000000E+00  0.64415595208E+03  0.64415595210E+03  0.50400001928E-02 0. -1.
        1   -1    0    0  501    0  0.00000000000E+00  0.00000000000E+00 -0.97410599511E+03  0.97410599512E+03  0.50400001928E-02 0.  1.
    10030    2    1    2    0    0  0.00000000000E+00  0.00000000000E+00 -0.32995004302E+03  0.16182619472E+04  0.15842678747E+04 0.  0.
        5    1    3    3  502    0 -0.59558116264E+01 -0.46608127824E+03 -0.81917582861E+03  0.94251703316E+03  0.46999998093E+01 0.  1.
       -5    1    3    3    0  502  0.59558116264E+01  0.46608127824E+03  0.48922578558E+03  0.67574491407E+03  0.46999998093E+01 0. -1.
</event>
<event>
 5   0  0.7124495E-04  0.1565356E+04  0.7818609E-02  0.8842118E-01
        1   -1    0    0  501    0  0.00000000000E+00  0.00000000000E+00  0.66395462554E+03  0.66395462556E+03  0.50400001928E-02 0.  1.
       -1   -1    0    0    0  501  0.00000000000E+00  0.00000000000E+00 -0.92263064313E+03  0.92263064315E+03  0.50400001928E-02 0. -1.
    10030    2    1    2    0    0  0.00000000000E+00  0.00000000000E+00 -0.25867601759E+03  0.15865852687E+04  0.15653560403E+04 0.  0.
        2    1    3    3  502    0  0.56545908824E+03 -0.53609867645E+03 -0.20408853913E+03  0.80547992102E+03  0.25500000920E-02 0.  1.
       -2    1    3    3    0  502 -0.56545908824E+03  0.53609867645E+03 -0.54587478463E+02  0.78110534768E+03  0.25500000920E-02 0. -1.
</event>
<event>
 5   0  0.7302027E-04  0.1671744E+04  0.7818609E-02  0.8777646E-01
       -1   -1    0    0    0  501  0.00000000000E+00  0.00000000000E+00  0.11299542328E+04  0.11299542328E+04  0.50400001928E-02 0. -1.
        1   -1    0    0  501    0  0.00000000000E+00  0.00000000000E+00 -0.61832748192E+03  0.61832748194E+03  0.50400001928E-02 0.  1.
    10030    2    1    2    0    0  0.00000000000E+00  0.00000000000E+00  0.51162675083E+03  0.17482817147E+04  0.16717437070E+04 0.  0.
        5    1    3    3  502    0 -0.42549440805E+03 -0.23102436564E+02  0.10078184617E+04  0.10942117508E+04  0.46999998093E+01 0. -1.
       -5    1    3    3    0  502  0.42549440805E+03  0.23102436564E+02 -0.49619171082E+03  0.65406996395E+03  0.46999998093E+01 0.  1.
</event>
<event>
 5   0  0.1339162E-03  0.1792441E+04  0.7818609E-02  0.8710330E-01
        2   -1    0    0  501    0  0.00000000000E+00  0.00000000000E+00  0.10255907906E+04  0.10255907906E+04  0.25500000920E-02 0. -1.
       -2   -1    0    0    0  501  0.00000000000E+00  0.00000000000E+00 -0.78316933872E+03  0.78316933873E+03  0.25500000920E-02 0.  1.
    10030    2    1    2    0    0  0.00000000000E+00  0.00000000000E+00  0.24242145184E+03  0.18087601293E+04  0.17924410855E+04 0.  0.
        5    1    3    3  502    0 -0.35529153640E+03  0.77501682753E+03 -0.15753965257E+03  0.86702017907E+03  0.46999998093E+01 0. -1.
       -5    1    3    3    0  502  0.35529153640E+03 -0.77501682753E+03  0.39996110441E+03  0.94173995021E+03  0.46999998093E+01 0.  1.
</event>
<event>
 5   0  0.7302027E-04  0.1560036E+04  0.7818609E-02  0.8845482E-01
        1   -1    0    0  501    0  0.00000000000E+00  0.00000000000E+00  0.90390632489E+03  0.90390632490E+03  0.50400001928E-02 0.  1.
       -1   -1    0    0    0  501  0.00000000000E+00  0.00000000000E+00 -0.67310991838E+03  0.67310991840E+03  0.50400001928E-02 0. -1.
    10030    2    1    2    0    0  0.00000000000E+00  0.00000000000E+00  0.23079640651E+03  0.15770162433E+04  0.15600362978E+04 0.  0.
        5    1    3    3  502    0 -0.48926751451E+03  0.55888320901E+03 -0.12525401718E+03  0.75328865709E+03  0.46999998093E+01 0.  1.
       -5    1    3    3    0  502  0.48926751451E+03 -0.55888320901E+03  0.35605042369E+03  0.82372758621E+03  0.46999998093E+01 0. -1.
</event>
<event>
 5   0  0.1375777E-03  0.1601466E+04  0.7818609E-02  0.8819648E-01
        2   -1    0    0  501    0  0.00000000000E+00  0.00000000000E+00  0.87798749470E+03  0.87798749470E+03  0.25500000920E-02 0. -1.
       -2   -1    0    0    0  501  0.00000000000E+00  0.00000000000E+00 -0.73027589380E+03  0.73027589381E+03  0.25500000920E-02 0.  1.
    10030    2    1    2    0    0  0.00000000000E+00  0.00000000000E+00  0.14771160090E+03  0.16082633885E+04  0.16014657067E+04 0.  0.
        1    1    3    3  502    0 -0.38002326052E+03  0.38961093376E+03 -0.51596911120E+03  0.74995898687E+03  0.50400001928E-02 0.  1.
       -1    1    3    3    0  502  0.38002326052E+03 -0.38961093376E+03  0.66368071210E+03  0.85830440164E+03  0.50400001928E-02 0. -1.
</event>
<event>
 5   0  0.1339162E-03  0.1594995E+04  0.7818609E-02  0.8823629E-01
       -2   -1    0    0    0  501  0.00000000000E+00  0.00000000000E+00  0.35865410876E+03  0.35865410877E+03  0.25500000920E-02 0. -1.
        2   -1    0    0  501    0  0.00000000000E+00  0.00000000000E+00 -0.17733026925E+04  0.17733026925E+04  0.25500000920E-02 0.  1.
    10030    2    1    2    0    0  0.00000000000E+00  0.00000000000E+00 -0.14146485838E+04  0.21319568013E+04  0.15949950430E+04 0.  0.
        5    1    3    3  502    0 -0.69252763474E+02 -0.22283751165E+03 -0.17266295580E+04  0.17423329826E+04  0.46999998093E+01 0.  1.
       -5    1    3    3    0  502  0.69252763474E+02  0.22283751165E+03  0.31198097419E+03  0.38962381870E+03  0.46999998093E+01 0. -1.
</event>
<event>
 5   0  0.1339162E-03  0.1478072E+04  0.7818609E-02  0.8899167E-01
        2   -1    0    0  501    0  0.00000000000E+00  0.00000000000E+00  0.21273810425E+04  0.21273810425E+04  0.25500000920E-02 0. -1.
       -2   -1    0    0    0  501  0.00000000000E+00  0.00000000000E+00 -0.25673542811E+03  0.25673542812E+03  0.25500000920E-02 0.  1.
    10030    2    1    2    0    0  0.00000000000E+00  0.00000000000E+00  0.18706456144E+04  0.23841164706E+04  0.14780718287E+04 0.  0.
        5    1    3    3  502    0 -0.70259498931E+03 -0.12465432379E+03  0.12454769886E+04  0.14354140304E+04  0.46999998093E+01 0. -1.
       -5    1    3    3    0  502  0.70259498931E+03  0.12465432379E+03  0.62516862575E+03  0.94870244021E+03  0.46999998093E+01 0.  1.
</event>
<event>
 5   0  0.7302027E-04  0.1589996E+04  0.7818609E-02  0.8826717E-01
        1   -1    0    0  501    0  0.00000000000E+00  0.00000000000E+00  0.16478882277E+04  0.16478882277E+04  0.50400001928E-02 0. -1.
       -1   -1    0    0    0  501  0.00000000000E+00  0.00000000000E+00 -0.38353445358E+03  0.38353445361E+03  0.50400001928E-02 0.  1.
    10030    2    1    2    0    0  0.00000000000E+00  0.00000000000E+00  0.12643537741E+04  0.20314226813E+04  0.15899961145E+04 0.  0.
        5    1    3    3  502    0 -0.21096861613E+03  0.50318133690E+03 -0.10653113651E+03  0.55594081326E+03  0.46999998093E+01 0.  1.
       -5    1    3    3    0  502  0.21096861613E+03 -0.50318133690E+03  0.13708849106E+04  0.14754818681E+04  0.46999998093E+01 0. -1.
</event>
<event>
 5   0  0.7302027E-04  0.1369419E+04  0.7818609E-02  0.8976257E-01
        1   -1    0    0  501    0  0.00000000000E+00  0.00000000000E+00  0.10628927094E+04  0.10628927094E+04  0.50400001928E-02 0.  1.
       -1   -1    0    0    0  501  0.00000000000E+00  0.00000000000E+00 -0.44108617667E+03  0.44108617670E+03  0.50400001928E-02 0. -1.
    10030    2    1    2    0    0  0.00000000000E+00  0.00000000000E+00  0.62180653276E+03  0.15039788861E+04  0.13694192659E+04 0.  0.
        5    1    3    3  502    0  0.67676094125E+03  0.46805831697E+02  0.41280522145E+03  0.79411988915E+03  0.46999998093E+01 0.  1.
       -5    1    3    3    0  502 -0.67676094125E+03 -0.46805831697E+02  0.20900131130E+03  0.70985899699E+03  0.46999998093E+01 0. -1.
</event>
<event>
 5   0  0.1339162E-03  0.1639709E+04  0.7818609E-02  0.8796518E-01
       -2   -1    0    0    0  501  0.00000000000E+00  0.00000000000E+00  0.42912955707E+03  0.42912955708E+03  0.25500000920E-02 0. -1.
        2   -1    0    0  501    0  0.00000000000E+00  0.00000000000E+00 -0.15663374393E+04  0.15663374393E+04  0.25500000920E-02 0.  1.
    10030    2    1    2    0    0  0.00000000000E+00  0.00000000000E+00 -0.11372078822E+04  0.19954669963E+04  0.16397093542E+04 0.  0.
        5    1    3    3  502    0 -0.49370132662E+03 -0.21698003621E+03 -0.13200909538E+04  0.14260026481E+04  0.46999998093E+01 0.  1.
       -5    1    3    3    0  502  0.49370132662E+03  0.21698003621E+03  0.18288307164E+03  0.56946434823E+03  0.46999998093E+01 0. -1.
</event>
<event>
 5   0  0.7601145E-04  0.1596234E+04  0.7818609E-02  0.8822865E-01
       -1   -1    0    0    0  501  0.00000000000E+00  0.00000000000E+00  0.57967303329E+03  0.57967303332E+03  0.50400001928E-02 0. -1.
        1   -1    0    0  501    0  0.00000000000E+00  0.00000000000E+00 -0.10988800698E+04  0.10988800698E+04  0.50400001928E-02 0.  1.
    10030    2    1    2    0    0  0.00000000000E+00  0.00000000000E+00 -0.51920703651E+03  0.16785531031E+04  0.15962344982E+04 0.  0.
        4    1    3    3  502    0  0.28439952516E+03 -0.24802241503E+03 -0.99914346673E+03  0.10680297226E+04  0.12699999809E+01 0.  1.
       -4    1    3    3    0  502 -0.28439952516E+03  0.24802241503E+03  0.47993643022E+03  0.61052338057E+03  0.12699999809E+01 0. -1.
</event>
<event>
 5   0  0.1375777E-03  0.1620933E+04  0.7818609E-02  0.8807790E-01
       -2   -1    0    0    0  501  0.00000000000E+00  0.00000000000E+00  0.61132350481E+03  0.61132350482E+03  0.25500000920E-02 0.  1.
        2   -1    0    0  501    0  0.00000000000E+00  0.00000000000E+00 -0.10744815320E+04  0.10744815320E+04  0.25500000920E-02 0. -1.
    10030    2    1    2    0    0  0.00000000000E+00  0.00000000000E+00 -0.46315802719E+03  0.16858050368E+04  0.16209328376E+04 0.  0.
        1    1    3    3  502    0 -0.48340589377E+03  0.64267399976E+03 -0.33633085633E+03  0.87168203667E+03  0.50400001928E-02 0. -1.
       -1    1    3    3    0  502  0.48340589377E+03 -0.64267399976E+03 -0.12682717086E+03  0.81412300016E+03  0.50400001928E-02 0.  1.
</event>
<event>
 5   0  0.7302027E-04  0.1487549E+04  0.7818609E-02  0.8892775E-01
        1   -1    0    0  501    0  0.00000000000E+00  0.00000000000E+00  0.50911190425E+03  0.50911190428E+03  0.50400001928E-02 0. -1.
       -1   -1    0    0    0  501  0.00000000000E+00  0.00000000000E+00 -0.10865993991E+04  0.10865993991E+04  0.50400001928E-02 0.  1.
    10030    2    1    2    0    0  0.00000000000E+00  0.00000000000E+00 -0.57748749484E+03  0.15957113034E+04  0.14875492453E+04 0.  0.
        5    1    3    3  502    0 -0.32107043545E+02  0.74172431536E+03 -0.24085733269E+03  0.78052557098E+03  0.46999998093E+01 0.  1.
       -5    1    3    3    0  502  0.32107043545E+02 -0.74172431536E+03 -0.33663016215E+03  0.81518573240E+03  0.46999998093E+01 0. -1.
</event>
<event>
 5   0  0.7633213E-04  0.1604605E+04  0.7818609E-02  0.8817724E-01
       -1   -1    0    0    0  501  0.00000000000E+00  0.00000000000E+00  0.11809039933E+04  0.11809039934E+04  0.50400001928E-02 0.  1.
        1   -1    0    0  501    0  0.00000000000E+00  0.00000000000E+00 -0.54508192715E+03  0.54508192718E+03  0.50400001928E-02 0. -1.
    10030    2    1    2    0    0  0.00000000000E+00  0.00000000000E+00  0.63582206619E+03  0.17259859205E+04  0.16046051533E+04 0.  0.
        1    1    3    3  502    0 -0.59677936832E+03  0.31779626926E+03 -0.14667476098E+03  0.69184793759E+03  0.50400001928E-02 0. -1.
       -1    1    3    3    0  502  0.59677936832E+03 -0.31779626926E+03  0.78249682717E+03  0.10341379829E+04  0.50400001928E-02 0.  1.
</event>
<event>
 5   0  0.7633213E-04  0.1585659E+04  0.7818609E-02  0.8829407E-01
       -1   -1    0    0    0  501  0.00000000000E+00  0.00000000000E+00  0.43562813946E+03  0.43562813949E+03  0.50400001928E-02 0. -1.
        1   -1    0    0  501    0  0.00000000000E+00  0.00000000000E+00 -0.14429251551E+04  0.14429251551E+04  0.50400001928E-02 0.  1.
    10030    2    1    2    0    0  0.00000000000E+00  0.00000000000E+00 -0.10072970156E+04  0.18785532946E+04  0.15856592329E+04 0.  0.
        1    1    3    3  502    0 -0.10280771625E+03  0.28538472182E+02  0.42708389681E+03  0.44020963853E+03  0.50400001928E-02 0. -1.
       -1    1    3    3    0  502  0.10280771625E+03 -0.28538472182E+02 -0.14343809124E+04  0.14383436560E+04  0.50400001928E-02 0.  1.
</event>
<event>
 5   0  0.7601145E-04  0.1600432E+04  0.7818609E-02  0.8820283E-01
       -1   -1    0    0    0  501  0.00000000000E+00  0.00000000000E+00  0.47558400126E+03  0.47558400129E+03  0.50400001928E-02 0. -1.
        1   -1    0    0  501    0  0.00000000000E+00  0.00000000000E+00 -0.13464408767E+04  0.13464408767E+04  0.50400001928E-02 0.  1.
    10030    2    1    2    0    0  0.00000000000E+00  0.00000000000E+00 -0.87085687543E+03  0.18220248780E+04  0.16004321162E+04 0.  0.
        4    1    3    3  502    0 -0.13341931724E+03  0.32946084040E+03  0.38077452682E+03  0.52089923473E+03  0.12699999809E+01 0. -1.
       -4    1    3    3    0  502  0.13341931724E+03 -0.32946084040E+03 -0.12516314023E+04  0.13011256433E+04  0.12699999809E+01 0.  1.
</event>
<event>
 5   0  0.1414796E-03  0.1567615E+04  0.7818609E-02  0.8840694E-01
        2   -1    0    0  501    0  0.00000000000E+00  0.00000000000E+00  0.17005521206E+04  0.17005521206E+04  0.25500000920E-02 0. -1.
       -2   -1    0    0    0  501  0.00000000000E+00  0.00000000000E+00 -0.36126760302E+03  0.36126760303E+03  0.25500000920E-02 0.  1.
    10030    2    1    2    0    0  0.00000000000E+00  0.00000000000E+00  0.13392845176E+04  0.20618197236E+04  0.15676152442E+04 0.  0.
        4    1    3    3  502    0 -0.62280319581E+02  0.19635340459E+03  0.16643112512E+04  0.16770113451E+04  0.12699999809E+01 0. -1.
       -4    1    3    3    0  502  0.62280319581E+02 -0.19635340459E+03 -0.32502673365E+03  0.38480837853E+03  0.12699999809E+01 0.  1.
</event>
<event>
 5   0  0.1354766E-03  0.1637602E+04  0.7818609E-02  0.8797775E-01
       -2   -1    0    0    0  501  0.00000000000E+00  0.00000000000E+00  0.43530796232E+03  0.43530796233E+03  0.25500000920E-02 0.  1.
        2   -1    0    0  501    0  0.00000000000E+00  0.00000000000E+00 -0.15401393737E+04  0.15401393737E+04  0.25500000920E-02 0. -1.
    10030    2    1    2    0    0  0.00000000000E+00  0.00000000000E+00 -0.11048314114E+04  0.19754473361E+04  0.16376018228E+04 0.  0.
        3    1    3    3  502    0 -0.63716686596E+03 -0.69007024505E+02 -0.11671477821E+04  0.13315320274E+04  0.10100000352E+00 0. -1.
       -3    1    3    3    0  502  0.63716686596E+03  0.69007024505E+02  0.62316370675E+02  0.64391530869E+03  0.10100000352E+00 0.  1.
</event>
<event>
 5   0  0.7601145E-04  0.1624050E+04  0.7818609E-02  0.8805908E-01
       -1   -1    0    0    0  501  0.00000000000E+00  0.00000000000E+00  0.44469523755E+03  0.44469523758E+03  0.50400001928E-02 0.  1.
        1   -1    0    0  501    0  0.00000000000E+00  0.00000000000E+00 -0.14827788290E+04  0.14827788290E+04  0.50400001928E-02 0. -1.
    10030    2    1    2    0    0  0.00000000000E+00  0.00000000000E+00 -0.10380835915E+04  0.19274740666E+04  0.16240501022E+04 0.  0.
        4    1    3    3  502    0  0.20778615241E+03  0.51968891122E+03  0.17920609602E+03  0.58768025944E+03  0.12699999809E+01 0.  1.
       -4    1    3    3    0  502 -0.20778615241E+03 -0.51968891122E+03 -0.12172896875E+04  0.13397938072E+04  0.12699999809E+01 0. -1.
</event>
<event>
 5   0  0.1339162E-03  0.1209579E+04  0.7818609E-02  0.9104513E-01
       -2   -1    0    0    0  501  0.00000000000E+00  0.00000000000E+00  0.55994403345E+03  0.55994403345E+03  0.25500000920E-02 0. -1.
        2   -1    0    0  501    0  0.00000000000E+00  0.00000000000E+00 -0.65322702444E+03  0.65322702444E+03  0.25500000920E-02 0.  1.
    10030    2    1    2    0    0  0.00000000000E+00  0.00000000000E+00 -0.93282990990E+02  0.12131710579E+04  0.12095793894E+04 0.  0.
        5    1    3    3  502    0 -0.11291328356E+03  0.21885903187E+03  0.50735704930E+03  0.56398754499E+03  0.46999998093E+01 0. -1.
       -5    1    3    3    0  502  0.11291328356E+03 -0.21885903187E+03 -0.60064004029E+03  0.64918351291E+03  0.46999998093E+01 0.  1.
</event>
<event>
 5   0  0.1354766E-03  0.1592685E+04  0.7818609E-02  0.8825055E-01
        2   -1    0    0  501    0  0.00000000000E+00  0.00000000000E+00  0.60425081028E+03  0.60425081028E+03  0.25500000920E-02 0. -1.
       -2   -1    0    0    0  501  0.00000000000E+00  0.00000000000E+00 -0.10495001738E+04  0.10495001738E+04  0.25500000920E-02 0.  1.
    10030    2    1    2    0    0  0.00000000000E+00  0.00000000000E+00 -0.44524936355E+03  0.16537509841E+04  0.15926849411E+04 0.  0.
        3    1    3    3  502    0 -0.53748356182E+03  0.51667158170E+03 -0.51321791844E+03  0.90511366390E+03  0.10100000352E+00 0.  1.
       -3    1    3    3    0  502  0.53748356182E+03 -0.51667158170E+03  0.67968554888E+02  0.74863732021E+03  0.10100000352E+00 0. -1.
</event>
<event>
 5   0  0.1414796E-03  0.1579370E+04  0.7818609E-02  0.8833323E-01
       -2   -1    0    0    0  501  0.00000000000E+00  0.00000000000E+00  0.38854508415E+03  0.38854508416E+03  0.25500000920E-02 0.  1.
        2   -1    0    0  501    0  0.00000000000E+00  0.00000000000E+00 -0.16049670328E+04  0.16049670328E+04  0.25500000920E-02 0. -1.
    10030    2    1    2    0    0  0.00000000000E+00  0.00000000000E+00 -0.12164219486E+04  0.19935121169E+04  0.15793695588E+04 0.  0.
        4    1    3    3  502    0 -0.52687035827E+03 -0.48300878448E+02  0.13175055849E+03  0.54523863753E+03  0.12699999809E+01 0.  1.
       -4    1    3    3    0  502  0.52687035827E+03  0.48300878448E+02 -0.13481725071E+04  0.14482734794E+04  0.12699999809E+01 0. -1.
</event>
<event>
 5   0  0.1414751E-03  0.1636261E+04  0.7818609E-02  0.8798576E-01
       -2   -1    0    0    0  501  0.00000000000E+00  0.00000000000E+00  0.72117034046E+03  0.72117034046E+03  0.25500000920E-02 0.  1.
        2   -1    0    0  501    0  0.00000000000E+00  0.00000000000E+00 -0.92812726132E+03  0.92812726132E+03  0.25500000920E-02 0. -1.
    10030    2    1    2    0    0  0.00000000000E+00  0.00000000000E+00 -0.20695692086E+03  0.16492976018E+04  0.16362614131E+04 0.  0.
        2    1    3    3  502    0 -0.35332079752E+03  0.72689333644E+02 -0.84364379612E+03  0.91752611948E+03  0.25500000920E-02 0. -1.
       -2    1    3    3    0  502  0.35332079752E+03 -0.72689333644E+02  0.63668687526E+03  0.73177148231E+03  0.25500000920E-02 0.  1.
</event>
<event>
 5   0  0.1414751E-03  0.1587295E+04  0.7818609E-02  0.8828391E-01
       -2   -1    0    0    0  501  0.00000000000E+00  0.00000000000E+00  0.10716010799E+04  0.10716010799E+04  0.25500000920E-02 0.  1.
        2   -1    0    0  501    0  0.00000000000E+00  0.00000000000E+00 -0.58779009552E+03  0.58779009552E+03  0.25500000920E-02 0. -1.
    10030    2    1    2    0    0  0.00000000000E+00  0.00000000000E+00  0.48381098439E+03  0.16593911754E+04  0.15872951850E+04 0.  0.
        2    1    3    3  502    0 -0.42251321114E+03 -0.60938976333E+03 -0.53790043031E+02  0.74348279468E+03  0.25500000920E-02 0. -1.
       -2    1    3    3    0  502  0.42251321114E+03  0.60938976333E+03  0.53760102742E+03  0.91590838075E+03  0.25500000920E-02 0.  1.
</event>
<event>
 5   0  0.1414751E-03  0.1577437E+04  0.7818609E-02  0.8834530E-01
       -2   -1    0    0    0  501  0.00000000000E+00  0.00000000000E+00  0.39676125087E+03  0.39676125088E+03  0.25500000920E-02 0. -1.
        2   -1    0    0  501    0  0.00000000000E+00  0.00000000000E+00 -0.15678871654E+04  0.15678871654E+04  0.25500000920E-02 0.  1.
    10030    2    1    2    0    0  0.00000000000E+00  0.00000000000E+00 -0.11711259145E+04  0.19646484163E+04  0.15774370009E+04 0.  0.
        2    1    3    3  502    0  0.24326833549E+03  0.64290784479E+03 -0.10672340187E+04  0.12694480811E+04  0.25500000920E-02 0.  1.
       -2    1    3    3    0  502 -0.24326833549E+03 -0.64290784479E+03 -0.10389189578E+03  0.69520033513E+03  0.25500000920E-02 0. -1.
</event>
<event>
 5   0  0.1354766E-03  0.1620131E+04  0.7818609E-02  0.8808276E-01
        2   -1    0    0  501    0  0.00000000000E+00  0.00000000000E+00  0.16872023238E+04  0.16872023238E+04  0.25500000920E-02 0.  1.
       -2   -1    0    0    0  501  0.00000000000E+00  0.00000000000E+00 -0.38893127086E+03  0.38893127087E+03  0.25500000920E-02 0. -1.
    10030    2    1    2    0    0  0.00000000000E+00  0.00000000000E+00  0.12982710530E+04  0.20761335947E+04  0.16201305429E+04 0.  0.
        3    1    3    3  502    0 -0.42792122669E+03 -0.11359908782E+03  0.15184386396E+04  0.15816691314E+04  0.10100000352E+00 0.  1.
       -3    1    3    3    0  502  0.42792122669E+03  0.11359908782E+03 -0.22016758662E+03  0.49446446324E+03  0.10100000352E+00 0. -1.
</event>
<event>
 5   0  0.1414796E-03  0.1595846E+04  0.7818609E-02  0.8823104E-01
        2   -1    0    0  501    0  0.00000000000E+00  0.00000000000E+00  0.11638202260E+04  0.11638202260E+04  0.25500000920E-02 0. -1.
       -2   -1    0    0    0  501  0.00000000000E+00  0.00000000000E+00 -0.54706148547E+03  0.54706148547E+03  0.25500000920E-02 0.  1.
    10030    2    1    2    0    0  0.00000000000E+00  0.00000000000E+00  0.61675874058E+03  0.17108817115E+04  0.15958461350E+04 0.  0.
        4    1    3    3  502    0 -0.59646124714E+03  0.18107655096E+03  0.84240748037E+03  0.10479535832E+04  0.12699999809E+01 0. -1.
       -4    1    3    3    0  502  0.59646124714E+03 -0.18107655096E+03 -0.22564873979E+03  0.66292812832E+03  0.12699999809E+01 0.  1.
</event>
<event>
 5   0  0.1375777E-03  0.9138966E+03  0.7818609E-02  0.9408375E-01
        2   -1    0    0  501    0  0.00000000000E+00  0.00000000000E+00  0.74078274123E+03  0.74078274123E+03  0.25500000920E-02 0. -1.
       -2   -1    0    0    0  501  0.00000000000E+00  0.00000000000E+00 -0.28186636706E+03  0.28186636707E+03  0.25500000920E-02 0.  1.
    10030    2    1    2    0    0  0.00000000000E+00  0.00000000000E+00  0.45891637417E+03  0.10226491083E+04  0.91389658071E+03 0.  0.
        1    1    3    3  502    0 -0.31593706925E+03 -0.31089799519E+03  0.10521432760E+03  0.45556980793E+03  0.50400001928E-02 0.  1.
       -1    1    3    3    0  502  0.31593706925E+03  0.31089799519E+03  0.35370204657E+03  0.56707930037E+03  0.50400001928E-02 0. -1.
</event>
<event>
 5   0  0.7633213E-04  0.1619466E+04  0.7818609E-02  0.8808678E-01
        1   -1    0    0  501    0  0.00000000000E+00  0.00000000000E+00  0.56060547948E+03  0.56060547950E+03  0.50400001928E-02 0.  1.
       -1   -1    0    0    0  501  0.00000000000E+00  0.00000000000E+00 -0.11695702241E+04  0.11695702241E+04  0.50400001928E-02 0. -1.
    10030    2    1    2    0    0  0.00000000000E+00  0.00000000000E+00 -0.60896474465E+03  0.17301757036E+04  0.16194659321E+04 0.  0.
        1    1    3    3  502    0  0.24845446142E+03  0.13951686912E+03  0.50527174665E+03  0.58008112721E+03  0.50400001928E-02 0.  1.
       -1    1    3    3    0  502 -0.24845446142E+03 -0.13951686912E+03 -0.11142364913E+04  0.11500945764E+04  0.50400001928E-02 0. -1.
</event>
<event>
 5   0  0.7499834E-04  0.1616769E+04  0.7818609E-02  0.8810312E-01
        1   -1    0    0  501    0  0.00000000000E+00  0.00000000000E+00  0.74672500136E+03  0.74672500138E+03  0.50400001928E-02 0. -1.
       -1   -1    0    0    0  501  0.00000000000E+00  0.00000000000E+00 -0.87513496516E+03  0.87513496517E+03  0.50400001928E-02 0.  1.
    10030    2    1    2    0    0  0.00000000000E+00  0.00000000000E+00 -0.12840996379E+03  0.16218599666E+04  0.16167685772E+04 0.  0.
        3    1    3    3  502    0  0.66378127911E+03 -0.10728249918E+03  0.38595087805E+03  0.77528911485E+03  0.10100000352E+00 0. -1.
       -3    1    3    3    0  502 -0.66378127911E+03  0.10728249918E+03 -0.51436084184E+03  0.84657085170E+03  0.10100000352E+00 0.  1.
</event>
<event>
 5   0  0.7633213E-04  0.1601044E+04  0.7818609E-02  0.8819907E-01
       -1   -1    0    0    0  501  0.00000000000E+00  0.00000000000E+00  0.65569146684E+03  0.65569146685E+03  0.50400001928E-02 0. -1.
        1   -1    0    0  501    0  0.00000000000E+00  0.00000000000E+00 -0.97734295607E+03  0.97734295608E+03  0.50400001928E-02 0.  1.
    10030    2    1    2    0    0  0.00000000000E+00  0.00000000000E+00 -0.32165148923E+03  0.16330344229E+04  0.16010439550E+04 0.  0.
        1    1    3    3  502    0 -0.12662881784E+03  0.60996195446E+02  0.64300732937E+03  0.65818980470E+03  0.50400001928E-02 0. -1.
       -1    1    3    3    0  502  0.12662881784E+03 -0.60996195446E+02 -0.96465881860E+03  0.97484461823E+03  0.50400001928E-02 0.  1.
</event>
<event>
 5   0  0.1414796E-03  0.1565148E+04  0.7818609E-02  0.8842249E-01
       -2   -1    0    0    0  501  0.00000000000E+00  0.00000000000E+00  0.54060442341E+03  0.54060442341E+03  0.25500000920E-02 0.  1.
        2   -1    0    0  501    0  0.00000000000E+00  0.00000000000E+00 -0.11328473598E+04  0.11328473598E+04  0.25500000920E-02 0. -1.
    10030    2    1    2    0    0  0.00000000000E+00  0.00000000000E+00 -0.59224293635E+03  0.16734517832E+04  0.15651482917E+04 0.  0.
        4    1    3    3  502    0 -0.19525002497E+02  0.61312605373E+02  0.53777005503E+03  0.54160752052E+03  0.12699999809E+01 0.  1.
       -4    1    3    3    0  502  0.19525002497E+02 -0.61312605373E+02 -0.11300129914E+04  0.11318442627E+04  0.12699999809E+01 0. -1.
</event>
<event>
 5   0  0.1414751E-03  0.1879314E+04  0.7818609E-02  0.8665222E-01
       -2   -1    0    0    0  501  0.00000000000E+00  0.00000000000E+00  0.11106036764E+04  0.11106036764E+04  0.25500000920E-02 0.  1.
        2   -1    0    0  501    0  0.00000000000E+00  0.00000000000E+00 -0.79502310186E+03  0.79502310187E+03  0.25500000920E-02 0. -1.
    10030    2    1    2    0    0  0.00000000000E+00  0.00000000000E+00  0.31558057453E+03  0.19056267783E+04  0.18793143215E+04 0.  0.
        2    1    3    3  502    0 -0.74327150789E+03 -0.40579790717E+03  0.57071551732E+03  0.10211957098E+04  0.25500000920E-02 0.  1.
       -2    1    3    3    0  502  0.74327150789E+03  0.40579790717E+03 -0.25513494279E+03  0.88443106851E+03  0.25500000920E-02 0. -1.
</event>
<event>
 5   0  0.1414751E-03  0.1236028E+04  0.7818609E-02  0.9081893E-01
        2   -1    0    0  501    0  0.00000000000E+00  0.00000000000E+00  0.48622984294E+03  0.48622984295E+03  0.25500000920E-02 0. -1.
       -2   -1    0    0    0  501  0.00000000000E+00  0.00000000000E+00 -0.78551643474E+03  0.78551643474E+03  0.25500000920E-02 0.  1.
    10030    2    1    2    0    0  0.00000000000E+00  0.00000000000E+00 -0.29928659180E+03  0.12717462777E+04  0.12360283697E+04 0.  0.
        2    1    3    3  502    0  0.26206563000E+03 -0.12745033836E+02 -0.72536692875E+03  0.77136114216E+03  0.25500000920E-02 0.  1.
       -2    1    3    3    0  502 -0.26206563000E+03  0.12745033836E+02  0.42608033695E+03  0.50038513553E+03  0.25500000920E-02 0. -1.
</event>
<event>
 5   0  0.1375777E-03  0.1526419E+04  0.7818609E-02  0.8867072E-01
        2   -1    0    0  501    0  0.00000000000E+00  0.00000000000E+00  0.16580725220E+04  0.16580725220E+04  0.25500000920E-02 0. -1.
       -2   -1    0    0    0  501  0.00000000000E+00  0.00000000000E+00 -0.35130479781E+03  0.35130479782E+03  0.25500000920E-02 0.  1.
    10030    2    1    2    0    0  0.00000000000E+00  0.00000000000E+00  0.13067677242E+04  0.20093773198E+04  0.15264191195E+04 0.  0.
        1    1    3    3  502    0 -0.22003610947E+03  0.41150646903E+03  0.14484012702E+04  0.15217160389E+04  0.50400001928E-02 0. -1.
       -1    1    3    3    0  502  0.22003610947E+03 -0.41150646903E+03 -0.14163354601E+03  0.48766128092E+03  0.50400001928E-02 0.  1.
</event>
<event>
 5   0  0.1339162E-03  0.1619065E+04  0.7818609E-02  0.8808921E-01
        2   -1    0    0  501    0  0.00000000000E+00  0.00000000000E+00  0.20966111990E+04  0.20966111990E+04  0.25500000920E-02 0. -1.
       -2   -1    0    0    0  501  0.00000000000E+00  0.00000000000E+00 -0.31257225530E+03  0.31257225531E+03  0.25500000920E-02 0.  1.
    10030    2    1    2    0    0  0.00000000000E+00  0.00000000000E+00  0.17840389437E+04  0.24091834544E+04  0.16190645336E+04 0.  0.
        5    1    3    3  502    0 -0.22478473629E+03 -0.58364802573E+03  0.12725320637E+03  0.63827005581E+03  0.46999998093E+01 0.  1.
       -5    1    3    3    0  502  0.22478473629E+03  0.58364802573E+03  0.16567857374E+04  0.17709133985E+04  0.46999998093E+01 0. -1.
</event>
<event>
 5   0  0.7124495E-04  0.1580688E+04  0.7818609E-02  0.8832501E-01
        1   -1    0    0  501    0  0.00000000000E+00  0.00000000000E+00  0.14239095091E+04  0.14239095091E+04  0.50400001928E-02 0.  1.
       -1   -1    0    0    0  501  0.00000000000E+00  0.00000000000E+00 -0.43868209790E+03  0.43868209793E+03  0.50400001928E-02 0. -1.
    10030    2    1    2    0    0  0.00000000000E+00  0.00000000000E+00  0.98522741120E+03  0.18625916070E+04  0.15806879650E+04 0.  0.
        2    1    3    3  502    0  0.49007075125E+03 -0.62003681482E+03  0.49891731311E+03  0.93463012914E+03  0.25500000920E-02 0. -1.
       -2    1    3    3    0  502 -0.49007075125E+03  0.62003681482E+03  0.48631009809E+03  0.92796147790E+03  0.25500000920E-02 0.  1.
</event>
<event>
 5   0  0.7499834E-04  0.1595950E+04  0.7818609E-02  0.8823040E-01
        1   -1    0    0  501    0  0.00000000000E+00  0.00000000000E+00  0.16794475418E+04  0.16794475418E+04  0.50400001928E-02 0. -1.
       -1   -1    0    0    0  501  0.00000000000E+00  0.00000000000E+00 -0.37915106243E+03  0.37915106246E+03  0.50400001928E-02 0.  1.
    10030    2    1    2    0    0  0.00000000000E+00  0.00000000000E+00  0.13002964794E+04  0.20585986043E+04  0.15959502747E+04 0.  0.
        3    1    3    3  502    0  0.32268065878E+03 -0.14519217528E+03  0.15727216195E+04  0.16120350114E+04  0.10100000352E+00 0. -1.
       -3    1    3    3    0  502 -0.32268065878E+03  0.14519217528E+03 -0.27242514013E+03  0.44656359288E+03  0.10100000352E+00 0.  1.
</event>
<event>
 5   0  0.7633213E-04  0.1583215E+04  0.7818609E-02  0.8830927E-01
       -1   -1    0    0    0  501  0.00000000000E+00  0.00000000000E+00  0.60006011957E+03  0.60006011960E+03  0.50400001928E-02 0. -1.
        1   -1    0    0  501    0  0.00000000000E+00  0.00000000000E+00 -0.10442992903E+04  0.10442992903E+04  0.50400001928E-02 0.  1.
    10030    2    1    2    0    0  0.00000000000E+00  0.00000000000E+00 -0.44423917074E+03  0.16443594099E+04  0.15832149027E+04 0.  0.
        1    1    3    3  502    0 -0.36419258330E+03 -0.42347073253E+02  0.50655454294E+03  0.62532153117E+03  0.50400001928E-02 0. -1.
       -1    1    3    3    0  502  0.36419258330E+03  0.42347073253E+02 -0.95079371367E+03  0.10190378788E+04  0.50400001928E-02 0.  1.
</event>
<event>
 5   0  0.7124495E-04  0.1581776E+04  0.7818609E-02  0.8831822E-01
        1   -1    0    0  501    0  0.00000000000E+00  0.00000000000E+00  0.93736038029E+03  0.93736038030E+03  0.50400001928E-02 0.  1.
       -1   -1    0    0    0  501  0.00000000000E+00  0.00000000000E+00 -0.66730369976E+03  0.66730369977E+03  0.50400001928E-02 0. -1.
    10030    2    1    2    0    0  0.00000000000E+00  0.00000000000E+00  0.27005668053E+03  0.16046640801E+04  0.15817762798E+04 0.  0.
        2    1    3    3  502    0  0.62507279015E+03  0.22663332143E+03  0.56950735345E+03  0.87545261494E+03  0.25500000920E-02 0.  1.
       -2    1    3    3    0  502 -0.62507279015E+03 -0.22663332143E+03 -0.29945067292E+03  0.72921146513E+03  0.25500000920E-02 0. -1.
</event>
<event>
 5   0  0.1354766E-03  0.1560719E+04  0.7818609E-02  0.8845050E-01
       -2   -1    0    0    0  501  0.00000000000E+00  0.00000000000E+00  0.21726855419E+03  0.21726855420E+03  0.25500000920E-02 0. -1.
        2   -1    0    0  501    0  0.00000000000E+00  0.00000000000E+00 -0.28028042339E+04  0.28028042339E+04  0.25500000920E-02 0.  1.
    10030    2    1    2    0    0  0.00000000000E+00  0.00000000000E+00 -0.25855356797E+04  0.30200727881E+04  0.15607193516E+04 0.  0.
        3    1    3    3  502    0  0.60073385735E+02 -0.30346303255E+03 -0.26790843656E+04  0.26968855504E+04  0.10100000352E+00 0.  1.
       -3    1    3    3    0  502 -0.60073385735E+02  0.30346303255E+03  0.93548685864E+02  0.32318723772E+03  0.10100000352E+00 0. -1.
</event>
<event>
 5   0  0.7124495E-04  0.1634331E+04  0.7818609E-02  0.8799730E-01
       -1   -1    0    0    0  501  0.00000000000E+00  0.00000000000E+00  0.79069514190E+03  0.79069514192E+03  0.50400001928E-02 0. -1.
        1   -1    0    0  501    0  0.00000000000E+00  0.00000000000E+00 -0.84452240734E+03  0.84452240735E+03  0.50400001928E-02 0.  1.
    10030    2    1    2    0    0  0.00000000000E+00  0.00000000000E+00 -0.53827265438E+02  0.16352175493E+04  0.16343313798E+04 0.  0.
        2    1    3    3  502    0  0.70544669973E+03 -0.41211281151E+03 -0.43285547687E+02  0.81814769706E+03  0.25500000920E-02 0. -1.
       -2    1    3    3    0  502 -0.70544669973E+03  0.41211281151E+03 -0.10541717751E+02  0.81706985221E+03  0.25500000920E-02 0.  1.
</event>
<event>
 5   0  0.1339162E-03  0.1556960E+04  0.7818609E-02  0.8847434E-01
        2   -1    0    0  501    0  0.00000000000E+00  0.00000000000E+00  0.85267342182E+03  0.85267342182E+03  0.25500000920E-02 0. -1.
       -2   -1    0    0    0  501  0.00000000000E+00  0.00000000000E+00 -0.71074222903E+03  0.71074222903E+03  0.25500000920E-02 0.  1.
    10030    2    1    2    0    0  0.00000000000E+00  0.00000000000E+00  0.14193119279E+03  0.15634156509E+04  0.15569598691E+04 0.  0.
        5    1    3    3  502    0  0.62473895289E+03  0.46280392230E+03  0.31782152751E+02  0.77815064414E+03  0.46999998093E+01 0. -1.
       -5    1    3    3    0  502 -0.62473895289E+03 -0.46280392230E+03  0.11014904004E+03  0.78526500671E+03  0.46999998093E+01 0.  1.
</event>
<event>
 5   0  0.1375777E-03  0.1486081E+04  0.7818609E-02  0.8893762E-01
       -2   -1    0    0    0  501  0.00000000000E+00  0.00000000000E+00  0.37896827867E+03  0.37896827868E+03  0.25500000920E-02 0.  1.
        2   -1    0    0  501    0  0.00000000000E+00  0.00000000000E+00 -0.14568740958E+04  0.14568740958E+04  0.25500000920E-02 0. -1.
    10030    2    1    2    0    0  0.00000000000E+00  0.00000000000E+00 -0.10779058171E+04  0.18358423744E+04  0.14860808435E+04 0.  0.
        1    1    3    3  502    0  0.33704246344E+03  0.37945096605E+03 -0.12093877114E+04  0.13115636829E+04  0.50400001928E-02 0. -1.
       -1    1    3    3    0  502 -0.33704246344E+03 -0.37945096605E+03  0.13148189435E+03  0.52427869150E+03  0.50400001928E-02 0.  1.
</event>
<event>
 5   0  0.7302027E-04  0.1550764E+04  0.7818609E-02  0.8851380E-01
        1   -1    0    0  501    0  0.00000000000E+00  0.00000000000E+00  0.15755059155E+04  0.15755059155E+04  0.50400001928E-02 0. -1.
       -1   -1    0    0    0  501  0.00000000000E+00  0.00000000000E+00 -0.38160250785E+03  0.38160250788E+03  0.50400001928E-02 0.  1.
    10030    2    1    2    0    0  0.00000000000E+00  0.00000000000E+00  0.11939034077E+04  0.19571084234E+04  0.15507636938E+04 0.  0.
        5    1    3    3  502    0 -0.26771080810E+03 -0.18674462053E+03  0.14845557486E+04  0.15200231876E+04  0.46999998093E+01 0. -1.
       -5    1    3    3    0  502  0.26771080810E+03  0.18674462053E+03 -0.29065234095E+03  0.43708523582E+03  0.46999998093E+01 0.  1.
</event>
<event>
 5   0  0.7499834E-04  0.1433640E+04  0.7818609E-02  0.8929822E-01
        1   -1    0    0  501    0  0.00000000000E+00  0.00000000000E+00  0.14100545074E+04  0.14100545074E+04  0.50400001928E-02 0.  1.
       -1   -1    0    0    0  501  0.00000000000E+00  0.00000000000E+00 -0.36440516081E+03  0.36440516084E+03  0.50400001928E-02 0. -1.
    10030    2    1    2    0    0  0.00000000000E+00  0.00000000000E+00  0.10456493466E+04  0.17744596682E+04  0.14336403169E+04 0.  0.
        3    1    3    3  502    0 -0.59973223079E+03 -0.84456031034E+02  0.48240243664E+02  0.60756785723E+03  0.10100000352E+00 0. -1.
       -3    1    3    3    0  502  0.59973223079E+03  0.84456031034E+02  0.99740910290E+03  0.11668918110E+04  0.10100000352E+00 0.  1.
</event>
<event>
 5   0  0.7633213E-04  0.1611365E+04  0.7818609E-02  0.8813596E-01
        1   -1    0    0  501    0  0.00000000000E+00  0.00000000000E+00  0.13152623980E+04  0.13152623980E+04  0.50400001928E-02 0. -1.
       -1   -1    0    0    0  501  0.00000000000E+00  0.00000000000E+00 -0.49353218732E+03  0.49353218735E+03  0.50400001928E-02 0.  1.
    10030    2    1    2    0    0  0.00000000000E+00  0.00000000000E+00  0.82173021069E+03  0.18087945854E+04  0.16113650464E+04 0.  0.
        1    1    3    3  502    0  0.46547724140E+03 -0.60435951301E+03  0.70186685641E+03  0.10365985565E+04  0.50400001928E-02 0. -1.
       -1    1    3    3    0  502 -0.46547724140E+03  0.60435951301E+03  0.11986335428E+03  0.77219602884E+03  0.50400001928E-02 0.  1.
</event>
<event>
 5   0  0.7302027E-04  0.1613357E+04  0.7818609E-02  0.8812384E-01
        1   -1    0    0  501    0  0.00000000000E+00  0.00000000000E+00  0.50313439037E+03  0.50313439040E+03  0.50400001928E-02 0. -1.
       -1   -1    0    0    0  501  0.00000000000E+00  0.00000000000E+00 -0.12933520618E+04  0.12933520618E+04  0.50400001928E-02 0.  1.
    10030    2    1    2    0    0  0.00000000000E+00  0.00000000000E+00 -0.79021767139E+03  0.17964864522E+04  0.16133566266E+04 0.  0.
        5    1    3    3  502    0  0.49718622289E+02 -0.34096169988E+03 -0.12072688906E+04  0.12554867926E+04  0.46999998093E+01 0.  1.
       -5    1    3    3    0  502 -0.49718622289E+02  0.34096169988E+03  0.41705121922E+03  0.54099965956E+03  0.46999998093E+01 0. -1.
</event>
<event>
 5   0  0.1414751E-03  0.1666671E+04  0.7818609E-02  0.8780605E-01
        2   -1    0    0  501    0  0.00000000000E+00  0.00000000000E+00  0.22239471998E+04  0.22239471998E+04  0.25500000920E-02 0. -1.
       -2   -1    0    0    0  501  0.00000000000E+00  0.00000000000E+00 -0.31225930825E+03  0.31225930826E+03  0.25500000920E-02 0.  1.
    10030    2    1    2    0    0  0.00000000000E+00  0.00000000000E+00  0.19116878916E+04  0.25362065081E+04  0.16666711904E+04 0.  0.
        2    1    3    3  502    0 -0.19215180570E+03 -0.40830837956E+03  0.20219280272E+04  0.20716734772E+04  0.25500000920E-02 0. -1.
       -2    1    3    3    0  502  0.19215180570E+03  0.40830837956E+03 -0.11024013559E+03  0.46453303085E+03  0.25500000920E-02 0.  1.
</event>
<event>
 5   0  0.7124495E-04  0.1613722E+04  0.7818609E-02  0.8812162E-01
       -1   -1    0    0    0  501  0.00000000000E+00  0.00000000000E+00  0.94837946907E+03  0.94837946909E+03  0.50400001928E-02 0. -1.
        1   -1    0    0  501    0  0.00000000000E+00  0.00000000000E+00 -0.68646001776E+03  0.68646001777E+03  0.50400001928E-02 0.  1.
    10030    2    1    2    0    0  0.00000000000E+00  0.00000000000E+00  0.26191945132E+03  0.16348394869E+04  0.16137218933E+04 0.  0.
        2    1    3    3  502    0  0.80685880076E+03 -0.13295360069E+01  0.13227875156E+03  0.81763106604E+03  0.25500000920E-02 0. -1.
       -2    1    3    3    0  502 -0.80685880076E+03  0.13295360069E+01  0.12964069976E+03  0.81720842083E+03  0.25500000920E-02 0.  1.
</event>
<event>
 5   0  0.1339162E-03  0.1572069E+04  0.7818609E-02  0.8837893E-01
       -2   -1    0    0    0  501  0.00000000000E+00  0.00000000000E+00  0.28318949134E+03  0.28318949135E+03  0.25500000920E-02 0. -1.
        2   -1    0    0  501    0  0.00000000000E+00  0.00000000000E+00 -0.21817552398E+04  0.21817552398E+04  0.25500000920E-02 0.  1.
    10030    2    1    2    0    0  0.00000000000E+00  0.00000000000E+00 -0.18985657485E+04  0.24649447312E+04  0.15720689000E+04 0.  0.
        5    1    3    3  502    0 -0.31333810029E+03 -0.84808165883E+02 -0.20717236233E+04  0.20970059731E+04  0.46999998093E+01 0.  1.
       -5    1    3    3    0  502  0.31333810029E+03  0.84808165883E+02  0.17315787477E+03  0.36793875807E+03  0.46999998093E+01 0. -1.
</event>
<event>
 5   0  0.7633213E-04  0.1589603E+04  0.7818609E-02  0.8826961E-01
       -1   -1    0    0    0  501  0.00000000000E+00  0.00000000000E+00  0.84892964257E+03  0.84892964258E+03  0.50400001928E-02 0.  1.
        1   -1    0    0  501    0  0.00000000000E+00  0.00000000000E+00 -0.74412423897E+03  0.74412423899E+03  0.50400001928E-02 0. -1.
    10030    2    1    2    0    0  0.00000000000E+00  0.00000000000E+00  0.10480540360E+03  0.15930538816E+04  0.15896026223E+04 0.  0.
        1    1    3    3  502    0 -0.24289154223E+03  0.48924821600E+03  0.63102008496E+03  0.83459359319E+03  0.50400001928E-02 0.  1.
       -1    1    3    3    0  502  0.24289154223E+03 -0.48924821600E+03 -0.52621468136E+03  0.75846028838E+03  0.50400001928E-02 0. -1.
</event>
<event>
 5   0  0.1354766E-03  0.1632215E+04  0.7818609E-02  0.8800998E-01
        2   -1    0    0  501    0  0.00000000000E+00  0.00000000000E+00  0.78250407745E+03  0.78250407745E+03  0.25500000920E-02 0. -1.
       -2   -1    0    0    0  501  0.00000000000E+00  0.00000000000E+00 -0.85115394844E+03  0.85115394845E+03  0.25500000920E-02 0.  1.
    10030    2    1    2    0    0  0.00000000000E+00  0.00000000000E+00 -0.68649870997E+02  0.16336580259E+04  0.16322149800E+04 0.  0.
        3    1    3    3  502    0  0.74485246443E+03  0.19073436302E+03  0.23949806707E+03  0.80532237355E+03  0.10100000352E+00 0.  1.
       -3    1    3    3    0  502 -0.74485246443E+03 -0.19073436302E+03 -0.30814793806E+03  0.82833565235E+03  0.10100000352E+00 0. -1.
</event>
<event>
 5   0  0.1339162E-03  0.1589904E+04  0.7818609E-02  0.8826775E-01
        2   -1    0    0  501    0  0.00000000000E+00  0.00000000000E+00  0.10095400069E+04  0.10095400069E+04  0.25500000920E-02 0.  1.
       -2   -1    0    0    0  501  0.00000000000E+00  0.00000000000E+00 -0.62597675772E+03  0.62597675773E+03  0.25500000920E-02 0. -1.
    10030    2    1    2    0    0  0.00000000000E+00  0.00000000000E+00  0.38356324914E+03  0.16355167646E+04  0.15899038717E+04 0.  0.
        5    1    3    3  502    0  0.78108549623E+03  0.12539504338E+03  0.27217761555E+03  0.83661294141E+03  0.46999998093E+01 0. -1.
       -5    1    3    3    0  502 -0.78108549623E+03 -0.12539504338E+03  0.11138563358E+03  0.79890382318E+03  0.46999998093E+01 0.  1.
</event>
<event>
 5   0  0.1339162E-03  0.1367650E+04  0.7818609E-02  0.8977574E-01
       -2   -1    0    0    0  501  0.00000000000E+00  0.00000000000E+00  0.22921076423E+03  0.22921076425E+03  0.25500000920E-02 0.  1.
        2   -1    0    0  501    0  0.00000000000E+00  0.00000000000E+00 -0.20401156175E+04  0.20401156175E+04  0.25500000920E-02 0. -1.
    10030    2    1    2    0    0  0.00000000000E+00  0.00000000000E+00 -0.18109048533E+04  0.22693263818E+04  0.13676497503E+04 0.  0.
        5    1    3    3  502    0  0.15213368065E+03 -0.35394117900E+03  0.31973037418E+02  0.38660494061E+03  0.46999998093E+01 0.  1.
       -5    1    3    3    0  502 -0.15213368065E+03  0.35394117900E+03 -0.18428778907E+04  0.18827214412E+04  0.46999998093E+01 0. -1.
</event>
<event>
 5   0  0.1354766E-03  0.1625459E+04  0.7818609E-02  0.8805059E-01
        2   -1    0    0  501    0  0.00000000000E+00  0.00000000000E+00  0.10829291691E+04  0.10829291691E+04  0.25500000920E-02 0. -1.
       -2   -1    0    0    0  501  0.00000000000E+00  0.00000000000E+00 -0.60994667497E+03  0.60994667498E+03  0.25500000920E-02 0.  1.
    10030    2    1    2    0    0  0.00000000000E+00  0.00000000000E+00  0.47298249412E+03  0.16928758441E+04  0.16254587610E+04 0.  0.
        3    1    3    3  502    0  0.73165294486E+03  0.64975862866E+02  0.59875588172E+03  0.94765315943E+03  0.10100000352E+00 0.  1.
       -3    1    3    3    0  502 -0.73165294486E+03 -0.64975862866E+02 -0.12577338760E+03  0.74522268464E+03  0.10100000352E+00 0. -1.
</event>
<event>
 5   0  0.7633213E-04  0.1589120E+04  0.7818609E-02  0.8827260E-01
        1   -1    0    0  501    0  0.00000000000E+00  0.00000000000E+00  0.75503051677E+03  0.75503051679E+03  0.50400001928E-02 0.  1.
       -1   -1    0    0    0  501  0.00000000000E+00  0.00000000000E+00 -0.83615857442E+03  0.83615857443E+03  0.50400001928E-02 0. -1.
    10030    2    1    2    0    0  0.00000000000E+00  0.00000000000E+00 -0.81128057644E+02  0.15911890912E+04  0.15891195557E+04 0.  0.
        1    1    3    3  502    0 -0.59590660118E+03  0.52446446454E+03 -0.64963652705E+01  0.79385757834E+03  0.50400001928E-02 0.  1.
       -1    1    3    3    0  502  0.59590660118E+03 -0.52446446454E+03 -0.74631692374E+02  0.79733151288E+03  0.50400001928E-02 0. -1.
</event>
<event>
 5   0  0.7601145E-04  0.1576099E+04  0.7818609E-02  0.8835367E-01
       -1   -1    0    0    0  501  0.00000000000E+00  0.00000000000E+00  0.58000026442E+03  0.58000026444E+03  0.50400001928E-02 0.  1.
        1   -1    0    0  501    0  0.00000000000E+00  0.00000000000E+00 -0.10707272406E+04  0.10707272406E+04  0.50400001928E-02 0. -1.
    10030    2    1    2    0    0  0.00000000000E+00  0.00000000000E+00 -0.49072697615E+03  0.16507275050E+04  0.15760990866E+04 0.  0.
        4    1    3    3  502    0  0.74773515441E+03  0.22409004126E+03 -0.35863362233E+03  0.85903660905E+03  0.12699999809E+01 0. -1.
       -4    1    3    3    0  502 -0.74773515441E+03 -0.22409004126E+03 -0.13209335382E+03  0.79169089596E+03  0.12699999809E+01 0.  1.
</event>
<event>
 5   0  0.7302027E-04  0.1611100E+04  0.7818609E-02  0.8813758E-01
       -1   -1    0    0    0  501  0.00000000000E+00  0.00000000000E+00  0.14178357389E+04  0.14178357389E+04  0.50400001928E-02 0.  1.
        1   -1    0    0  501    0  0.00000000000E+00  0.00000000000E+00 -0.45767705109E+03  0.45767705112E+03  0.50400001928E-02 0. -1.
    10030    2    1    2    0    0  0.00000000000E+00  0.00000000000E+00  0.96015868784E+03  0.18755127901E+04  0.16111000962E+04 0.  0.
        5    1    3    3  502    0  0.48833900128E+03  0.30965826805E+03  0.11329474958E+04  0.12719887348E+04  0.46999998093E+01 0.  1.
       -5    1    3    3    0  502 -0.48833900128E+03 -0.30965826805E+03 -0.17278880797E+03  0.60352405528E+03  0.46999998093E+01 0. -1.
</event>
<event>
 5   0  0.1414751E-03  0.1694487E+04  0.7818609E-02  0.8764515E-01
        2   -1    0    0  501    0  0.00000000000E+00  0.00000000000E+00  0.12113646812E+04  0.12113646812E+04  0.25500000920E-02 0. -1.
       -2   -1    0    0    0  501  0.00000000000E+00  0.00000000000E+00 -0.59257275247E+03  0.59257275248E+03  0.25500000920E-02 0.  1.
    10030    2    1    2    0    0  0.00000000000E+00  0.00000000000E+00  0.61879192872E+03  0.18039374337E+04  0.16944871831E+04 0.  0.
        2    1    3    3  502    0 -0.55483470970E+03  0.53466836358E+03 -0.65651623479E+02  0.77331878924E+03  0.25500000920E-02 0.  1.
       -2    1    3    3    0  502  0.55483470970E+03 -0.53466836358E+03  0.68444355220E+03  0.10306186444E+04  0.25500000920E-02 0. -1.
</event>
<event>
 5   0  0.7499834E-04  0.1629500E+04  0.7818609E-02  0.8802627E-01
        1   -1    0    0  501    0  0.00000000000E+00  0.00000000000E+00  0.90368394114E+03  0.90368394116E+03  0.50400001928E-02 0. -1.
       -1   -1    0    0    0  501  0.00000000000E+00  0.00000000000E+00 -0.73456800816E+03  0.73456800818E+03  0.50400001928E-02 0.  1.
    10030    2    1    2    0    0  0.00000000000E+00  0.00000000000E+00  0.16911593299E+03  0.16382519493E+04  0.16294996934E+04 0.  0.
        3    1    3    3  502    0 -0.51846572342E+03  0.52273856002E+03  0.43536621967E+03  0.85533973596E+03  0.10100000352E+00 0. -1.
       -3    1    3    3    0  502  0.51846572342E+03 -0.52273856002E+03 -0.26625028669E+03  0.78291221337E+03  0.10100000352E+00 0.  1.
</event>
<event>
 5   0  0.7601145E-04  0.1562605E+04  0.7818609E-02  0.8843857E-01
       -1   -1    0    0    0  501  0.00000000000E+00  0.00000000000E+00  0.38167941197E+03  0.38167941200E+03  0.50400001928E-02 0.  1.
        1   -1    0    0  501    0  0.00000000000E+00  0.00000000000E+00 -0.15993350058E+04  0.15993350058E+04  0.50400001928E-02 0. -1.
    10030    2    1    2    0    0  0.00000000000E+00  0.00000000000E+00 -0.12176555938E+04  0.19810144178E+04  0.15626045496E+04 0.  0.
        4    1    3    3  502    0 -0.68728434903E+03 -0.32686237886E+02 -0.13957774680E+03  0.70207672434E+03  0.12699999809E+01 0.  1.
       -4    1    3    3    0  502  0.68728434903E+03  0.32686237886E+02 -0.10780778470E+04  0.12789376934E+04  0.12699999809E+01 0. -1.
</event>
<event>
 5   0  0.1414796E-03  0.1586145E+04  0.7818609E-02  0.8829105E-01
        2   -1    0    0  501    0  0.00000000000E+00  0.00000000000E+00  0.42075289356E+03  0.42075289357E+03  0.25500000920E-02 0.  1.
       -2   -1    0    0    0  501  0.00000000000E+00  0.00000000000E+00 -0.14948533312E+04  0.14948533312E+04  0.25500000920E-02 0. -1.
    10030    2    1    2    0    0  0.00000000000E+00  0.00000000000E+00 -0.10741004376E+04  0.19156062247E+04  0.15861448415E+04 0.  0.
        4    1    3    3  502    0 -0.63643957029E+03  0.38863274908E+02 -0.11065944270E+04  0.12771525044E+04  0.12699999809E+01 0. -1.
       -4    1    3    3    0  502  0.63643957029E+03 -0.38863274908E+02  0.32493989387E+02  0.63845372033E+03  0.12699999809E+01 0.  1.
</event>
<event>
 5   0  0.7601145E-04  0.1593991E+04  0.7818609E-02  0.8824248E-01
        1   -1    0    0  501    0  0.00000000000E+00  0.00000000000E+00  0.52789295946E+03  0.52789295949E+03  0.50400001928E-02 0. -1.
       -1   -1    0    0    0  501  0.00000000000E+00  0.00000000000E+00 -0.12032773647E+04  0.12032773647E+04  0.50400001928E-02 0.  1.
    10030    2    1    2    0    0  0.00000000000E+00  0.00000000000E+00 -0.67538440519E+03  0.17311703242E+04  0.15939907768E+04 0.  0.
        4    1    3    3  502    0  0.61455593876E+03 -0.50606839579E+03 -0.29682668894E+03  0.84964223015E+03  0.12699999809E+01 0. -1.
       -4    1    3    3    0  502 -0.61455593876E+03  0.50606839579E+03 -0.37855771625E+03  0.88152809400E+03  0.12699999809E+01 0.  1.
</event>
<event>
 5   0  0.7601145E-04  0.1722362E+04  0.7818609E-02  0.8748713E-01
       -1   -1    0    0    0  501  0.00000000000E+00  0.00000000000E+00  0.75946687576E+03  0.75946687577E+03  0.50400001928E-02 0. -1.
        1   -1    0    0  501    0  0.00000000000E+00  0.00000000000E+00 -0.97651703667E+03  0.97651703668E+03  0.50400001928E-02 0.  1.
    10030    2    1    2    0    0  0.00000000000E+00  0.00000000000E+00 -0.21705016091E+03  0.17359839125E+04  0.17223615683E+04 0.  0.
        4    1    3    3  502    0  0.24206715239E+03  0.61943464700E+03 -0.65996738156E+03  0.93693881647E+03  0.12699999809E+01 0.  1.
       -4    1    3    3    0  502 -0.24206715239E+03 -0.61943464700E+03  0.44291722065E+03  0.79904509599E+03  0.12699999809E+01 0. -1.
</event>
<event>
 5   0  0.7633213E-04  0.1581461E+04  0.7818609E-02  0.8832019E-01
       -1   -1    0    0    0  501  0.00000000000E+00  0.00000000000E+00  0.33083802180E+03  0.33083802183E+03  0.50400001928E-02 0.  1.
        1   -1    0    0  501    0  0.00000000000E+00  0.00000000000E+00 -0.18899121217E+04  0.18899121217E+04  0.50400001928E-02 0. -1.
    10030    2    1    2    0    0  0.00000000000E+00  0.00000000000E+00 -0.15590740999E+04  0.22207501435E+04  0.15814610811E+04 0.  0.
        1    1    3    3  502    0  0.42786373749E+02 -0.77437238455E+03 -0.99604293354E+03  0.12623726824E+04  0.50400001928E-02 0. -1.
       -1    1    3    3    0  502 -0.42786373749E+02  0.77437238455E+03 -0.56303116634E+03  0.95837746114E+03  0.50400001928E-02 0.  1.
</event>
<event>
 5   0  0.1375777E-03  0.1616542E+04  0.7818609E-02  0.8810449E-01
        2   -1    0    0  501    0  0.00000000000E+00  0.00000000000E+00  0.46222239769E+03  0.46222239770E+03  0.25500000920E-02 0. -1.
       -2   -1    0    0    0  501  0.00000000000E+00  0.00000000000E+00 -0.14133938278E+04  0.14133938278E+04  0.25500000920E-02 0.  1.
    10030    2    1    2    0    0  0.00000000000E+00  0.00000000000E+00 -0.95117143015E+03  0.18756162255E+04  0.16165423397E+04 0.  0.
        1    1    3    3  502    0 -0.22646587647E+03  0.76286923915E+03 -0.31131092546E+03  0.85450029934E+03  0.50400001928E-02 0. -1.
       -1    1    3    3    0  502  0.22646587647E+03 -0.76286923915E+03 -0.63986050469E+03  0.10211159262E+04  0.50400001928E-02 0.  1.
</event>
<event>
 5   0  0.7499834E-04  0.1617228E+04  0.7818609E-02  0.8810033E-01
        1   -1    0    0  501    0  0.00000000000E+00  0.00000000000E+00  0.93597399735E+03  0.93597399736E+03  0.50400001928E-02 0.  1.
       -1   -1    0    0    0  501  0.00000000000E+00  0.00000000000E+00 -0.69858431116E+03  0.69858431117E+03  0.50400001928E-02 0. -1.
    10030    2    1    2    0    0  0.00000000000E+00  0.00000000000E+00  0.23738968619E+03  0.16345583085E+04  0.16172281845E+04 0.  0.
        3    1    3    3  502    0 -0.19807510930E+03 -0.54285567109E+03 -0.45299053164E+03  0.73425231393E+03  0.10100000352E+00 0. -1.
       -3    1    3    3    0  502  0.19807510930E+03  0.54285567109E+03  0.69038021783E+03  0.90030599461E+03  0.10100000352E+00 0.  1.
</event>
<event>
 5   0  0.1414751E-03  0.1564970E+04  0.7818609E-02  0.8842362E-01
        2   -1    0    0  501    0  0.00000000000E+00  0.00000000000E+00  0.52662069796E+03  0.52662069797E+03  0.25500000920E-02 0. -1.
       -2   -1    0    0    0  501  0.00000000000E+00  0.00000000000E+00 -0.11626634473E+04  0.11626634473E+04  0.25500000920E-02 0.  1.
    10030    2    1    2    0    0  0.00000000000E+00  0.00000000000E+00 -0.63604274930E+03  0.16892841452E+04  0.15649698222E+04 0.  0.
        2    1    3    3  502    0  0.78119994076E+02  0.25448369219E+03  0.47623930846E+03  0.54559010438E+03  0.25500000920E-02 0. -1.
       -2    1    3    3    0  502 -0.78119994076E+02 -0.25448369219E+03 -0.11122820578E+04  0.11436940409E+04  0.25500000920E-02 0.  1.
</event>
<event>
 5   0  0.1354766E-03  0.1559983E+04  0.7818609E-02  0.8845516E-01
       -2   -1    0    0    0  501  0.00000000000E+00  0.00000000000E+00  0.82468789214E+03  0.82468789214E+03  0.25500000920E-02 0.  1.
        2   -1    0    0  501    0  0.00000000000E+00  0.00000000000E+00 -0.73771742640E+03  0.73771742640E+03  0.25500000920E-02 0. -1.
    10030    2    1    2    0    0  0.00000000000E+00  0.00000000000E+00  0.86970465740E+02  0.15624053185E+04  0.15599828581E+04 0.  0.
        3    1    3    3  502    0  0.14125721794E+02  0.15141156426E+03 -0.72272668986E+03  0.73855187783E+03  0.10100000352E+00 0. -1.
       -3    1    3    3    0  502 -0.14125721794E+02 -0.15141156426E+03  0.80969715560E+03  0.82385344072E+03  0.10100000352E+00 0.  1.
</event>
<event>
 5   0  0.7302027E-04  0.1596487E+04  0.7818609E-02  0.8822709E-01
       -1   -1    0    0    0  501  0.00000000000E+00  0.00000000000E+00  0.29947692047E+03  0.29947692052E+03  0.50400001928E-02 0.  1.
        1   -1    0    0  501    0  0.00000000000E+00  0.00000000000E+00 -0.21276861110E+04  0.21276861110E+04  0.50400001928E-02 0. -1.
    10030    2    1    2    0    0  0.00000000000E+00  0.00000000000E+00 -0.18282091905E+04  0.24271630315E+04  0.15964872493E+04 0.  0.
        5    1    3    3  502    0 -0.58054229346E+03 -0.11431937843E+03 -0.99532919285E+02  0.60002263857E+03  0.46999998093E+01 0.  1.
       -5    1    3    3    0  502  0.58054229346E+03  0.11431937843E+03 -0.17286762712E+04  0.18271403929E+04  0.46999998093E+01 0. -1.
</event>
<event>
 5   0  0.1414796E-03  0.1520136E+04  0.7818609E-02  0.8871172E-01
        2   -1    0    0  501    0  0.00000000000E+00  0.00000000000E+00  0.62616864570E+03  0.62616864571E+03  0.25500000920E-02 0.  1.
       -2   -1    0    0    0  501  0.00000000000E+00  0.00000000000E+00 -0.92260005383E+03  0.92260005383E+03  0.25500000920E-02 0. -1.
    10030    2    1    2    0    0  0.00000000000E+00  0.00000000000E+00 -0.29643140813E+03  0.15487686995E+04  0.15201358179E+04 0.  0.
        4    1    3    3  502    0 -0.60233155078E+03 -0.39312483096E+03  0.10207635243E+03  0.72647892221E+03  0.12699999809E+01 0.  1.
       -4    1    3    3    0  502  0.60233155078E+03  0.39312483096E+03 -0.39850776056E+03  0.82228977733E+03  0.12699999809E+01 0. -1.
</event>
<event>
 5   0  0.1414796E-03  0.1643292E+04  0.7818609E-02  0.8794385E-01
        2   -1    0    0  501    0  0.00000000000E+00  0.00000000000E+00  0.12807766665E+04  0.12807766665E+04  0.25500000920E-02 0.  1.
       -2   -1    0    0    0  501  0.00000000000E+00  0.00000000000E+00 -0.52710372310E+03  0.52710372310E+03  0.25500000920E-02 0. -1.
    10030    2    1    2    0    0  0.00000000000E+00  0.00000000000E+00  0.75367294336E+03  0.18078803896E+04  0.16432920000E+04 0.  0.
        4    1    3    3  502    0 -0.62438429335E+03  0.26723089030E+03 -0.13189868459E+03  0.69185762293E+03  0.12699999809E+01 0. -1.
       -4    1    3    3    0  502  0.62438429335E+03 -0.26723089030E+03  0.88557162796E+03  0.11160227666E+04  0.12699999809E+01 0.  1.
</event>
<event>
 5   0  0.1414751E-03  0.1718622E+04  0.7818609E-02  0.8750814E-01
       -2   -1    0    0    0  501  0.00000000000E+00  0.00000000000E+00  0.48849527420E+03  0.48849527421E+03  0.25500000920E-02 0. -1.
        2   -1    0    0  501    0  0.00000000000E+00  0.00000000000E+00 -0.15116118081E+04  0.15116118081E+04  0.25500000920E-02 0.  1.
    10030    2    1    2    0    0  0.00000000000E+00  0.00000000000E+00 -0.10231165339E+04  0.20001070823E+04  0.17186218021E+04 0.  0.
        2    1    3    3  502    0 -0.84619934259E+03  0.13487090025E+03 -0.58672599436E+03  0.10385041548E+04  0.25500000920E-02 0.  1.
       -2    1    3    3    0  502  0.84619934259E+03 -0.13487090025E+03 -0.43639053955E+03  0.96160292749E+03  0.25500000920E-02 0. -1.
</event>
<event>
 5   0  0.7302027E-04  0.1647028E+04  0.7818609E-02  0.8792167E-01
        1   -1    0    0  501    0  0.00000000000E+00  0.00000000000E+00  0.19640138226E+04  0.19640138226E+04  0.50400001928E-02 0.  1.
       -1   -1    0    0    0  501  0.00000000000E+00  0.00000000000E+00 -0.34530047695E+03  0.34530047698E+03  0.50400001928E-02 0. -1.
    10030    2    1    2    0    0  0.00000000000E+00  0.00000000000E+00  0.16187133457E+04  0.23093142996E+04  0.16470275161E+04 0.  0.
        5    1    3    3  502    0 -0.58096850159E+03 -0.39718881111E+03  0.20976886809E+03  0.73437621117E+03  0.46999998093E+01 0.  1.
       -5    1    3    3    0  502  0.58096850159E+03  0.39718881111E+03  0.14089444776E+04  0.15749380884E+04  0.46999998093E+01 0. -1.
</event>
<event>
 5   0  0.1354766E-03  0.1581413E+04  0.7818609E-02  0.8832049E-01
        2   -1    0    0  501    0  0.00000000000E+00  0.00000000000E+00  0.11852542431E+04  0.11852542431E+04  0.25500000920E-02 0.  1.
       -2   -1    0    0    0  501  0.00000000000E+00  0.00000000000E+00 -0.52749599625E+03  0.52749599626E+03  0.25500000920E-02 0. -1.
    10030    2    1    2    0    0  0.00000000000E+00  0.00000000000E+00  0.65775824689E+03  0.17127502394E+04  0.15814131248E+04 0.  0.
        3    1    3    3  502    0 -0.74534231040E+03 -0.18648312938E+03  0.53122628896E+03  0.93408377435E+03  0.10100000352E+00 0.  1.
       -3    1    3    3    0  502  0.74534231040E+03  0.18648312938E+03  0.12653195793E+03  0.77866646506E+03  0.10100000352E+00 0. -1.
</event>
<event>
 5   0  0.5095750E-04  0.1604188E+04  0.7818609E-02  0.8817979E-01
       -3   -1    0    0    0  501  0.00000000000E+00  0.00000000000E+00  0.12105600742E+04  0.12105600784E+04  0.10100000352E+00 0. -1.
        3   -1    0    0  501    0  0.00000000000E+00  0.00000000000E+00 -0.53145214131E+03  0.53145215091E+03  0.10100000352E+00 0.  1.
    10030    2    1    2    0    0  0.00000000000E+00  0.00000000000E+00  0.67910793290E+03  0.17420122293E+04  0.16041879636E+04 0.  0.
        1    1    3    3  502    0  0.21386107078E+03 -0.57282361734E+03  0.90328029909E+03  0.10907697983E+04  0.50400001928E-02 0. -1.
       -1    1    3    3    0  502 -0.21386107078E+03  0.57282361734E+03 -0.22417236619E+03  0.65124243102E+03  0.50400001928E-02 0.  1.
</event>
<event>
 5   0  0.7499834E-04  0.1587931E+04  0.7818609E-02  0.8827997E-01
       -1   -1    0    0    0  501  0.00000000000E+00  0.00000000000E+00  0.62498624211E+03  0.62498624213E+03  0.50400001928E-02 0. -1.
        1   -1    0    0  501    0  0.00000000000E+00  0.00000000000E+00 -0.10086318969E+04  0.10086318969E+04  0.50400001928E-02 0.  1.
    10030    2    1    2    0    0  0.00000000000E+00  0.00000000000E+00 -0.38364565480E+03  0.16336181391E+04  0.15879308032E+04 0.  0.
        3    1    3    3  502    0 -0.67098385090E+03 -0.39116562497E+03 -0.22305817419E+02  0.77699899229E+03  0.10100000352E+00 0. -1.
       -3    1    3    3    0  502  0.67098385090E+03  0.39116562497E+03 -0.36133983739E+03  0.85661914677E+03  0.10100000352E+00 0.  1.
</event>
<event>
 5   0  0.5095750E-04  0.8550743E+03  0.7818609E-02  0.9483552E-01
       -3   -1    0    0    0  501  0.00000000000E+00  0.00000000000E+00  0.94982873696E+02  0.94982927395E+02  0.10100000352E+00 0.  1.
        3   -1    0    0  501    0  0.00000000000E+00  0.00000000000E+00 -0.19244306525E+04  0.19244306552E+04  0.10100000352E+00 0. -1.
    10030    2    1    2    0    0  0.00000000000E+00  0.00000000000E+00 -0.18294477788E+04  0.20194135826E+04  0.85507429034E+03 0.  0.
        3    1    3    3  502    0 -0.17408560061E+03  0.76755920761E+02 -0.18189450829E+04  0.18288680905E+04  0.10100000352E+00 0. -1.
       -3    1    3    3    0  502  0.17408560061E+03 -0.76755920761E+02 -0.10502695913E+02  0.19054549204E+03  0.10100000352E+00 0.  1.
</event>
<event>
 5   0  0.1414796E-03  0.1585528E+04  0.7818609E-02  0.8829488E-01
        2   -1    0    0  501    0  0.00000000000E+00  0.00000000000E+00  0.18487454991E+04  0.18487454991E+04  0.25500000920E-02 0.  1.
       -2   -1    0    0    0  501  0.00000000000E+00  0.00000000000E+00 -0.33994655220E+03  0.33994655221E+03  0.25500000920E-02 0. -1.
    10030    2    1    2    0    0  0.00000000000E+00  0.00000000000E+00  0.15087989469E+04  0.21886920513E+04  0.15855278721E+04 0.  0.
        4    1    3    3  502    0 -0.67778200066E+03 -0.41046172815E+03  0.78837501255E+03  0.11177674374E+04  0.12699999809E+01 0.  1.
       -4    1    3    3    0  502  0.67778200066E+03  0.41046172815E+03  0.72042393431E+03  0.10709246139E+04  0.12699999809E+01 0. -1.
</event>
<event>
 5   0  0.7601145E-04  0.1655378E+04  0.7818609E-02  0.8787231E-01
        1   -1    0    0  501    0  0.00000000000E+00  0.00000000000E+00  0.14789435428E+04  0.14789435428E+04  0.50400001928E-02 0.  1.
       -1   -1    0    0    0  501  0.00000000000E+00  0.00000000000E+00 -0.46321525055E+03  0.46321525057E+03  0.50400001928E-02 0. -1.
    10030    2    1    2    0    0  0.00000000000E+00  0.00000000000E+00  0.10157282922E+04  0.19421587934E+04  0.16553781486E+04 0.  0.
        4    1    3    3  502    0 -0.17122574080E+03 -0.33528373118E+03  0.13726747798E+04  0.14233661155E+04  0.12699999809E+01 0.  1.
       -4    1    3    3    0  502  0.17122574080E+03  0.33528373118E+03 -0.35694648758E+03  0.51879267786E+03  0.12699999809E+01 0. -1.
</event>
<event>
 5   0  0.7499834E-04  0.1552469E+04  0.7818609E-02  0.8850292E-01
       -1   -1    0    0    0  501  0.00000000000E+00  0.00000000000E+00  0.45957788012E+03  0.45957788015E+03  0.50400001928E-02 0. -1.
        1   -1    0    0  501    0  0.00000000000E+00  0.00000000000E+00 -0.13110728878E+04  0.13110728878E+04  0.50400001928E-02 0.  1.
    10030    2    1    2    0    0  0.00000000000E+00  0.00000000000E+00 -0.85149500768E+03  0.17706507680E+04  0.15524691282E+04 0.  0.
        3    1    3    3  502    0 -0.14532094864E+03  0.44758993128E+03  0.27833079713E+03  0.54673848184E+03  0.10100000352E+00 0. -1.
       -3    1    3    3    0  502  0.14532094864E+03 -0.44758993128E+03 -0.11298258048E+04  0.12239122861E+04  0.10100000352E+00 0.  1.
</event>
<event>
 5   0  0.1414751E-03  0.1574764E+04  0.7818609E-02  0.8836203E-01
        2   -1    0    0  501    0  0.00000000000E+00  0.00000000000E+00  0.15369490585E+04  0.15369490585E+04  0.25500000920E-02 0. -1.
       -2   -1    0    0    0  501  0.00000000000E+00  0.00000000000E+00 -0.40337739443E+03  0.40337739444E+03  0.25500000920E-02 0.  1.
    10030    2    1    2    0    0  0.00000000000E+00  0.00000000000E+00  0.11335716641E+04  0.19403264530E+04  0.15747641177E+04 0.  0.
        2    1    3    3  502    0  0.89178035803E+02  0.24920525362E+03  0.14804927014E+04  0.15039662960E+04  0.25500000920E-02 0. -1.
       -2    1    3    3    0  502 -0.89178035803E+02 -0.24920525362E+03 -0.34692103729E+03  0.43636015701E+03  0.25500000920E-02 0.  1.
</event>
<event>
 5   0  0.7499834E-04  0.1594857E+04  0.7818609E-02  0.8823714E-01
        1   -1    0    0  501    0  0.00000000000E+00  0.00000000000E+00  0.90575106424E+03  0.90575106425E+03  0.50400001928E-02 0.  1.
       -1   -1    0    0    0  501  0.00000000000E+00  0.00000000000E+00 -0.70206024740E+03  0.70206024742E+03  0.50400001928E-02 0. -1.
    10030    2    1    2    0    0  0.00000000000E+00  0.00000000000E+00  0.20369081684E+03  0.16078113117E+04  0.15948565030E+04 0.  0.
        3    1    3    3  502    0 -0.37535703223E+03  0.27956562089E+02 -0.60687094405E+03  0.71411961459E+03  0.10100000352E+00 0. -1.
       -3    1    3    3    0  502  0.37535703223E+03 -0.27956562089E+02  0.81056176089E+03  0.89369169708E+03  0.10100000352E+00 0.  1.
</event>
<event>
 5   0  0.1375777E-03  0.1600329E+04  0.7818609E-02  0.8820346E-01
       -2   -1    0    0    0  501  0.00000000000E+00  0.00000000000E+00  0.40845822400E+03  0.40845822400E+03  0.25500000920E-02 0.  1.
        2   -1    0    0  501    0  0.00000000000E+00  0.00000000000E+00 -0.15675124856E+04  0.15675124856E+04  0.25500000920E-02 0. -1.
    10030    2    1    2    0    0  0.00000000000E+00  0.00000000000E+00 -0.11590542616E+04  0.19759707096E+04  0.16003291736E+04 0.  0.
        1    1    3    3  502    0  0.56154409417E+03 -0.54432194607E+03 -0.78850352216E+03  0.11105656015E+04  0.50400001928E-02 0. -1.
       -1    1    3    3    0  502 -0.56154409417E+03  0.54432194607E+03 -0.37055073945E+03  0.86540510815E+03  0.50400001928E-02 0.  1.
</event>
<event>
 5   0  0.1375777E-03  0.1337509E+04  0.7818609E-02  0.9000338E-01
       -2   -1    0    0    0  501  0.00000000000E+00  0.00000000000E+00  0.38875974816E+03  0.38875974817E+03  0.25500000920E-02 0. -1.
        2   -1    0    0  501    0  0.00000000000E+00  0.00000000000E+00 -0.11504087565E+04  0.11504087565E+04  0.25500000920E-02 0.  1.
    10030    2    1    2    0    0  0.00000000000E+00  0.00000000000E+00 -0.76164900839E+03  0.15391685047E+04  0.13375090556E+04 0.  0.
        1    1    3    3  502    0 -0.49244622342E+03  0.32928240589E+03 -0.23709526003E+02  0.59286788363E+03  0.50400001928E-02 0. -1.
       -1    1    3    3    0  502  0.49244622342E+03 -0.32928240589E+03 -0.73793948238E+03  0.94630062109E+03  0.50400001928E-02 0.  1.
</event>
<event>
 5   0  0.1354766E-03  0.1471617E+04  0.7818609E-02  0.8903550E-01
       -2   -1    0    0    0  501  0.00000000000E+00  0.00000000000E+00  0.53442143217E+03  0.53442143218E+03  0.25500000920E-02 0. -1.
        2   -1    0    0  501    0  0.00000000000E+00  0.00000000000E+00 -0.10130845837E+04  0.10130845837E+04  0.25500000920E-02 0.  1.
    10030    2    1    2    0    0  0.00000000000E+00  0.00000000000E+00 -0.47866315148E+03  0.15475060158E+04  0.14716169530E+04 0.  0.
        3    1    3    3  502    0 -0.70790856591E+03  0.18869618225E+03 -0.16744460460E+03  0.75151746001E+03  0.10100000352E+00 0.  1.
       -3    1    3    3    0  502  0.70790856591E+03 -0.18869618225E+03 -0.31121854689E+03  0.79598855583E+03  0.10100000352E+00 0. -1.
</event>
<event>
 5   0  0.1354766E-03  0.1436734E+04  0.7818609E-02  0.8927650E-01
       -2   -1    0    0    0  501  0.00000000000E+00  0.00000000000E+00  0.29687760039E+03  0.29687760040E+03  0.25500000920E-02 0. -1.
        2   -1    0    0  501    0  0.00000000000E+00  0.00000000000E+00 -0.17382616061E+04  0.17382616061E+04  0.25500000920E-02 0.  1.
    10030    2    1    2    0    0  0.00000000000E+00  0.00000000000E+00 -0.14413840057E+04  0.20351392065E+04  0.14367337046E+04 0.  0.
        3    1    3    3  502    0 -0.35330847857E+03  0.13535796196E+03 -0.15856904976E+04  0.16302033687E+04  0.10100000352E+00 0.  1.
       -3    1    3    3    0  502  0.35330847857E+03 -0.13535796196E+03  0.14430649193E+03  0.40493583777E+03  0.10100000352E+00 0. -1.
</event>
<event>
 5   0  0.1339162E-03  0.1350223E+04  0.7818609E-02  0.8990659E-01
       -2   -1    0    0    0  501  0.00000000000E+00  0.00000000000E+00  0.42846475706E+03  0.42846475707E+03  0.25500000920E-02 0.  1.
        2   -1    0    0  501    0  0.00000000000E+00  0.00000000000E+00 -0.10637414490E+04  0.10637414490E+04  0.25500000920E-02 0. -1.
    10030    2    1    2    0    0  0.00000000000E+00  0.00000000000E+00 -0.63527669192E+03  0.14922062061E+04  0.13502232727E+04 0.  0.
        5    1    3    3  502    0 -0.49984238356E+01 -0.43678614609E+03  0.25121766832E+03  0.50392412973E+03  0.46999998093E+01 0.  1.
       -5    1    3    3    0  502  0.49984238356E+01  0.43678614609E+03 -0.88649436023E+03  0.98828207632E+03  0.46999998093E+01 0. -1.
</event>
<event>
 5   0  0.7499834E-04  0.1752359E+04  0.7818609E-02  0.8732053E-01
        1   -1    0    0  501    0  0.00000000000E+00  0.00000000000E+00  0.80416600121E+03  0.80416600122E+03  0.50400001928E-02 0. -1.
       -1   -1    0    0    0  501  0.00000000000E+00  0.00000000000E+00 -0.95464229051E+03  0.95464229052E+03  0.50400001928E-02 0.  1.
    10030    2    1    2    0    0  0.00000000000E+00  0.00000000000E+00 -0.15047628930E+03  0.17588082917E+04  0.17523594076E+04 0.  0.
        3    1    3    3  502    0 -0.36004715188E+03 -0.76713158882E+03 -0.29869177684E+03  0.89852190507E+03  0.10100000352E+00 0.  1.
       -3    1    3    3    0  502  0.36004715188E+03  0.76713158882E+03  0.14821548754E+03  0.86028638667E+03  0.10100000352E+00 0. -1.
</event>
<event>
 5   0  0.7601145E-04  0.1593086E+04  0.7818609E-02  0.8824807E-01
        1   -1    0    0  501    0  0.00000000000E+00  0.00000000000E+00  0.76534665736E+03  0.76534665738E+03  0.50400001928E-02 0.  1.
       -1   -1    0    0    0  501  0.00000000000E+00  0.00000000000E+00 -0.82901072391E+03  0.82901072393E+03  0.50400001928E-02 0. -1.
    10030    2    1    2    0    0  0.00000000000E+00  0.00000000000E+00 -0.63664066552E+02  0.15943573813E+04  0.15930857937E+04 0.  0.
        4    1    3    3  502    0 -0.49706315502E+03  0.56740190947E+03 -0.28789220433E+03  0.80740339432E+03  0.12699999809E+01 0.  1.
       -4    1    3    3    0  502  0.49706315502E+03 -0.56740190947E+03  0.22422813778E+03  0.78695398698E+03  0.12699999809E+01 0. -1.
</event>
<event>
 5   0  0.1414796E-03  0.1595981E+04  0.7818609E-02  0.8823021E-01
       -2   -1    0    0    0  501  0.00000000000E+00  0.00000000000E+00  0.74176225318E+03  0.74176225318E+03  0.25500000920E-02 0.  1.
        2   -1    0    0  501    0  0.00000000000E+00  0.00000000000E+00 -0.85848067095E+03  0.85848067095E+03  0.25500000920E-02 0. -1.
    10030    2    1    2    0    0  0.00000000000E+00  0.00000000000E+00 -0.11671841777E+03  0.16002429241E+04  0.15959806475E+04 0.  0.
        4    1    3    3  502    0  0.23301758461E+03  0.54749489175E+02 -0.82163608950E+03  0.85579330319E+03  0.12699999809E+01 0. -1.
       -4    1    3    3    0  502 -0.23301758461E+03 -0.54749489175E+02  0.70491767173E+03  0.74444962095E+03  0.12699999809E+01 0.  1.
</event>
<event>
 5   0  0.7499834E-04  0.1528784E+04  0.7818609E-02  0.8865534E-01
       -1   -1    0    0    0  501  0.00000000000E+00  0.00000000000E+00  0.78845671686E+03  0.78845671688E+03  0.50400001928E-02 0.  1.
        1   -1    0    0  501    0  0.00000000000E+00  0.00000000000E+00 -0.74106180296E+03  0.74106180298E+03  0.50400001928E-02 0. -1.
    10030    2    1    2    0    0  0.00000000000E+00  0.00000000000E+00  0.47394913904E+02  0.15295185199E+04  0.15287840347E+04 0.  0.
        3    1    3    3  502    0 -0.43587747959E+03 -0.46451170249E+03  0.44643429932E+03  0.77785853005E+03  0.10100000352E+00 0.  1.
       -3    1    3    3    0  502  0.43587747959E+03  0.46451170249E+03 -0.39903938541E+03  0.75165998981E+03  0.10100000352E+00 0. -1.
</event>
<event>
 5   0  0.7124495E-04  0.1643025E+04  0.7818609E-02  0.8794543E-01
        1   -1    0    0  501    0  0.00000000000E+00  0.00000000000E+00  0.74268782525E+03  0.74268782527E+03  0.50400001928E-02 0. -1.
       -1   -1    0    0    0  501  0.00000000000E+00  0.00000000000E+00 -0.90870367729E+03  0.90870367730E+03  0.50400001928E-02 0.  1.
    10030    2    1    2    0    0  0.00000000000E+00  0.00000000000E+00 -0.16601585203E+03  0.16513915026E+04  0.16430254507E+04 0.  0.
        2    1    3    3  502    0 -0.65810687970E+03 -0.31270887339E+03  0.29838656346E+03  0.78735382508E+03  0.25500000920E-02 0. -1.
       -2    1    3    3    0  502  0.65810687970E+03  0.31270887339E+03 -0.46440241550E+03  0.86403767749E+03  0.25500000920E-02 0.  1.
</event>
<event>
 5   0  0.7302027E-04  0.1597585E+04  0.7818609E-02  0.8822033E-01
       -1   -1    0    0    0  501  0.00000000000E+00  0.00000000000E+00  0.88856019905E+03  0.88856019906E+03  0.50400001928E-02 0. -1.
        1   -1    0    0  501    0  0.00000000000E+00  0.00000000000E+00 -0.71809329168E+03  0.71809329169E+03  0.50400001928E-02 0.  1.
    10030    2    1    2    0    0  0.00000000000E+00  0.00000000000E+00  0.17046690737E+03  0.16066534908E+04  0.15975845746E+04 0.  0.
        5    1    3    3  502    0 -0.28907539374E+03  0.59995637667E+03  0.52879818249E+03  0.85038923145E+03  0.46999998093E+01 0. -1.
       -5    1    3    3    0  502  0.28907539374E+03 -0.59995637667E+03 -0.35833127512E+03  0.75626425930E+03  0.46999998093E+01 0.  1.
</event>
<event>
 5   0  0.7499834E-04  0.1541835E+04  0.7818609E-02  0.8857100E-01
       -1   -1    0    0    0  501  0.00000000000E+00  0.00000000000E+00  0.47286519185E+03  0.47286519187E+03  0.50400001928E-02 0. -1.
        1   -1    0    0  501    0  0.00000000000E+00  0.00000000000E+00 -0.12568348767E+04  0.12568348767E+04  0.50400001928E-02 0.  1.
    10030    2    1    2    0    0  0.00000000000E+00  0.00000000000E+00 -0.78396968482E+03  0.17297000686E+04  0.15418345762E+04 0.  0.
        3    1    3    3  502    0  0.21722819513E+03  0.32253729828E+03 -0.11387455779E+04  0.12033120538E+04  0.10100000352E+00 0.  1.
       -3    1    3    3    0  502 -0.21722819513E+03 -0.32253729828E+03  0.35477589307E+03  0.52638801472E+03  0.10100000352E+00 0. -1.
</event>
<event>
 5   0  0.7302027E-04  0.1611379E+04  0.7818609E-02  0.8813588E-01
        1   -1    0    0  501    0  0.00000000000E+00  0.00000000000E+00  0.47033617340E+03  0.47033617343E+03  0.50400001928E-02 0.  1.
       -1   -1    0    0    0  501  0.00000000000E+00  0.00000000000E+00 -0.13801526962E+04  0.13801526963E+04  0.50400001928E-02 0. -1.
    10030    2    1    2    0    0  0.00000000000E+00  0.00000000000E+00 -0.90981652284E+03  0.18504888697E+04  0.16113792079E+04 0.  0.
        5    1    3    3  502    0  0.34107434149E+03 -0.22033296913E+03  0.34422085657E+03  0.53234238212E+03  0.46999998093E+01 0.  1.
       -5    1    3    3    0  502 -0.34107434149E+03  0.22033296913E+03 -0.12540373794E+04  0.13181464876E+04  0.46999998093E+01 0. -1.
</event>
<event>
 5   0  0.7124495E-04  0.1610989E+04  0.7818609E-02  0.8813826E-01
        1   -1    0    0  501    0  0.00000000000E+00  0.00000000000E+00  0.59526327177E+03  0.59526327179E+03  0.50400001928E-02 0. -1.
       -1   -1    0    0    0  501  0.00000000000E+00  0.00000000000E+00 -0.10899732362E+04  0.10899732362E+04  0.50400001928E-02 0.  1.
    10030    2    1    2    0    0  0.00000000000E+00  0.00000000000E+00 -0.49470996440E+03  0.16852365080E+04  0.16109885595E+04 0.  0.
        2    1    3    3  502    0 -0.46993627616E+03  0.24517219355E+03  0.38712290380E+03  0.65636396214E+03  0.25500000920E-02 0. -1.
       -2    1    3    3    0  502  0.46993627616E+03 -0.24517219355E+03 -0.88183286819E+03  0.10288725458E+04  0.25500000920E-02 0.  1.
</event>
<event>
 5   0  0.7124495E-04  0.1601971E+04  0.7818609E-02  0.8819338E-01
       -1   -1    0    0    0  501  0.00000000000E+00  0.00000000000E+00  0.61167267361E+03  0.61167267363E+03  0.50400001928E-02 0. -1.
        1   -1    0    0  501    0  0.00000000000E+00  0.00000000000E+00 -0.10488904660E+04  0.10488904660E+04  0.50400001928E-02 0.  1.
    10030    2    1    2    0    0  0.00000000000E+00  0.00000000000E+00 -0.43721779236E+03  0.16605631396E+04  0.16019708308E+04 0.  0.
        2    1    3    3  502    0 -0.55480128576E+03  0.35626600130E+03  0.25283079442E+03  0.70615390743E+03  0.25500000920E-02 0.  1.
       -2    1    3    3    0  502  0.55480128576E+03 -0.35626600130E+03 -0.69004858678E+03  0.95440923219E+03  0.25500000920E-02 0. -1.
</event>
<event>
 5   0  0.1339162E-03  0.1590847E+04  0.7818609E-02  0.8826191E-01
       -2   -1    0    0    0  501  0.00000000000E+00  0.00000000000E+00  0.51038327178E+03  0.51038327179E+03  0.25500000920E-02 0.  1.
        2   -1    0    0  501    0  0.00000000000E+00  0.00000000000E+00 -0.12396538923E+04  0.12396538923E+04  0.25500000920E-02 0. -1.
    10030    2    1    2    0    0  0.00000000000E+00  0.00000000000E+00 -0.72927062056E+03  0.17500371641E+04  0.15908470819E+04 0.  0.
        5    1    3    3  502    0  0.28566726505E+03 -0.36910031181E+03  0.34389248833E+03  0.57976284809E+03  0.46999998093E+01 0.  1.
       -5    1    3    3    0  502 -0.28566726505E+03  0.36910031181E+03 -0.10731631089E+04  0.11702743160E+04  0.46999998093E+01 0. -1.
</event>
<event>
 5   0  0.7499834E-04  0.1613775E+04  0.7818609E-02  0.8812130E-01
        1   -1    0    0  501    0  0.00000000000E+00  0.00000000000E+00  0.15530295698E+04  0.15530295698E+04  0.50400001928E-02 0. -1.
       -1   -1    0    0    0  501  0.00000000000E+00  0.00000000000E+00 -0.41922428301E+03  0.41922428304E+03  0.50400001928E-02 0.  1.
    10030    2    1    2    0    0  0.00000000000E+00  0.00000000000E+00  0.11338052868E+04  0.19722538529E+04  0.16137753350E+04 0.  0.
        3    1    3    3  502    0 -0.21392182568E+03 -0.38259102223E+03 -0.26102543910E+03  0.51016931292E+03  0.10100000352E+00 0.  1.
       -3    1    3    3    0  502  0.21392182568E+03  0.38259102223E+03  0.13948307259E+04  0.14620845399E+04  0.10100000352E+00 0. -1.
</event>
<event>
 5   0  0.1339162E-03  0.1610747E+04  0.7818609E-02  0.8813973E-01
       -2   -1    0    0    0  501  0.00000000000E+00  0.00000000000E+00  0.61227141447E+03  0.61227141448E+03  0.25500000920E-02 0.  1.
        2   -1    0    0  501    0  0.00000000000E+00  0.00000000000E+00 -0.10593768281E+04  0.10593768281E+04  0.25500000920E-02 0. -1.
    10030    2    1    2    0    0  0.00000000000E+00  0.00000000000E+00 -0.44710541359E+03  0.16716482425E+04  0.16107465958E+04 0.  0.
        5    1    3    3  502    0  0.48303932230E+03 -0.53170014844E+03  0.15431834086E+03  0.73475728990E+03  0.46999998093E+01 0.  1.
       -5    1    3    3    0  502 -0.48303932230E+03  0.53170014844E+03 -0.60142375444E+03  0.93689095264E+03  0.46999998093E+01 0. -1.
</event>
<event>
 5   0  0.7499834E-04  0.1564896E+04  0.7818609E-02  0.8842408E-01
        1   -1    0    0  501    0  0.00000000000E+00  0.00000000000E+00  0.12627627795E+04  0.12627627795E+04  0.50400001928E-02 0. -1.
       -1   -1    0    0    0  501  0.00000000000E+00  0.00000000000E+00 -0.48482995696E+03  0.48482995699E+03  0.50400001928E-02 0.  1.
    10030    2    1    2    0    0  0.00000000000E+00  0.00000000000E+00  0.77793282251E+03  0.17475927365E+04  0.15648964490E+04 0.  0.
        3    1    3    3  502    0 -0.68303466679E+03 -0.40959674310E+02 -0.34825540332E+02  0.68514734139E+03  0.10100000352E+00 0.  1.
       -3    1    3    3    0  502  0.68303466679E+03  0.40959674310E+02  0.81275836285E+03  0.10624453951E+04  0.10100000352E+00 0. -1.
</event>
<event>
 5   0  0.1414796E-03  0.1595106E+04  0.7818609E-02  0.8823560E-01
        2   -1    0    0  501    0  0.00000000000E+00  0.00000000000E+00  0.26649690830E+04  0.26649690830E+04  0.25500000920E-02 0. -1.
       -2   -1    0    0    0  501  0.00000000000E+00  0.00000000000E+00 -0.23868603088E+03  0.23868603090E+03  0.25500000920E-02 0.  1.
    10030    2    1    2    0    0  0.00000000000E+00  0.00000000000E+00  0.24262830521E+04  0.29036551139E+04  0.15951061317E+04 0.  0.
        4    1    3    3  502    0 -0.23537493907E+03  0.87975591581E+02 -0.16474397839E+03  0.30047172574E+03  0.12699999809E+01 0.  1.
       -4    1    3    3    0  502  0.23537493907E+03 -0.87975591581E+02  0.25910270305E+04  0.26031833881E+04  0.12699999809E+01 0. -1.
</event>
<event>
 5   0  0.7601145E-04  0.1582467E+04  0.7818609E-02  0.8831392E-01
        1   -1    0    0  501    0  0.00000000000E+00  0.00000000000E+00  0.68241033147E+03  0.68241033148E+03  0.50400001928E-02 0. -1.
       -1   -1    0    0    0  501  0.00000000000E+00  0.00000000000E+00 -0.91741023819E+03  0.91741023821E+03  0.50400001928E-02 0.  1.
    10030    2    1    2    0    0  0.00000000000E+00  0.00000000000E+00 -0.23499990673E+03  0.15998205697E+04  0.15824667134E+04 0.  0.
        4    1    3    3  502    0  0.84900808055E+01 -0.26183113944E+03 -0.87229379828E+03  0.91078302052E+03  0.12699999809E+01 0.  1.
       -4    1    3    3    0  502 -0.84900808055E+01  0.26183113944E+03  0.63729389155E+03  0.68903754917E+03  0.12699999809E+01 0. -1.
</event>
<event>
 5   0  0.1414796E-03  0.1565534E+04  0.7818609E-02  0.8842006E-01
        2   -1    0    0  501    0  0.00000000000E+00  0.00000000000E+00  0.18445965698E+04  0.18445965698E+04  0.25500000920E-02 0.  1.
       -2   -1    0    0    0  501  0.00000000000E+00  0.00000000000E+00 -0.33217231190E+03  0.33217231191E+03  0.25500000920E-02 0. -1.
    10030    2    1    2    0    0  0.00000000000E+00  0.00000000000E+00  0.15124242579E+04  0.21767688817E+04  0.15655336561E+04 0.  0.
        4    1    3    3  502    0 -0.56269085164E+03  0.34973033024E+03  0.13358574013E+04  0.14911233711E+04  0.12699999809E+01 0.  1.
       -4    1    3    3    0  502  0.56269085164E+03 -0.34973033024E+03  0.17656685655E+03  0.68564551055E+03  0.12699999809E+01 0. -1.
</event>
<event>
 5   0  0.1414751E-03  0.1058141E+04  0.7818609E-02  0.9246979E-01
       -2   -1    0    0    0  501  0.00000000000E+00  0.00000000000E+00  0.66101903276E+03  0.66101903277E+03  0.25500000920E-02 0. -1.
        2   -1    0    0  501    0  0.00000000000E+00  0.00000000000E+00 -0.42346058523E+03  0.42346058524E+03  0.25500000920E-02 0.  1.
    10030    2    1    2    0    0  0.00000000000E+00  0.00000000000E+00  0.23755844753E+03  0.10844796180E+04  0.10581408346E+04 0.  0.
        2    1    3    3  502    0 -0.35054591898E+03  0.64453825366E+02  0.51950890318E+03  0.63002082300E+03  0.25500000920E-02 0. -1.
       -2    1    3    3    0  502  0.35054591898E+03 -0.64453825366E+02 -0.28195045565E+03  0.45445879501E+03  0.25500000920E-02 0.  1.
</event>
<event>
 5   0  0.7633213E-04  0.1608631E+04  0.7818609E-02  0.8815263E-01
        1   -1    0    0  501    0  0.00000000000E+00  0.00000000000E+00  0.12896707514E+04  0.12896707514E+04  0.50400001928E-02 0. -1.
       -1   -1    0    0    0  501  0.00000000000E+00  0.00000000000E+00 -0.50161901660E+03  0.50161901662E+03  0.50400001928E-02 0.  1.
    10030    2    1    2    0    0  0.00000000000E+00  0.00000000000E+00  0.78805173481E+03  0.17912897680E+04  0.16086309385E+04 0.  0.
        1    1    3    3  502    0  0.32577638251E+03 -0.38205930187E+03  0.10937246156E+04  0.12034671148E+04  0.50400001928E-02 0. -1.
       -1    1    3    3    0  502 -0.32577638251E+03  0.38205930187E+03 -0.30567288083E+03  0.58782265323E+03  0.50400001928E-02 0.  1.
</event>
<event>
 5   0  0.5095750E-04  0.1003887E+04  0.7818609E-02  0.9304292E-01
        3   -1    0    0  501    0  0.00000000000E+00  0.00000000000E+00  0.12549369187E+03  0.12549373251E+03  0.10100000352E+00 0. -1.
       -3   -1    0    0    0  501  0.00000000000E+00  0.00000000000E+00 -0.20076466945E+04  0.20076466970E+04  0.10100000352E+00 0.  1.
    10030    2    1    2    0    0  0.00000000000E+00  0.00000000000E+00 -0.18821530026E+04  0.21331404295E+04  0.10038865309E+04 0.  0.
        3    1    3    3  502    0 -0.35936414003E+03 -0.24139639532E+03 -0.40128860135E+03  0.59029429659E+03  0.10100000352E+00 0. -1.
       -3    1    3    3    0  502  0.35936414003E+03  0.24139639532E+03 -0.14808644013E+04  0.15428461330E+04  0.10100000352E+00 0.  1.
</event>
<event>
 5   0  0.7633213E-04  0.1666341E+04  0.7818609E-02  0.8780798E-01
        1   -1    0    0  501    0  0.00000000000E+00  0.00000000000E+00  0.11043339146E+04  0.11043339146E+04  0.50400001928E-02 0.  1.
       -1   -1    0    0    0  501  0.00000000000E+00  0.00000000000E+00 -0.62858987573E+03  0.62858987575E+03  0.50400001928E-02 0. -1.
    10030    2    1    2    0    0  0.00000000000E+00  0.00000000000E+00  0.47574403889E+03  0.17329237904E+04  0.16663410433E+04 0.  0.
        1    1    3    3  502    0 -0.80555441536E+03  0.77197466387E+02  0.44402441288E+03  0.92305744360E+03  0.50400001928E-02 0.  1.
       -1    1    3    3    0  502  0.80555441536E+03 -0.77197466387E+02  0.31719626002E+02  0.80986634677E+03  0.50400001928E-02 0. -1.
</event>
<event>
 5   0  0.1339162E-03  0.1621267E+04  0.7818609E-02  0.8807588E-01
        2   -1    0    0  501    0  0.00000000000E+00  0.00000000000E+00  0.90577422658E+03  0.90577422658E+03  0.25500000920E-02 0.  1.
       -2   -1    0    0    0  501  0.00000000000E+00  0.00000000000E+00 -0.72548619025E+03  0.72548619025E+03  0.25500000920E-02 0. -1.
    10030    2    1    2    0    0  0.00000000000E+00  0.00000000000E+00  0.18028803633E+03  0.16312604168E+04  0.16212670266E+04 0.  0.
        5    1    3    3  502    0  0.86146637270E+01  0.14997245510E+03  0.89163342944E+03  0.90421137584E+03  0.46999998093E+01 0.  1.
       -5    1    3    3    0  502 -0.86146637270E+01 -0.14997245510E+03 -0.71134539310E+03  0.72704904099E+03  0.46999998093E+01 0. -1.
</event>
<event>
 5   0  0.1354766E-03  0.1654468E+04  0.7818609E-02  0.8787768E-01
       -2   -1    0    0    0  501  0.00000000000E+00  0.00000000000E+00  0.39040934299E+03  0.39040934299E+03  0.25500000920E-02 0. -1.
        2   -1    0    0  501    0  0.00000000000E+00  0.00000000000E+00 -0.17528165430E+04  0.17528165430E+04  0.25500000920E-02 0.  1.
    10030    2    1    2    0    0  0.00000000000E+00  0.00000000000E+00 -0.13624072000E+04  0.21432258860E+04  0.16544678358E+04 0.  0.
        3    1    3    3  502    0 -0.76644646200E+03  0.21232254686E+03 -0.97602100834E+03  0.12590226614E+04  0.10100000352E+00 0.  1.
       -3    1    3    3    0  502  0.76644646200E+03 -0.21232254686E+03 -0.38638619163E+03  0.88420322455E+03  0.10100000352E+00 0. -1.
</event>
<event>
 5   0  0.1339162E-03  0.1630456E+04  0.7818609E-02  0.8802053E-01
       -2   -1    0    0    0  501  0.00000000000E+00  0.00000000000E+00  0.48883674218E+03  0.48883674218E+03  0.25500000920E-02 0.  1.
        2   -1    0    0  501    0  0.00000000000E+00  0.00000000000E+00 -0.13595478426E+04  0.13595478426E+04  0.25500000920E-02 0. -1.
    10030    2    1    2    0    0  0.00000000000E+00  0.00000000000E+00 -0.87071110040E+03  0.18483845848E+04  0.16304563020E+04 0.  0.
        5    1    3    3  502    0  0.57327344980E+03 -0.50896891207E+03 -0.12101640619E+03  0.77611781468E+03  0.46999998093E+01 0. -1.
       -5    1    3    3    0  502 -0.57327344980E+03  0.50896891207E+03 -0.74969469422E+03  0.10722667701E+04  0.46999998093E+01 0.  1.
</event>
<event>
 5   0  0.7124495E-04  0.1636161E+04  0.7818609E-02  0.8798636E-01
       -1   -1    0    0    0  501  0.00000000000E+00  0.00000000000E+00  0.10021362491E+04  0.10021362491E+04  0.50400001928E-02 0. -1.
        1   -1    0    0  501    0  0.00000000000E+00  0.00000000000E+00 -0.66782924318E+03  0.66782924320E+03  0.50400001928E-02 0.  1.
    10030    2    1    2    0    0  0.00000000000E+00  0.00000000000E+00  0.33430700591E+03  0.16699654923E+04  0.16361612302E+04 0.  0.
        2    1    3    3  502    0 -0.38031310648E+02  0.61632389820E+03 -0.38054711688E+03  0.72533966957E+03  0.25500000920E-02 0.  1.
       -2    1    3    3    0  502  0.38031310648E+02 -0.61632389820E+03  0.71485412279E+03  0.94462582272E+03  0.25500000920E-02 0. -1.
</event>
<event>
 5   0  0.1414796E-03  0.1487390E+04  0.7818609E-02  0.8892882E-01
        2   -1    0    0  501    0  0.00000000000E+00  0.00000000000E+00  0.51356285821E+03  0.51356285821E+03  0.25500000920E-02 0. -1.
       -2   -1    0    0    0  501  0.00000000000E+00  0.00000000000E+00 -0.10769510008E+04  0.10769510008E+04  0.25500000920E-02 0.  1.
    10030    2    1    2    0    0  0.00000000000E+00  0.00000000000E+00 -0.56338814260E+03  0.15905138590E+04  0.14873897057E+04 0.  0.
        4    1    3    3  502    0 -0.18943154011E+03 -0.43198778507E+00 -0.10507186741E+04  0.10676590467E+04  0.12699999809E+01 0.  1.
       -4    1    3    3    0  502  0.18943154011E+03  0.43198778507E+00  0.48733053146E+03  0.52285481235E+03  0.12699999809E+01 0. -1.
</event>
<event>
 5   0  0.7633213E-04  0.1579129E+04  0.7818609E-02  0.8833473E-01
        1   -1    0    0  501    0  0.00000000000E+00  0.00000000000E+00  0.71677401632E+03  0.71677401634E+03  0.50400001928E-02 0. -1.
       -1   -1    0    0    0  501  0.00000000000E+00  0.00000000000E+00 -0.86974719635E+03  0.86974719636E+03  0.50400001928E-02 0.  1.
    10030    2    1    2    0    0  0.00000000000E+00  0.00000000000E+00 -0.15297318003E+03  0.15865212127E+04  0.15791291159E+04 0.  0.
        1    1    3    3  502    0 -0.10228365787E+03 -0.21811023453E+03 -0.83192273428E+03  0.86610014254E+03  0.50400001928E-02 0.  1.
       -1    1    3    3    0  502  0.10228365787E+03  0.21811023453E+03  0.67894955425E+03  0.72042107015E+03  0.50400001928E-02 0. -1.
</event>
<event>
 5   0  0.1354766E-03  0.1613551E+04  0.7818609E-02  0.8812266E-01
        2   -1    0    0  501    0  0.00000000000E+00  0.00000000000E+00  0.15406880329E+04  0.15406880329E+04  0.25500000920E-02 0.  1.
       -2   -1    0    0    0  501  0.00000000000E+00  0.00000000000E+00 -0.42246513785E+03  0.42246513786E+03  0.25500000920E-02 0. -1.
    10030    2    1    2    0    0  0.00000000000E+00  0.00000000000E+00  0.11182228951E+04  0.19631531708E+04  0.16135513407E+04 0.  0.
        3    1    3    3  502    0 -0.34535705699E+03 -0.47698429959E+03  0.12300467521E+04  0.13637450427E+04  0.10100000352E+00 0.  1.
       -3    1    3    3    0  502  0.34535705699E+03  0.47698429959E+03 -0.11182385701E+03  0.59940812813E+03  0.10100000352E+00 0. -1.
</event>
<event>
 5   0  0.7633213E-04  0.1561895E+04  0.7818609E-02  0.8844305E-01
        1   -1    0    0  501    0  0.00000000000E+00  0.00000000000E+00  0.16203213483E+04  0.16203213483E+04  0.50400001928E-02 0.  1.
       -1   -1    0    0    0  501  0.00000000000E+00  0.00000000000E+00 -0.37639404705E+03  0.37639404709E+03  0.50400001928E-02 0. -1.
    10030    2    1    2    0    0  0.00000000000E+00  0.00000000000E+00  0.12439273012E+04  0.19967153954E+04  0.15618953996E+04 0.  0.
        1    1    3    3  502    0  0.18147113890E+03  0.70274985695E+03  0.25346232432E+03  0.76878624179E+03  0.50400001928E-02 0. -1.
       -1    1    3    3    0  502 -0.18147113890E+03 -0.70274985695E+03  0.99046497690E+03  0.12279291536E+04  0.50400001928E-02 0.  1.
</event>
<event>
 5   0  0.1339162E-03  0.1559516E+04  0.7818609E-02  0.8845813E-01
       -2   -1    0    0    0  501  0.00000000000E+00  0.00000000000E+00  0.57088165950E+03  0.57088165951E+03  0.25500000920E-02 0.  1.
        2   -1    0    0  501    0  0.00000000000E+00  0.00000000000E+00 -0.10650581662E+04  0.10650581662E+04  0.25500000920E-02 0. -1.
    10030    2    1    2    0    0  0.00000000000E+00  0.00000000000E+00 -0.49417650669E+03  0.16359398257E+04  0.15595155317E+04 0.  0.
        5    1    3    3  502    0  0.13575776945E+03  0.49323613532E+03 -0.86438836883E+03  0.10044408391E+04  0.46999998093E+01 0. -1.
       -5    1    3    3    0  502 -0.13575776945E+03 -0.49323613532E+03  0.37021186215E+03  0.63149898656E+03  0.46999998093E+01 0.  1.
</event>
<event>
 5   0  0.7601145E-04  0.1604138E+04  0.7818609E-02  0.8818010E-01
       -1   -1    0    0    0  501  0.00000000000E+00  0.00000000000E+00  0.29508916260E+03  0.29508916265E+03  0.50400001928E-02 0.  1.
        1   -1    0    0  501    0  0.00000000000E+00  0.00000000000E+00 -0.21800683090E+04  0.21800683090E+04  0.50400001928E-02 0. -1.
    10030    2    1    2    0    0  0.00000000000E+00  0.00000000000E+00 -0.18849791464E+04  0.24751574717E+04  0.16041378143E+04 0.  0.
        4    1    3    3  502    0  0.23455888224E+03 -0.16284657408E+03  0.21400277896E+03  0.35684125074E+03  0.12699999809E+01 0.  1.
       -4    1    3    3    0  502 -0.23455888224E+03  0.16284657408E+03 -0.20989819254E+04  0.21183162209E+04  0.12699999809E+01 0. -1.
</event>
<event>
 5   0  0.1414751E-03  0.1593251E+04  0.7818609E-02  0.8824705E-01
       -2   -1    0    0    0  501  0.00000000000E+00  0.00000000000E+00  0.37658809251E+03  0.37658809252E+03  0.25500000920E-02 0.  1.
        2   -1    0    0  501    0  0.00000000000E+00  0.00000000000E+00 -0.16851628000E+04  0.16851628000E+04  0.25500000920E-02 0. -1.
    10030    2    1    2    0    0  0.00000000000E+00  0.00000000000E+00 -0.13085747075E+04  0.20617508925E+04  0.15932510718E+04 0.  0.
        2    1    3    3  502    0 -0.67126710622E+03 -0.27211745723E+03 -0.22516728266E+03  0.75851680510E+03  0.25500000920E-02 0.  1.
       -2    1    3    3    0  502  0.67126710622E+03  0.27211745723E+03 -0.10834074248E+04  0.13032340874E+04  0.25500000920E-02 0. -1.
</event>
<event>
 5   0  0.1354766E-03  0.1635098E+04  0.7818609E-02  0.8799272E-01
       -2   -1    0    0    0  501  0.00000000000E+00  0.00000000000E+00  0.88960778254E+03  0.88960778255E+03  0.25500000920E-02 0. -1.
        2   -1    0    0  501    0  0.00000000000E+00  0.00000000000E+00 -0.75132675908E+03  0.75132675909E+03  0.25500000920E-02 0.  1.
    10030    2    1    2    0    0  0.00000000000E+00  0.00000000000E+00  0.13828102346E+03  0.16409345416E+04  0.16350977122E+04 0.  0.
        3    1    3    3  502    0  0.26981147738E+03 -0.76844315823E+03 -0.24091608540E+01  0.81443780303E+03  0.10100000352E+00 0.  1.
       -3    1    3    3    0  502 -0.26981147738E+03  0.76844315823E+03  0.14069018431E+03  0.82649673860E+03  0.10100000352E+00 0. -1.
</event>
<event>
 5   0  0.7302027E-04  0.1600817E+04  0.7818609E-02  0.8820046E-01
       -1   -1    0    0    0  501  0.00000000000E+00  0.00000000000E+00  0.10830506118E+04  0.10830506119E+04  0.50400001928E-02 0. -1.
        1   -1    0    0  501    0  0.00000000000E+00  0.00000000000E+00 -0.59152692201E+03  0.59152692203E+03  0.50400001928E-02 0.  1.
    10030    2    1    2    0    0  0.00000000000E+00  0.00000000000E+00  0.49152368983E+03  0.16745775339E+04  0.16008167851E+04 0.  0.
        5    1    3    3  502    0 -0.51297537344E+03 -0.43699010011E+03  0.69755014175E+03  0.96989812434E+03  0.46999998093E+01 0. -1.
       -5    1    3    3    0  502  0.51297537344E+03  0.43699010011E+03 -0.20602645192E+03  0.70467940955E+03  0.46999998093E+01 0.  1.
</event>
<event>
 5   0  0.5095750E-04  0.1587943E+04  0.7818609E-02  0.8827989E-01
       -4   -1    0    0    0  501  0.00000000000E+00  0.00000000000E+00  0.59600895186E+03  0.59601030494E+03  0.12699999809E+01 0. -1.
        4   -1    0    0  501    0  0.00000000000E+00  0.00000000000E+00 -0.10576843865E+04  0.10576851490E+04  0.12699999809E+01 0.  1.
    10030    2    1    2    0    0  0.00000000000E+00  0.00000000000E+00 -0.46167543464E+03  0.16536954539E+04  0.15879434648E+04 0.  0.
        1    1    3    3  502    0  0.30937246003E+03  0.40596639795E+03  0.40251506376E+03  0.65002954692E+03  0.50400001928E-02 0. -1.
       -1    1    3    3    0  502 -0.30937246003E+03 -0.40596639795E+03 -0.86419049839E+03  0.10036659070E+04  0.50400001928E-02 0.  1.
</event>
<event>
 5   0  0.1375777E-03  0.1593638E+04  0.7818609E-02  0.8824466E-01
       -2   -1    0    0    0  501  0.00000000000E+00  0.00000000000E+00  0.54992420127E+03  0.54992420127E+03  0.25500000920E-02 0. -1.
        2   -1    0    0  501    0  0.00000000000E+00  0.00000000000E+00 -0.11545598403E+04  0.11545598403E+04  0.25500000920E-02 0.  1.
    10030    2    1    2    0    0  0.00000000000E+00  0.00000000000E+00 -0.60463563902E+03  0.17044840416E+04  0.15936378484E+04 0.  0.
        1    1    3    3  502    0 -0.23272976115E+03 -0.52122803988E+03  0.29229978466E+03  0.64131191742E+03  0.50400001928E-02 0. -1.
       -1    1    3    3    0  502  0.23272976115E+03  0.52122803988E+03 -0.89693542368E+03  0.10631721241E+04  0.50400001928E-02 0.  1.
</event>
<event>
 5   0  0.1414751E-03  0.1615080E+04  0.7818609E-02  0.8811337E-01
        2   -1    0    0  501    0  0.00000000000E+00  0.00000000000E+00  0.93360639320E+03  0.93360639320E+03  0.25500000920E-02 0. -1.
       -2   -1    0    0    0  501  0.00000000000E+00  0.00000000000E+00 -0.69849646320E+03  0.69849646321E+03  0.25500000920E-02 0.  1.
    10030    2    1    2    0    0  0.00000000000E+00  0.00000000000E+00  0.23510993000E+03  0.16321028564E+04  0.16150798911E+04 0.  0.
        2    1    3    3  502    0 -0.75460891279E+03  0.32899088680E+02 -0.17111972803E+03  0.77446686348E+03  0.25500000920E-02 0. -1.
       -2    1    3    3    0  502  0.75460891279E+03 -0.32899088680E+02  0.40622965803E+03  0.85763599293E+03  0.25500000920E-02 0.  1.
</event>
<event>
 5   0  0.7124495E-04  0.1608022E+04  0.7818609E-02  0.8815635E-01
        1   -1    0    0  501    0  0.00000000000E+00  0.00000000000E+00  0.82482405613E+03  0.82482405614E+03  0.50400001928E-02 0. -1.
       -1   -1    0    0    0  501  0.00000000000E+00  0.00000000000E+00 -0.78372334418E+03  0.78372334419E+03  0.50400001928E-02 0.  1.
    10030    2    1    2    0    0  0.00000000000E+00  0.00000000000E+00  0.41100711952E+02  0.16085474003E+04  0.16080222233E+04 0.  0.
        2    1    3    3  502    0 -0.25780016570E+03 -0.59354120341E+03  0.49786631761E+03  0.81646981316E+03  0.25500000920E-02 0. -1.
       -2    1    3    3    0  502  0.25780016570E+03  0.59354120341E+03 -0.45676560566E+03  0.79207758717E+03  0.25500000920E-02 0.  1.
</event>
<event>
 5   0  0.1414796E-03  0.1578062E+04  0.7818609E-02  0.8834140E-01
       -2   -1    0    0    0  501  0.00000000000E+00  0.00000000000E+00  0.36709243375E+03  0.36709243375E+03  0.25500000920E-02 0. -1.
        2   -1    0    0  501    0  0.00000000000E+00  0.00000000000E+00 -0.16959477820E+04  0.16959477821E+04  0.25500000920E-02 0.  1.
    10030    2    1    2    0    0  0.00000000000E+00  0.00000000000E+00 -0.13288553483E+04  0.20630402158E+04  0.15780615943E+04 0.  0.
        4    1    3    3  502    0  0.14903109474E+01  0.78842543727E+03 -0.62410998419E+03  0.10055504843E+04  0.12699999809E+01 0. -1.
       -4    1    3    3    0  502 -0.14903109474E+01 -0.78842543727E+03 -0.70474536412E+03  0.10574897315E+04  0.12699999809E+01 0.  1.
</event>
<event>
 5   0  0.1339162E-03  0.1506328E+04  0.7818609E-02  0.8880256E-01
       -2   -1    0    0    0  501  0.00000000000E+00  0.00000000000E+00  0.42835959028E+03  0.42835959029E+03  0.25500000920E-02 0. -1.
        2   -1    0    0  501    0  0.00000000000E+00  0.00000000000E+00 -0.13242521021E+04  0.13242521021E+04  0.25500000920E-02 0.  1.
    10030    2    1    2    0    0  0.00000000000E+00  0.00000000000E+00 -0.89589251183E+03  0.17526116924E+04  0.15063281022E+04 0.  0.
        5    1    3    3  502    0 -0.25764368700E+03 -0.46164420877E+03 -0.10720618055E+04  0.11953385503E+04  0.46999998093E+01 0.  1.
       -5    1    3    3    0  502  0.25764368700E+03  0.46164420877E+03  0.17616929365E+03  0.55727314216E+03  0.46999998093E+01 0. -1.
</event>
<event>
 5   0  0.1414796E-03  0.1596176E+04  0.7818609E-02  0.8822900E-01
        2   -1    0    0  501    0  0.00000000000E+00  0.00000000000E+00  0.23646631435E+04  0.23646631435E+04  0.25500000920E-02 0.  1.
       -2   -1    0    0    0  501  0.00000000000E+00  0.00000000000E+00 -0.26935964549E+03  0.26935964550E+03  0.25500000920E-02 0. -1.
    10030    2    1    2    0    0  0.00000000000E+00  0.00000000000E+00  0.20953034981E+04  0.26340227890E+04  0.15961764640E+04 0.  0.
        4    1    3    3  502    0  0.49703675303E+03 -0.21816740010E+03  0.82173494413E+02  0.54899603315E+03  0.12699999809E+01 0. -1.
       -4    1    3    3    0  502 -0.49703675303E+03  0.21816740010E+03  0.20131300036E+04  0.20850267559E+04  0.12699999809E+01 0.  1.
</event>
<event>
 5   0  0.1414751E-03  0.1626439E+04  0.7818609E-02  0.8804468E-01
       -2   -1    0    0    0  501  0.00000000000E+00  0.00000000000E+00  0.27987005060E+03  0.27987005062E+03  0.25500000920E-02 0.  1.
        2   -1    0    0  501    0  0.00000000000E+00  0.00000000000E+00 -0.23629761652E+04  0.23629761652E+04  0.25500000920E-02 0. -1.
    10030    2    1    2    0    0  0.00000000000E+00  0.00000000000E+00 -0.20831061146E+04  0.26428462158E+04  0.16264393735E+04 0.  0.
        2    1    3    3  502    0 -0.34553474598E+03 -0.21660023384E+03  0.10170370660E+03  0.42030175579E+03  0.25500000920E-02 0.  1.
       -2    1    3    3    0  502  0.34553474598E+03  0.21660023384E+03 -0.21848098212E+04  0.22225444600E+04  0.25500000920E-02 0. -1.
</event>
<event>
 5   0  0.1339162E-03  0.1619322E+04  0.7818609E-02  0.8808765E-01
       -2   -1    0    0    0  501  0.00000000000E+00  0.00000000000E+00  0.34321307498E+03  0.34321307498E+03  0.25500000920E-02 0. -1.
        2   -1    0    0  501    0  0.00000000000E+00  0.00000000000E+00 -0.19100408786E+04  0.19100408786E+04  0.25500000920E-02 0.  1.
    10030    2    1    2    0    0  0.00000000000E+00  0.00000000000E+00 -0.15668278036E+04  0.22532539536E+04  0.16193220844E+04 0.  0.
        5    1    3    3  502    0  0.69725678445E+03 -0.12797278049E+03 -0.23916053321E+03  0.74817371422E+03  0.46999998093E+01 0. -1.
       -5    1    3    3    0  502 -0.69725678445E+03  0.12797278049E+03 -0.13276672704E+04  0.15050802393E+04  0.46999998093E+01 0.  1.
</event>
<event>
 5   0  0.7633213E-04  0.1595644E+04  0.7818609E-02  0.8823229E-01
       -1   -1    0    0    0  501  0.00000000000E+00  0.00000000000E+00  0.60068747883E+03  0.60068747885E+03  0.50400001928E-02 0.  1.
        1   -1    0    0  501    0  0.00000000000E+00  0.00000000000E+00 -0.10596522643E+04  0.10596522643E+04  0.50400001928E-02 0. -1.
    10030    2    1    2    0    0  0.00000000000E+00  0.00000000000E+00 -0.45896478547E+03  0.16603397432E+04  0.15956438789E+04 0.  0.
        1    1    3    3  502    0 -0.20260386731E+03 -0.71360520662E+03  0.76089338099E+02  0.74570121722E+03  0.50400001928E-02 0.  1.
       -1    1    3    3    0  502  0.20260386731E+03  0.71360520662E+03 -0.53505412357E+03  0.91463852594E+03  0.50400001928E-02 0. -1.
</event>
<event>
 5   0  0.1354766E-03  0.1627942E+04  0.7818609E-02  0.8803564E-01
       -2   -1    0    0    0  501  0.00000000000E+00  0.00000000000E+00  0.12851577340E+04  0.12851577340E+04  0.25500000920E-02 0. -1.
        2   -1    0    0  501    0  0.00000000000E+00  0.00000000000E+00 -0.51553888362E+03  0.51553888363E+03  0.25500000920E-02 0.  1.
    10030    2    1    2    0    0  0.00000000000E+00  0.00000000000E+00  0.76961885034E+03  0.18006966176E+04  0.16279419934E+04 0.  0.
        3    1    3    3  502    0  0.15924088814E+02 -0.43815448792E+03 -0.37376190762E+03  0.57613445104E+03  0.10100000352E+00 0.  1.
       -3    1    3    3    0  502 -0.15924088814E+02  0.43815448792E+03  0.11433807580E+04  0.12245621666E+04  0.10100000352E+00 0. -1.
</event>
<event>
 5   0  0.7633213E-04  0.1619400E+04  0.7818609E-02  0.8808717E-01
       -1   -1    0    0    0  501  0.00000000000E+00  0.00000000000E+00  0.69580358160E+03  0.69580358162E+03  0.50400001928E-02 0. -1.
        1   -1    0    0  501    0  0.00000000000E+00  0.00000000000E+00 -0.94224059856E+03  0.94224059858E+03  0.50400001928E-02 0.  1.
    10030    2    1    2    0    0  0.00000000000E+00  0.00000000000E+00 -0.24643701696E+03  0.16380441802E+04  0.16194003622E+04 0.  0.
        1    1    3    3  502    0 -0.42997640822E+03 -0.60538921468E+03 -0.44979551369E+03  0.86815425878E+03  0.50400001928E-02 0.  1.
       -1    1    3    3    0  502  0.42997640822E+03  0.60538921468E+03  0.20335849673E+03  0.76988992141E+03  0.50400001928E-02 0. -1.
</event>
<event>
 5   0  0.1414751E-03  0.1605849E+04  0.7818609E-02  0.8816963E-01
        2   -1    0    0  501    0  0.00000000000E+00  0.00000000000E+00  0.10995845423E+04  0.10995845423E+04  0.25500000920E-02 0.  1.
       -2   -1    0    0    0  501  0.00000000000E+00  0.00000000000E+00 -0.58630152237E+03  0.58630152238E+03  0.25500000920E-02 0. -1.
    10030    2    1    2    0    0  0.00000000000E+00  0.00000000000E+00  0.51328301992E+03  0.16858860647E+04  0.16058494215E+04 0.  0.
        2    1    3    3  502    0  0.13730228552E+03 -0.67951369589E+03  0.68192070084E+03  0.97242306778E+03  0.25500000920E-02 0.  1.
       -2    1    3    3    0  502 -0.13730228552E+03  0.67951369589E+03 -0.16863768092E+03  0.71346299690E+03  0.25500000920E-02 0. -1.
</event>
<event>
 5   0  0.1339162E-03  0.1346170E+04  0.7818609E-02  0.8993732E-01
       -2   -1    0    0    0  501  0.00000000000E+00  0.00000000000E+00  0.34791143544E+03  0.34791143545E+03  0.25500000920E-02 0.  1.
        2   -1    0    0  501    0  0.00000000000E+00  0.00000000000E+00 -0.13021811101E+04  0.13021811101E+04  0.25500000920E-02 0. -1.
    10030    2    1    2    0    0  0.00000000000E+00  0.00000000000E+00 -0.95426967463E+03  0.16500925455E+04  0.13461704190E+04 0.  0.
        5    1    3    3  502    0  0.63647154391E+03  0.21624587992E+03 -0.51894237364E+03  0.84922410703E+03  0.46999998093E+01 0. -1.
       -5    1    3    3    0  502 -0.63647154391E+03 -0.21624587992E+03 -0.43532730099E+03  0.80086843850E+03  0.46999998093E+01 0.  1.
</event>
<event>
 5   0  0.7499834E-04  0.8189653E+03  0.7818609E-02  0.9532964E-01
        1   -1    0    0  501    0  0.00000000000E+00  0.00000000000E+00  0.40946415575E+03  0.40946415578E+03  0.50400001928E-02 0.  1.
       -1   -1    0    0    0  501  0.00000000000E+00  0.00000000000E+00 -0.40950115180E+03  0.40950115183E+03  0.50400001928E-02 0. -1.
    10030    2    1    2    0    0  0.00000000000E+00  0.00000000000E+00 -0.36996048775E-01  0.81896530762E+03  0.81896530678E+03 0.  0.
        3    1    3    3  502    0  0.33212789706E+02  0.32868295951E+03  0.24193285260E+03  0.40947172387E+03  0.10100000352E+00 0. -1.
       -3    1    3    3    0  502 -0.33212789706E+02 -0.32868295951E+03 -0.24196984865E+03  0.40949358375E+03  0.10100000352E+00 0.  1.
</event>
<event>
 5   0  0.7633213E-04  0.1207612E+04  0.7818609E-02  0.9106220E-01
       -1   -1    0    0    0  501  0.00000000000E+00  0.00000000000E+00  0.77172897647E+03  0.77172897649E+03  0.50400001928E-02 0. -1.
        1   -1    0    0  501    0  0.00000000000E+00  0.00000000000E+00 -0.47242153062E+03  0.47242153065E+03  0.50400001928E-02 0.  1.
    10030    2    1    2    0    0  0.00000000000E+00  0.00000000000E+00  0.29930744585E+03  0.12441505071E+04  0.12076115010E+04 0.  0.
        1    1    3    3  502    0  0.35896172949E+03 -0.19922936124E+03 -0.30650193701E+03  0.51233709512E+03  0.50400001928E-02 0.  1.
       -1    1    3    3    0  502 -0.35896172949E+03  0.19922936124E+03  0.60580938287E+03  0.73181341202E+03  0.50400001928E-02 0. -1.
</event>
<event>
 5   0  0.7302027E-04  0.1579173E+04  0.7818609E-02  0.8833446E-01
       -1   -1    0    0    0  501  0.00000000000E+00  0.00000000000E+00  0.51423083810E+03  0.51423083813E+03  0.50400001928E-02 0.  1.
        1   -1    0    0  501    0  0.00000000000E+00  0.00000000000E+00 -0.12123866591E+04  0.12123866591E+04  0.50400001928E-02 0. -1.
    10030    2    1    2    0    0  0.00000000000E+00  0.00000000000E+00 -0.69815582103E+03  0.17266174973E+04  0.15791727048E+04 0.  0.
        5    1    3    3  502    0 -0.28669375234E+03 -0.97340085566E+01  0.45522549341E+03  0.53808958214E+03  0.46999998093E+01 0.  1.
       -5    1    3    3    0  502  0.28669375234E+03  0.97340085566E+01 -0.11533813144E+04  0.11885279151E+04  0.46999998093E+01 0. -1.
</event>
<event>
 5   0  0.5095750E-04  0.1582666E+04  0.7818609E-02  0.8831269E-01
       -3   -1    0    0    0  501  0.00000000000E+00  0.00000000000E+00  0.89065797624E+03  0.89065798197E+03  0.10100000352E+00 0. -1.
        3   -1    0    0  501    0  0.00000000000E+00  0.00000000000E+00 -0.70308418095E+03  0.70308418820E+03  0.10100000352E+00 0.  1.
    10030    2    1    2    0    0  0.00000000000E+00  0.00000000000E+00  0.18757379529E+03  0.15937421702E+04  0.15826655289E+04 0.  0.
        1    1    3    3  502    0 -0.65532341364E+03  0.14327648316E+03  0.51652325576E+03  0.84662459264E+03  0.50400001928E-02 0. -1.
       -1    1    3    3    0  502  0.65532341364E+03 -0.14327648316E+03 -0.32894946047E+03  0.74711757753E+03  0.50400001928E-02 0.  1.
</event>
<event>
 5   0  0.7499834E-04  0.1579156E+04  0.7818609E-02  0.8833456E-01
        1   -1    0    0  501    0  0.00000000000E+00  0.00000000000E+00  0.49289739191E+03  0.49289739193E+03  0.50400001928E-02 0.  1.
       -1   -1    0    0    0  501  0.00000000000E+00  0.00000000000E+00 -0.12648347427E+04  0.12648347427E+04  0.50400001928E-02 0. -1.
    10030    2    1    2    0    0  0.00000000000E+00  0.00000000000E+00 -0.77193735078E+03  0.17577321346E+04  0.15791564152E+04 0.  0.
        3    1    3    3  502    0 -0.11714790752E+03 -0.38989008303E+03 -0.11390051626E+04  0.12095745863E+04  0.10100000352E+00 0. -1.
       -3    1    3    3    0  502  0.11714790752E+03  0.38989008303E+03  0.36706781187E+03  0.54815754833E+03  0.10100000352E+00 0.  1.
</event>
<event>
 5   0  0.1339162E-03  0.1533732E+04  0.7818609E-02  0.8862326E-01
        2   -1    0    0  501    0  0.00000000000E+00  0.00000000000E+00  0.20330103289E+04  0.20330103289E+04  0.25500000920E-02 0. -1.
       -2   -1    0    0    0  501  0.00000000000E+00  0.00000000000E+00 -0.28926743344E+03  0.28926743345E+03  0.25500000920E-02 0.  1.
    10030    2    1    2    0    0  0.00000000000E+00  0.00000000000E+00  0.17437428954E+04  0.23222777623E+04  0.15337322843E+04 0.  0.
        5    1    3    3  502    0 -0.76434153302E+03  0.53979887214E+02  0.91804096471E+03  0.11958064685E+04  0.46999998093E+01 0. -1.
       -5    1    3    3    0  502  0.76434153302E+03 -0.53979887214E+02  0.82570193073E+03  0.11264712938E+04  0.46999998093E+01 0.  1.
</event>
<event>
 5   0  0.5095750E-04  0.1655105E+04  0.7818609E-02  0.8787392E-01
        3   -1    0    0  501    0  0.00000000000E+00  0.00000000000E+00  0.12368200841E+04  0.12368200882E+04  0.10100000352E+00 0.  1.
       -3   -1    0    0    0  501  0.00000000000E+00  0.00000000000E+00 -0.55371250276E+03  0.55371251197E+03  0.10100000352E+00 0. -1.
    10030    2    1    2    0    0  0.00000000000E+00  0.00000000000E+00  0.68310758130E+03  0.17905326002E+04  0.16551045358E+04 0.  0.
        1    1    3    3  502    0 -0.42312595687E+03  0.37570392526E+03  0.99483044827E+03  0.11444984210E+04  0.50400001928E-02 0.  1.
       -1    1    3    3    0  502  0.42312595687E+03 -0.37570392526E+03 -0.31172286697E+03  0.64603417916E+03  0.50400001928E-02 0. -1.
</event>
<event>
 5   0  0.1339162E-03  0.1620193E+04  0.7818609E-02  0.8808238E-01
       -2   -1    0    0    0  501  0.00000000000E+00  0.00000000000E+00  0.40292262150E+03  0.40292262151E+03  0.25500000920E-02 0. -1.
        2   -1    0    0  501    0  0.00000000000E+00  0.00000000000E+00 -0.16287412471E+04  0.16287412471E+04  0.25500000920E-02 0.  1.
    10030    2    1    2    0    0  0.00000000000E+00  0.00000000000E+00 -0.12258186256E+04  0.20316638686E+04  0.16201934366E+04 0.  0.
        5    1    3    3  502    0 -0.23066684899E+03  0.68425653442E+03 -0.10733384497E+04  0.12936350791E+04  0.46999998093E+01 0.  1.
       -5    1    3    3    0  502  0.23066684899E+03 -0.68425653442E+03 -0.15248017582E+03  0.73802878951E+03  0.46999998093E+01 0. -1.
</event>
<event>
 5   0  0.7633213E-04  0.9344086E+03  0.7818609E-02  0.9383563E-01
        1   -1    0    0  501    0  0.00000000000E+00  0.00000000000E+00  0.12748253223E+04  0.12748253223E+04  0.50400001928E-02 0.  1.
       -1   -1    0    0    0  501  0.00000000000E+00  0.00000000000E+00 -0.17122333819E+03  0.17122333826E+03  0.50400001928E-02 0. -1.
    10030    2    1    2    0    0  0.00000000000E+00  0.00000000000E+00  0.11036019841E+04  0.14460486606E+04  0.93440857734E+03 0.  0.
        1    1    3    3  502    0  0.34961364844E+03  0.28845795426E+03  0.37642707298E+03  0.58918166625E+03  0.50400001928E-02 0.  1.
       -1    1    3    3    0  502 -0.34961364844E+03 -0.28845795426E+03  0.72717491111E+03  0.85686699430E+03  0.50400001928E-02 0. -1.
</event>
<event>
 5   0  0.7302027E-04  0.1601075E+04  0.7818609E-02  0.8819888E-01
        1   -1    0    0  501    0  0.00000000000E+00  0.00000000000E+00  0.11886408924E+04  0.11886408925E+04  0.50400001928E-02 0. -1.
       -1   -1    0    0    0  501  0.00000000000E+00  0.00000000000E+00 -0.53915363923E+03  0.53915363925E+03  0.50400001928E-02 0.  1.
    10030    2    1    2    0    0  0.00000000000E+00  0.00000000000E+00  0.64948725321E+03  0.17277945317E+04  0.16010747177E+04 0.  0.
        5    1    3    3  502    0 -0.27805126081E+03  0.42310090596E+03  0.99391126833E+03  0.11154409799E+04  0.46999998093E+01 0. -1.
       -5    1    3    3    0  502  0.27805126081E+03 -0.42310090596E+03 -0.34442401512E+03  0.61235355183E+03  0.46999998093E+01 0.  1.
</event>
<event>
 5   0  0.1354766E-03  0.1632661E+04  0.7818609E-02  0.8800731E-01
        2   -1    0    0  501    0  0.00000000000E+00  0.00000000000E+00  0.51892998635E+03  0.51892998636E+03  0.25500000920E-02 0.  1.
       -2   -1    0    0    0  501  0.00000000000E+00  0.00000000000E+00 -0.12841723571E+04  0.12841723571E+04  0.25500000920E-02 0. -1.
    10030    2    1    2    0    0  0.00000000000E+00  0.00000000000E+00 -0.76524237070E+03  0.18031023434E+04  0.16326610717E+04 0.  0.
        3    1    3    3  502    0  0.58172475326E+03 -0.51052928866E+03 -0.96006400063E+02  0.77991094503E+03  0.10100000352E+00 0.  1.
       -3    1    3    3    0  502 -0.58172475326E+03  0.51052928866E+03 -0.66923597064E+03  0.10231913984E+04  0.10100000352E+00 0. -1.
</event>
<event>
 5   0  0.1339162E-03  0.1612396E+04  0.7818609E-02  0.8812969E-01
       -2   -1    0    0    0  501  0.00000000000E+00  0.00000000000E+00  0.45765954312E+03  0.45765954313E+03  0.25500000920E-02 0. -1.
        2   -1    0    0  501    0  0.00000000000E+00  0.00000000000E+00 -0.14201711797E+04  0.14201711797E+04  0.25500000920E-02 0.  1.
    10030    2    1    2    0    0  0.00000000000E+00  0.00000000000E+00 -0.96251163662E+03  0.18778307229E+04  0.16123956007E+04 0.  0.
        5    1    3    3  502    0 -0.67820967140E+03  0.13984210466E+03 -0.96201836715E+03  0.11853377583E+04  0.46999998093E+01 0.  1.
       -5    1    3    3    0  502  0.67820967140E+03 -0.13984210466E+03 -0.49326946754E+00  0.69249296453E+03  0.46999998093E+01 0. -1.
</event>
<event>
 5   0  0.5095750E-04  0.1585594E+04  0.7818609E-02  0.8829447E-01
        3   -1    0    0  501    0  0.00000000000E+00  0.00000000000E+00  0.11007982038E+04  0.11007982085E+04  0.10100000352E+00 0. -1.
       -3   -1    0    0    0  501  0.00000000000E+00  0.00000000000E+00 -0.57097426771E+03  0.57097427665E+03  0.10100000352E+00 0.  1.
    10030    2    1    2    0    0  0.00000000000E+00  0.00000000000E+00  0.52982393612E+03  0.16717724851E+04  0.15855944749E+04 0.  0.
        3    1    3    3  502    0  0.23236288079E+03 -0.75513077671E+03  0.19567354878E+03  0.81394296250E+03  0.10100000352E+00 0.  1.
       -3    1    3    3    0  502 -0.23236288079E+03  0.75513077671E+03  0.33415038734E+03  0.85782952261E+03  0.10100000352E+00 0. -1.
</event>
<event>
 5   0  0.1414796E-03  0.1738124E+04  0.7818609E-02  0.8739915E-01
       -2   -1    0    0    0  501  0.00000000000E+00  0.00000000000E+00  0.11338304550E+04  0.11338304550E+04  0.25500000920E-02 0. -1.
        2   -1    0    0  501    0  0.00000000000E+00  0.00000000000E+00 -0.66612119190E+03  0.66612119191E+03  0.25500000920E-02 0.  1.
    10030    2    1    2    0    0  0.00000000000E+00  0.00000000000E+00  0.46770926314E+03  0.17999516470E+04  0.17381236943E+04 0.  0.
        4    1    3    3  502    0  0.33821880643E+03 -0.69623690305E+03  0.64304186926E+03  0.10063012694E+04  0.12699999809E+01 0. -1.
       -4    1    3    3    0  502 -0.33821880643E+03  0.69623690305E+03 -0.17533260612E+03  0.79365037760E+03  0.12699999809E+01 0.  1.
</event>
<event>
 5   0  0.7499834E-04  0.1564373E+04  0.7818609E-02  0.8842739E-01
       -1   -1    0    0    0  501  0.00000000000E+00  0.00000000000E+00  0.88478212681E+03  0.88478212683E+03  0.50400001928E-02 0.  1.
        1   -1    0    0  501    0  0.00000000000E+00  0.00000000000E+00 -0.69148732029E+03  0.69148732031E+03  0.50400001928E-02 0. -1.
    10030    2    1    2    0    0  0.00000000000E+00  0.00000000000E+00  0.19329480652E+03  0.15762694471E+04  0.15643728736E+04 0.  0.
        3    1    3    3  502    0 -0.22903494668E+02  0.73340403552E+03 -0.17635501781E+03  0.75465697631E+03  0.10100000352E+00 0. -1.
       -3    1    3    3    0  502  0.22903494668E+02 -0.73340403552E+03  0.36964982433E+03  0.82161247083E+03  0.10100000352E+00 0.  1.
</event>
<event>
 5   0  0.7601145E-04  0.9956030E+03  0.7818609E-02  0.9313381E-01
       -1   -1    0    0    0  501  0.00000000000E+00  0.00000000000E+00  0.35304326670E+03  0.35304326673E+03  0.50400001928E-02 0.  1.
        1   -1    0    0  501    0  0.00000000000E+00  0.00000000000E+00 -0.70191487308E+03  0.70191487310E+03  0.50400001928E-02 0. -1.
    10030    2    1    2    0    0  0.00000000000E+00  0.00000000000E+00 -0.34887160638E+03  0.10549581398E+04  0.99560297260E+03 0.  0.
        4    1    3    3  502    0  0.45250596071E+03 -0.18097822344E+03 -0.28192271120E+03  0.56302467959E+03  0.12699999809E+01 0. -1.
       -4    1    3    3    0  502 -0.45250596071E+03  0.18097822344E+03 -0.66948895184E+02  0.49193346024E+03  0.12699999809E+01 0.  1.
</event>
<event>
 5   0  0.7601145E-04  0.1621704E+04  0.7818609E-02  0.8807324E-01
        1   -1    0    0  501    0  0.00000000000E+00  0.00000000000E+00  0.11504619125E+04  0.11504619125E+04  0.50400001928E-02 0. -1.
       -1   -1    0    0    0  501  0.00000000000E+00  0.00000000000E+00 -0.57149299706E+03  0.57149299708E+03  0.50400001928E-02 0.  1.
    10030    2    1    2    0    0  0.00000000000E+00  0.00000000000E+00  0.57896891544E+03  0.17219549096E+04  0.16217039513E+04 0.  0.
        4    1    3    3  502    0 -0.26160670549E+03  0.73823552078E+03  0.66630170952E+02  0.78604767354E+03  0.12699999809E+01 0.  1.
       -4    1    3    3    0  502  0.26160670549E+03 -0.73823552078E+03  0.51233874448E+03  0.93590723605E+03  0.12699999809E+01 0. -1.
</event>
<event>
 5   0  0.7601145E-04  0.1608051E+04  0.7818609E-02  0.8815617E-01
       -1   -1    0    0    0  501  0.00000000000E+00  0.00000000000E+00  0.54733217002E+03  0.54733217004E+03  0.50400001928E-02 0.  1.
        1   -1    0    0  501    0  0.00000000000E+00  0.00000000000E+00 -0.11811051155E+04  0.11811051155E+04  0.50400001928E-02 0. -1.
    10030    2    1    2    0    0  0.00000000000E+00  0.00000000000E+00 -0.63377294550E+03  0.17284372856E+04  0.16080507777E+04 0.  0.
        4    1    3    3  502    0 -0.41558850041E+03  0.65353728648E+02  0.41958839301E+03  0.59417248672E+03  0.12699999809E+01 0.  1.
       -4    1    3    3    0  502  0.41558850041E+03 -0.65353728648E+02 -0.10533613385E+04  0.11342647988E+04  0.12699999809E+01 0. -1.
</event>
<event>
 5   0  0.7633213E-04  0.1604671E+04  0.7818609E-02  0.8817683E-01
        1   -1    0    0  501    0  0.00000000000E+00  0.00000000000E+00  0.14418110249E+04  0.14418110249E+04  0.50400001928E-02 0.  1.
       -1   -1    0    0    0  501  0.00000000000E+00  0.00000000000E+00 -0.44648191705E+03  0.44648191708E+03  0.50400001928E-02 0. -1.
    10030    2    1    2    0    0  0.00000000000E+00  0.00000000000E+00  0.99532910789E+03  0.18882929420E+04  0.16046713688E+04 0.  0.
        1    1    3    3  502    0  0.40627514401E+03 -0.18198583499E+03  0.12831504967E+04  0.13581802288E+04  0.50400001928E-02 0.  1.
       -1    1    3    3    0  502 -0.40627514401E+03  0.18198583499E+03 -0.28782138883E+03  0.53011271318E+03  0.50400001928E-02 0. -1.
</event>
<event>
 5   0  0.7302027E-04  0.1599039E+04  0.7818609E-02  0.8821139E-01
       -1   -1    0    0    0  501  0.00000000000E+00  0.00000000000E+00  0.54809091395E+03  0.54809091397E+03  0.50400001928E-02 0.  1.
        1   -1    0    0  501    0  0.00000000000E+00  0.00000000000E+00 -0.11662868556E+04  0.11662868556E+04  0.50400001928E-02 0. -1.
    10030    2    1    2    0    0  0.00000000000E+00  0.00000000000E+00 -0.61819594161E+03  0.17143777695E+04  0.15990387470E+04 0.  0.
        5    1    3    3  502    0 -0.43144652474E+03 -0.52434432346E+03  0.14339441594E+03  0.69402242166E+03  0.46999998093E+01 0.  1.
       -5    1    3    3    0  502  0.43144652474E+03  0.52434432346E+03 -0.76159035755E+03  0.10203553479E+04  0.46999998093E+01 0. -1.
</event>
<event>
 5   0  0.1414796E-03  0.1575371E+04  0.7818609E-02  0.8835823E-01
        2   -1    0    0  501    0  0.00000000000E+00  0.00000000000E+00  0.18002533942E+04  0.18002533942E+04  0.25500000920E-02 0. -1.
       -2   -1    0    0    0  501  0.00000000000E+00  0.00000000000E+00 -0.34464498536E+03  0.34464498537E+03  0.25500000920E-02 0.  1.
    10030    2    1    2    0    0  0.00000000000E+00  0.00000000000E+00  0.14556084089E+04  0.21448983796E+04  0.15753708195E+04 0.  0.
        4    1    3    3  502    0  0.22513647757E+03  0.55869163496E+03  0.14188662040E+04  0.15414297565E+04  0.12699999809E+01 0. -1.
       -4    1    3    3    0  502 -0.22513647757E+03 -0.55869163496E+03  0.36742204844E+02  0.60346862307E+03  0.12699999809E+01 0.  1.
</event>
<event>
 5   0  0.7302027E-04  0.1627684E+04  0.7818609E-02  0.8803719E-01
       -1   -1    0    0    0  501  0.00000000000E+00  0.00000000000E+00  0.12070468058E+04  0.12070468058E+04  0.50400001928E-02 0.  1.
        1   -1    0    0  501    0  0.00000000000E+00  0.00000000000E+00 -0.54872656035E+03  0.54872656037E+03  0.50400001928E-02 0. -1.
    10030    2    1    2    0    0  0.00000000000E+00  0.00000000000E+00  0.65832024541E+03  0.17557733661E+04  0.16276838046E+04 0.  0.
        5    1    3    3  502    0  0.35756190296E+03  0.10009421308E+01 -0.45944222217E+03  0.58220336812E+03  0.46999998093E+01 0. -1.
       -5    1    3    3    0  502 -0.35756190296E+03 -0.10009421308E+01  0.11177624676E+04  0.11735699980E+04  0.46999998093E+01 0.  1.
</event>
<event>
 5   0  0.1414796E-03  0.1607072E+04  0.7818609E-02  0.8816215E-01
        2   -1    0    0  501    0  0.00000000000E+00  0.00000000000E+00  0.64455573723E+03  0.64455573723E+03  0.25500000920E-02 0.  1.
       -2   -1    0    0    0  501  0.00000000000E+00  0.00000000000E+00 -0.10017284671E+04  0.10017284671E+04  0.25500000920E-02 0. -1.
    10030    2    1    2    0    0  0.00000000000E+00  0.00000000000E+00 -0.35717272992E+03  0.16462842044E+04  0.16070716607E+04 0.  0.
        4    1    3    3  502    0 -0.72493409619E+03 -0.15569931516E+03  0.13864121675E+03  0.75431738707E+03  0.12699999809E+01 0.  1.
       -4    1    3    3    0  502  0.72493409619E+03  0.15569931516E+03 -0.49581394667E+03  0.89196681731E+03  0.12699999809E+01 0. -1.
</event>
<event>
 5   0  0.7633213E-04  0.1612862E+04  0.7818609E-02  0.8812685E-01
        1   -1    0    0  501    0  0.00000000000E+00  0.00000000000E+00  0.94741777327E+03  0.94741777329E+03  0.50400001928E-02 0.  1.
       -1   -1    0    0    0  501  0.00000000000E+00  0.00000000000E+00 -0.68642511797E+03  0.68642511799E+03  0.50400001928E-02 0. -1.
    10030    2    1    2    0    0  0.00000000000E+00  0.00000000000E+00  0.26099265530E+03  0.16338428913E+04  0.16128624948E+04 0.  0.
        1    1    3    3  502    0 -0.47947320068E+03  0.25199335653E+03  0.73570928884E+03  0.91359912414E+03  0.50400001928E-02 0.  1.
       -1    1    3    3    0  502  0.47947320068E+03 -0.25199335653E+03 -0.47471663354E+03  0.72024376713E+03  0.50400001928E-02 0. -1.
</event>
<event>
 5   0  0.1375777E-03  0.1489507E+04  0.7818609E-02  0.8891461E-01
        2   -1    0    0  501    0  0.00000000000E+00  0.00000000000E+00  0.61047357646E+03  0.61047357647E+03  0.25500000920E-02 0. -1.
       -2   -1    0    0    0  501  0.00000000000E+00  0.00000000000E+00 -0.90856968496E+03  0.90856968497E+03  0.25500000920E-02 0.  1.
    10030    2    1    2    0    0  0.00000000000E+00  0.00000000000E+00 -0.29809610850E+03  0.15190432614E+04  0.14895070125E+04 0.  0.
        1    1    3    3  502    0  0.68598171843E+03 -0.16481983138E+03 -0.39236085505E+03  0.80726918400E+03  0.50400001928E-02 0.  1.
       -1    1    3    3    0  502 -0.68598171843E+03  0.16481983138E+03  0.94264746545E+02  0.71177407743E+03  0.50400001928E-02 0. -1.
</event>
<event>
 5   0  0.7499834E-04  0.1662254E+04  0.7818609E-02  0.8783190E-01
       -1   -1    0    0    0  501  0.00000000000E+00  0.00000000000E+00  0.61859130113E+03  0.61859130115E+03  0.50400001928E-02 0. -1.
        1   -1    0    0  501    0  0.00000000000E+00  0.00000000000E+00 -0.11166850918E+04  0.11166850918E+04  0.50400001928E-02 0.  1.
    10030    2    1    2    0    0  0.00000000000E+00  0.00000000000E+00 -0.49809379062E+03  0.17352763929E+04  0.16622535112E+04 0.  0.
        3    1    3    3  502    0 -0.61908429605E+02 -0.81570881976E+03 -0.95769872014E+02  0.82364155485E+03  0.10100000352E+00 0. -1.
       -3    1    3    3    0  502  0.61908429605E+02  0.81570881976E+03 -0.40232391861E+03  0.91163483807E+03  0.10100000352E+00 0.  1.
</event>
<event>
 5   0  0.1414751E-03  0.1538162E+04  0.7818609E-02  0.8859465E-01
       -2   -1    0    0    0  501  0.00000000000E+00  0.00000000000E+00  0.36771826550E+03  0.36771826551E+03  0.25500000920E-02 0.  1.
        2   -1    0    0  501    0  0.00000000000E+00  0.00000000000E+00 -0.16085289353E+04  0.16085289353E+04  0.25500000920E-02 0. -1.
    10030    2    1    2    0    0  0.00000000000E+00  0.00000000000E+00 -0.12408106698E+04  0.19762472009E+04  0.15381618512E+04 0.  0.
        2    1    3    3  502    0  0.70866904368E+03  0.29085683140E+03 -0.70826198474E+03  0.10432854590E+04  0.25500000920E-02 0.  1.
       -2    1    3    3    0  502 -0.70866904368E+03 -0.29085683140E+03 -0.53254868510E+03  0.93296174190E+03  0.25500000920E-02 0. -1.
</event>
<event>
 5   0  0.7633213E-04  0.1662122E+04  0.7818609E-02  0.8783267E-01
        1   -1    0    0  501    0  0.00000000000E+00  0.00000000000E+00  0.60751602811E+03  0.60751602813E+03  0.50400001928E-02 0. -1.
       -1   -1    0    0    0  501  0.00000000000E+00  0.00000000000E+00 -0.11368632334E+04  0.11368632334E+04  0.50400001928E-02 0.  1.
    10030    2    1    2    0    0  0.00000000000E+00  0.00000000000E+00 -0.52934720531E+03  0.17443792616E+04  0.16621223013E+04 0.  0.
        1    1    3    3  502    0 -0.20634911996E+03  0.48698065195E+03 -0.93743830067E+03  0.10763459863E+04  0.50400001928E-02 0.  1.
       -1    1    3    3    0  502  0.20634911996E+03 -0.48698065195E+03  0.40809109537E+03  0.66803327524E+03  0.50400001928E-02 0. -1.
</event>
<event>
 5   0  0.7499834E-04  0.1550380E+04  0.7818609E-02  0.8851625E-01
        1   -1    0    0  501    0  0.00000000000E+00  0.00000000000E+00  0.11704975427E+04  0.11704975427E+04  0.50400001928E-02 0. -1.
       -1   -1    0    0    0  501  0.00000000000E+00  0.00000000000E+00 -0.51338812473E+03  0.51338812475E+03  0.50400001928E-02 0.  1.
    10030    2    1    2    0    0  0.00000000000E+00  0.00000000000E+00  0.65710941801E+03  0.16838856675E+04  0.15503800031E+04 0.  0.
        3    1    3    3  502    0  0.15302301378E+03 -0.50096475070E+03 -0.29208731162E+03  0.59974722342E+03  0.10100000352E+00 0.  1.
       -3    1    3    3    0  502 -0.15302301378E+03  0.50096475070E+03  0.94919672963E+03  0.10841384441E+04  0.10100000352E+00 0. -1.
</event>
<event>
 5   0  0.7633213E-04  0.1579363E+04  0.7818609E-02  0.8833327E-01
        1   -1    0    0  501    0  0.00000000000E+00  0.00000000000E+00  0.14221025438E+04  0.14221025438E+04  0.50400001928E-02 0.  1.
       -1   -1    0    0    0  501  0.00000000000E+00  0.00000000000E+00 -0.43850358321E+03  0.43850358324E+03  0.50400001928E-02 0. -1.
    10030    2    1    2    0    0  0.00000000000E+00  0.00000000000E+00  0.98359896060E+03  0.18606061271E+04  0.15793632403E+04 0.  0.
        1    1    3    3  502    0  0.46047486820E+03  0.21983710389E+03 -0.21821014427E+03  0.55496047029E+03  0.50400001928E-02 0. -1.
       -1    1    3    3    0  502 -0.46047486820E+03 -0.21983710389E+03  0.12018091049E+04  0.13056456568E+04  0.50400001928E-02 0.  1.
</event>
<event>
 5   0  0.1339162E-03  0.1724231E+04  0.7818609E-02  0.8747664E-01
       -2   -1    0    0    0  501  0.00000000000E+00  0.00000000000E+00  0.65927321266E+03  0.65927321266E+03  0.25500000920E-02 0.  1.
        2   -1    0    0  501    0  0.00000000000E+00  0.00000000000E+00 -0.11273670557E+04  0.11273670558E+04  0.25500000920E-02 0. -1.
    10030    2    1    2    0    0  0.00000000000E+00  0.00000000000E+00 -0.46809384309E+03  0.17866402684E+04  0.17242307278E+04 0.  0.
        5    1    3    3  502    0 -0.74674354888E+03 -0.33011462646E+03 -0.52086768697E+03  0.96846622642E+03  0.46999998093E+01 0. -1.
       -5    1    3    3    0  502  0.74674354888E+03  0.33011462646E+03  0.52773843886E+02  0.81817404199E+03  0.46999998093E+01 0.  1.
</event>
<event>
 5   0  0.1354766E-03  0.1530582E+04  0.7818609E-02  0.8864367E-01
        2   -1    0    0  501    0  0.00000000000E+00  0.00000000000E+00  0.10198589496E+04  0.10198589496E+04  0.25500000920E-02 0. -1.
       -2   -1    0    0    0  501  0.00000000000E+00  0.00000000000E+00 -0.57426591712E+03  0.57426591712E+03  0.25500000920E-02 0.  1.
    10030    2    1    2    0    0  0.00000000000E+00  0.00000000000E+00  0.44559303249E+03  0.15941248667E+04  0.15305818959E+04 0.  0.
        3    1    3    3  502    0 -0.39171010580E+03 -0.23446480113E+03  0.86251066665E+03  0.97587663680E+03  0.10100000352E+00 0.  1.
       -3    1    3    3    0  502  0.39171010580E+03  0.23446480113E+03 -0.41691763416E+03  0.61824822994E+03  0.10100000352E+00 0. -1.
</event>
<event>
 5   0  0.1375777E-03  0.1684888E+04  0.7818609E-02  0.8770031E-01
       -2   -1    0    0    0  501  0.00000000000E+00  0.00000000000E+00  0.48030087194E+03  0.48030087195E+03  0.25500000920E-02 0. -1.
        2   -1    0    0  501    0  0.00000000000E+00  0.00000000000E+00 -0.14776396442E+04  0.14776396442E+04  0.25500000920E-02 0.  1.
    10030    2    1    2    0    0  0.00000000000E+00  0.00000000000E+00 -0.99733877229E+03  0.19579405162E+04  0.16848876634E+04 0.  0.
        1    1    3    3  502    0 -0.31174611770E+03  0.86109166653E+02  0.40528419824E+03  0.51851298138E+03  0.50400001928E-02 0. -1.
       -1    1    3    3    0  502  0.31174611770E+03 -0.86109166653E+02 -0.14026229705E+04  0.14394275348E+04  0.50400001928E-02 0.  1.
</event>
<event>
 5   0  0.7124495E-04  0.1566592E+04  0.7818609E-02  0.8841339E-01
        1   -1    0    0  501    0  0.00000000000E+00  0.00000000000E+00  0.51506933238E+03  0.51506933240E+03  0.50400001928E-02 0.  1.
       -1   -1    0    0    0  501  0.00000000000E+00  0.00000000000E+00 -0.11912043883E+04  0.11912043883E+04  0.50400001928E-02 0. -1.
    10030    2    1    2    0    0  0.00000000000E+00  0.00000000000E+00 -0.67613505588E+03  0.17062737207E+04  0.15665922878E+04 0.  0.
        2    1    3    3  502    0  0.30340920021E+03  0.54563949197E+03  0.17715732450E+03  0.64897173713E+03  0.25500000920E-02 0.  1.
       -2    1    3    3    0  502 -0.30340920021E+03 -0.54563949197E+03 -0.85329238037E+03  0.10573019835E+04  0.25500000920E-02 0. -1.
</event>
<event>
 5   0  0.7633213E-04  0.1675560E+04  0.7818609E-02  0.8775428E-01
       -1   -1    0    0    0  501  0.00000000000E+00  0.00000000000E+00  0.42012098986E+03  0.42012098989E+03  0.50400001928E-02 0. -1.
        1   -1    0    0  501    0  0.00000000000E+00  0.00000000000E+00 -0.16706497333E+04  0.16706497333E+04  0.50400001928E-02 0.  1.
    10030    2    1    2    0    0  0.00000000000E+00  0.00000000000E+00 -0.12505287435E+04  0.20907707232E+04  0.16755596315E+04 0.  0.
        1    1    3    3  502    0 -0.34116422481E+03  0.15730326163E+03  0.30912177283E+03  0.48651168010E+03  0.50400001928E-02 0. -1.
       -1    1    3    3    0  502  0.34116422481E+03 -0.15730326163E+03 -0.15596505163E+04  0.16042590431E+04  0.50400001928E-02 0.  1.
</event>
<event>
 5   0  0.1339162E-03  0.1626163E+04  0.7818609E-02  0.8804634E-01
        2   -1    0    0  501    0  0.00000000000E+00  0.00000000000E+00  0.93513575264E+03  0.93513575265E+03  0.25500000920E-02 0. -1.
       -2   -1    0    0    0  501  0.00000000000E+00  0.00000000000E+00 -0.70695787949E+03  0.70695787949E+03  0.25500000920E-02 0.  1.
    10030    2    1    2    0    0  0.00000000000E+00  0.00000000000E+00  0.22817787316E+03  0.16420936321E+04  0.16261630776E+04 0.  0.
        5    1    3    3  502    0 -0.12606088734E+03 -0.69654137292E+03 -0.28985268309E+03  0.76491692320E+03  0.46999998093E+01 0.  1.
       -5    1    3    3    0  502  0.12606088734E+03  0.69654137292E+03  0.51803055625E+03  0.87717670894E+03  0.46999998093E+01 0. -1.
</event>
<event>
 5   0  0.7302027E-04  0.1606615E+04  0.7818609E-02  0.8816494E-01
       -1   -1    0    0    0  501  0.00000000000E+00  0.00000000000E+00  0.57659727519E+03  0.57659727522E+03  0.50400001928E-02 0.  1.
        1   -1    0    0  501    0  0.00000000000E+00  0.00000000000E+00 -0.11191571009E+04  0.11191571009E+04  0.50400001928E-02 0. -1.
    10030    2    1    2    0    0  0.00000000000E+00  0.00000000000E+00 -0.54255982571E+03  0.16957543761E+04  0.16066149942E+04 0.  0.
        5    1    3    3  502    0 -0.31296478020E+03  0.54795991891E+03 -0.79592365172E+03  0.10157379464E+04  0.46999998093E+01 0. -1.
       -5    1    3    3    0  502  0.31296478020E+03 -0.54795991891E+03  0.25336382601E+03  0.68001642974E+03  0.46999998093E+01 0.  1.
</event>
<event>
 5   0  0.7601145E-04  0.1567125E+04  0.7818609E-02  0.8841003E-01
        1   -1    0    0  501    0  0.00000000000E+00  0.00000000000E+00  0.54184609851E+03  0.54184609854E+03  0.50400001928E-02 0. -1.
       -1   -1    0    0    0  501  0.00000000000E+00  0.00000000000E+00 -0.11331076225E+04  0.11331076225E+04  0.50400001928E-02 0.  1.
    10030    2    1    2    0    0  0.00000000000E+00  0.00000000000E+00 -0.59126152400E+03  0.16749537211E+04  0.15671246849E+04 0.  0.
        4    1    3    3  502    0  0.50034146822E+03  0.11217839927E+03 -0.92888669391E+03  0.10610172860E+04  0.12699999809E+01 0.  1.
       -4    1    3    3    0  502 -0.50034146822E+03 -0.11217839927E+03  0.33762516991E+03  0.61393643510E+03  0.12699999809E+01 0. -1.
</event>
<event>
 5   0  0.1339162E-03  0.1636531E+04  0.7818609E-02  0.8798415E-01
        2   -1    0    0  501    0  0.00000000000E+00  0.00000000000E+00  0.12004699025E+04  0.12004699025E+04  0.25500000920E-02 0. -1.
       -2   -1    0    0    0  501  0.00000000000E+00  0.00000000000E+00 -0.55774682902E+03  0.55774682902E+03  0.25500000920E-02 0.  1.
    10030    2    1    2    0    0  0.00000000000E+00  0.00000000000E+00  0.64272307346E+03  0.17582167315E+04  0.16365308203E+04 0.  0.
        5    1    3    3  502    0 -0.69393401746E+03  0.36386752066E+03  0.68049898453E+02  0.78650929547E+03  0.46999998093E+01 0.  1.
       -5    1    3    3    0  502  0.69393401746E+03 -0.36386752066E+03  0.57467317501E+03  0.97170743603E+03  0.46999998093E+01 0. -1.
</event>
<event>
 5   0  0.5095750E-04  0.1605299E+04  0.7818609E-02  0.8817299E-01
       -3   -1    0    0    0  501  0.00000000000E+00  0.00000000000E+00  0.65921565243E+03  0.65921566017E+03  0.10100000352E+00 0. -1.
        3   -1    0    0  501    0  0.00000000000E+00  0.00000000000E+00 -0.97729257529E+03  0.97729258051E+03  0.10100000352E+00 0.  1.
    10030    2    1    2    0    0  0.00000000000E+00  0.00000000000E+00 -0.31807692286E+03  0.16365082407E+04  0.16052994403E+04 0.  0.
        4    1    3    3  502    0 -0.16865602008E+03  0.72976100688E+02  0.63748017268E+03  0.66344023683E+03  0.12699999809E+01 0. -1.
       -4    1    3    3    0  502  0.16865602008E+03 -0.72976100688E+02 -0.95555709554E+03  0.97306800385E+03  0.12699999809E+01 0.  1.
</event>
<event>
 5   0  0.1339162E-03  0.1428932E+04  0.7818609E-02  0.8933139E-01
       -2   -1    0    0    0  501  0.00000000000E+00  0.00000000000E+00  0.23428792775E+03  0.23428792776E+03  0.25500000920E-02 0. -1.
        2   -1    0    0  501    0  0.00000000000E+00  0.00000000000E+00 -0.21787780078E+04  0.21787780078E+04  0.25500000920E-02 0.  1.
    10030    2    1    2    0    0  0.00000000000E+00  0.00000000000E+00 -0.19444900800E+04  0.24130659356E+04  0.14289316072E+04 0.  0.
        5    1    3    3  502    0  0.58245158291E+03  0.41227713406E+03 -0.91333282985E+03  0.11590604944E+04  0.46999998093E+01 0. -1.
       -5    1    3    3    0  502 -0.58245158291E+03 -0.41227713406E+03 -0.10311572502E+04  0.12540054411E+04  0.46999998093E+01 0.  1.
</event>
<event>
 5   0  0.1414796E-03  0.1621228E+04  0.7818609E-02  0.8807612E-01
        2   -1    0    0  501    0  0.00000000000E+00  0.00000000000E+00  0.86158482314E+03  0.86158482314E+03  0.25500000920E-02 0.  1.
       -2   -1    0    0    0  501  0.00000000000E+00  0.00000000000E+00 -0.76265859046E+03  0.76265859046E+03  0.25500000920E-02 0. -1.
    10030    2    1    2    0    0  0.00000000000E+00  0.00000000000E+00  0.98926232679E+02  0.16242434136E+04  0.16212280121E+04 0.  0.
        4    1    3    3  502    0 -0.74724519486E+03  0.31221393706E+03  0.84749786502E+02  0.81427087811E+03  0.12699999809E+01 0.  1.
       -4    1    3    3    0  502  0.74724519486E+03 -0.31221393706E+03  0.14176446178E+02  0.80997253549E+03  0.12699999809E+01 0. -1.
</event>
<event>
 5   0  0.1375777E-03  0.1621164E+04  0.7818609E-02  0.8807651E-01
        2   -1    0    0  501    0  0.00000000000E+00  0.00000000000E+00  0.13838070443E+04  0.13838070443E+04  0.25500000920E-02 0.  1.
       -2   -1    0    0    0  501  0.00000000000E+00  0.00000000000E+00 -0.47480841885E+03  0.47480841886E+03  0.25500000920E-02 0. -1.
    10030    2    1    2    0    0  0.00000000000E+00  0.00000000000E+00  0.90899862545E+03  0.18586154632E+04  0.16211640691E+04 0.  0.
        1    1    3    3  502    0  0.38968372919E+03 -0.65834856875E+03  0.14736740597E+03  0.77909781102E+03  0.50400001928E-02 0. -1.
       -1    1    3    3    0  502 -0.38968372919E+03  0.65834856875E+03  0.76163121948E+03  0.10795176521E+04  0.50400001928E-02 0.  1.
</event>
<event>
 5   0  0.1375777E-03  0.1569312E+04  0.7818609E-02  0.8839626E-01
        2   -1    0    0  501    0  0.00000000000E+00  0.00000000000E+00  0.72066131911E+03  0.72066131912E+03  0.25500000920E-02 0.  1.
       -2   -1    0    0    0  501  0.00000000000E+00  0.00000000000E+00 -0.85433302839E+03  0.85433302839E+03  0.25500000920E-02 0. -1.
    10030    2    1    2    0    0  0.00000000000E+00  0.00000000000E+00 -0.13367170927E+03  0.15749943475E+04  0.15693116545E+04 0.  0.
        1    1    3    3  502    0 -0.14077680847E+03 -0.77007791611E+03 -0.13288547329E+02  0.78295254786E+03  0.50400001928E-02 0. -1.
       -1    1    3    3    0  502  0.14077680847E+03  0.77007791611E+03 -0.12038316195E+03  0.79204179965E+03  0.50400001928E-02 0.  1.
</event>
<event>
 5   0  0.7124495E-04  0.1574908E+04  0.7818609E-02  0.8836113E-01
       -1   -1    0    0    0  501  0.00000000000E+00  0.00000000000E+00  0.77779956610E+03  0.77779956612E+03  0.50400001928E-02 0. -1.
        1   -1    0    0  501    0  0.00000000000E+00  0.00000000000E+00 -0.79722851832E+03  0.79722851833E+03  0.50400001928E-02 0.  1.
    10030    2    1    2    0    0  0.00000000000E+00  0.00000000000E+00 -0.19428952217E+02  0.15750280845E+04  0.15749082458E+04 0.  0.
        2    1    3    3  502    0  0.41125967398E+03  0.96631886857E+02 -0.67430379582E+03  0.79571216534E+03  0.25500000920E-02 0.  1.
       -2    1    3    3    0  502 -0.41125967398E+03 -0.96631886857E+02  0.65487484360E+03  0.77931591912E+03  0.25500000920E-02 0. -1.
</event>
<event>
 5   0  0.1375777E-03  0.1579960E+04  0.7818609E-02  0.8832955E-01
       -2   -1    0    0    0  501  0.00000000000E+00  0.00000000000E+00  0.42802099803E+03  0.42802099804E+03  0.25500000920E-02 0. -1.
        2   -1    0    0  501    0  0.00000000000E+00  0.00000000000E+00 -0.14580321221E+04  0.14580321221E+04  0.25500000920E-02 0.  1.
    10030    2    1    2    0    0  0.00000000000E+00  0.00000000000E+00 -0.10300111241E+04  0.18860531201E+04  0.15799599540E+04 0.  0.
        1    1    3    3  502    0  0.51881560623E+03  0.35216586992E+03 -0.10885922345E+04  0.12562736510E+04  0.50400001928E-02 0.  1.
       -1    1    3    3    0  502 -0.51881560623E+03 -0.35216586992E+03  0.58581110434E+02  0.62977946912E+03  0.50400001928E-02 0. -1.
</event>
<event>
 5   0  0.7302027E-04  0.1452686E+04  0.7818609E-02  0.8916541E-01
        1   -1    0    0  501    0  0.00000000000E+00  0.00000000000E+00  0.12309327469E+04  0.12309327469E+04  0.50400001928E-02 0.  1.
       -1   -1    0    0    0  501  0.00000000000E+00  0.00000000000E+00 -0.42859698992E+03  0.42859698995E+03  0.50400001928E-02 0. -1.
    10030    2    1    2    0    0  0.00000000000E+00  0.00000000000E+00  0.80233575700E+03  0.16595297369E+04  0.14526858850E+04 0.  0.
        5    1    3    3  502    0 -0.41091500366E+03 -0.41908071429E+03  0.88996035910E+03  0.10660822276E+04  0.46999998093E+01 0. -1.
       -5    1    3    3    0  502  0.41091500366E+03  0.41908071429E+03 -0.87624602105E+02  0.59344750923E+03  0.46999998093E+01 0.  1.
</event>
<event>
 5   0  0.7499834E-04  0.1586819E+04  0.7818609E-02  0.8828687E-01
        1   -1    0    0  501    0  0.00000000000E+00  0.00000000000E+00  0.92444070983E+03  0.92444070985E+03  0.50400001928E-02 0. -1.
       -1   -1    0    0    0  501  0.00000000000E+00  0.00000000000E+00 -0.68095064495E+03  0.68095064497E+03  0.50400001928E-02 0.  1.
    10030    2    1    2    0    0  0.00000000000E+00  0.00000000000E+00  0.24349006488E+03  0.16053913548E+04  0.15868188272E+04 0.  0.
        3    1    3    3  502    0  0.10580177277E+03 -0.72883248826E+03  0.42033952266E+03  0.84798357035E+03  0.10100000352E+00 0. -1.
       -3    1    3    3    0  502 -0.10580177277E+03  0.72883248826E+03 -0.17684945778E+03  0.75740778447E+03  0.10100000352E+00 0.  1.
</event>
<event>
 5   0  0.1414796E-03  0.1647987E+04  0.7818609E-02  0.8791598E-01
        2   -1    0    0  501    0  0.00000000000E+00  0.00000000000E+00  0.59975395423E+03  0.59975395424E+03  0.25500000920E-02 0.  1.
       -2   -1    0    0    0  501  0.00000000000E+00  0.00000000000E+00 -0.11320727536E+04  0.11320727536E+04  0.25500000920E-02 0. -1.
    10030    2    1    2    0    0  0.00000000000E+00  0.00000000000E+00 -0.53231879937E+03  0.17318267078E+04  0.16479867845E+04 0.  0.
        4    1    3    3  502    0  0.75470185348E+03  0.54886814046E+02 -0.60890558761E+03  0.97126467944E+03  0.12699999809E+01 0. -1.
       -4    1    3    3    0  502 -0.75470185348E+03 -0.54886814046E+02  0.76586788240E+02  0.76056202840E+03  0.12699999809E+01 0.  1.
</event>
<event>
 5   0  0.7601145E-04  0.1594812E+04  0.7818609E-02  0.8823742E-01
       -1   -1    0    0    0  501  0.00000000000E+00  0.00000000000E+00  0.39127997509E+03  0.39127997513E+03  0.50400001928E-02 0. -1.
        1   -1    0    0  501    0  0.00000000000E+00  0.00000000000E+00 -0.16250669920E+04  0.16250669920E+04  0.50400001928E-02 0.  1.
    10030    2    1    2    0    0  0.00000000000E+00  0.00000000000E+00 -0.12337870169E+04  0.20163469671E+04  0.15948118036E+04 0.  0.
        4    1    3    3  502    0  0.27713874489E+03 -0.17960702809E+03  0.30075123747E+03  0.44667380514E+03  0.12699999809E+01 0. -1.
       -4    1    3    3    0  502 -0.27713874489E+03  0.17960702809E+03 -0.15345382544E+04  0.15696731620E+04  0.12699999809E+01 0.  1.
</event>
<event>
 5   0  0.1354766E-03  0.1617552E+04  0.7818609E-02  0.8809837E-01
        2   -1    0    0  501    0  0.00000000000E+00  0.00000000000E+00  0.39709273814E+03  0.39709273815E+03  0.25500000920E-02 0. -1.
       -2   -1    0    0    0  501  0.00000000000E+00  0.00000000000E+00 -0.16472683820E+04  0.16472683820E+04  0.25500000920E-02 0.  1.
    10030    2    1    2    0    0  0.00000000000E+00  0.00000000000E+00 -0.12501756439E+04  0.20443611202E+04  0.16175516218E+04 0.  0.
        3    1    3    3  502    0 -0.40328417380E+03 -0.74133239660E+02  0.25598264821E+03  0.48338492782E+03  0.10100000352E+00 0. -1.
       -3    1    3    3    0  502  0.40328417380E+03  0.74133239660E+02 -0.15061582921E+04  0.15609761924E+04  0.10100000352E+00 0.  1.
</event>
<event>
 5   0  0.1354766E-03  0.1609022E+04  0.7818609E-02  0.8815025E-01
        2   -1    0    0  501    0  0.00000000000E+00  0.00000000000E+00  0.11598604433E+04  0.11598604433E+04  0.25500000920E-02 0. -1.
       -2   -1    0    0    0  501  0.00000000000E+00  0.00000000000E+00 -0.55803058633E+03  0.55803058634E+03  0.25500000920E-02 0.  1.
    10030    2    1    2    0    0  0.00000000000E+00  0.00000000000E+00  0.60182985700E+03  0.17178910297E+04  0.16090215701E+04 0.  0.
        3    1    3    3  502    0  0.18338705823E+03 -0.47480331649E+03 -0.36427235954E+03  0.62591002916E+03  0.10100000352E+00 0.  1.
       -3    1    3    3    0  502 -0.18338705823E+03  0.47480331649E+03  0.96610221654E+03  0.10919810005E+04  0.10100000352E+00 0. -1.
</event>
<event>
 5   0  0.1354766E-03  0.1597964E+04  0.7818609E-02  0.8821800E-01
       -2   -1    0    0    0  501  0.00000000000E+00  0.00000000000E+00  0.74731788670E+03  0.74731788671E+03  0.25500000920E-02 0.  1.
        2   -1    0    0  501    0  0.00000000000E+00  0.00000000000E+00 -0.85421795483E+03  0.85421795483E+03  0.25500000920E-02 0. -1.
    10030    2    1    2    0    0  0.00000000000E+00  0.00000000000E+00 -0.10690006812E+03  0.16015358415E+04  0.15979641508E+04 0.  0.
        3    1    3    3  502    0 -0.43637161972E+03 -0.46803478085E+03  0.42604968011E+03  0.76876204817E+03  0.10100000352E+00 0.  1.
       -3    1    3    3    0  502  0.43637161972E+03  0.46803478085E+03 -0.53294974823E+03  0.83277379337E+03  0.10100000352E+00 0. -1.
</event>
<event>
 5   0  0.7124495E-04  0.1061098E+04  0.7818609E-02  0.9243960E-01
        1   -1    0    0  501    0  0.00000000000E+00  0.00000000000E+00  0.66994078637E+03  0.66994078639E+03  0.50400001928E-02 0.  1.
       -1   -1    0    0    0  501  0.00000000000E+00  0.00000000000E+00 -0.42016017983E+03  0.42016017986E+03  0.50400001928E-02 0. -1.
    10030    2    1    2    0    0  0.00000000000E+00  0.00000000000E+00  0.24978060654E+03  0.10901009662E+04  0.10610983768E+04 0.  0.
        2    1    3    3  502    0  0.10044007406E+03 -0.34042451283E+03 -0.28022979493E+03  0.45222316989E+03  0.25500000920E-02 0. -1.
       -2    1    3    3    0  502 -0.10044007406E+03  0.34042451283E+03  0.53001040147E+03  0.63787779636E+03  0.25500000920E-02 0.  1.
</event>
<event>
 5   0  0.1339162E-03  0.1600383E+04  0.7818609E-02  0.8820313E-01
       -2   -1    0    0    0  501  0.00000000000E+00  0.00000000000E+00  0.10514115623E+04  0.10514115623E+04  0.25500000920E-02 0.  1.
        2   -1    0    0  501    0  0.00000000000E+00  0.00000000000E+00 -0.60899660380E+03  0.60899660380E+03  0.25500000920E-02 0. -1.
    10030    2    1    2    0    0  0.00000000000E+00  0.00000000000E+00  0.44241495848E+03  0.16604081661E+04  0.16003825426E+04 0.  0.
        5    1    3    3  502    0  0.57137811595E+03 -0.50638778662E+03 -0.27323514557E+02  0.76398311910E+03  0.46999998093E+01 0. -1.
       -5    1    3    3    0  502 -0.57137811595E+03  0.50638778662E+03  0.46973847304E+03  0.89642504699E+03  0.46999998093E+01 0.  1.
</event>
<event>
 5   0  0.1339162E-03  0.1558593E+04  0.7818609E-02  0.8846397E-01
       -2   -1    0    0    0  501  0.00000000000E+00  0.00000000000E+00  0.88922909131E+03  0.88922909131E+03  0.25500000920E-02 0.  1.
        2   -1    0    0  501    0  0.00000000000E+00  0.00000000000E+00 -0.68295491582E+03  0.68295491583E+03  0.25500000920E-02 0. -1.
    10030    2    1    2    0    0  0.00000000000E+00  0.00000000000E+00  0.20627417549E+03  0.15721840071E+04  0.15585934418E+04 0.  0.
        5    1    3    3  502    0  0.66960939424E+03 -0.32947775482E+03  0.32947941173E+03  0.81578863962E+03  0.46999998093E+01 0.  1.
       -5    1    3    3    0  502 -0.66960939424E+03  0.32947775482E+03 -0.12320523624E+03  0.75639536752E+03  0.46999998093E+01 0. -1.
</event>
<event>
 5   0  0.1414796E-03  0.1355226E+04  0.7818609E-02  0.8986882E-01
       -2   -1    0    0    0  501  0.00000000000E+00  0.00000000000E+00  0.19235194693E+03  0.19235194695E+03  0.25500000920E-02 0.  1.
        2   -1    0    0  501    0  0.00000000000E+00  0.00000000000E+00 -0.23870785530E+04  0.23870785530E+04  0.25500000920E-02 0. -1.
    10030    2    1    2    0    0  0.00000000000E+00  0.00000000000E+00 -0.21947266061E+04  0.25794305000E+04  0.13552257482E+04 0.  0.
        4    1    3    3  502    0 -0.67751609480E+03  0.10249400213E+02 -0.10879451576E+04  0.12817017546E+04  0.12699999809E+01 0. -1.
       -4    1    3    3    0  502  0.67751609480E+03 -0.10249400213E+02 -0.11067814485E+04  0.12977287454E+04  0.12699999809E+01 0.  1.
</event>
<event>
 5   0  0.1414796E-03  0.1602012E+04  0.7818609E-02  0.8819313E-01
        2   -1    0    0  501    0  0.00000000000E+00  0.00000000000E+00  0.27127760308E+04  0.27127760308E+04  0.25500000920E-02 0.  1.
       -2   -1    0    0    0  501  0.00000000000E+00  0.00000000000E+00 -0.23651440369E+03  0.23651440371E+03  0.25500000920E-02 0. -1.
    10030    2    1    2    0    0  0.00000000000E+00  0.00000000000E+00  0.24762616271E+04  0.29492904345E+04  0.16020119916E+04 0.  0.
        4    1    3    3  502    0 -0.51393158167E+03 -0.30866018461E+03  0.26012895251E+03  0.65350245986E+03  0.12699999809E+01 0. -1.
       -4    1    3    3    0  502  0.51393158167E+03  0.30866018461E+03  0.22161326746E+04  0.22957879747E+04  0.12699999809E+01 0.  1.
</event>
<event>
 5   0  0.7124495E-04  0.2323477E+04  0.7818609E-02  0.8468721E-01
       -1   -1    0    0    0  501  0.00000000000E+00  0.00000000000E+00  0.68866861197E+03  0.68866861199E+03  0.50400001928E-02 0. -1.
        1   -1    0    0  501    0  0.00000000000E+00  0.00000000000E+00 -0.19597769823E+04  0.19597769823E+04  0.50400001928E-02 0.  1.
    10030    2    1    2    0    0  0.00000000000E+00  0.00000000000E+00 -0.12711083703E+04  0.26484455943E+04  0.23234774750E+04 0.  0.
        2    1    3    3  502    0 -0.62151300922E+03 -0.59393844497E+03 -0.15262500242E+04  0.17517078619E+04  0.25500000920E-02 0.  1.
       -2    1    3    3    0  502  0.62151300922E+03  0.59393844497E+03  0.25514165392E+03  0.89673773235E+03  0.25500000920E-02 0. -1.
</event>
<event>
 5   0  0.1354766E-03  0.1597331E+04  0.7818609E-02  0.8822190E-01
        2   -1    0    0  501    0  0.00000000000E+00  0.00000000000E+00  0.85226789320E+03  0.85226789320E+03  0.25500000920E-02 0.  1.
       -2   -1    0    0    0  501  0.00000000000E+00  0.00000000000E+00 -0.74843410472E+03  0.74843410473E+03  0.25500000920E-02 0. -1.
    10030    2    1    2    0    0  0.00000000000E+00  0.00000000000E+00  0.10383378847E+03  0.16007019979E+04  0.15973307205E+04 0.  0.
        3    1    3    3  502    0 -0.72083040257E+02  0.73335739856E+03 -0.25672227558E+03  0.78033029910E+03  0.10100000352E+00 0. -1.
       -3    1    3    3    0  502  0.72083040257E+02 -0.73335739856E+03  0.36055606406E+03  0.82037169883E+03  0.10100000352E+00 0.  1.
</event>
<event>
 5   0  0.7601145E-04  0.1684068E+04  0.7818609E-02  0.8770503E-01
       -1   -1    0    0    0  501  0.00000000000E+00  0.00000000000E+00  0.57998544968E+03  0.57998544970E+03  0.50400001928E-02 0.  1.
        1   -1    0    0  501    0  0.00000000000E+00  0.00000000000E+00 -0.12224815760E+04  0.12224815760E+04  0.50400001928E-02 0. -1.
    10030    2    1    2    0    0  0.00000000000E+00  0.00000000000E+00 -0.64249612628E+03  0.18024670257E+04  0.16840683200E+04 0.  0.
        4    1    3    3  502    0 -0.22109870972E+03 -0.23353720960E+03 -0.11541598238E+04  0.11981280314E+04  0.12699999809E+01 0. -1.
       -4    1    3    3    0  502  0.22109870972E+03  0.23353720960E+03  0.51166369756E+03  0.60433899428E+03  0.12699999809E+01 0.  1.
</event>
<event>
 5   0  0.1375777E-03  0.1568063E+04  0.7818609E-02  0.8840412E-01
        2   -1    0    0  501    0  0.00000000000E+00  0.00000000000E+00  0.17432105363E+04  0.17432105363E+04  0.25500000920E-02 0. -1.
       -2   -1    0    0    0  501  0.00000000000E+00  0.00000000000E+00 -0.35262815111E+03  0.35262815112E+03  0.25500000920E-02 0.  1.
    10030    2    1    2    0    0  0.00000000000E+00  0.00000000000E+00  0.13905823852E+04  0.20958386875E+04  0.15680626371E+04 0.  0.
        1    1    3    3  502    0 -0.38274228852E+03  0.30568183766E+03  0.15135261893E+04  0.15908156936E+04  0.50400001928E-02 0. -1.
       -1    1    3    3    0  502  0.38274228852E+03 -0.30568183766E+03 -0.12294380411E+03  0.50502299382E+03  0.50400001928E-02 0.  1.
</event>
<event>
 5   0  0.1414751E-03  0.1515262E+04  0.7818609E-02  0.8874367E-01
       -2   -1    0    0    0  501  0.00000000000E+00  0.00000000000E+00  0.57584944863E+03  0.57584944863E+03  0.25500000920E-02 0. -1.
        2   -1    0    0  501    0  0.00000000000E+00  0.00000000000E+00 -0.99679606702E+03  0.99679606702E+03  0.25500000920E-02 0.  1.
    10030    2    1    2    0    0  0.00000000000E+00  0.00000000000E+00 -0.42094661839E+03  0.15726455157E+04  0.15152616482E+04 0.  0.
        2    1    3    3  502    0  0.35302791884E+03 -0.16367693578E+02  0.48506096227E+03  0.60015060610E+03  0.25500000920E-02 0. -1.
       -2    1    3    3    0  502 -0.35302791884E+03  0.16367693578E+02 -0.90600758067E+03  0.97249490955E+03  0.25500000920E-02 0.  1.
</event>
<event>
 5   0  0.7601145E-04  0.1616423E+04  0.7818609E-02  0.8810522E-01
       -1   -1    0    0    0  501  0.00000000000E+00  0.00000000000E+00  0.38115196571E+03  0.38115196575E+03  0.50400001928E-02 0. -1.
        1   -1    0    0  501    0  0.00000000000E+00  0.00000000000E+00 -0.17137683325E+04  0.17137683325E+04  0.50400001928E-02 0.  1.
    10030    2    1    2    0    0  0.00000000000E+00  0.00000000000E+00 -0.13326163668E+04  0.20949202983E+04  0.16164234207E+04 0.  0.
        4    1    3    3  502    0 -0.74206953360E+03 -0.30667053460E+03 -0.54688732471E+03  0.97149439953E+03  0.12699999809E+01 0.  1.
       -4    1    3    3    0  502  0.74206953360E+03  0.30667053460E+03 -0.78572904211E+03  0.11234258988E+04  0.12699999809E+01 0. -1.
</event>
<event>
 5   0  0.7124495E-04  0.1587287E+04  0.7818609E-02  0.8828396E-01
       -1   -1    0    0    0  501  0.00000000000E+00  0.00000000000E+00  0.97491768786E+03  0.97491768787E+03  0.50400001928E-02 0.  1.
        1   -1    0    0  501    0  0.00000000000E+00  0.00000000000E+00 -0.64607527389E+03  0.64607527391E+03  0.50400001928E-02 0. -1.
    10030    2    1    2    0    0  0.00000000000E+00  0.00000000000E+00  0.32884241396E+03  0.16209929618E+04  0.15872872610E+04 0.  0.
        2    1    3    3  502    0  0.29443765655E+03 -0.63538799190E+03 -0.21695054919E+03  0.73312957562E+03  0.25500000920E-02 0. -1.
       -2    1    3    3    0  502 -0.29443765655E+03  0.63538799190E+03  0.54579296315E+03  0.88786338616E+03  0.25500000920E-02 0.  1.
</event>
<event>
 5   0  0.1414796E-03  0.1641493E+04  0.7818609E-02  0.8795455E-01
        2   -1    0    0  501    0  0.00000000000E+00  0.00000000000E+00  0.28467665185E+04  0.28467665185E+04  0.25500000920E-02 0.  1.
       -2   -1    0    0    0  501  0.00000000000E+00  0.00000000000E+00 -0.23662802836E+03  0.23662802837E+03  0.25500000920E-02 0. -1.
    10030    2    1    2    0    0  0.00000000000E+00  0.00000000000E+00  0.26101384901E+04  0.30833945469E+04  0.16414929162E+04 0.  0.
        4    1    3    3  502    0  0.45849347560E+03  0.67820575438E+03  0.11948365293E+04  0.14483836706E+04  0.12699999809E+01 0. -1.
       -4    1    3    3    0  502 -0.45849347560E+03 -0.67820575438E+03  0.14153019608E+04  0.16350108763E+04  0.12699999809E+01 0.  1.
</event>
<event>
 5   0  0.1414796E-03  0.1580371E+04  0.7818609E-02  0.8832699E-01
       -2   -1    0    0    0  501  0.00000000000E+00  0.00000000000E+00  0.10484691219E+04  0.10484691219E+04  0.25500000920E-02 0.  1.
        2   -1    0    0  501    0  0.00000000000E+00  0.00000000000E+00 -0.59552815433E+03  0.59552815434E+03  0.25500000920E-02 0. -1.
    10030    2    1    2    0    0  0.00000000000E+00  0.00000000000E+00  0.45294096756E+03  0.16439972762E+04  0.15803706920E+04 0.  0.
        4    1    3    3  502    0  0.41829714434E+03  0.35031759879E+03 -0.36811495037E+03  0.65818321961E+03  0.12699999809E+01 0. -1.
       -4    1    3    3    0  502 -0.41829714434E+03 -0.35031759879E+03  0.82105591793E+03  0.98581405663E+03  0.12699999809E+01 0.  1.
</event>
<event>
 5   0  0.7601145E-04  0.1609966E+04  0.7818609E-02  0.8814449E-01
        1   -1    0    0  501    0  0.00000000000E+00  0.00000000000E+00  0.60523784929E+03  0.60523784931E+03  0.50400001928E-02 0. -1.
       -1   -1    0    0    0  501  0.00000000000E+00  0.00000000000E+00 -0.10706501926E+04  0.10706501926E+04  0.50400001928E-02 0.  1.
    10030    2    1    2    0    0  0.00000000000E+00  0.00000000000E+00 -0.46541234333E+03  0.16758880419E+04  0.16099664841E+04 0.  0.
        4    1    3    3  502    0  0.25776708206E+03  0.24032027417E+03  0.52066739280E+03  0.62872398522E+03  0.12699999809E+01 0. -1.
       -4    1    3    3    0  502 -0.25776708206E+03 -0.24032027417E+03 -0.98607973613E+03  0.10471640567E+04  0.12699999809E+01 0.  1.
</event>
<event>
 5   0  0.7124495E-04  0.1570525E+04  0.7818609E-02  0.8838863E-01
        1   -1    0    0  501    0  0.00000000000E+00  0.00000000000E+00  0.20153656626E+04  0.20153656626E+04  0.50400001928E-02 0.  1.
       -1   -1    0    0    0  501  0.00000000000E+00  0.00000000000E+00 -0.30596802879E+03  0.30596802883E+03  0.50400001928E-02 0. -1.
    10030    2    1    2    0    0  0.00000000000E+00  0.00000000000E+00  0.17093976338E+04  0.23213336914E+04  0.15705253377E+04 0.  0.
        2    1    3    3  502    0  0.31779570175E+03 -0.51987355986E+03  0.15868615771E+04  0.16998212527E+04  0.25500000920E-02 0.  1.
       -2    1    3    3    0  502 -0.31779570175E+03  0.51987355986E+03  0.12253605672E+03  0.62151243873E+03  0.25500000920E-02 0. -1.
</event>
<event>
 5   0  0.1339162E-03  0.1615215E+04  0.7818609E-02  0.8811255E-01
       -2   -1    0    0    0  501  0.00000000000E+00  0.00000000000E+00  0.93754250202E+03  0.93754250202E+03  0.25500000920E-02 0. -1.
        2   -1    0    0  501    0  0.00000000000E+00  0.00000000000E+00 -0.69568053659E+03  0.69568053659E+03  0.25500000920E-02 0.  1.
    10030    2    1    2    0    0  0.00000000000E+00  0.00000000000E+00  0.24186196543E+03  0.16332230386E+04  0.16152152437E+04 0.  0.
        5    1    3    3  502    0 -0.72968362978E+02  0.34988081592E+03  0.85320593986E+03  0.92505320558E+03  0.46999998093E+01 0. -1.
       -5    1    3    3    0  502  0.72968362978E+02 -0.34988081592E+03 -0.61134397443E+03  0.70816983303E+03  0.46999998093E+01 0.  1.
</event>
<event>
 5   0  0.1339162E-03  0.1531295E+04  0.7818609E-02  0.8863905E-01
       -2   -1    0    0    0  501  0.00000000000E+00  0.00000000000E+00  0.88251617570E+03  0.88251617570E+03  0.25500000920E-02 0.  1.
        2   -1    0    0  501    0  0.00000000000E+00  0.00000000000E+00 -0.66425531079E+03  0.66425531080E+03  0.25500000920E-02 0. -1.
    10030    2    1    2    0    0  0.00000000000E+00  0.00000000000E+00  0.21826086490E+03  0.15467714865E+04  0.15312949508E+04 0.  0.
        5    1    3    3  502    0 -0.16228952517E+03 -0.49520379819E+02 -0.64501008220E+03  0.66697095449E+03  0.46999998093E+01 0. -1.
       -5    1    3    3    0  502  0.16228952517E+03  0.49520379819E+02  0.86327094710E+03  0.87980053200E+03  0.46999998093E+01 0.  1.
</event>
<event>
 5   0  0.7302027E-04  0.1450677E+04  0.7818609E-02  0.8917932E-01
        1   -1    0    0  501    0  0.00000000000E+00  0.00000000000E+00  0.16470891191E+04  0.16470891191E+04  0.50400001928E-02 0. -1.
       -1   -1    0    0    0  501  0.00000000000E+00  0.00000000000E+00 -0.31942144739E+03  0.31942144743E+03  0.50400001928E-02 0.  1.
    10030    2    1    2    0    0  0.00000000000E+00  0.00000000000E+00  0.13276676717E+04  0.19665105665E+04  0.14506765187E+04 0.  0.
        5    1    3    3  502    0  0.65377326777E+03 -0.17787701195E+03  0.31286175636E+03  0.74630039905E+03  0.46999998093E+01 0.  1.
       -5    1    3    3    0  502 -0.65377326777E+03  0.17787701195E+03  0.10148059153E+04  0.12202101675E+04  0.46999998093E+01 0. -1.
</event>
<event>
 5   0  0.1414751E-03  0.1607077E+04  0.7818609E-02  0.8816212E-01
        2   -1    0    0  501    0  0.00000000000E+00  0.00000000000E+00  0.15337059663E+04  0.15337059663E+04  0.25500000920E-02 0. -1.
       -2   -1    0    0    0  501  0.00000000000E+00  0.00000000000E+00 -0.42098967022E+03  0.42098967023E+03  0.25500000920E-02 0.  1.
    10030    2    1    2    0    0  0.00000000000E+00  0.00000000000E+00  0.11127162961E+04  0.19546956366E+04  0.16070773086E+04 0.  0.
        2    1    3    3  502    0 -0.65152737317E+02 -0.38066198026E+02 -0.41667072994E+03  0.42344823982E+03  0.25500000920E-02 0.  1.
       -2    1    3    3    0  502  0.65152737317E+02  0.38066198026E+02  0.15293870260E+04  0.15312473967E+04  0.25500000920E-02 0. -1.
</event>
<event>
 5   0  0.7601145E-04  0.1618671E+04  0.7818609E-02  0.8809159E-01
       -1   -1    0    0    0  501  0.00000000000E+00  0.00000000000E+00  0.76153248429E+03  0.76153248431E+03  0.50400001928E-02 0.  1.
        1   -1    0    0  501    0  0.00000000000E+00  0.00000000000E+00 -0.86013942516E+03  0.86013942517E+03  0.50400001928E-02 0. -1.
    10030    2    1    2    0    0  0.00000000000E+00  0.00000000000E+00 -0.98606940869E+02  0.16216719095E+04  0.16186711998E+04 0.  0.
        4    1    3    3  502    0 -0.38492251354E+03 -0.32205028875E+03  0.58680725035E+03  0.77215677934E+03  0.12699999809E+01 0.  1.
       -4    1    3    3    0  502  0.38492251354E+03  0.32205028875E+03 -0.68541419122E+03  0.84951513014E+03  0.12699999809E+01 0. -1.
</event>
<event>
 5   0  0.1354766E-03  0.1630784E+04  0.7818609E-02  0.8801857E-01
        2   -1    0    0  501    0  0.00000000000E+00  0.00000000000E+00  0.89066107646E+03  0.89066107646E+03  0.25500000920E-02 0. -1.
       -2   -1    0    0    0  501  0.00000000000E+00  0.00000000000E+00 -0.74648348389E+03  0.74648348390E+03  0.25500000920E-02 0.  1.
    10030    2    1    2    0    0  0.00000000000E+00  0.00000000000E+00  0.14417759256E+03  0.16371445604E+04  0.16307835949E+04 0.  0.
        3    1    3    3  502    0 -0.14866962444E+03 -0.33674984175E+02  0.87622950561E+03  0.88939013852E+03  0.10100000352E+00 0. -1.
       -3    1    3    3    0  502  0.14866962444E+03  0.33674984175E+02 -0.73205191305E+03  0.74775442184E+03  0.10100000352E+00 0.  1.
</event>
<event>
 5   0  0.5095750E-04  0.1562279E+04  0.7818609E-02  0.8844062E-01
       -4   -1    0    0    0  501  0.00000000000E+00  0.00000000000E+00  0.92606375418E+03  0.92606462502E+03  0.12699999809E+01 0. -1.
        4   -1    0    0  501    0  0.00000000000E+00  0.00000000000E+00 -0.65889370458E+03  0.65889492852E+03  0.12699999809E+01 0.  1.
    10030    2    1    2    0    0  0.00000000000E+00  0.00000000000E+00  0.26717004960E+03  0.15849595535E+04  0.15622794087E+04 0.  0.
        4    1    3    3  502    0  0.12564646905E+03  0.19533052064E+02 -0.64832360423E+03  0.66067668644E+03  0.12699999809E+01 0.  1.
       -4    1    3    3    0  502 -0.12564646905E+03 -0.19533052064E+02  0.91549365383E+03  0.92428286710E+03  0.12699999809E+01 0. -1.
</event>
<event>
 5   0  0.1414751E-03  0.1536147E+04  0.7818609E-02  0.8860765E-01
       -2   -1    0    0    0  501  0.00000000000E+00  0.00000000000E+00  0.78984629392E+03  0.78984629393E+03  0.25500000920E-02 0. -1.
        2   -1    0    0  501    0  0.00000000000E+00  0.00000000000E+00 -0.74690106097E+03  0.74690106098E+03  0.25500000920E-02 0.  1.
    10030    2    1    2    0    0  0.00000000000E+00  0.00000000000E+00  0.42945232947E+02  0.15367473549E+04  0.15361471739E+04 0.  0.
        2    1    3    3  502    0 -0.65493222798E+03  0.77645514922E+02 -0.37234600441E+03  0.75736820387E+03  0.25500000920E-02 0.  1.
       -2    1    3    3    0  502  0.65493222798E+03 -0.77645514922E+02  0.41529123736E+03  0.77937915103E+03  0.25500000920E-02 0. -1.
</event>
<event>
 5   0  0.7499834E-04  0.1596706E+04  0.7818609E-02  0.8822574E-01
        1   -1    0    0  501    0  0.00000000000E+00  0.00000000000E+00  0.11194727849E+04  0.11194727849E+04  0.50400001928E-02 0.  1.
       -1   -1    0    0    0  501  0.00000000000E+00  0.00000000000E+00 -0.56934637155E+03  0.56934637158E+03  0.50400001928E-02 0. -1.
    10030    2    1    2    0    0  0.00000000000E+00  0.00000000000E+00  0.55012641334E+03  0.16888191565E+04  0.15967063201E+04 0.  0.
        3    1    3    3  502    0 -0.44113157948E+03  0.65562248791E+03  0.39533248156E+03  0.88358683685E+03  0.10100000352E+00 0.  1.
       -3    1    3    3    0  502  0.44113157948E+03 -0.65562248791E+03  0.15479393178E+03  0.80523231963E+03  0.10100000352E+00 0. -1.
</event>
<event>
 5   0  0.1414751E-03  0.1577920E+04  0.7818609E-02  0.8834229E-01
       -2   -1    0    0    0  501  0.00000000000E+00  0.00000000000E+00  0.44174399661E+03  0.44174399662E+03  0.25500000920E-02 0.  1.
        2   -1    0    0  501    0  0.00000000000E+00  0.00000000000E+00 -0.14090915492E+04  0.14090915492E+04  0.25500000920E-02 0. -1.
    10030    2    1    2    0    0  0.00000000000E+00  0.00000000000E+00 -0.96734755261E+03  0.18508355458E+04  0.15779198111E+04 0.  0.
        2    1    3    3  502    0 -0.47041258429E+03  0.41340004592E+03 -0.10465354927E+04  0.12195999897E+04  0.25500000920E-02 0. -1.
       -2    1    3    3    0  502  0.47041258429E+03 -0.41340004592E+03  0.79187940124E+02  0.63123555610E+03  0.25500000920E-02 0.  1.
</event>
<event>
 5   0  0.7302027E-04  0.1600744E+04  0.7818609E-02  0.8820091E-01
       -1   -1    0    0    0  501  0.00000000000E+00  0.00000000000E+00  0.68507459743E+03  0.68507459745E+03  0.50400001928E-02 0. -1.
        1   -1    0    0  501    0  0.00000000000E+00  0.00000000000E+00 -0.93507426035E+03  0.93507426036E+03  0.50400001928E-02 0.  1.
    10030    2    1    2    0    0  0.00000000000E+00  0.00000000000E+00 -0.24999966292E+03  0.16201488578E+04  0.16007443550E+04 0.  0.
        5    1    3    3  502    0 -0.54452008607E+03 -0.58182022269E+02  0.46575903670E+03  0.71891643611E+03  0.46999998093E+01 0. -1.
       -5    1    3    3    0  502  0.54452008607E+03  0.58182022269E+02 -0.71575869961E+03  0.90123242170E+03  0.46999998093E+01 0.  1.
</event>
<event>
 5   0  0.7601145E-04  0.1419772E+04  0.7818609E-02  0.8939630E-01
       -1   -1    0    0    0  501  0.00000000000E+00  0.00000000000E+00  0.67733535340E+03  0.67733535342E+03  0.50400001928E-02 0.  1.
        1   -1    0    0  501    0  0.00000000000E+00  0.00000000000E+00 -0.74400072657E+03  0.74400072659E+03  0.50400001928E-02 0. -1.
    10030    2    1    2    0    0  0.00000000000E+00  0.00000000000E+00 -0.66665373173E+02  0.14213360800E+04  0.14197718057E+04 0.  0.
        4    1    3    3  502    0  0.59739165790E+03  0.25884270064E+03  0.24992789957E+03  0.69738217965E+03  0.12699999809E+01 0.  1.
       -4    1    3    3    0  502 -0.59739165790E+03 -0.25884270064E+03 -0.31659327275E+03  0.72395390036E+03  0.12699999809E+01 0. -1.
</event>
<event>
 5   0  0.1354766E-03  0.1587512E+04  0.7818609E-02  0.8828257E-01
        2   -1    0    0  501    0  0.00000000000E+00  0.00000000000E+00  0.14323763935E+04  0.14323763935E+04  0.25500000920E-02 0. -1.
       -2   -1    0    0    0  501  0.00000000000E+00  0.00000000000E+00 -0.43986255815E+03  0.43986255816E+03  0.25500000920E-02 0.  1.
    10030    2    1    2    0    0  0.00000000000E+00  0.00000000000E+00  0.99251383537E+03  0.18722389517E+04  0.15875121980E+04 0.  0.
        3    1    3    3  502    0 -0.34650901847E+01 -0.70196444372E+02 -0.43618576721E+03  0.44181170353E+03  0.10100000352E+00 0.  1.
       -3    1    3    3    0  502  0.34650901847E+01  0.70196444372E+02  0.14286996026E+04  0.14304272482E+04  0.10100000352E+00 0. -1.
</event>
<event>
 5   0  0.7499834E-04  0.1592910E+04  0.7818609E-02  0.8824915E-01
       -1   -1    0    0    0  501  0.00000000000E+00  0.00000000000E+00  0.53201885884E+03  0.53201885886E+03  0.50400001928E-02 0.  1.
        1   -1    0    0  501    0  0.00000000000E+00  0.00000000000E+00 -0.11923275239E+04  0.11923275239E+04  0.50400001928E-02 0. -1.
    10030    2    1    2    0    0  0.00000000000E+00  0.00000000000E+00 -0.66030866503E+03  0.17243463827E+04  0.15929102029E+04 0.  0.
        3    1    3    3  502    0  0.47305346108E+03 -0.33865244432E+03 -0.91898149894E+03  0.10876543848E+04  0.10100000352E+00 0. -1.
       -3    1    3    3    0  502 -0.47305346108E+03  0.33865244432E+03  0.25867283392E+03  0.63669199798E+03  0.10100000352E+00 0.  1.
</event>
<event>
 5   0  0.7124495E-04  0.1581610E+04  0.7818609E-02  0.8831926E-01
       -1   -1    0    0    0  501  0.00000000000E+00  0.00000000000E+00  0.94889319298E+03  0.94889319299E+03  0.50400001928E-02 0.  1.
        1   -1    0    0  501    0  0.00000000000E+00  0.00000000000E+00 -0.65905460543E+03  0.65905460544E+03  0.50400001928E-02 0. -1.
    10030    2    1    2    0    0  0.00000000000E+00  0.00000000000E+00  0.28983858755E+03  0.16079477984E+04  0.15816098494E+04 0.  0.
        2    1    3    3  502    0 -0.37445192170E+03  0.69368633981E+03  0.80963446190E+02  0.79244561916E+03  0.25500000920E-02 0. -1.
       -2    1    3    3    0  502  0.37445192170E+03 -0.69368633981E+03  0.20887514136E+03  0.81550217927E+03  0.25500000920E-02 0.  1.
</event>
<event>
 5   0  0.7124495E-04  0.1613658E+04  0.7818609E-02  0.8812201E-01
        1   -1    0    0  501    0  0.00000000000E+00  0.00000000000E+00  0.13506099314E+04  0.13506099314E+04  0.50400001928E-02 0.  1.
       -1   -1    0    0    0  501  0.00000000000E+00  0.00000000000E+00 -0.48198473385E+03  0.48198473388E+03  0.50400001928E-02 0. -1.
    10030    2    1    2    0    0  0.00000000000E+00  0.00000000000E+00  0.86862519758E+03  0.18325946653E+04  0.16136584129E+04 0.  0.
        2    1    3    3  502    0  0.77535108115E+03 -0.33383231487E+02  0.18371722749E+03  0.79751850064E+03  0.25500000920E-02 0. -1.
       -2    1    3    3    0  502 -0.77535108115E+03  0.33383231487E+02  0.68490797010E+03  0.10350761647E+04  0.25500000920E-02 0.  1.
</event>
<event>
 5   0  0.1414796E-03  0.1621289E+04  0.7818609E-02  0.8807575E-01
       -2   -1    0    0    0  501  0.00000000000E+00  0.00000000000E+00  0.38739329602E+03  0.38739329602E+03  0.25500000920E-02 0.  1.
        2   -1    0    0  501    0  0.00000000000E+00  0.00000000000E+00 -0.16963230431E+04  0.16963230431E+04  0.25500000920E-02 0. -1.
    10030    2    1    2    0    0  0.00000000000E+00  0.00000000000E+00 -0.13089297471E+04  0.20837163391E+04  0.16212885922E+04 0.  0.
        4    1    3    3  502    0  0.70610246237E+02 -0.48892056151E+03 -0.14805274208E+04  0.15607665357E+04  0.12699999809E+01 0. -1.
       -4    1    3    3    0  502 -0.70610246237E+02  0.48892056151E+03  0.17159767374E+03  0.52294980340E+03  0.12699999809E+01 0.  1.
</event>
<event>
 5   0  0.7633213E-04  0.1594775E+04  0.7818609E-02  0.8823765E-01
       -1   -1    0    0    0  501  0.00000000000E+00  0.00000000000E+00  0.80591696140E+03  0.80591696141E+03  0.50400001928E-02 0.  1.
        1   -1    0    0  501    0  0.00000000000E+00  0.00000000000E+00 -0.78894789509E+03  0.78894789510E+03  0.50400001928E-02 0. -1.
    10030    2    1    2    0    0  0.00000000000E+00  0.00000000000E+00  0.16969066307E+02  0.15948648565E+04  0.15947745801E+04 0.  0.
        1    1    3    3  502    0  0.44037324754E+03 -0.43510292526E+03  0.51108968105E+03  0.80278005382E+03  0.50400001928E-02 0.  1.
       -1    1    3    3    0  502 -0.44037324754E+03  0.43510292526E+03 -0.49412061474E+03  0.79208480269E+03  0.50400001928E-02 0. -1.
</event>
<event>
 5   0  0.7633213E-04  0.1510166E+04  0.7818609E-02  0.8877720E-01
        1   -1    0    0  501    0  0.00000000000E+00  0.00000000000E+00  0.13674879118E+04  0.13674879118E+04  0.50400001928E-02 0.  1.
       -1   -1    0    0    0  501  0.00000000000E+00  0.00000000000E+00 -0.41693282276E+03  0.41693282279E+03  0.50400001928E-02 0. -1.
    10030    2    1    2    0    0  0.00000000000E+00  0.00000000000E+00  0.95055508904E+03  0.17844207346E+04  0.15101663421E+04 0.  0.
        1    1    3    3  502    0 -0.39766446994E+03 -0.23994276175E+02 -0.28264458844E+03  0.48846772599E+03  0.50400001928E-02 0. -1.
       -1    1    3    3    0  502  0.39766446994E+03  0.23994276175E+02  0.12331996775E+04  0.12959530086E+04  0.50400001928E-02 0.  1.
</event>
<event>
 5   0  0.1339162E-03  0.1607644E+04  0.7818609E-02  0.8815866E-01
        2   -1    0    0  501    0  0.00000000000E+00  0.00000000000E+00  0.10996642107E+04  0.10996642107E+04  0.25500000920E-02 0.  1.
       -2   -1    0    0    0  501  0.00000000000E+00  0.00000000000E+00 -0.58757022585E+03  0.58757022585E+03  0.25500000920E-02 0. -1.
    10030    2    1    2    0    0  0.00000000000E+00  0.00000000000E+00  0.51209398484E+03  0.16872344365E+04  0.16076441754E+04 0.  0.
        5    1    3    3  502    0 -0.23379237984E+03 -0.43608146173E+03 -0.40878254597E+03  0.64183422939E+03  0.46999998093E+01 0. -1.
       -5    1    3    3    0  502  0.23379237984E+03  0.43608146173E+03  0.92087653080E+03  0.10454002072E+04  0.46999998093E+01 0.  1.
</event>
<event>
 5   0  0.1375777E-03  0.1534317E+04  0.7818609E-02  0.8861948E-01
       -2   -1    0    0    0  501  0.00000000000E+00  0.00000000000E+00  0.44525948301E+03  0.44525948302E+03  0.25500000920E-02 0.  1.
        2   -1    0    0  501    0  0.00000000000E+00  0.00000000000E+00 -0.13217741283E+04  0.13217741283E+04  0.25500000920E-02 0. -1.
    10030    2    1    2    0    0  0.00000000000E+00  0.00000000000E+00 -0.87651464529E+03  0.17670336113E+04  0.15343173922E+04 0.  0.
        1    1    3    3  502    0  0.45954690822E+03 -0.38120682404E+03  0.11649880030E+03  0.60833705628E+03  0.50400001928E-02 0.  1.
       -1    1    3    3    0  502 -0.45954690822E+03  0.38120682404E+03 -0.99301344559E+03  0.11586965551E+04  0.50400001928E-02 0. -1.
</event>
<event>
 5   0  0.1375777E-03  0.1605781E+04  0.7818609E-02  0.8817004E-01
       -2   -1    0    0    0  501  0.00000000000E+00  0.00000000000E+00  0.45443197854E+03  0.45443197854E+03  0.25500000920E-02 0.  1.
        2   -1    0    0  501    0  0.00000000000E+00  0.00000000000E+00 -0.14185467621E+04  0.14185467621E+04  0.25500000920E-02 0. -1.
    10030    2    1    2    0    0  0.00000000000E+00  0.00000000000E+00 -0.96411478353E+03  0.18729787406E+04  0.16057808216E+04 0.  0.
        1    1    3    3  502    0 -0.32391183082E+03  0.32241008579E+03  0.28791151836E+03  0.54014829445E+03  0.50400001928E-02 0.  1.
       -1    1    3    3    0  502  0.32391183082E+03 -0.32241008579E+03 -0.12520263019E+04  0.13328304462E+04  0.50400001928E-02 0. -1.
</event>
<event>
 5   0  0.7499834E-04  0.1705560E+04  0.7818609E-02  0.8758200E-01
        1   -1    0    0  501    0  0.00000000000E+00  0.00000000000E+00  0.14970198151E+04  0.14970198151E+04  0.50400001928E-02 0. -1.
       -1   -1    0    0    0  501  0.00000000000E+00  0.00000000000E+00 -0.48578758276E+03  0.48578758279E+03  0.50400001928E-02 0.  1.
    10030    2    1    2    0    0  0.00000000000E+00  0.00000000000E+00  0.10112322324E+04  0.19828073979E+04  0.17055598933E+04 0.  0.
        3    1    3    3  502    0  0.41934823690E+03  0.25702055758E+03 -0.30427782433E+03  0.57835760165E+03  0.10100000352E+00 0.  1.
       -3    1    3    3    0  502 -0.41934823690E+03 -0.25702055758E+03  0.13155100567E+04  0.14044497963E+04  0.10100000352E+00 0. -1.
</event>
<event>
 5   0  0.1339162E-03  0.1597906E+04  0.7818609E-02  0.8821835E-01
       -2   -1    0    0    0  501  0.00000000000E+00  0.00000000000E+00  0.71733450964E+03  0.71733450964E+03  0.25500000920E-02 0. -1.
        2   -1    0    0  501    0  0.00000000000E+00  0.00000000000E+00 -0.88985812554E+03  0.88985812554E+03  0.25500000920E-02 0.  1.
    10030    2    1    2    0    0  0.00000000000E+00  0.00000000000E+00 -0.17252361590E+03  0.16071926352E+04  0.15979060575E+04 0.  0.
        5    1    3    3  502    0 -0.15403640724E+03  0.77668996121E+03  0.20796167237E+02  0.79210421106E+03  0.46999998093E+01 0.  1.
       -5    1    3    3    0  502  0.15403640724E+03 -0.77668996121E+03 -0.19331978314E+03  0.81508842413E+03  0.46999998093E+01 0. -1.
</event>
<event>
 5   0  0.1414751E-03  0.1608600E+04  0.7818609E-02  0.8815282E-01
        2   -1    0    0  501    0  0.00000000000E+00  0.00000000000E+00  0.18458292250E+04  0.18458292250E+04  0.25500000920E-02 0.  1.
       -2   -1    0    0    0  501  0.00000000000E+00  0.00000000000E+00 -0.35046514281E+03  0.35046514282E+03  0.25500000920E-02 0. -1.
    10030    2    1    2    0    0  0.00000000000E+00  0.00000000000E+00  0.14953640822E+04  0.21962943679E+04  0.16086003891E+04 0.  0.
        2    1    3    3  502    0 -0.71580650932E+02 -0.10335419491E+03  0.18323305755E+04  0.18366385646E+04  0.25500000920E-02 0.  1.
       -2    1    3    3    0  502  0.71580650932E+02  0.10335419491E+03 -0.33696649328E+03  0.35965580322E+03  0.25500000920E-02 0. -1.
</event>
<event>
 5   0  0.7302027E-04  0.1598077E+04  0.7818609E-02  0.8821730E-01
        1   -1    0    0  501    0  0.00000000000E+00  0.00000000000E+00  0.12250484705E+04  0.12250484705E+04  0.50400001928E-02 0.  1.
       -1   -1    0    0    0  501  0.00000000000E+00  0.00000000000E+00 -0.52117326437E+03  0.52117326439E+03  0.50400001928E-02 0. -1.
    10030    2    1    2    0    0  0.00000000000E+00  0.00000000000E+00  0.70387520613E+03  0.17462217349E+04  0.15980769824E+04 0.  0.
        5    1    3    3  502    0  0.48698355981E+03 -0.30768743978E+03  0.95699839244E+03  0.11170015941E+04  0.46999998093E+01 0.  1.
       -5    1    3    3    0  502 -0.48698355981E+03  0.30768743978E+03 -0.25312318632E+03  0.62922014078E+03  0.46999998093E+01 0. -1.
</event>
<event>
 5   0  0.1375777E-03  0.1612646E+04  0.7818609E-02  0.8812816E-01
       -2   -1    0    0    0  501  0.00000000000E+00  0.00000000000E+00  0.10368816674E+04  0.10368816674E+04  0.25500000920E-02 0.  1.
        2   -1    0    0  501    0  0.00000000000E+00  0.00000000000E+00 -0.62703095748E+03  0.62703095748E+03  0.25500000920E-02 0. -1.
    10030    2    1    2    0    0  0.00000000000E+00  0.00000000000E+00  0.40985070995E+03  0.16639126249E+04  0.16126461543E+04 0.  0.
        1    1    3    3  502    0 -0.70313485348E+03  0.19832635881E+03 -0.14713282478E+03  0.74523824039E+03  0.50400001928E-02 0. -1.
       -1    1    3    3    0  502  0.70313485348E+03 -0.19832635881E+03  0.55698353473E+03  0.91867438452E+03  0.50400001928E-02 0.  1.
</event>
<event>
 5   0  0.1414796E-03  0.1573596E+04  0.7818609E-02  0.8836935E-01
        2   -1    0    0  501    0  0.00000000000E+00  0.00000000000E+00  0.65017002095E+03  0.65017002095E+03  0.25500000920E-02 0. -1.
       -2   -1    0    0    0  501  0.00000000000E+00  0.00000000000E+00 -0.95213784781E+03  0.95213784781E+03  0.25500000920E-02 0.  1.
    10030    2    1    2    0    0  0.00000000000E+00  0.00000000000E+00 -0.30196782686E+03  0.16023078688E+04  0.15735964978E+04 0.  0.
        4    1    3    3  502    0  0.55507056730E+03 -0.62762117631E+02  0.41320824381E+03  0.69482737694E+03  0.12699999809E+01 0. -1.
       -4    1    3    3    0  502 -0.55507056730E+03  0.62762117631E+02 -0.71517607067E+03  0.90748049183E+03  0.12699999809E+01 0.  1.
</event>
<event>
 5   0  0.1375777E-03  0.1674227E+04  0.7818609E-02  0.8776202E-01
        2   -1    0    0  501    0  0.00000000000E+00  0.00000000000E+00  0.14859027349E+04  0.14859027349E+04  0.25500000920E-02 0. -1.
       -2   -1    0    0    0  501  0.00000000000E+00  0.00000000000E+00 -0.47160487070E+03  0.47160487070E+03  0.25500000920E-02 0.  1.
    10030    2    1    2    0    0  0.00000000000E+00  0.00000000000E+00  0.10142978642E+04  0.19575076056E+04  0.16742269466E+04 0.  0.
        1    1    3    3  502    0 -0.47085766607E+03  0.38883950265E+03 -0.16232028143E+03  0.63186309776E+03  0.50400001928E-02 0.  1.
       -1    1    3    3    0  502  0.47085766607E+03 -0.38883950265E+03  0.11766181456E+04  0.13256445078E+04  0.50400001928E-02 0. -1.
</event>
<event>
 5   0  0.1414751E-03  0.1542827E+04  0.7818609E-02  0.8856463E-01
       -2   -1    0    0    0  501  0.00000000000E+00  0.00000000000E+00  0.32970893477E+03  0.32970893478E+03  0.25500000920E-02 0.  1.
        2   -1    0    0  501    0  0.00000000000E+00  0.00000000000E+00 -0.18048599771E+04  0.18048599771E+04  0.25500000920E-02 0. -1.
    10030    2    1    2    0    0  0.00000000000E+00  0.00000000000E+00 -0.14751510423E+04  0.21345689118E+04  0.15428265754E+04 0.  0.
        2    1    3    3  502    0  0.21785928463E+03  0.71993473961E+03 -0.97443961120E+03  0.12309757321E+04  0.25500000920E-02 0.  1.
       -2    1    3    3    0  502 -0.21785928463E+03 -0.71993473961E+03 -0.50071143109E+03  0.90359317971E+03  0.25500000920E-02 0. -1.
</event>
<event>
 5   0  0.7124495E-04  0.1557702E+04  0.7818609E-02  0.8846963E-01
        1   -1    0    0  501    0  0.00000000000E+00  0.00000000000E+00  0.69261821082E+03  0.69261821084E+03  0.50400001928E-02 0.  1.
       -1   -1    0    0    0  501  0.00000000000E+00  0.00000000000E+00 -0.87581988771E+03  0.87581988772E+03  0.50400001928E-02 0. -1.
    10030    2    1    2    0    0  0.00000000000E+00  0.00000000000E+00 -0.18320167688E+03  0.15684380986E+04  0.15577019017E+04 0.  0.
        2    1    3    3  502    0  0.14103748358E+03  0.73717537862E+03  0.11789494491E+03  0.75974885894E+03  0.25500000920E-02 0.  1.
       -2    1    3    3    0  502 -0.14103748358E+03 -0.73717537862E+03 -0.30109662179E+03  0.80868923962E+03  0.25500000920E-02 0. -1.
</event>
<event>
 5   0  0.7124495E-04  0.1602011E+04  0.7818609E-02  0.8819313E-01
       -1   -1    0    0    0  501  0.00000000000E+00  0.00000000000E+00  0.28619041563E+03  0.28619041567E+03  0.50400001928E-02 0.  1.
        1   -1    0    0  501    0  0.00000000000E+00  0.00000000000E+00 -0.22418991894E+04  0.22418991894E+04  0.50400001928E-02 0. -1.
    10030    2    1    2    0    0  0.00000000000E+00  0.00000000000E+00 -0.19557087738E+04  0.25280896051E+04  0.16020113119E+04 0.  0.
        2    1    3    3  502    0  0.18532455504E+03 -0.68955320720E+03 -0.40498754307E+03  0.82087984889E+03  0.25500000920E-02 0.  1.
       -2    1    3    3    0  502 -0.18532455504E+03  0.68955320720E+03 -0.15507212307E+04  0.17072097562E+04  0.25500000920E-02 0. -1.
</event>
<event>
 5   0  0.1375777E-03  0.1643211E+04  0.7818609E-02  0.8794433E-01
       -2   -1    0    0    0  501  0.00000000000E+00  0.00000000000E+00  0.54399882327E+03  0.54399882327E+03  0.25500000920E-02 0.  1.
        2   -1    0    0  501    0  0.00000000000E+00  0.00000000000E+00 -0.12408770931E+04  0.12408770931E+04  0.25500000920E-02 0. -1.
    10030    2    1    2    0    0  0.00000000000E+00  0.00000000000E+00 -0.69687826980E+03  0.17848759163E+04  0.16432110984E+04 0.  0.
        1    1    3    3  502    0 -0.60410516319E+03  0.39280618694E+03  0.80299601553E+02  0.72504329162E+03  0.50400001928E-02 0.  1.
       -1    1    3    3    0  502  0.60410516319E+03 -0.39280618694E+03 -0.77717787135E+03  0.10598326247E+04  0.50400001928E-02 0. -1.
</event>
<event>
 5   0  0.7633213E-04  0.1639251E+04  0.7818609E-02  0.8796791E-01
        1   -1    0    0  501    0  0.00000000000E+00  0.00000000000E+00  0.45144625127E+03  0.45144625130E+03  0.50400001928E-02 0.  1.
       -1   -1    0    0    0  501  0.00000000000E+00  0.00000000000E+00 -0.14880754953E+04  0.14880754953E+04  0.50400001928E-02 0. -1.
    10030    2    1    2    0    0  0.00000000000E+00  0.00000000000E+00 -0.10366292440E+04  0.19395217466E+04  0.16392511754E+04 0.  0.
        1    1    3    3  502    0  0.34790861295E+03 -0.57119190028E+03  0.42272749922E+02  0.67013996696E+03  0.50400001928E-02 0.  1.
       -1    1    3    3    0  502 -0.34790861295E+03  0.57119190028E+03 -0.10789019940E+04  0.12693817797E+04  0.50400001928E-02 0. -1.
</event>
<event>
 5   0  0.7302027E-04  0.1912317E+04  0.7818609E-02  0.8648750E-01
        1   -1    0    0  501    0  0.00000000000E+00  0.00000000000E+00  0.66012301258E+03  0.66012301260E+03  0.50400001928E-02 0.  1.
       -1   -1    0    0    0  501  0.00000000000E+00  0.00000000000E+00 -0.13849520544E+04  0.13849520544E+04  0.50400001928E-02 0. -1.
    10030    2    1    2    0    0  0.00000000000E+00  0.00000000000E+00 -0.72482904185E+03  0.20450750670E+04  0.19123166291E+04 0.  0.
        5    1    3    3  502    0  0.80334996734E+03  0.28056301089E+02  0.19127217341E+03  0.82629623040E+03  0.46999998093E+01 0.  1.
       -5    1    3    3    0  502 -0.80334996734E+03 -0.28056301089E+02 -0.91610121526E+03  0.12187788366E+04  0.46999998093E+01 0. -1.
</event>
<event>
 5   0  0.1354766E-03  0.1598487E+04  0.7818609E-02  0.8821478E-01
       -2   -1    0    0    0  501  0.00000000000E+00  0.00000000000E+00  0.11136686048E+04  0.11136686048E+04  0.25500000920E-02 0.  1.
        2   -1    0    0  501    0  0.00000000000E+00  0.00000000000E+00 -0.57359095452E+03  0.57359095452E+03  0.25500000920E-02 0. -1.
    10030    2    1    2    0    0  0.00000000000E+00  0.00000000000E+00  0.54007765031E+03  0.16872595594E+04  0.15984870823E+04 0.  0.
        3    1    3    3  502    0 -0.37318403364E+03  0.34023619793E+03  0.92392845417E+03  0.10529343721E+04  0.10100000352E+00 0.  1.
       -3    1    3    3    0  502  0.37318403364E+03 -0.34023619793E+03 -0.38385080386E+03  0.63432518724E+03  0.10100000352E+00 0. -1.
</event>
<event>
 5   0  0.7601145E-04  0.1685971E+04  0.7818609E-02  0.8769407E-01
       -1   -1    0    0    0  501  0.00000000000E+00  0.00000000000E+00  0.77188025079E+03  0.77188025080E+03  0.50400001928E-02 0. -1.
        1   -1    0    0  501    0  0.00000000000E+00  0.00000000000E+00 -0.92064039246E+03  0.92064039247E+03  0.50400001928E-02 0.  1.
    10030    2    1    2    0    0  0.00000000000E+00  0.00000000000E+00 -0.14876014167E+03  0.16925206433E+04  0.16859705063E+04 0.  0.
        4    1    3    3  502    0 -0.40192067553E+03  0.32789824932E+03  0.59270518023E+03  0.78762842438E+03  0.12699999809E+01 0. -1.
       -4    1    3    3    0  502  0.40192067553E+03 -0.32789824932E+03 -0.74146532191E+03  0.90489221889E+03  0.12699999809E+01 0.  1.
</event>
<event>
 5   0  0.1414751E-03  0.1622589E+04  0.7818609E-02  0.8806789E-01
        2   -1    0    0  501    0  0.00000000000E+00  0.00000000000E+00  0.84564678170E+03  0.84564678170E+03  0.25500000920E-02 0. -1.
       -2   -1    0    0    0  501  0.00000000000E+00  0.00000000000E+00 -0.77833799553E+03  0.77833799554E+03  0.25500000920E-02 0.  1.
    10030    2    1    2    0    0  0.00000000000E+00  0.00000000000E+00  0.67308786164E+02  0.16239847772E+04  0.16225893146E+04 0.  0.
        2    1    3    3  502    0 -0.38866914237E+03  0.41790489232E+03  0.61077046853E+03  0.83591193704E+03  0.25500000920E-02 0. -1.
       -2    1    3    3    0  502  0.38866914237E+03 -0.41790489232E+03 -0.54346168236E+03  0.78807284020E+03  0.25500000920E-02 0.  1.
</event>
<event>
 5   0  0.7601145E-04  0.1465200E+04  0.7818609E-02  0.8907930E-01
        1   -1    0    0  501    0  0.00000000000E+00  0.00000000000E+00  0.78295978457E+03  0.78295978458E+03  0.50400001928E-02 0.  1.
       -1   -1    0    0    0  501  0.00000000000E+00  0.00000000000E+00 -0.68547970010E+03  0.68547970012E+03  0.50400001928E-02 0. -1.
    10030    2    1    2    0    0  0.00000000000E+00  0.00000000000E+00  0.97480084464E+02  0.14684394847E+04  0.14652003799E+04 0.  0.
        4    1    3    3  502    0  0.65032688997E+03  0.13021792252E+03 -0.26310640085E+03  0.71351829845E+03  0.12699999809E+01 0. -1.
       -4    1    3    3    0  502 -0.65032688997E+03 -0.13021792252E+03  0.36058648531E+03  0.75492118625E+03  0.12699999809E+01 0.  1.
</event>
<event>
 5   0  0.7633213E-04  0.1731777E+04  0.7818609E-02  0.8743445E-01
        1   -1    0    0  501    0  0.00000000000E+00  0.00000000000E+00  0.39399195185E+03  0.39399195188E+03  0.50400001928E-02 0.  1.
       -1   -1    0    0    0  501  0.00000000000E+00  0.00000000000E+00 -0.19029913030E+04  0.19029913030E+04  0.50400001928E-02 0. -1.
    10030    2    1    2    0    0  0.00000000000E+00  0.00000000000E+00 -0.15089993512E+04  0.22969832549E+04  0.17317774197E+04 0.  0.
        1    1    3    3  502    0  0.62313862468E+03 -0.46750235412E+03 -0.25309714381E+03  0.81909606330E+03  0.50400001928E-02 0.  1.
       -1    1    3    3    0  502 -0.62313862468E+03  0.46750235412E+03 -0.12559022074E+04  0.14778871916E+04  0.50400001928E-02 0. -1.
</event>
<event>
 5   0  0.1339162E-03  0.1548722E+04  0.7818609E-02  0.8852684E-01
        2   -1    0    0  501    0  0.00000000000E+00  0.00000000000E+00  0.62486858708E+03  0.62486858708E+03  0.25500000920E-02 0. -1.
       -2   -1    0    0    0  501  0.00000000000E+00  0.00000000000E+00 -0.95961775462E+03  0.95961775462E+03  0.25500000920E-02 0.  1.
    10030    2    1    2    0    0  0.00000000000E+00  0.00000000000E+00 -0.33474916754E+03  0.15844863417E+04  0.15487220415E+04 0.  0.
        5    1    3    3  502    0 -0.41109722546E+03  0.14494831144E+03  0.48740636216E+03  0.65390977485E+03  0.46999998093E+01 0. -1.
       -5    1    3    3    0  502  0.41109722546E+03 -0.14494831144E+03 -0.82215552970E+03  0.93057656686E+03  0.46999998093E+01 0.  1.
</event>
<event>
 5   0  0.7499834E-04  0.1580781E+04  0.7818609E-02  0.8832443E-01
       -1   -1    0    0    0  501  0.00000000000E+00  0.00000000000E+00  0.69974623621E+03  0.69974623623E+03  0.50400001928E-02 0. -1.
        1   -1    0    0  501    0  0.00000000000E+00  0.00000000000E+00 -0.89277648941E+03  0.89277648942E+03  0.50400001928E-02 0.  1.
    10030    2    1    2    0    0  0.00000000000E+00  0.00000000000E+00 -0.19303025320E+03  0.15925227256E+04  0.15807808049E+04 0.  0.
        3    1    3    3  502    0 -0.38607124241E+03  0.67049866940E+03 -0.25926231931E+03  0.81598800867E+03  0.10100000352E+00 0.  1.
       -3    1    3    3    0  502  0.38607124241E+03 -0.67049866940E+03  0.66232066110E+02  0.77653471698E+03  0.10100000352E+00 0. -1.
</event>
<event>
 5   0  0.7302027E-04  0.1464320E+04  0.7818609E-02  0.8908533E-01
        1   -1    0    0  501    0  0.00000000000E+00  0.00000000000E+00  0.15124518786E+04  0.15124518786E+04  0.50400001928E-02 0.  1.
       -1   -1    0    0    0  501  0.00000000000E+00  0.00000000000E+00 -0.35442979706E+03  0.35442979709E+03  0.50400001928E-02 0. -1.
    10030    2    1    2    0    0  0.00000000000E+00  0.00000000000E+00  0.11580220816E+04  0.18668816757E+04  0.14643196542E+04 0.  0.
        5    1    3    3  502    0  0.23186101646E+02 -0.36356090123E+03 -0.23065653700E+03  0.43120604387E+03  0.46999998093E+01 0. -1.
       -5    1    3    3    0  502 -0.23186101646E+02  0.36356090123E+03  0.13886786186E+04  0.14356756319E+04  0.46999998093E+01 0.  1.
</event>
<event>
 5   0  0.1414751E-03  0.1571277E+04  0.7818609E-02  0.8838391E-01
        2   -1    0    0  501    0  0.00000000000E+00  0.00000000000E+00  0.96273663346E+03  0.96273663346E+03  0.25500000920E-02 0. -1.
       -2   -1    0    0    0  501  0.00000000000E+00  0.00000000000E+00 -0.64111773274E+03  0.64111773275E+03  0.25500000920E-02 0.  1.
    10030    2    1    2    0    0  0.00000000000E+00  0.00000000000E+00  0.32161890071E+03  0.16038543662E+04  0.15712765863E+04 0.  0.
        2    1    3    3  502    0 -0.35498312183E+03 -0.68177882021E+03 -0.50154278298E+01  0.76867452865E+03  0.25500000920E-02 0.  1.
       -2    1    3    3    0  502  0.35498312183E+03  0.68177882021E+03  0.32663432854E+03  0.83517983756E+03  0.25500000920E-02 0. -1.
</event>
<event>
 5   0  0.1414796E-03  0.1257293E+04  0.7818609E-02  0.9064135E-01
       -2   -1    0    0    0  501  0.00000000000E+00  0.00000000000E+00  0.32239200632E+03  0.32239200633E+03  0.25500000920E-02 0.  1.
        2   -1    0    0  501    0  0.00000000000E+00  0.00000000000E+00 -0.12258252590E+04  0.12258252590E+04  0.25500000920E-02 0. -1.
    10030    2    1    2    0    0  0.00000000000E+00  0.00000000000E+00 -0.90343325273E+03  0.15482172654E+04  0.12572927498E+04 0.  0.
        4    1    3    3  502    0 -0.27764695378E+03 -0.10554338256E+03 -0.11339636250E+04  0.11722211192E+04  0.12699999809E+01 0. -1.
       -4    1    3    3    0  502  0.27764695378E+03  0.10554338256E+03  0.23053037224E+03  0.37599614622E+03  0.12699999809E+01 0.  1.
</event>
<event>
 5   0  0.7499834E-04  0.1607764E+04  0.7818609E-02  0.8815792E-01
       -1   -1    0    0    0  501  0.00000000000E+00  0.00000000000E+00  0.77450241426E+03  0.77450241427E+03  0.50400001928E-02 0. -1.
        1   -1    0    0  501    0  0.00000000000E+00  0.00000000000E+00 -0.83437657375E+03  0.83437657377E+03  0.50400001928E-02 0.  1.
    10030    2    1    2    0    0  0.00000000000E+00  0.00000000000E+00 -0.59874159497E+02  0.16088789880E+04  0.16077644987E+04 0.  0.
        3    1    3    3  502    0  0.69253023204E+03 -0.35505906315E+03 -0.23147579422E+03  0.81193972320E+03  0.10100000352E+00 0.  1.
       -3    1    3    3    0  502 -0.69253023204E+03  0.35505906315E+03  0.17160163472E+03  0.79693926484E+03  0.10100000352E+00 0. -1.
</event>
<event>
 5   0  0.1414751E-03  0.1634740E+04  0.7818609E-02  0.8799486E-01
        2   -1    0    0  501    0  0.00000000000E+00  0.00000000000E+00  0.13694574535E+04  0.13694574535E+04  0.25500000920E-02 0.  1.
       -2   -1    0    0    0  501  0.00000000000E+00  0.00000000000E+00 -0.48785277267E+03  0.48785277267E+03  0.25500000920E-02 0. -1.
    10030    2    1    2    0    0  0.00000000000E+00  0.00000000000E+00  0.88160468079E+03  0.18573102261E+04  0.16347398762E+04 0.  0.
        2    1    3    3  502    0 -0.46215294838E+03  0.65903342409E+03  0.27939214788E+03  0.85203895103E+03  0.25500000920E-02 0. -1.
       -2    1    3    3    0  502  0.46215294838E+03 -0.65903342409E+03  0.60221253291E+03  0.10052712751E+04  0.25500000920E-02 0.  1.
</event>
<event>
 5   0  0.1414796E-03  0.1570232E+04  0.7818609E-02  0.8839047E-01
        2   -1    0    0  501    0  0.00000000000E+00  0.00000000000E+00  0.10972756797E+04  0.10972756797E+04  0.25500000920E-02 0. -1.
       -2   -1    0    0    0  501  0.00000000000E+00  0.00000000000E+00 -0.56176167629E+03  0.56176167630E+03  0.25500000920E-02 0.  1.
    10030    2    1    2    0    0  0.00000000000E+00  0.00000000000E+00  0.53551400340E+03  0.16590373560E+04  0.15702323716E+04 0.  0.
        4    1    3    3  502    0 -0.71512859039E+03  0.30006495382E+03  0.13853750082E+03  0.78780843441E+03  0.12699999809E+01 0.  1.
       -4    1    3    3    0  502  0.71512859039E+03 -0.30006495382E+03  0.39697650257E+03  0.87122892158E+03  0.12699999809E+01 0. -1.
</event>
<event>
 5   0  0.1354766E-03  0.1585270E+04  0.7818609E-02  0.8829649E-01
       -2   -1    0    0    0  501  0.00000000000E+00  0.00000000000E+00  0.12079335552E+04  0.12079335552E+04  0.25500000920E-02 0. -1.
        2   -1    0    0  501    0  0.00000000000E+00  0.00000000000E+00 -0.52011969525E+03  0.52011969525E+03  0.25500000920E-02 0.  1.
    10030    2    1    2    0    0  0.00000000000E+00  0.00000000000E+00  0.68781385991E+03  0.17280532504E+04  0.15852697343E+04 0.  0.
        3    1    3    3  502    0  0.77390547463E+02 -0.73781899500E+03  0.64815892224E+03  0.98512748662E+03  0.10100000352E+00 0. -1.
       -3    1    3    3    0  502 -0.77390547463E+02  0.73781899500E+03  0.39654937675E+02  0.74292576379E+03  0.10100000352E+00 0.  1.
</event>
<event>
 5   0  0.7302027E-04  0.1802635E+04  0.7818609E-02  0.8704900E-01
       -1   -1    0    0    0  501  0.00000000000E+00  0.00000000000E+00  0.53249718488E+03  0.53249718490E+03  0.50400001928E-02 0.  1.
        1   -1    0    0  501    0  0.00000000000E+00  0.00000000000E+00 -0.15255909979E+04  0.15255909980E+04  0.50400001928E-02 0. -1.
    10030    2    1    2    0    0  0.00000000000E+00  0.00000000000E+00 -0.99309381306E+03  0.20580881829E+04  0.18026346404E+04 0.  0.
        5    1    3    3  502    0 -0.19112928154E+03  0.76456046082E+03  0.27709625273E+01  0.78810714293E+03  0.46999998093E+01 0.  1.
       -5    1    3    3    0  502  0.19112928154E+03 -0.76456046082E+03 -0.99586477559E+03  0.12699810399E+04  0.46999998093E+01 0. -1.
</event>
<event>
 5   0  0.1414751E-03  0.1601722E+04  0.7818609E-02  0.8819491E-01
        2   -1    0    0  501    0  0.00000000000E+00  0.00000000000E+00  0.12134672313E+04  0.12134672313E+04  0.25500000920E-02 0.  1.
       -2   -1    0    0    0  501  0.00000000000E+00  0.00000000000E+00 -0.52854998329E+03  0.52854998330E+03  0.25500000920E-02 0. -1.
    10030    2    1    2    0    0  0.00000000000E+00  0.00000000000E+00  0.68491724799E+03  0.17420172146E+04  0.16017216797E+04 0.  0.
        2    1    3    3  502    0 -0.26009628526E+03  0.64889885909E+03 -0.82479374429E+02  0.70393370010E+03  0.25500000920E-02 0. -1.
       -2    1    3    3    0  502  0.26009628526E+03 -0.64889885909E+03  0.76739662242E+03  0.10380835145E+04  0.25500000920E-02 0.  1.
</event>
<event>
 5   0  0.5095750E-04  0.1689600E+04  0.7818609E-02  0.8767318E-01
        3   -1    0    0  501    0  0.00000000000E+00  0.00000000000E+00  0.30856597991E+03  0.30856599644E+03  0.10100000352E+00 0. -1.
       -3   -1    0    0    0  501  0.00000000000E+00  0.00000000000E+00 -0.23129147136E+04  0.23129147158E+04  0.10100000352E+00 0.  1.
    10030    2    1    2    0    0  0.00000000000E+00  0.00000000000E+00 -0.20043487337E+04  0.26214807123E+04  0.16895997391E+04 0.  0.
        1    1    3    3  502    0  0.47803070757E+03 -0.52253325313E+03 -0.28756879406E+03  0.76436259023E+03  0.50400001928E-02 0. -1.
       -1    1    3    3    0  502 -0.47803070757E+03  0.52253325313E+03 -0.17167799397E+04  0.18571181220E+04  0.50400001928E-02 0.  1.
</event>
<event>
 5   0  0.7601145E-04  0.1629684E+04  0.7818609E-02  0.8802516E-01
       -1   -1    0    0    0  501  0.00000000000E+00  0.00000000000E+00  0.53324598617E+03  0.53324598620E+03  0.50400001928E-02 0.  1.
        1   -1    0    0  501    0  0.00000000000E+00  0.00000000000E+00 -0.12451436016E+04  0.12451436016E+04  0.50400001928E-02 0. -1.
    10030    2    1    2    0    0  0.00000000000E+00  0.00000000000E+00 -0.71189761540E+03  0.17783895878E+04  0.16296844207E+04 0.  0.
        4    1    3    3  502    0  0.14964507994E+03 -0.19575665352E+03 -0.12035132752E+04  0.12284787885E+04  0.12699999809E+01 0. -1.
       -4    1    3    3    0  502 -0.14964507994E+03  0.19575665352E+03  0.49161565977E+03  0.54991079929E+03  0.12699999809E+01 0.  1.
</event>
<event>
 5   0  0.1414751E-03  0.1599231E+04  0.7818609E-02  0.8821020E-01
        2   -1    0    0  501    0  0.00000000000E+00  0.00000000000E+00  0.53817140593E+03  0.53817140594E+03  0.25500000920E-02 0.  1.
       -2   -1    0    0    0  501  0.00000000000E+00  0.00000000000E+00 -0.11880696513E+04  0.11880696513E+04  0.25500000920E-02 0. -1.
    10030    2    1    2    0    0  0.00000000000E+00  0.00000000000E+00 -0.64989824533E+03  0.17262410572E+04  0.15992312085E+04 0.  0.
        2    1    3    3  502    0  0.73801386840E+03 -0.19742071181E+03 -0.57980573144E+03  0.95906938937E+03  0.25500000920E-02 0. -1.
       -2    1    3    3    0  502 -0.73801386840E+03  0.19742071181E+03 -0.70092513882E+02  0.76717166782E+03  0.25500000920E-02 0.  1.
</event>
<event>
 5   0  0.7302027E-04  0.1927091E+04  0.7818609E-02  0.8641488E-01
       -1   -1    0    0    0  501  0.00000000000E+00  0.00000000000E+00  0.87106151329E+03  0.87106151331E+03  0.50400001928E-02 0. -1.
        1   -1    0    0  501    0  0.00000000000E+00  0.00000000000E+00 -0.10658492566E+04  0.10658492566E+04  0.50400001928E-02 0.  1.
    10030    2    1    2    0    0  0.00000000000E+00  0.00000000000E+00 -0.19478774331E+03  0.19369107699E+04  0.19270913486E+04 0.  0.
        5    1    3    3  502    0  0.14776694423E+03 -0.71032286014E+03 -0.73466287019E+03  0.10325431024E+04  0.46999998093E+01 0.  1.
       -5    1    3    3    0  502 -0.14776694423E+03  0.71032286014E+03  0.53987512689E+03  0.90436766753E+03  0.46999998093E+01 0. -1.
</event>
<event>
 5   0  0.7302027E-04  0.1524096E+04  0.7818609E-02  0.8868585E-01
        1   -1    0    0  501    0  0.00000000000E+00  0.00000000000E+00  0.11944835681E+04  0.11944835681E+04  0.50400001928E-02 0. -1.
       -1   -1    0    0    0  501  0.00000000000E+00  0.00000000000E+00 -0.48616602673E+03  0.48616602675E+03  0.50400001928E-02 0.  1.
    10030    2    1    2    0    0  0.00000000000E+00  0.00000000000E+00  0.70831754137E+03  0.16806495949E+04  0.15240962310E+04 0.  0.
        5    1    3    3  502    0  0.61610050534E+03  0.85062214327E+02  0.83970557285E+03  0.10449607419E+04  0.46999998093E+01 0. -1.
       -5    1    3    3    0  502 -0.61610050534E+03 -0.85062214327E+02 -0.13138803148E+03  0.63568885298E+03  0.46999998093E+01 0.  1.
</event>
<event>
 5   0  0.7499834E-04  0.1597207E+04  0.7818609E-02  0.8822266E-01
       -1   -1    0    0    0  501  0.00000000000E+00  0.00000000000E+00  0.47451603891E+03  0.47451603894E+03  0.50400001928E-02 0. -1.
        1   -1    0    0  501    0  0.00000000000E+00  0.00000000000E+00 -0.13440384328E+04  0.13440384328E+04  0.50400001928E-02 0.  1.
    10030    2    1    2    0    0  0.00000000000E+00  0.00000000000E+00 -0.86952239392E+03  0.18185544718E+04  0.15972073044E+04 0.  0.
        3    1    3    3  502    0  0.51329846710E+03  0.48864960008E+03 -0.15623073069E+02  0.70887081941E+03  0.10100000352E+00 0. -1.
       -3    1    3    3    0  502 -0.51329846710E+03 -0.48864960008E+03 -0.85389932085E+03  0.11096836524E+04  0.10100000352E+00 0.  1.
</event>
<event>
 5   0  0.7124495E-04  0.1564207E+04  0.7818609E-02  0.8842844E-01
       -1   -1    0    0    0  501  0.00000000000E+00  0.00000000000E+00  0.34809089009E+03  0.34809089012E+03  0.50400001928E-02 0. -1.
        1   -1    0    0  501    0  0.00000000000E+00  0.00000000000E+00 -0.17572596200E+04  0.17572596200E+04  0.50400001928E-02 0.  1.
    10030    2    1    2    0    0  0.00000000000E+00  0.00000000000E+00 -0.14091687299E+04  0.21053505101E+04  0.15642072309E+04 0.  0.
        2    1    3    3  502    0 -0.32921751506E+03 -0.69470406315E+03 -0.51099074996E+03  0.92309774896E+03  0.25500000920E-02 0. -1.
       -2    1    3    3    0  502  0.32921751506E+03  0.69470406315E+03 -0.89817797992E+03  0.11822527611E+04  0.25500000920E-02 0.  1.
</event>
<event>
 5   0  0.1339162E-03  0.1612942E+04  0.7818609E-02  0.8812637E-01
        2   -1    0    0  501    0  0.00000000000E+00  0.00000000000E+00  0.95798020766E+03  0.95798020766E+03  0.25500000920E-02 0.  1.
       -2   -1    0    0    0  501  0.00000000000E+00  0.00000000000E+00 -0.67892332160E+03  0.67892332160E+03  0.25500000920E-02 0. -1.
    10030    2    1    2    0    0  0.00000000000E+00  0.00000000000E+00  0.27905688606E+03  0.16369035293E+04  0.16129415422E+04 0.  0.
        5    1    3    3  502    0  0.22485773993E+03  0.24497631244E+03  0.88515323800E+03  0.94556477388E+03  0.46999998093E+01 0.  1.
       -5    1    3    3    0  502 -0.22485773993E+03 -0.24497631244E+03 -0.60609635194E+03  0.69133875538E+03  0.46999998093E+01 0. -1.
</event>
<event>
 5   0  0.7601145E-04  0.1567560E+04  0.7818609E-02  0.8840728E-01
        1   -1    0    0  501    0  0.00000000000E+00  0.00000000000E+00  0.54629470455E+03  0.54629470457E+03  0.50400001928E-02 0.  1.
       -1   -1    0    0    0  501  0.00000000000E+00  0.00000000000E+00 -0.11245055129E+04  0.11245055129E+04  0.50400001928E-02 0. -1.
    10030    2    1    2    0    0  0.00000000000E+00  0.00000000000E+00 -0.57821080831E+03  0.16708002174E+04  0.15675604064E+04 0.  0.
        4    1    3    3  502    0  0.71164391840E+03  0.51471153969E+01  0.60922551081E+02  0.71426656755E+03  0.12699999809E+01 0.  1.
       -4    1    3    3    0  502 -0.71164391840E+03 -0.51471153969E+01 -0.63913335939E+03  0.95653364989E+03  0.12699999809E+01 0. -1.
</event>
<event>
 5   0  0.7302027E-04  0.1495575E+04  0.7818609E-02  0.8887401E-01
        1   -1    0    0  501    0  0.00000000000E+00  0.00000000000E+00  0.36353281563E+03  0.36353281566E+03  0.50400001928E-02 0.  1.
       -1   -1    0    0    0  501  0.00000000000E+00  0.00000000000E+00 -0.15381990633E+04  0.15381990633E+04  0.50400001928E-02 0. -1.
    10030    2    1    2    0    0  0.00000000000E+00  0.00000000000E+00 -0.11746662477E+04  0.19017318790E+04  0.14955745873E+04 0.  0.
        5    1    3    3  502    0  0.44519228752E+03  0.55580235026E+03 -0.87743937562E+03  0.11300594557E+04  0.46999998093E+01 0.  1.
       -5    1    3    3    0  502 -0.44519228752E+03 -0.55580235026E+03 -0.29722687204E+03  0.77167242330E+03  0.46999998093E+01 0. -1.
</event>
<event>
 5   0  0.1414751E-03  0.1569193E+04  0.7818609E-02  0.8839701E-01
        2   -1    0    0  501    0  0.00000000000E+00  0.00000000000E+00  0.36762937547E+04  0.36762937547E+04  0.25500000920E-02 0. -1.
       -2   -1    0    0    0  501  0.00000000000E+00  0.00000000000E+00 -0.16744891567E+03  0.16744891569E+03  0.25500000920E-02 0.  1.
    10030    2    1    2    0    0  0.00000000000E+00  0.00000000000E+00  0.35088448390E+04  0.38437426704E+04  0.15691926624E+04 0.  0.
        2    1    3    3  502    0 -0.57919852834E+03  0.50098850970E+03  0.21724987593E+04  0.23035214957E+04  0.25500000920E-02 0. -1.
       -2    1    3    3    0  502  0.57919852834E+03 -0.50098850970E+03  0.13363460798E+04  0.15402211747E+04  0.25500000920E-02 0.  1.
</event>
<event>
 5   0  0.7124495E-04  0.1687607E+04  0.7818609E-02  0.8768464E-01
       -1   -1    0    0    0  501  0.00000000000E+00  0.00000000000E+00  0.79535805339E+03  0.79535805341E+03  0.50400001928E-02 0.  1.
        1   -1    0    0  501    0  0.00000000000E+00  0.00000000000E+00 -0.89520016396E+03  0.89520016397E+03  0.50400001928E-02 0. -1.
    10030    2    1    2    0    0  0.00000000000E+00  0.00000000000E+00 -0.99842110562E+02  0.16905582174E+04  0.16876073712E+04 0.  0.
        2    1    3    3  502    0  0.60650626753E+03 -0.56099657842E+03 -0.22179508468E+03  0.85542975933E+03  0.25500000920E-02 0. -1.
       -2    1    3    3    0  502 -0.60650626753E+03  0.56099657842E+03  0.12195297412E+03  0.83512845805E+03  0.25500000920E-02 0.  1.
</event>
<event>
 5   0  0.1339162E-03  0.1602738E+04  0.7818609E-02  0.8818868E-01
       -2   -1    0    0    0  501  0.00000000000E+00  0.00000000000E+00  0.62550973932E+03  0.62550973933E+03  0.25500000920E-02 0. -1.
        2   -1    0    0  501    0  0.00000000000E+00  0.00000000000E+00 -0.10266698174E+04  0.10266698174E+04  0.25500000920E-02 0.  1.
    10030    2    1    2    0    0  0.00000000000E+00  0.00000000000E+00 -0.40116007803E+03  0.16521795567E+04  0.16027376202E+04 0.  0.
        5    1    3    3  502    0  0.35346071769E+03  0.69478421789E+03 -0.90798854206E+01  0.77959227978E+03  0.46999998093E+01 0.  1.
       -5    1    3    3    0  502 -0.35346071769E+03 -0.69478421789E+03 -0.39208019261E+03  0.87258727690E+03  0.46999998093E+01 0. -1.
</event>
<event>
 5   0  0.7633213E-04  0.1481501E+04  0.7818609E-02  0.8896848E-01
        1   -1    0    0  501    0  0.00000000000E+00  0.00000000000E+00  0.21746047011E+04  0.21746047011E+04  0.50400001928E-02 0. -1.
       -1   -1    0    0    0  501  0.00000000000E+00  0.00000000000E+00 -0.25232704665E+03  0.25232704670E+03  0.50400001928E-02 0.  1.
    10030    2    1    2    0    0  0.00000000000E+00  0.00000000000E+00  0.19222776545E+04  0.24269317478E+04  0.14815013762E+04 0.  0.
        1    1    3    3  502    0 -0.27221471499E+03  0.44739653814E+03  0.18193314992E+04  0.18932067022E+04  0.50400001928E-02 0. -1.
       -1    1    3    3    0  502  0.27221471499E+03 -0.44739653814E+03  0.10294615529E+03  0.53372504561E+03  0.50400001928E-02 0.  1.
</event>
<event>
 5   0  0.1354766E-03  0.1832054E+04  0.7818609E-02  0.8689437E-01
       -2   -1    0    0    0  501  0.00000000000E+00  0.00000000000E+00  0.55078736452E+03  0.55078736453E+03  0.25500000920E-02 0.  1.
        2   -1    0    0  501    0  0.00000000000E+00  0.00000000000E+00 -0.15234657530E+04  0.15234657530E+04  0.25500000920E-02 0. -1.
    10030    2    1    2    0    0  0.00000000000E+00  0.00000000000E+00 -0.97267838846E+03  0.20742531175E+04  0.18320542427E+04 0.  0.
        3    1    3    3  502    0  0.83406322139E+03  0.45328772369E+02 -0.91206701984E+03  0.12367628769E+04  0.10100000352E+00 0. -1.
       -3    1    3    3    0  502 -0.83406322139E+03 -0.45328772369E+02 -0.60611368626E+02  0.83749024059E+03  0.10100000352E+00 0.  1.
</event>
<event>
 5   0  0.1339162E-03  0.1607286E+04  0.7818609E-02  0.8816084E-01
        2   -1    0    0  501    0  0.00000000000E+00  0.00000000000E+00  0.11460709553E+04  0.11460709553E+04  0.25500000920E-02 0. -1.
       -2   -1    0    0    0  501  0.00000000000E+00  0.00000000000E+00 -0.56352716215E+03  0.56352716216E+03  0.25500000920E-02 0.  1.
    10030    2    1    2    0    0  0.00000000000E+00  0.00000000000E+00  0.58254379314E+03  0.17095981174E+04  0.16072860518E+04 0.  0.
        5    1    3    3  502    0 -0.70958875202E+03 -0.24531216939E+03  0.59608986954E+03  0.95866546825E+03  0.46999998093E+01 0. -1.
       -5    1    3    3    0  502  0.70958875202E+03  0.24531216939E+03 -0.13546076403E+02  0.75093264920E+03  0.46999998093E+01 0.  1.
</event>
<event>
 5   0  0.7633213E-04  0.1584608E+04  0.7818609E-02  0.8830060E-01
        1   -1    0    0  501    0  0.00000000000E+00  0.00000000000E+00  0.80162146546E+03  0.80162146548E+03  0.50400001928E-02 0. -1.
       -1   -1    0    0    0  501  0.00000000000E+00  0.00000000000E+00 -0.78309496280E+03  0.78309496281E+03  0.50400001928E-02 0.  1.
    10030    2    1    2    0    0  0.00000000000E+00  0.00000000000E+00  0.18526502664E+02  0.15847164283E+04  0.15846081304E+04 0.  0.
        1    1    3    3  502    0  0.73008085427E+03  0.17652774721E+01  0.31705784159E+03  0.79595655969E+03  0.50400001928E-02 0. -1.
       -1    1    3    3    0  502 -0.73008085427E+03 -0.17652774721E+01 -0.29853133892E+03  0.78875986860E+03  0.50400001928E-02 0.  1.
</event>
<event>
 5   0  0.1414751E-03  0.1620197E+04  0.7818609E-02  0.8808236E-01
       -2   -1    0    0    0  501  0.00000000000E+00  0.00000000000E+00  0.48714196234E+03  0.48714196235E+03  0.25500000920E-02 0. -1.
        2   -1    0    0  501    0  0.00000000000E+00  0.00000000000E+00 -0.13471625221E+04  0.13471625221E+04  0.25500000920E-02 0.  1.
    10030    2    1    2    0    0  0.00000000000E+00  0.00000000000E+00 -0.86002055976E+03  0.18343044844E+04  0.16201967715E+04 0.  0.
        2    1    3    3  502    0  0.44134212307E+03 -0.44436042998E+03  0.15172091462E+03  0.64440538271E+03  0.25500000920E-02 0.  1.
       -2    1    3    3    0  502 -0.44134212307E+03  0.44436042998E+03 -0.10117414744E+04  0.11898991017E+04  0.25500000920E-02 0. -1.
</event>
<event>
 5   0  0.1339162E-03  0.1695415E+04  0.7818609E-02  0.8763984E-01
        2   -1    0    0  501    0  0.00000000000E+00  0.00000000000E+00  0.22055019239E+04  0.22055019239E+04  0.25500000920E-02 0. -1.
       -2   -1    0    0    0  501  0.00000000000E+00  0.00000000000E+00 -0.32582514659E+03  0.32582514660E+03  0.25500000920E-02 0.  1.
    10030    2    1    2    0    0  0.00000000000E+00  0.00000000000E+00  0.18796767773E+04  0.25313270705E+04  0.16954149789E+04 0.  0.
        5    1    3    3  502    0 -0.41747711302E+03 -0.73267771728E+03  0.81069130781E+03  0.11697633367E+04  0.46999998093E+01 0.  1.
       -5    1    3    3    0  502  0.41747711302E+03  0.73267771728E+03  0.10689854695E+04  0.13615637338E+04  0.46999998093E+01 0. -1.
</event>
<event>
 5   0  0.7124495E-04  0.1436651E+04  0.7818609E-02  0.8927707E-01
        1   -1    0    0  501    0  0.00000000000E+00  0.00000000000E+00  0.74283864443E+03  0.74283864444E+03  0.50400001928E-02 0.  1.
       -1   -1    0    0    0  501  0.00000000000E+00  0.00000000000E+00 -0.69462172438E+03  0.69462172440E+03  0.50400001928E-02 0. -1.
    10030    2    1    2    0    0  0.00000000000E+00  0.00000000000E+00  0.48216920043E+02  0.14374603688E+04  0.14366514680E+04 0.  0.
        2    1    3    3  502    0 -0.16946588428E+03 -0.54507816960E+03  0.46043077723E+03  0.73336580064E+03  0.25500000920E-02 0.  1.
       -2    1    3    3    0  502  0.16946588428E+03  0.54507816960E+03 -0.41221385719E+03  0.70409456821E+03  0.25500000920E-02 0. -1.
</event>
<event>
 5   0  0.1339162E-03  0.1564647E+04  0.7818609E-02  0.8842566E-01
        2   -1    0    0  501    0  0.00000000000E+00  0.00000000000E+00  0.81573870696E+03  0.81573870696E+03  0.25500000920E-02 0. -1.
       -2   -1    0    0    0  501  0.00000000000E+00  0.00000000000E+00 -0.75027741374E+03  0.75027741375E+03  0.25500000920E-02 0.  1.
    10030    2    1    2    0    0  0.00000000000E+00  0.00000000000E+00  0.65461293213E+02  0.15660161207E+04  0.15646473435E+04 0.  0.
        5    1    3    3  502    0  0.31067180334E+03 -0.64397936959E+03  0.35046992274E+03  0.79628993124E+03  0.46999998093E+01 0. -1.
       -5    1    3    3    0  502 -0.31067180334E+03  0.64397936959E+03 -0.28500862953E+03  0.76972618947E+03  0.46999998093E+01 0.  1.
</event>
<event>
 5   0  0.7601145E-04  0.1604739E+04  0.7818609E-02  0.8817642E-01
        1   -1    0    0  501    0  0.00000000000E+00  0.00000000000E+00  0.95392248269E+03  0.95392248271E+03  0.50400001928E-02 0. -1.
       -1   -1    0    0    0  501  0.00000000000E+00  0.00000000000E+00 -0.67489422209E+03  0.67489422211E+03  0.50400001928E-02 0.  1.
    10030    2    1    2    0    0  0.00000000000E+00  0.00000000000E+00  0.27902826060E+03  0.16288167048E+04  0.16047389469E+04 0.  0.
        4    1    3    3  502    0 -0.26165278484E+02 -0.74371666433E+03 -0.16498045276E+03  0.76224619468E+03  0.12699999809E+01 0.  1.
       -4    1    3    3    0  502  0.26165278484E+02  0.74371666433E+03  0.44400871336E+03  0.86657051014E+03  0.12699999809E+01 0. -1.
</event>
<event>
 5   0  0.7302027E-04  0.1593328E+04  0.7818609E-02  0.8824657E-01
       -1   -1    0    0    0  501  0.00000000000E+00  0.00000000000E+00  0.10606424469E+04  0.10606424469E+04  0.50400001928E-02 0.  1.
        1   -1    0    0  501    0  0.00000000000E+00  0.00000000000E+00 -0.59838585114E+03  0.59838585117E+03  0.50400001928E-02 0. -1.
    10030    2    1    2    0    0  0.00000000000E+00  0.00000000000E+00  0.46225659572E+03  0.16590282980E+04  0.15933278801E+04 0.  0.
        5    1    3    3  502    0 -0.13896893497E+02 -0.17222375141E+03  0.10408830847E+04  0.10551368774E+04  0.46999998093E+01 0.  1.
       -5    1    3    3    0  502  0.13896893497E+02  0.17222375141E+03 -0.57862648893E+03  0.60389142061E+03  0.46999998093E+01 0. -1.
</event>
<event>
 5   0  0.7302027E-04  0.1583895E+04  0.7818609E-02  0.8830504E-01
        1   -1    0    0  501    0  0.00000000000E+00  0.00000000000E+00  0.15091217766E+04  0.15091217767E+04  0.50400001928E-02 0.  1.
       -1   -1    0    0    0  501  0.00000000000E+00  0.00000000000E+00 -0.41559304595E+03  0.41559304598E+03  0.50400001928E-02 0. -1.
    10030    2    1    2    0    0  0.00000000000E+00  0.00000000000E+00  0.10935287307E+04  0.19247148226E+04  0.15838945873E+04 0.  0.
        5    1    3    3  502    0 -0.78134926150E+03 -0.11836475989E+03  0.48430913703E+03  0.92687340831E+03  0.46999998093E+01 0. -1.
       -5    1    3    3    0  502  0.78134926150E+03  0.11836475989E+03  0.60921959367E+03  0.99784141432E+03  0.46999998093E+01 0.  1.
</event>
<event>
 5   0  0.5095750E-04  0.1437376E+04  0.7818609E-02  0.8927199E-01
       -3   -1    0    0    0  501  0.00000000000E+00  0.00000000000E+00  0.45649428330E+03  0.45649429448E+03  0.10100000352E+00 0. -1.
        3   -1    0    0  501    0  0.00000000000E+00  0.00000000000E+00 -0.11314765623E+04  0.11314765668E+04  0.10100000352E+00 0.  1.
    10030    2    1    2    0    0  0.00000000000E+00  0.00000000000E+00 -0.67498227901E+03  0.15879708613E+04  0.14373762136E+04 0.  0.
        1    1    3    3  502    0  0.32248906481E+03 -0.17829321850E+03 -0.10191667110E+04  0.10837381849E+04  0.50400001928E-02 0.  1.
       -1    1    3    3    0  502 -0.32248906481E+03  0.17829321850E+03  0.34418443197E+03  0.50423267637E+03  0.50400001928E-02 0. -1.
</event>
<event>
 5   0  0.1354766E-03  0.1621669E+04  0.7818609E-02  0.8807345E-01
        2   -1    0    0  501    0  0.00000000000E+00  0.00000000000E+00  0.75528137689E+03  0.75528137689E+03  0.25500000920E-02 0.  1.
       -2   -1    0    0    0  501  0.00000000000E+00  0.00000000000E+00 -0.87047403397E+03  0.87047403397E+03  0.25500000920E-02 0. -1.
    10030    2    1    2    0    0  0.00000000000E+00  0.00000000000E+00 -0.11519265708E+03  0.16257554109E+04  0.16216692967E+04 0.  0.
        3    1    3    3  502    0 -0.71830120183E+03  0.28241653034E+03 -0.30669191870E+03  0.83052733631E+03  0.10100000352E+00 0.  1.
       -3    1    3    3    0  502  0.71830120183E+03 -0.28241653034E+03  0.19149926162E+03  0.79522807455E+03  0.10100000352E+00 0. -1.
</event>
<event>
 5   0  0.7302027E-04  0.1599029E+04  0.7818609E-02  0.8821145E-01
        1   -1    0    0  501    0  0.00000000000E+00  0.00000000000E+00  0.10823444278E+04  0.10823444278E+04  0.50400001928E-02 0. -1.
       -1   -1    0    0    0  501  0.00000000000E+00  0.00000000000E+00 -0.59059137155E+03  0.59059137157E+03  0.50400001928E-02 0.  1.
    10030    2    1    2    0    0  0.00000000000E+00  0.00000000000E+00  0.49175305627E+03  0.16729357994E+04  0.15990288054E+04 0.  0.
        5    1    3    3  502    0 -0.50090013801E+03  0.61886605010E+03  0.32207879460E+03  0.85886726341E+03  0.46999998093E+01 0.  1.
       -5    1    3    3    0  502  0.50090013801E+03 -0.61886605010E+03  0.16967426167E+03  0.81406853600E+03  0.46999998093E+01 0. -1.
</event>
<event>
 5   0  0.7302027E-04  0.1562841E+04  0.7818609E-02  0.8843707E-01
        1   -1    0    0  501    0  0.00000000000E+00  0.00000000000E+00  0.79216758509E+03  0.79216758510E+03  0.50400001928E-02 0. -1.
       -1   -1    0    0    0  501  0.00000000000E+00  0.00000000000E+00 -0.77081919439E+03  0.77081919440E+03  0.50400001928E-02 0.  1.
    10030    2    1    2    0    0  0.00000000000E+00  0.00000000000E+00  0.21348390700E+02  0.15629867795E+04  0.15628409769E+04 0.  0.
        5    1    3    3  502    0  0.87944236304E+02 -0.69446501054E+03  0.35795297370E+03  0.78623677155E+03  0.46999998093E+01 0. -1.
       -5    1    3    3    0  502 -0.87944236304E+02  0.69446501054E+03 -0.33660458300E+03  0.77675000795E+03  0.46999998093E+01 0.  1.
</event>
<event>
 5   0  0.1354766E-03  0.1632411E+04  0.7818609E-02  0.8800880E-01
       -2   -1    0    0    0  501  0.00000000000E+00  0.00000000000E+00  0.91675718832E+03  0.91675718832E+03  0.25500000920E-02 0. -1.
        2   -1    0    0  501    0  0.00000000000E+00  0.00000000000E+00 -0.72668244365E+03  0.72668244366E+03  0.25500000920E-02 0.  1.
    10030    2    1    2    0    0  0.00000000000E+00  0.00000000000E+00  0.19007474466E+03  0.16434396320E+04  0.16324109211E+04 0.  0.
        3    1    3    3  502    0 -0.52571291153E+03  0.41504827594E+03 -0.37453875621E+03  0.76741020766E+03  0.10100000352E+00 0.  1.
       -3    1    3    3    0  502  0.52571291153E+03 -0.41504827594E+03  0.56461350087E+03  0.87602942432E+03  0.10100000352E+00 0. -1.
</event>
<event>
 5   0  0.1375777E-03  0.1405703E+04  0.7818609E-02  0.8949701E-01
        2   -1    0    0  501    0  0.00000000000E+00  0.00000000000E+00  0.16183695474E+04  0.16183695474E+04  0.25500000920E-02 0. -1.
       -2   -1    0    0    0  501  0.00000000000E+00  0.00000000000E+00 -0.30524577043E+03  0.30524577044E+03  0.25500000920E-02 0.  1.
    10030    2    1    2    0    0  0.00000000000E+00  0.00000000000E+00  0.13131237770E+04  0.19236153178E+04  0.14057033248E+04 0.  0.
        1    1    3    3  502    0  0.41975245306E+03  0.77709959756E+02 -0.10752257256E+03  0.44021819968E+03  0.50400001928E-02 0.  1.
       -1    1    3    3    0  502 -0.41975245306E+03 -0.77709959756E+02  0.14206463495E+04  0.14833971181E+04  0.50400001928E-02 0. -1.
</event>
<event>
 5   0  0.1414796E-03  0.1532666E+04  0.7818609E-02  0.8863016E-01
        2   -1    0    0  501    0  0.00000000000E+00  0.00000000000E+00  0.93498852471E+03  0.93498852472E+03  0.25500000920E-02 0. -1.
       -2   -1    0    0    0  501  0.00000000000E+00  0.00000000000E+00 -0.62810021662E+03  0.62810021663E+03  0.25500000920E-02 0.  1.
    10030    2    1    2    0    0  0.00000000000E+00  0.00000000000E+00  0.30688830809E+03  0.15630887413E+04  0.15326662976E+04 0.  0.
        4    1    3    3  502    0 -0.60521772412E+03  0.39242416495E+03 -0.11049724050E+03  0.72972355854E+03  0.12699999809E+01 0.  1.
       -4    1    3    3    0  502  0.60521772412E+03 -0.39242416495E+03  0.41738554859E+03  0.83336518280E+03  0.12699999809E+01 0. -1.
</event>
<event>
 5   0  0.7124495E-04  0.1703462E+04  0.7818609E-02  0.8759392E-01
       -1   -1    0    0    0  501  0.00000000000E+00  0.00000000000E+00  0.18914416666E+04  0.18914416666E+04  0.50400001928E-02 0. -1.
        1   -1    0    0  501    0  0.00000000000E+00  0.00000000000E+00 -0.38354125605E+03  0.38354125608E+03  0.50400001928E-02 0.  1.
    10030    2    1    2    0    0  0.00000000000E+00  0.00000000000E+00  0.15079004106E+04  0.22749829227E+04  0.17034622539E+04 0.  0.
        2    1    3    3  502    0 -0.29827906426E+03  0.32105126102E+03 -0.22142740766E+03  0.49099328840E+03  0.25500000920E-02 0.  1.
       -2    1    3    3    0  502  0.29827906426E+03 -0.32105126102E+03  0.17293278182E+04  0.17839896343E+04  0.25500000920E-02 0. -1.
</event>
<event>
 5   0  0.1339162E-03  0.1575372E+04  0.7818609E-02  0.8835822E-01
        2   -1    0    0  501    0  0.00000000000E+00  0.00000000000E+00  0.10623722551E+04  0.10623722551E+04  0.25500000920E-02 0. -1.
       -2   -1    0    0    0  501  0.00000000000E+00  0.00000000000E+00 -0.58402267973E+03  0.58402267974E+03  0.25500000920E-02 0.  1.
    10030    2    1    2    0    0  0.00000000000E+00  0.00000000000E+00  0.47834957537E+03  0.16463949348E+04  0.15753723259E+04 0.  0.
        5    1    3    3  502    0  0.33009572076E+03  0.17410477295E+03  0.96409772516E+03  0.10338192156E+04  0.46999998093E+01 0. -1.
       -5    1    3    3    0  502 -0.33009572076E+03 -0.17410477295E+03 -0.48574814978E+03  0.61257571928E+03  0.46999998093E+01 0.  1.
</event>
<event>
 5   0  0.7601145E-04  0.1642874E+04  0.7818609E-02  0.8794633E-01
       -1   -1    0    0    0  501  0.00000000000E+00  0.00000000000E+00  0.66990795088E+03  0.66990795089E+03  0.50400001928E-02 0.  1.
        1   -1    0    0  501    0  0.00000000000E+00  0.00000000000E+00 -0.10072412870E+04  0.10072412870E+04  0.50400001928E-02 0. -1.
    10030    2    1    2    0    0  0.00000000000E+00  0.00000000000E+00 -0.33733333614E+03  0.16771492379E+04  0.16428742455E+04 0.  0.
        4    1    3    3  502    0  0.58987638933E+02 -0.11077628360E+03  0.66006170170E+03  0.67188837578E+03  0.12699999809E+01 0.  1.
       -4    1    3    3    0  502 -0.58987638933E+02  0.11077628360E+03 -0.99739503784E+03  0.10052608621E+04  0.12699999809E+01 0. -1.
</event>
<event>
 5   0  0.1375777E-03  0.1591984E+04  0.7818609E-02  0.8825488E-01
       -2   -1    0    0    0  501  0.00000000000E+00  0.00000000000E+00  0.28153857202E+03  0.28153857203E+03  0.25500000920E-02 0.  1.
        2   -1    0    0  501    0  0.00000000000E+00  0.00000000000E+00 -0.22505027065E+04  0.22505027065E+04  0.25500000920E-02 0. -1.
    10030    2    1    2    0    0  0.00000000000E+00  0.00000000000E+00 -0.19689641345E+04  0.25320412785E+04  0.15919840682E+04 0.  0.
        1    1    3    3  502    0  0.94848754785E+02  0.11557303747E+03  0.25900555490E+03  0.29906068075E+03  0.50400001928E-02 0.  1.
       -1    1    3    3    0  502 -0.94848754785E+02 -0.11557303747E+03 -0.22279696894E+04  0.22329805978E+04  0.50400001928E-02 0. -1.
</event>
<event>
 5   0  0.1339162E-03  0.2236514E+04  0.7818609E-02  0.8503382E-01
        2   -1    0    0  501    0  0.00000000000E+00  0.00000000000E+00  0.10881274397E+04  0.10881274397E+04  0.25500000920E-02 0. -1.
       -2   -1    0    0    0  501  0.00000000000E+00  0.00000000000E+00 -0.11492209148E+04  0.11492209148E+04  0.25500000920E-02 0.  1.
    10030    2    1    2    0    0  0.00000000000E+00  0.00000000000E+00 -0.61093475124E+02  0.22373483545E+04  0.22365140837E+04 0.  0.
        5    1    3    3  502    0 -0.56057240191E+03 -0.89864110478E+03 -0.38939975387E+03  0.11284730884E+04  0.46999998093E+01 0.  1.
       -5    1    3    3    0  502  0.56057240191E+03  0.89864110478E+03  0.32830627875E+03  0.11088752660E+04  0.46999998093E+01 0. -1.
</event>
<event>
 5   0  0.1414751E-03  0.1643582E+04  0.7818609E-02  0.8794212E-01
        2   -1    0    0  501    0  0.00000000000E+00  0.00000000000E+00  0.20272165547E+04  0.20272165547E+04  0.25500000920E-02 0.  1.
       -2   -1    0    0    0  501  0.00000000000E+00  0.00000000000E+00 -0.33313699783E+03  0.33313699784E+03  0.25500000920E-02 0. -1.
    10030    2    1    2    0    0  0.00000000000E+00  0.00000000000E+00  0.16940795569E+04  0.23603535526E+04  0.16435824738E+04 0.  0.
        2    1    3    3  502    0 -0.25087241166E+03 -0.56595815767E+03  0.70885968473E+02  0.62311349182E+03  0.25500000920E-02 0. -1.
       -2    1    3    3    0  502  0.25087241166E+03  0.56595815767E+03  0.16231935884E+04  0.17372400608E+04  0.25500000920E-02 0.  1.
</event>
<event>
 5   0  0.7633213E-04  0.1619108E+04  0.7818609E-02  0.8808895E-01
        1   -1    0    0  501    0  0.00000000000E+00  0.00000000000E+00  0.14324860289E+04  0.14324860290E+04  0.50400001928E-02 0.  1.
       -1   -1    0    0    0  501  0.00000000000E+00  0.00000000000E+00 -0.45751047512E+03  0.45751047514E+03  0.50400001928E-02 0. -1.
    10030    2    1    2    0    0  0.00000000000E+00  0.00000000000E+00  0.97497555383E+03  0.18899965041E+04  0.16191076107E+04 0.  0.
        1    1    3    3  502    0  0.10728441903E+03 -0.28540813642E+03 -0.38792252720E+03  0.49340818602E+03  0.50400001928E-02 0. -1.
       -1    1    3    3    0  502 -0.10728441903E+03  0.28540813642E+03  0.13628980810E+04  0.13965883181E+04  0.50400001928E-02 0.  1.
</event>
<event>
 5   0  0.7601145E-04  0.1616657E+04  0.7818609E-02  0.8810380E-01
       -1   -1    0    0    0  501  0.00000000000E+00  0.00000000000E+00  0.59660561985E+03  0.59660561987E+03  0.50400001928E-02 0. -1.
        1   -1    0    0  501    0  0.00000000000E+00  0.00000000000E+00 -0.10951871635E+04  0.10951871635E+04  0.50400001928E-02 0.  1.
    10030    2    1    2    0    0  0.00000000000E+00  0.00000000000E+00 -0.49858154362E+03  0.16917927834E+04  0.16166568177E+04 0.  0.
        4    1    3    3  502    0 -0.59573309447E+03 -0.52086849681E+03 -0.76729132289E+02  0.79504143506E+03  0.12699999809E+01 0. -1.
       -4    1    3    3    0  502  0.59573309447E+03  0.52086849681E+03 -0.42185241133E+03  0.89675134829E+03  0.12699999809E+01 0.  1.
</event>
<event>
 5   0  0.1414751E-03  0.1592858E+04  0.7818609E-02  0.8824948E-01
        2   -1    0    0  501    0  0.00000000000E+00  0.00000000000E+00  0.64956807768E+03  0.64956807768E+03  0.25500000920E-02 0. -1.
       -2   -1    0    0    0  501  0.00000000000E+00  0.00000000000E+00 -0.97649341812E+03  0.97649341812E+03  0.25500000920E-02 0.  1.
    10030    2    1    2    0    0  0.00000000000E+00  0.00000000000E+00 -0.32692534044E+03  0.16260614958E+04  0.15928577494E+04 0.  0.
        2    1    3    3  502    0  0.62178525863E+03  0.77499608183E+02  0.33839042324E+03  0.71213143145E+03  0.25500000920E-02 0. -1.
       -2    1    3    3    0  502 -0.62178525863E+03 -0.77499608183E+02 -0.66531576368E+03  0.91393006435E+03  0.25500000920E-02 0.  1.
</event>
<event>
 5   0  0.1339162E-03  0.1662328E+04  0.7818609E-02  0.8783146E-01
       -2   -1    0    0    0  501  0.00000000000E+00  0.00000000000E+00  0.49749632652E+03  0.49749632652E+03  0.25500000920E-02 0. -1.
        2   -1    0    0  501    0  0.00000000000E+00  0.00000000000E+00 -0.13886211100E+04  0.13886211100E+04  0.25500000920E-02 0.  1.
    10030    2    1    2    0    0  0.00000000000E+00  0.00000000000E+00 -0.89112478345E+03  0.18861174365E+04  0.16623283685E+04 0.  0.
        5    1    3    3  502    0  0.18872163683E+03  0.80942205812E+03 -0.43915535655E+03  0.94003161733E+03  0.46999998093E+01 0. -1.
       -5    1    3    3    0  502 -0.18872163683E+03 -0.80942205812E+03 -0.45196942689E+03  0.94608581917E+03  0.46999998093E+01 0.  1.
</event>
<event>
 5   0  0.7601145E-04  0.1585722E+04  0.7818609E-02  0.8829368E-01
        1   -1    0    0  501    0  0.00000000000E+00  0.00000000000E+00  0.12985086547E+04  0.12985086547E+04  0.50400001928E-02 0.  1.
       -1   -1    0    0    0  501  0.00000000000E+00  0.00000000000E+00 -0.48411554823E+03  0.48411554826E+03  0.50400001928E-02 0. -1.
    10030    2    1    2    0    0  0.00000000000E+00  0.00000000000E+00  0.81439310644E+03  0.17826242029E+04  0.15857215762E+04 0.  0.
        4    1    3    3  502    0 -0.25055519849E+03  0.42240168574E+03 -0.29252778203E+03  0.57164255244E+03  0.12699999809E+01 0. -1.
       -4    1    3    3    0  502  0.25055519849E+03 -0.42240168574E+03  0.11069208885E+04  0.12109816505E+04  0.12699999809E+01 0.  1.
</event>
<event>
 5   0  0.7124495E-04  0.1632585E+04  0.7818609E-02  0.8800776E-01
        1   -1    0    0  501    0  0.00000000000E+00  0.00000000000E+00  0.82144511422E+03  0.82144511423E+03  0.50400001928E-02 0. -1.
       -1   -1    0    0    0  501  0.00000000000E+00  0.00000000000E+00 -0.81117171279E+03  0.81117171281E+03  0.50400001928E-02 0.  1.
    10030    2    1    2    0    0  0.00000000000E+00  0.00000000000E+00  0.10273401421E+02  0.16326168270E+04  0.16325845035E+04 0.  0.
        2    1    3    3  502    0  0.69340159496E+03 -0.42939833474E+03 -0.28692042005E+02  0.81609554284E+03  0.25500000920E-02 0. -1.
       -2    1    3    3    0  502 -0.69340159496E+03  0.42939833474E+03  0.38965443426E+02  0.81652128420E+03  0.25500000920E-02 0.  1.
</event>
<event>
 5   0  0.1414796E-03  0.1621310E+04  0.7818609E-02  0.8807563E-01
       -2   -1    0    0    0  501  0.00000000000E+00  0.00000000000E+00  0.32261222129E+03  0.32261222130E+03  0.25500000920E-02 0. -1.
        2   -1    0    0  501    0  0.00000000000E+00  0.00000000000E+00 -0.20370004322E+04  0.20370004322E+04  0.25500000920E-02 0.  1.
    10030    2    1    2    0    0  0.00000000000E+00  0.00000000000E+00 -0.17143882109E+04  0.23596126535E+04  0.16213096363E+04 0.  0.
        4    1    3    3  502    0 -0.24515786601E+03  0.51986519658E+03 -0.25211853933E+02  0.57532551861E+03  0.12699999809E+01 0. -1.
       -4    1    3    3    0  502  0.24515786601E+03 -0.51986519658E+03 -0.16891763570E+04  0.17842871349E+04  0.12699999809E+01 0.  1.
</event>
<event>
 5   0  0.5095750E-04  0.1615314E+04  0.7818609E-02  0.8811195E-01
       -3   -1    0    0    0  501  0.00000000000E+00  0.00000000000E+00  0.29801825305E+03  0.29801827017E+03  0.10100000352E+00 0. -1.
        3   -1    0    0  501    0  0.00000000000E+00  0.00000000000E+00 -0.21888261135E+04  0.21888261158E+04  0.10100000352E+00 0.  1.
    10030    2    1    2    0    0  0.00000000000E+00  0.00000000000E+00 -0.18908078604E+04  0.24868443860E+04  0.16153144075E+04 0.  0.
        4    1    3    3  502    0  0.49949391959E+03 -0.62010695836E+03 -0.11535653268E+04  0.14016923313E+04  0.12699999809E+01 0.  1.
       -4    1    3    3    0  502 -0.49949391959E+03  0.62010695836E+03 -0.73724253361E+03  0.10851520547E+04  0.12699999809E+01 0. -1.
</event>
<event>
 5   0  0.1414796E-03  0.1631892E+04  0.7818609E-02  0.8801191E-01
        2   -1    0    0  501    0  0.00000000000E+00  0.00000000000E+00  0.13962940848E+04  0.13962940848E+04  0.25500000920E-02 0. -1.
       -2   -1    0    0    0  501  0.00000000000E+00  0.00000000000E+00 -0.47681075782E+03  0.47681075782E+03  0.25500000920E-02 0.  1.
    10030    2    1    2    0    0  0.00000000000E+00  0.00000000000E+00  0.91948332694E+03  0.18731048426E+04  0.16318922032E+04 0.  0.
        4    1    3    3  502    0  0.62418444701E+03  0.27024061932E+03  0.97706000861E+03  0.11904974127E+04  0.12699999809E+01 0. -1.
       -4    1    3    3    0  502 -0.62418444701E+03 -0.27024061932E+03 -0.57576681673E+02  0.68260742992E+03  0.12699999809E+01 0.  1.
</event>
<event>
 5   0  0.1414796E-03  0.1628950E+04  0.7818609E-02  0.8802958E-01
       -2   -1    0    0    0  501  0.00000000000E+00  0.00000000000E+00  0.58999699705E+03  0.58999699705E+03  0.25500000920E-02 0. -1.
        2   -1    0    0  501    0  0.00000000000E+00  0.00000000000E+00 -0.11243601966E+04  0.11243601966E+04  0.25500000920E-02 0.  1.
    10030    2    1    2    0    0  0.00000000000E+00  0.00000000000E+00 -0.53436319956E+03  0.17143571937E+04  0.16289495260E+04 0.  0.
        4    1    3    3  502    0 -0.70709438112E+03  0.40309936142E+03 -0.23567947349E+03  0.84735941967E+03  0.12699999809E+01 0.  1.
       -4    1    3    3    0  502  0.70709438112E+03 -0.40309936142E+03 -0.29868372607E+03  0.86699777399E+03  0.12699999809E+01 0. -1.
</event>
<event>
 5   0  0.1339162E-03  0.1584471E+04  0.7818609E-02  0.8830145E-01
        2   -1    0    0  501    0  0.00000000000E+00  0.00000000000E+00  0.20891799068E+04  0.20891799068E+04  0.25500000920E-02 0.  1.
       -2   -1    0    0    0  501  0.00000000000E+00  0.00000000000E+00 -0.30042265272E+03  0.30042265273E+03  0.25500000920E-02 0. -1.
    10030    2    1    2    0    0  0.00000000000E+00  0.00000000000E+00  0.17887572541E+04  0.23896025595E+04  0.15844708513E+04 0.  0.
        5    1    3    3  502    0 -0.41182324400E+03  0.19288661439E+03 -0.83950742323E+02  0.46246453642E+03  0.46999998093E+01 0. -1.
       -5    1    3    3    0  502  0.41182324400E+03 -0.19288661439E+03  0.18727079964E+04  0.19271380231E+04  0.46999998093E+01 0.  1.
</event>
<event>
 5   0  0.7124495E-04  0.1665126E+04  0.7818609E-02  0.8781508E-01
        1   -1    0    0  501    0  0.00000000000E+00  0.00000000000E+00  0.16719018707E+04  0.16719018708E+04  0.50400001928E-02 0. -1.
       -1   -1    0    0    0  501  0.00000000000E+00  0.00000000000E+00 -0.41459461382E+03  0.41459461385E+03  0.50400001928E-02 0.  1.
    10030    2    1    2    0    0  0.00000000000E+00  0.00000000000E+00  0.12573072569E+04  0.20864964846E+04  0.16651264342E+04 0.  0.
        2    1    3    3  502    0  0.22322375017E+03 -0.27830693648E+03 -0.31395587719E+03  0.47523876774E+03  0.25500000920E-02 0.  1.
       -2    1    3    3    0  502 -0.22322375017E+03  0.27830693648E+03  0.15712631341E+04  0.16112577169E+04  0.25500000920E-02 0. -1.
</event>
<event>
 5   0  0.7633213E-04  0.1574842E+04  0.7818609E-02  0.8836155E-01
        1   -1    0    0  501    0  0.00000000000E+00  0.00000000000E+00  0.14604607167E+04  0.14604607167E+04  0.50400001928E-02 0.  1.
       -1   -1    0    0    0  501  0.00000000000E+00  0.00000000000E+00 -0.42454517051E+03  0.42454517054E+03  0.50400001928E-02 0. -1.
    10030    2    1    2    0    0  0.00000000000E+00  0.00000000000E+00  0.10359155462E+04  0.18850058872E+04  0.15748416352E+04 0.  0.
        1    1    3    3  502    0 -0.75919406774E+03 -0.10598527207E+03  0.73348525058E+03  0.10609472764E+04  0.50400001928E-02 0.  1.
       -1    1    3    3    0  502  0.75919406774E+03  0.10598527207E+03  0.30243029558E+03  0.82405861084E+03  0.50400001928E-02 0. -1.
</event>
<event>
 5   0  0.7302027E-04  0.1605117E+04  0.7818609E-02  0.8817411E-01
        1   -1    0    0  501    0  0.00000000000E+00  0.00000000000E+00  0.12416324822E+04  0.12416324822E+04  0.50400001928E-02 0.  1.
       -1   -1    0    0    0  501  0.00000000000E+00  0.00000000000E+00 -0.51875245429E+03  0.51875245431E+03  0.50400001928E-02 0. -1.
    10030    2    1    2    0    0  0.00000000000E+00  0.00000000000E+00  0.72288002793E+03  0.17603849365E+04  0.16051166905E+04 0.  0.
        5    1    3    3  502    0 -0.10844959186E+03 -0.79265530495E+03  0.29195470054E+03  0.85165919452E+03  0.46999998093E+01 0. -1.
       -5    1    3    3    0  502  0.10844959186E+03  0.79265530495E+03  0.43092532739E+03  0.90872574203E+03  0.46999998093E+01 0.  1.
</event>
<event>
 5   0  0.1375777E-03  0.1570389E+04  0.7818609E-02  0.8838948E-01
       -2   -1    0    0    0  501  0.00000000000E+00  0.00000000000E+00  0.56932439278E+03  0.56932439278E+03  0.25500000920E-02 0.  1.
        2   -1    0    0  501    0  0.00000000000E+00  0.00000000000E+00 -0.10829161678E+04  0.10829161678E+04  0.25500000920E-02 0. -1.
    10030    2    1    2    0    0  0.00000000000E+00  0.00000000000E+00 -0.51359177503E+03  0.16522405606E+04  0.15703892380E+04 0.  0.
        1    1    3    3  502    0  0.14081854392E+03 -0.65319159668E+03 -0.69064967037E+03  0.96098183723E+03  0.50400001928E-02 0. -1.
       -1    1    3    3    0  502 -0.14081854392E+03  0.65319159668E+03  0.17705789535E+03  0.69125872335E+03  0.50400001928E-02 0.  1.
</event>
<event>
 5   0  0.1339162E-03  0.1616787E+04  0.7818609E-02  0.8810301E-01
       -2   -1    0    0    0  501  0.00000000000E+00  0.00000000000E+00  0.83135863043E+03  0.83135863043E+03  0.25500000920E-02 0. -1.
        2   -1    0    0  501    0  0.00000000000E+00  0.00000000000E+00 -0.78606312383E+03  0.78606312383E+03  0.25500000920E-02 0.  1.
    10030    2    1    2    0    0  0.00000000000E+00  0.00000000000E+00  0.45295506602E+02  0.16174217543E+04  0.16167873850E+04 0.  0.
        5    1    3    3  502    0  0.14387844854E+03  0.18040826910E+03  0.79769693266E+03  0.83041594270E+03  0.46999998093E+01 0. -1.
       -5    1    3    3    0  502 -0.14387844854E+03 -0.18040826910E+03 -0.75240142606E+03  0.78700581157E+03  0.46999998093E+01 0.  1.
</event>
<event>
 5   0  0.1414796E-03  0.1610505E+04  0.7818609E-02  0.8814120E-01
        2   -1    0    0  501    0  0.00000000000E+00  0.00000000000E+00  0.11971926081E+04  0.11971926081E+04  0.25500000920E-02 0. -1.
       -2   -1    0    0    0  501  0.00000000000E+00  0.00000000000E+00 -0.54162670950E+03  0.54162670951E+03  0.25500000920E-02 0.  1.
    10030    2    1    2    0    0  0.00000000000E+00  0.00000000000E+00  0.65556589862E+03  0.17388193176E+04  0.16105048811E+04 0.  0.
        4    1    3    3  502    0  0.20007515529E+03 -0.20562101592E+03 -0.48457341484E+03  0.56313681927E+03  0.12699999809E+01 0.  1.
       -4    1    3    3    0  502 -0.20007515529E+03  0.20562101592E+03  0.11401393135E+04  0.11756824984E+04  0.12699999809E+01 0. -1.
</event>
<event>
 5   0  0.7302027E-04  0.1591565E+04  0.7818609E-02  0.8825747E-01
       -1   -1    0    0    0  501  0.00000000000E+00  0.00000000000E+00  0.67098176111E+03  0.67098176112E+03  0.50400001928E-02 0. -1.
        1   -1    0    0  501    0  0.00000000000E+00  0.00000000000E+00 -0.94379620545E+03  0.94379620546E+03  0.50400001928E-02 0.  1.
    10030    2    1    2    0    0  0.00000000000E+00  0.00000000000E+00 -0.27281444435E+03  0.16147779666E+04  0.15915653176E+04 0.  0.
        5    1    3    3  502    0  0.66902137990E+02  0.21232141727E+03 -0.91154712793E+03  0.93834776961E+03  0.46999998093E+01 0.  1.
       -5    1    3    3    0  502 -0.66902137990E+02 -0.21232141727E+03  0.63873268359E+03  0.67643019697E+03  0.46999998093E+01 0. -1.
</event>
<event>
 5   0  0.7499834E-04  0.1607595E+04  0.7818609E-02  0.8815896E-01
        1   -1    0    0  501    0  0.00000000000E+00  0.00000000000E+00  0.85128237062E+03  0.85128237063E+03  0.50400001928E-02 0. -1.
       -1   -1    0    0    0  501  0.00000000000E+00  0.00000000000E+00 -0.75896128808E+03  0.75896128810E+03  0.50400001928E-02 0.  1.
    10030    2    1    2    0    0  0.00000000000E+00  0.00000000000E+00  0.92321082538E+02  0.16102436587E+04  0.16075949298E+04 0.  0.
        3    1    3    3  502    0 -0.64269175139E+03 -0.12337142629E+03  0.51363836501E+03  0.83192402077E+03  0.10100000352E+00 0. -1.
       -3    1    3    3    0  502  0.64269175139E+03  0.12337142629E+03 -0.42131728247E+03  0.77831963796E+03  0.10100000352E+00 0.  1.
</event>
<event>
 5   0  0.7124495E-04  0.1611739E+04  0.7818609E-02  0.8813369E-01
        1   -1    0    0  501    0  0.00000000000E+00  0.00000000000E+00  0.41963693055E+03  0.41963693058E+03  0.50400001928E-02 0.  1.
       -1   -1    0    0    0  501  0.00000000000E+00  0.00000000000E+00 -0.15475890578E+04  0.15475890578E+04  0.50400001928E-02 0. -1.
    10030    2    1    2    0    0  0.00000000000E+00  0.00000000000E+00 -0.11279521273E+04  0.19672259884E+04  0.16117388399E+04 0.  0.
        2    1    3    3  502    0 -0.43122085766E+02  0.57195456559E+03  0.12694568767E+03  0.58745786828E+03  0.25500000920E-02 0.  1.
       -2    1    3    3    0  502  0.43122085766E+02 -0.57195456559E+03 -0.12548978150E+04  0.13797681201E+04  0.25500000920E-02 0. -1.
</event>
<event>
 5   0  0.7124495E-04  0.1580008E+04  0.7818609E-02  0.8832925E-01
       -1   -1    0    0    0  501  0.00000000000E+00  0.00000000000E+00  0.78690435612E+03  0.78690435614E+03  0.50400001928E-02 0.  1.
        1   -1    0    0  501    0  0.00000000000E+00  0.00000000000E+00 -0.79311633024E+03  0.79311633025E+03  0.50400001928E-02 0. -1.
    10030    2    1    2    0    0  0.00000000000E+00  0.00000000000E+00 -0.62119741164E+01  0.15800206864E+04  0.15800084749E+04 0.  0.
        2    1    3    3  502    0  0.50508322462E+03  0.50226311788E+03 -0.34476546106E+03  0.79135360397E+03  0.25500000920E-02 0.  1.
       -2    1    3    3    0  502 -0.50508322462E+03 -0.50226311788E+03  0.33855348694E+03  0.78866708242E+03  0.25500000920E-02 0. -1.
</event>
<event>
 5   0  0.7302027E-04  0.1601400E+04  0.7818609E-02  0.8819689E-01
        1   -1    0    0  501    0  0.00000000000E+00  0.00000000000E+00  0.19381398590E+04  0.19381398590E+04  0.50400001928E-02 0. -1.
       -1   -1    0    0    0  501  0.00000000000E+00  0.00000000000E+00 -0.33079156341E+03  0.33079156345E+03  0.50400001928E-02 0.  1.
    10030    2    1    2    0    0  0.00000000000E+00  0.00000000000E+00  0.16073482956E+04  0.22689314225E+04  0.16013997804E+04 0.  0.
        5    1    3    3  502    0 -0.98450601690E+02 -0.11359494264E+03  0.19179484670E+04  0.19238359452E+04  0.46999998093E+01 0. -1.
       -5    1    3    3    0  502  0.98450601690E+02  0.11359494264E+03 -0.31060017140E+03  0.34509547727E+03  0.46999998093E+01 0.  1.
</event>
<event>
 5   0  0.1375777E-03  0.1312026E+04  0.7818609E-02  0.9020083E-01
       -2   -1    0    0    0  501  0.00000000000E+00  0.00000000000E+00  0.27159293407E+03  0.27159293408E+03  0.25500000920E-02 0. -1.
        2   -1    0    0  501    0  0.00000000000E+00  0.00000000000E+00 -0.15845509944E+04  0.15845509944E+04  0.25500000920E-02 0.  1.
    10030    2    1    2    0    0  0.00000000000E+00  0.00000000000E+00 -0.13129580603E+04  0.18561439285E+04  0.13120256915E+04 0.  0.
        1    1    3    3  502    0 -0.49766121559E+03 -0.39713775594E+03 -0.88002106324E+03  0.10861961860E+04  0.50400001928E-02 0. -1.
       -1    1    3    3    0  502  0.49766121559E+03  0.39713775594E+03 -0.43293699710E+03  0.76994774250E+03  0.50400001928E-02 0.  1.
</event>
<event>
 5   0  0.7124495E-04  0.1603180E+04  0.7818609E-02  0.8818597E-01
       -1   -1    0    0    0  501  0.00000000000E+00  0.00000000000E+00  0.11543981323E+04  0.11543981323E+04  0.50400001928E-02 0. -1.
        1   -1    0    0  501    0  0.00000000000E+00  0.00000000000E+00 -0.55660737736E+03  0.55660737738E+03  0.50400001928E-02 0.  1.
    10030    2    1    2    0    0  0.00000000000E+00  0.00000000000E+00  0.59779075496E+03  0.17110055097E+04  0.16031799860E+04 0.  0.
        2    1    3    3  502    0 -0.27015022177E+03 -0.44561866475E+03 -0.35115926531E+03  0.62838679674E+03  0.25500000920E-02 0.  1.
       -2    1    3    3    0  502  0.27015022177E+03  0.44561866475E+03  0.94895002027E+03  0.10826187130E+04  0.25500000920E-02 0. -1.
</event>
<event>
 5   0  0.7633213E-04  0.1545062E+04  0.7818609E-02  0.8855028E-01
        1   -1    0    0  501    0  0.00000000000E+00  0.00000000000E+00  0.15299379938E+04  0.15299379938E+04  0.50400001928E-02 0.  1.
       -1   -1    0    0    0  501  0.00000000000E+00  0.00000000000E+00 -0.39008389610E+03  0.39008389613E+03  0.50400001928E-02 0. -1.
    10030    2    1    2    0    0  0.00000000000E+00  0.00000000000E+00  0.11398540977E+04  0.19200218899E+04  0.15450620356E+04 0.  0.
        1    1    3    3  502    0 -0.47757804614E+03 -0.21669375129E+03  0.12748329483E+04  0.13784904853E+04  0.50400001928E-02 0.  1.
       -1    1    3    3    0  502  0.47757804614E+03  0.21669375129E+03 -0.13497885063E+03  0.54153140458E+03  0.50400001928E-02 0. -1.
</event>
<event>
 5   0  0.1414796E-03  0.1532593E+04  0.7818609E-02  0.8863064E-01
       -2   -1    0    0    0  501  0.00000000000E+00  0.00000000000E+00  0.72060320360E+03  0.72060320360E+03  0.25500000920E-02 0. -1.
        2   -1    0    0  501    0  0.00000000000E+00  0.00000000000E+00 -0.81488723333E+03  0.81488723334E+03  0.25500000920E-02 0.  1.
    10030    2    1    2    0    0  0.00000000000E+00  0.00000000000E+00 -0.94284029732E+02  0.15354904369E+04  0.15325930326E+04 0.  0.
        4    1    3    3  502    0  0.10498208612E+02  0.47801435962E+03  0.55282295604E+03  0.73090544807E+03  0.12699999809E+01 0. -1.
       -4    1    3    3    0  502 -0.10498208612E+02 -0.47801435962E+03 -0.64710698577E+03  0.80458498887E+03  0.12699999809E+01 0.  1.
</event>
<event>
 5   0  0.7302027E-04  0.1441725E+04  0.7818609E-02  0.8924158E-01
        1   -1    0    0  501    0  0.00000000000E+00  0.00000000000E+00  0.86089890251E+03  0.86089890252E+03  0.50400001928E-02 0.  1.
       -1   -1    0    0    0  501  0.00000000000E+00  0.00000000000E+00 -0.60360482279E+03  0.60360482281E+03  0.50400001928E-02 0. -1.
    10030    2    1    2    0    0  0.00000000000E+00  0.00000000000E+00  0.25729407972E+03  0.14645037253E+04  0.14417249800E+04 0.  0.
        5    1    3    3  502    0 -0.22877032715E+02  0.70122653928E+03 -0.39432111385E+02  0.70272256220E+03  0.46999998093E+01 0. -1.
       -5    1    3    3    0  502  0.22877032715E+02 -0.70122653928E+03  0.29672619110E+03  0.76178116313E+03  0.46999998093E+01 0.  1.
</event>
<event>
 5   0  0.7302027E-04  0.1104494E+04  0.7818609E-02  0.9200823E-01
        1   -1    0    0  501    0  0.00000000000E+00  0.00000000000E+00  0.91799923161E+03  0.91799923162E+03  0.50400001928E-02 0.  1.
       -1   -1    0    0    0  501  0.00000000000E+00  0.00000000000E+00 -0.33221893493E+03  0.33221893497E+03  0.50400001928E-02 0. -1.
    10030    2    1    2    0    0  0.00000000000E+00  0.00000000000E+00  0.58578029668E+03  0.12502181666E+04  0.11044939602E+04 0.  0.
        5    1    3    3  502    0 -0.11392553671E+03  0.36654170940E+03  0.74228899902E+03  0.83567152681E+03  0.46999998093E+01 0.  1.
       -5    1    3    3    0  502  0.11392553671E+03 -0.36654170940E+03 -0.15650870235E+03  0.41454663978E+03  0.46999998093E+01 0. -1.
</event>
<event>
 5   0  0.7124495E-04  0.1557488E+04  0.7818609E-02  0.8847099E-01
        1   -1    0    0  501    0  0.00000000000E+00  0.00000000000E+00  0.73570070406E+03  0.73570070407E+03  0.50400001928E-02 0. -1.
       -1   -1    0    0    0  501  0.00000000000E+00  0.00000000000E+00 -0.82430536372E+03  0.82430536374E+03  0.50400001928E-02 0.  1.
    10030    2    1    2    0    0  0.00000000000E+00  0.00000000000E+00 -0.88604659669E+02  0.15600060678E+04  0.15574877675E+04 0.  0.
        2    1    3    3  502    0  0.47215689065E+03  0.44276243687E+03 -0.47798201127E+03  0.80463501539E+03  0.25500000920E-02 0.  1.
       -2    1    3    3    0  502 -0.47215689065E+03 -0.44276243687E+03  0.38937735160E+03  0.75537105242E+03  0.25500000920E-02 0. -1.
</event>
<event>
 5   0  0.1375777E-03  0.1587519E+04  0.7818609E-02  0.8828252E-01
        2   -1    0    0  501    0  0.00000000000E+00  0.00000000000E+00  0.12720088310E+04  0.12720088310E+04  0.25500000920E-02 0. -1.
       -2   -1    0    0    0  501  0.00000000000E+00  0.00000000000E+00 -0.49532227301E+03  0.49532227302E+03  0.25500000920E-02 0.  1.
    10030    2    1    2    0    0  0.00000000000E+00  0.00000000000E+00  0.77668655800E+03  0.17673311040E+04  0.15875192036E+04 0.  0.
        1    1    3    3  502    0 -0.51945974309E+03 -0.91279592633E+02  0.10487304716E+04  0.11738849989E+04  0.50400001928E-02 0. -1.
       -1    1    3    3    0  502  0.51945974309E+03  0.91279592633E+02 -0.27204391356E+03  0.59344610510E+03  0.50400001928E-02 0.  1.
</event>
<event>
 5   0  0.7124495E-04  0.1556323E+04  0.7818609E-02  0.8847839E-01
        1   -1    0    0  501    0  0.00000000000E+00  0.00000000000E+00  0.88695320030E+03  0.88695320032E+03  0.50400001928E-02 0. -1.
       -1   -1    0    0    0  501  0.00000000000E+00  0.00000000000E+00 -0.68271351773E+03  0.68271351775E+03  0.50400001928E-02 0.  1.
    10030    2    1    2    0    0  0.00000000000E+00  0.00000000000E+00  0.20423968258E+03  0.15696667181E+04  0.15563225109E+04 0.  0.
        2    1    3    3  502    0  0.26819363534E+03 -0.73043818563E+03  0.11038586757E+03  0.78590890619E+03  0.25500000920E-02 0. -1.
       -2    1    3    3    0  502 -0.26819363534E+03  0.73043818563E+03  0.93853815010E+02  0.78375781187E+03  0.25500000920E-02 0.  1.
</event>
<event>
 5   0  0.1375777E-03  0.1581305E+04  0.7818609E-02  0.8832116E-01
       -2   -1    0    0    0  501  0.00000000000E+00  0.00000000000E+00  0.31569543702E+03  0.31569543703E+03  0.25500000920E-02 0. -1.
        2   -1    0    0  501    0  0.00000000000E+00  0.00000000000E+00 -0.19801728679E+04  0.19801728679E+04  0.25500000920E-02 0.  1.
    10030    2    1    2    0    0  0.00000000000E+00  0.00000000000E+00 -0.16644774309E+04  0.22958683050E+04  0.15813052064E+04 0.  0.
        1    1    3    3  502    0 -0.28769444245E+03  0.10571281543E+03  0.22593142040E+03  0.38077328992E+03  0.50400001928E-02 0. -1.
       -1    1    3    3    0  502  0.28769444245E+03 -0.10571281543E+03 -0.18904088513E+04  0.19150950150E+04  0.50400001928E-02 0.  1.
</event>
<event>
 5   0  0.1354766E-03  0.1801786E+04  0.7818609E-02  0.8705350E-01
        2   -1    0    0  501    0  0.00000000000E+00  0.00000000000E+00  0.10423337282E+04  0.10423337282E+04  0.25500000920E-02 0. -1.
       -2   -1    0    0    0  501  0.00000000000E+00  0.00000000000E+00 -0.77864522072E+03  0.77864522072E+03  0.25500000920E-02 0.  1.
    10030    2    1    2    0    0  0.00000000000E+00  0.00000000000E+00  0.26368850747E+03  0.18209789489E+04  0.18017859760E+04 0.  0.
        3    1    3    3  502    0  0.15841303694E+03  0.19149304766E+03 -0.74331512414E+03  0.78376122739E+03  0.10100000352E+00 0.  1.
       -3    1    3    3    0  502 -0.15841303694E+03 -0.19149304766E+03  0.10070036316E+04  0.10372177215E+04  0.10100000352E+00 0. -1.
</event>
<event>
 5   0  0.1354766E-03  0.1004290E+04  0.7818609E-02  0.9303852E-01
        2   -1    0    0  501    0  0.00000000000E+00  0.00000000000E+00  0.53546845076E+03  0.53546845076E+03  0.25500000920E-02 0. -1.
       -2   -1    0    0    0  501  0.00000000000E+00  0.00000000000E+00 -0.47089534082E+03  0.47089534083E+03  0.25500000920E-02 0.  1.
    10030    2    1    2    0    0  0.00000000000E+00  0.00000000000E+00  0.64573109937E+02  0.10063637916E+04  0.10042899952E+04 0.  0.
        3    1    3    3  502    0  0.15089328052E+02  0.72085202882E+02  0.53002707200E+03  0.53511930590E+03  0.10100000352E+00 0. -1.
       -3    1    3    3    0  502 -0.15089328052E+02 -0.72085202882E+02 -0.46545396206E+03  0.47124448569E+03  0.10100000352E+00 0.  1.
</event>
<event>
 5   0  0.7633213E-04  0.1476581E+04  0.7818609E-02  0.8900177E-01
        1   -1    0    0  501    0  0.00000000000E+00  0.00000000000E+00  0.14505802054E+04  0.14505802055E+04  0.50400001928E-02 0. -1.
       -1   -1    0    0    0  501  0.00000000000E+00  0.00000000000E+00 -0.37576210475E+03  0.37576210479E+03  0.50400001928E-02 0.  1.
    10030    2    1    2    0    0  0.00000000000E+00  0.00000000000E+00  0.10748181007E+04  0.18263423102E+04  0.14765812828E+04 0.  0.
        1    1    3    3  502    0 -0.17096975239E+03  0.17584584954E+03  0.13987203834E+04  0.14200602558E+04  0.50400001928E-02 0. -1.
       -1    1    3    3    0  502  0.17096975239E+03 -0.17584584954E+03 -0.32390228270E+03  0.40628205448E+03  0.50400001928E-02 0.  1.
</event>
<event>
 5   0  0.7302027E-04  0.1596349E+04  0.7818609E-02  0.8822794E-01
       -1   -1    0    0    0  501  0.00000000000E+00  0.00000000000E+00  0.93597056519E+03  0.93597056520E+03  0.50400001928E-02 0.  1.
        1   -1    0    0  501    0  0.00000000000E+00  0.00000000000E+00 -0.68066488400E+03  0.68066488402E+03  0.50400001928E-02 0. -1.
    10030    2    1    2    0    0  0.00000000000E+00  0.00000000000E+00  0.25530568119E+03  0.16166354492E+04  0.15963487040E+04 0.  0.
        5    1    3    3  502    0 -0.74971600995E+02  0.77762437499E+03 -0.37948322957E+02  0.78216531165E+03  0.46999998093E+01 0. -1.
       -5    1    3    3    0  502  0.74971600995E+02 -0.77762437499E+03  0.29325400415E+03  0.83447013757E+03  0.46999998093E+01 0.  1.
</event>
<event>
 5   0  0.1354766E-03  0.1511354E+04  0.7818609E-02  0.8876937E-01
       -2   -1    0    0    0  501  0.00000000000E+00  0.00000000000E+00  0.64454151479E+03  0.64454151480E+03  0.25500000920E-02 0.  1.
        2   -1    0    0  501    0  0.00000000000E+00  0.00000000000E+00 -0.88597542907E+03  0.88597542907E+03  0.25500000920E-02 0. -1.
    10030    2    1    2    0    0  0.00000000000E+00  0.00000000000E+00 -0.24143391428E+03  0.15305169439E+04  0.15113542869E+04 0.  0.
        3    1    3    3  502    0 -0.28653690139E+03  0.42733460138E+03  0.43977114318E+03  0.67684335409E+03  0.10100000352E+00 0.  1.
       -3    1    3    3    0  502  0.28653690139E+03 -0.42733460138E+03 -0.68120505746E+03  0.85367358979E+03  0.10100000352E+00 0. -1.
</event>
<event>
 5   0  0.7302027E-04  0.1615175E+04  0.7818609E-02  0.8811279E-01
        1   -1    0    0  501    0  0.00000000000E+00  0.00000000000E+00  0.12174258185E+04  0.12174258186E+04  0.50400001928E-02 0. -1.
       -1   -1    0    0    0  501  0.00000000000E+00  0.00000000000E+00 -0.53571831738E+03  0.53571831740E+03  0.50400001928E-02 0.  1.
    10030    2    1    2    0    0  0.00000000000E+00  0.00000000000E+00  0.68170750116E+03  0.17531441360E+04  0.16151746792E+04 0.  0.
        5    1    3    3  502    0 -0.28349015711E+03 -0.95758219047E+02  0.11550198392E+04  0.11931593459E+04  0.46999998093E+01 0. -1.
       -5    1    3    3    0  502  0.28349015711E+03  0.95758219047E+02 -0.47331233808E+03  0.55998479004E+03  0.46999998093E+01 0.  1.
</event>
<event>
 5   0  0.1414751E-03  0.1446889E+04  0.7818609E-02  0.8920560E-01
       -2   -1    0    0    0  501  0.00000000000E+00  0.00000000000E+00  0.15635130100E+04  0.15635130100E+04  0.25500000920E-02 0.  1.
        2   -1    0    0  501    0  0.00000000000E+00  0.00000000000E+00 -0.33474122509E+03  0.33474122510E+03  0.25500000920E-02 0. -1.
    10030    2    1    2    0    0  0.00000000000E+00  0.00000000000E+00  0.12287717849E+04  0.18982542351E+04  0.14468894366E+04 0.  0.
        2    1    3    3  502    0  0.42812713159E+03  0.53277215875E+03  0.92549706673E+03  0.11505145955E+04  0.25500000920E-02 0.  1.
       -2    1    3    3    0  502 -0.42812713159E+03 -0.53277215875E+03  0.30327471821E+03  0.74773963962E+03  0.25500000920E-02 0. -1.
</event>
<event>
 5   0  0.7499834E-04  0.1599838E+04  0.7818609E-02  0.8820648E-01
        1   -1    0    0  501    0  0.00000000000E+00  0.00000000000E+00  0.10114145452E+04  0.10114145453E+04  0.50400001928E-02 0. -1.
       -1   -1    0    0    0  501  0.00000000000E+00  0.00000000000E+00 -0.63264876845E+03  0.63264876847E+03  0.50400001928E-02 0.  1.
    10030    2    1    2    0    0  0.00000000000E+00  0.00000000000E+00  0.37876577680E+03  0.16440633137E+04  0.15998376999E+04 0.  0.
        3    1    3    3  502    0  0.67945144586E+03  0.39072688996E+03  0.25125713068E+02  0.78418944234E+03  0.10100000352E+00 0.  1.
       -3    1    3    3    0  502 -0.67945144586E+03 -0.39072688996E+03  0.35364006373E+03  0.85987387139E+03  0.10100000352E+00 0. -1.
</event>
<event>
 5   0  0.7633213E-04  0.1596313E+04  0.7818609E-02  0.8822816E-01
        1   -1    0    0  501    0  0.00000000000E+00  0.00000000000E+00  0.60869969305E+03  0.60869969307E+03  0.50400001928E-02 0.  1.
       -1   -1    0    0    0  501  0.00000000000E+00  0.00000000000E+00 -0.10465810471E+04  0.10465810471E+04  0.50400001928E-02 0. -1.
    10030    2    1    2    0    0  0.00000000000E+00  0.00000000000E+00 -0.43788135409E+03  0.16552807402E+04  0.15963127039E+04 0.  0.
        1    1    3    3  502    0 -0.44415993496E+03 -0.57606940155E+03 -0.55958705290E+03  0.91775360147E+03  0.50400001928E-02 0. -1.
       -1    1    3    3    0  502  0.44415993496E+03  0.57606940155E+03  0.12170569881E+03  0.73752713874E+03  0.50400001928E-02 0.  1.
</event>
<event>
 5   0  0.7601145E-04  0.1602788E+04  0.7818609E-02  0.8818837E-01
       -1   -1    0    0    0  501  0.00000000000E+00  0.00000000000E+00  0.51662524534E+03  0.51662524537E+03  0.50400001928E-02 0.  1.
        1   -1    0    0  501    0  0.00000000000E+00  0.00000000000E+00 -0.12431300375E+04  0.12431300375E+04  0.50400001928E-02 0. -1.
    10030    2    1    2    0    0  0.00000000000E+00  0.00000000000E+00 -0.72650479217E+03  0.17597552829E+04  0.16027880217E+04 0.  0.
        4    1    3    3  502    0 -0.21803577120E+03 -0.47990918633E+03 -0.10260065462E+04  0.11534918597E+04  0.12699999809E+01 0. -1.
       -4    1    3    3    0  502  0.21803577120E+03  0.47990918633E+03  0.29950175408E+03  0.60626342315E+03  0.12699999809E+01 0.  1.
</event>
<event>
 5   0  0.1414796E-03  0.1557417E+04  0.7818609E-02  0.8847144E-01
       -2   -1    0    0    0  501  0.00000000000E+00  0.00000000000E+00  0.47297850681E+03  0.47297850682E+03  0.25500000920E-02 0.  1.
        2   -1    0    0  501    0  0.00000000000E+00  0.00000000000E+00 -0.12820600140E+04  0.12820600140E+04  0.25500000920E-02 0. -1.
    10030    2    1    2    0    0  0.00000000000E+00  0.00000000000E+00 -0.80908150716E+03  0.17550385208E+04  0.15574168756E+04 0.  0.
        4    1    3    3  502    0  0.77090582826E+02  0.38890959378E+03 -0.11598026665E+04  0.12256987673E+04  0.12699999809E+01 0. -1.
       -4    1    3    3    0  502 -0.77090582826E+02 -0.38890959378E+03  0.35072115934E+03  0.52933975347E+03  0.12699999809E+01 0.  1.
</event>
<event>
 5   0  0.7499834E-04  0.1199353E+04  0.7818609E-02  0.9113423E-01
       -1   -1    0    0    0  501  0.00000000000E+00  0.00000000000E+00  0.63354094971E+03  0.63354094973E+03  0.50400001928E-02 0.  1.
        1   -1    0    0  501    0  0.00000000000E+00  0.00000000000E+00 -0.56762256218E+03  0.56762256220E+03  0.50400001928E-02 0. -1.
    10030    2    1    2    0    0  0.00000000000E+00  0.00000000000E+00  0.65918387525E+02  0.12011635119E+04  0.11993533877E+04 0.  0.
        3    1    3    3  502    0 -0.44941321310E+03  0.38528357841E+03 -0.63083689870E+02  0.59531103973E+03  0.10100000352E+00 0. -1.
       -3    1    3    3    0  502  0.44941321310E+03 -0.38528357841E+03  0.12900207740E+03  0.60585247220E+03  0.10100000352E+00 0.  1.
</event>
<event>
 5   0  0.7302027E-04  0.1652070E+04  0.7818609E-02  0.8789183E-01
        1   -1    0    0  501    0  0.00000000000E+00  0.00000000000E+00  0.20472259134E+04  0.20472259135E+04  0.50400001928E-02 0.  1.
       -1   -1    0    0    0  501  0.00000000000E+00  0.00000000000E+00 -0.33329683213E+03  0.33329683217E+03  0.50400001928E-02 0. -1.
    10030    2    1    2    0    0  0.00000000000E+00  0.00000000000E+00  0.17139290813E+04  0.23805227456E+04  0.16520701095E+04 0.  0.
        5    1    3    3  502    0  0.73510306129E+03  0.10661274417E+03  0.33629286021E+03  0.81538810744E+03  0.46999998093E+01 0. -1.
       -5    1    3    3    0  502 -0.73510306129E+03 -0.10661274417E+03  0.13776362211E+04  0.15651346382E+04  0.46999998093E+01 0.  1.
</event>
<event>
 5   0  0.7601145E-04  0.1650680E+04  0.7818609E-02  0.8790004E-01
       -1   -1    0    0    0  501  0.00000000000E+00  0.00000000000E+00  0.88169563299E+03  0.88169563301E+03  0.50400001928E-02 0. -1.
        1   -1    0    0  501    0  0.00000000000E+00  0.00000000000E+00 -0.77258672553E+03  0.77258672555E+03  0.50400001928E-02 0.  1.
    10030    2    1    2    0    0  0.00000000000E+00  0.00000000000E+00  0.10910890746E+03  0.16542823586E+04  0.16506802744E+04 0.  0.
        4    1    3    3  502    0 -0.38185866464E+03  0.13464912618E+03  0.77531667604E+03  0.87467936295E+03  0.12699999809E+01 0. -1.
       -4    1    3    3    0  502  0.38185866464E+03 -0.13464912618E+03 -0.66620776857E+03  0.77960299560E+03  0.12699999809E+01 0.  1.
</event>
<event>
 5   0  0.1414751E-03  0.1645969E+04  0.7818609E-02  0.8792795E-01
        2   -1    0    0  501    0  0.00000000000E+00  0.00000000000E+00  0.22673948340E+04  0.22673948340E+04  0.25500000920E-02 0.  1.
       -2   -1    0    0    0  501  0.00000000000E+00  0.00000000000E+00 -0.29871441103E+03  0.29871441104E+03  0.25500000920E-02 0. -1.
    10030    2    1    2    0    0  0.00000000000E+00  0.00000000000E+00  0.19686804230E+04  0.25661092450E+04  0.16459690306E+04 0.  0.
        2    1    3    3  502    0  0.13419410296E+03 -0.56123272347E+03  0.18991490919E+04  0.19848822385E+04  0.25500000920E-02 0.  1.
       -2    1    3    3    0  502 -0.13419410296E+03  0.56123272347E+03  0.69531331027E+02  0.58122700657E+03  0.25500000920E-02 0. -1.
</event>
<event>
 5   0  0.1414796E-03  0.1351359E+04  0.7818609E-02  0.8989800E-01
        2   -1    0    0  501    0  0.00000000000E+00  0.00000000000E+00  0.72056847063E+03  0.72056847064E+03  0.25500000920E-02 0. -1.
       -2   -1    0    0    0  501  0.00000000000E+00  0.00000000000E+00 -0.63358675184E+03  0.63358675185E+03  0.25500000920E-02 0.  1.
    10030    2    1    2    0    0  0.00000000000E+00  0.00000000000E+00  0.86981718793E+02  0.13541552225E+04  0.13513587781E+04 0.  0.
        4    1    3    3  502    0  0.19761031194E+03  0.11529827299E+03 -0.59359005057E+03  0.63615586783E+03  0.12699999809E+01 0.  1.
       -4    1    3    3    0  502 -0.19761031194E+03 -0.11529827299E+03  0.68057176936E+03  0.71799935466E+03  0.12699999809E+01 0. -1.
</event>
<event>
 5   0  0.1414796E-03  0.1605098E+04  0.7818609E-02  0.8817422E-01
        2   -1    0    0  501    0  0.00000000000E+00  0.00000000000E+00  0.21292218251E+04  0.21292218251E+04  0.25500000920E-02 0. -1.
       -2   -1    0    0    0  501  0.00000000000E+00  0.00000000000E+00 -0.30249774057E+03  0.30249774058E+03  0.25500000920E-02 0.  1.
    10030    2    1    2    0    0  0.00000000000E+00  0.00000000000E+00  0.18267240845E+04  0.24317195657E+04  0.16050978678E+04 0.  0.
        4    1    3    3  502    0 -0.22476441101E+03  0.60266160465E+03  0.18622134048E+03  0.66962679959E+03  0.12699999809E+01 0.  1.
       -4    1    3    3    0  502  0.22476441101E+03 -0.60266160465E+03  0.16405027440E+04  0.17620927661E+04  0.12699999809E+01 0. -1.
</event>
<event>
 5   0  0.7601145E-04  0.1605760E+04  0.7818609E-02  0.8817017E-01
        1   -1    0    0  501    0  0.00000000000E+00  0.00000000000E+00  0.94971198628E+03  0.94971198629E+03  0.50400001928E-02 0. -1.
       -1   -1    0    0    0  501  0.00000000000E+00  0.00000000000E+00 -0.67874920934E+03  0.67874920936E+03  0.50400001928E-02 0.  1.
    10030    2    1    2    0    0  0.00000000000E+00  0.00000000000E+00  0.27096277694E+03  0.16284611956E+04  0.16057599569E+04 0.  0.
        4    1    3    3  502    0  0.11491928954E+03 -0.63614982713E+03  0.61836586114E+03  0.89457866998E+03  0.12699999809E+01 0. -1.
       -4    1    3    3    0  502 -0.11491928954E+03  0.63614982713E+03 -0.34740308420E+03  0.73388252567E+03  0.12699999809E+01 0.  1.
</event>
<event>
 5   0  0.1414751E-03  0.1201876E+04  0.7818609E-02  0.9111216E-01
        2   -1    0    0  501    0  0.00000000000E+00  0.00000000000E+00  0.12752124024E+04  0.12752124024E+04  0.25500000920E-02 0.  1.
       -2   -1    0    0    0  501  0.00000000000E+00  0.00000000000E+00 -0.28318927334E+03  0.28318927335E+03  0.25500000920E-02 0. -1.
    10030    2    1    2    0    0  0.00000000000E+00  0.00000000000E+00  0.99202312909E+03  0.15584016758E+04  0.12018759896E+04 0.  0.
        2    1    3    3  502    0 -0.20066643646E+03 -0.20415860081E+03 -0.18909937736E+03  0.34308355765E+03  0.25500000920E-02 0. -1.
       -2    1    3    3    0  502  0.20066643646E+03  0.20415860081E+03  0.11811225064E+04  0.12153181181E+04  0.25500000920E-02 0.  1.
</event>
<event>
 5   0  0.1414796E-03  0.1586028E+04  0.7818609E-02  0.8829178E-01
       -2   -1    0    0    0  501  0.00000000000E+00  0.00000000000E+00  0.38635547368E+03  0.38635547368E+03  0.25500000920E-02 0.  1.
        2   -1    0    0  501    0  0.00000000000E+00  0.00000000000E+00 -0.16277019396E+04  0.16277019396E+04  0.25500000920E-02 0. -1.
    10030    2    1    2    0    0  0.00000000000E+00  0.00000000000E+00 -0.12413464659E+04  0.20140574133E+04  0.15860284410E+04 0.  0.
        4    1    3    3  502    0 -0.99382082920E+02 -0.75152713568E+03 -0.32503476216E+03  0.82481455103E+03  0.12699999809E+01 0.  1.
       -4    1    3    3    0  502  0.99382082920E+02  0.75152713568E+03 -0.91631170376E+03  0.11892428623E+04  0.12699999809E+01 0. -1.
</event>
<event>
 5   0  0.1339162E-03  0.1598284E+04  0.7818609E-02  0.8821603E-01
        2   -1    0    0  501    0  0.00000000000E+00  0.00000000000E+00  0.84633649734E+03  0.84633649734E+03  0.25500000920E-02 0. -1.
       -2   -1    0    0    0  501  0.00000000000E+00  0.00000000000E+00 -0.75457892512E+03  0.75457892512E+03  0.25500000920E-02 0.  1.
    10030    2    1    2    0    0  0.00000000000E+00  0.00000000000E+00  0.91757572221E+02  0.16009154225E+04  0.15982836850E+04 0.  0.
        5    1    3    3  502    0 -0.52200089783E+03 -0.52941466013E+03 -0.24758960865E+03  0.78363736767E+03  0.46999998093E+01 0.  1.
       -5    1    3    3    0  502  0.52200089783E+03  0.52941466013E+03  0.33934718087E+03  0.81727805480E+03  0.46999998093E+01 0. -1.
</event>
<event>
 5   0  0.5095750E-04  0.1555698E+04  0.7818609E-02  0.8848236E-01
        4   -1    0    0  501    0  0.00000000000E+00  0.00000000000E+00  0.14855127790E+04  0.14855133219E+04  0.12699999809E+01 0.  1.
       -4   -1    0    0    0  501  0.00000000000E+00  0.00000000000E+00 -0.40729839266E+03  0.40730037266E+03  0.12699999809E+01 0. -1.
    10030    2    1    2    0    0  0.00000000000E+00  0.00000000000E+00  0.10782143864E+04  0.18928136946E+04  0.15556983703E+04 0.  0.
        3    1    3    3  502    0  0.35361168764E+03 -0.14054610167E+03  0.13645399296E+04  0.14166028597E+04  0.10100000352E+00 0.  1.
       -3    1    3    3    0  502 -0.35361168764E+03  0.14054610167E+03 -0.28632554326E+03  0.47621083488E+03  0.10100000352E+00 0. -1.
</event>
<event>
 5   0  0.1339162E-03  0.8035457E+03  0.7818609E-02  0.9554899E-01
        2   -1    0    0  501    0  0.00000000000E+00  0.00000000000E+00  0.56547716748E+03  0.56547716748E+03  0.25500000920E-02 0. -1.
       -2   -1    0    0    0  501  0.00000000000E+00  0.00000000000E+00 -0.28546053510E+03  0.28546053511E+03  0.25500000920E-02 0.  1.
    10030    2    1    2    0    0  0.00000000000E+00  0.00000000000E+00  0.28001663238E+03  0.85093770259E+03  0.80354567965E+03 0.  0.
        5    1    3    3  502    0  0.35005128704E+02  0.38230455497E+03  0.26538527264E+03  0.46672643457E+03  0.46999998093E+01 0.  1.
       -5    1    3    3    0  502 -0.35005128704E+02 -0.38230455497E+03  0.14631359740E+02  0.38421126802E+03  0.46999998093E+01 0. -1.
</event>
<event>
 5   0  0.5095750E-04  0.1477871E+04  0.7818609E-02  0.8899303E-01
       -3   -1    0    0    0  501  0.00000000000E+00  0.00000000000E+00  0.75953062623E+03  0.75953063294E+03  0.10100000352E+00 0.  1.
        3   -1    0    0  501    0  0.00000000000E+00  0.00000000000E+00 -0.71889881859E+03  0.71889882568E+03  0.10100000352E+00 0. -1.
    10030    2    1    2    0    0  0.00000000000E+00  0.00000000000E+00  0.40631807643E+02  0.14784294586E+04  0.14778710094E+04 0.  0.
        2    1    3    3  502    0  0.55328967461E+03  0.25588506441E+03 -0.39747697748E+03  0.72773249058E+03  0.25500000920E-02 0.  1.
       -2    1    3    3    0  502 -0.55328967461E+03 -0.25588506441E+03  0.43810878512E+03  0.75069696804E+03  0.25500000920E-02 0. -1.
</event>
<event>
 5   0  0.7124495E-04  0.1592304E+04  0.7818609E-02  0.8825290E-01
        1   -1    0    0  501    0  0.00000000000E+00  0.00000000000E+00  0.81740614743E+03  0.81740614745E+03  0.50400001928E-02 0. -1.
       -1   -1    0    0    0  501  0.00000000000E+00  0.00000000000E+00 -0.77545038248E+03  0.77545038250E+03  0.50400001928E-02 0.  1.
    10030    2    1    2    0    0  0.00000000000E+00  0.00000000000E+00  0.41955764951E+02  0.15928565299E+04  0.15923038776E+04 0.  0.
        2    1    3    3  502    0 -0.15424275249E+03  0.26590754610E+03  0.75564428578E+03  0.81577934296E+03  0.25500000920E-02 0. -1.
       -2    1    3    3    0  502  0.15424275249E+03 -0.26590754610E+03 -0.71368852082E+03  0.77707718698E+03  0.25500000920E-02 0.  1.
</event>
<event>
 5   0  0.1375777E-03  0.1623740E+04  0.7818609E-02  0.8806095E-01
       -2   -1    0    0    0  501  0.00000000000E+00  0.00000000000E+00  0.21246717849E+03  0.21246717850E+03  0.25500000920E-02 0.  1.
        2   -1    0    0  501    0  0.00000000000E+00  0.00000000000E+00 -0.31022816181E+04  0.31022816181E+04  0.25500000920E-02 0. -1.
    10030    2    1    2    0    0  0.00000000000E+00  0.00000000000E+00 -0.28898144396E+04  0.33147487966E+04  0.16237401545E+04 0.  0.
        1    1    3    3  502    0  0.73831569627E+03  0.17463426406E+03 -0.20348969982E+04  0.21717304131E+04  0.50400001928E-02 0.  1.
       -1    1    3    3    0  502 -0.73831569627E+03 -0.17463426406E+03 -0.85491744140E+03  0.11430183836E+04  0.50400001928E-02 0. -1.
</event>
<event>
 5   0  0.7601145E-04  0.1411521E+04  0.7818609E-02  0.8945521E-01
       -1   -1    0    0    0  501  0.00000000000E+00  0.00000000000E+00  0.41662631643E+03  0.41662631646E+03  0.50400001928E-02 0. -1.
        1   -1    0    0  501    0  0.00000000000E+00  0.00000000000E+00 -0.11955503616E+04  0.11955503616E+04  0.50400001928E-02 0.  1.
    10030    2    1    2    0    0  0.00000000000E+00  0.00000000000E+00 -0.77892404518E+03  0.16121766781E+04  0.14115208015E+04 0.  0.
        4    1    3    3  502    0  0.18794288944E+03  0.46539117953E+02  0.38569726299E+03  0.43156970558E+03  0.12699999809E+01 0. -1.
       -4    1    3    3    0  502 -0.18794288944E+03 -0.46539117953E+02 -0.11646213082E+04  0.11806069725E+04  0.12699999809E+01 0.  1.
</event>
<event>
 5   0  0.1354766E-03  0.1480863E+04  0.7818609E-02  0.8897279E-01
       -2   -1    0    0    0  501  0.00000000000E+00  0.00000000000E+00  0.27524000142E+03  0.27524000143E+03  0.25500000920E-02 0.  1.
        2   -1    0    0  501    0  0.00000000000E+00  0.00000000000E+00 -0.19918575699E+04  0.19918575699E+04  0.25500000920E-02 0. -1.
    10030    2    1    2    0    0  0.00000000000E+00  0.00000000000E+00 -0.17166175685E+04  0.22670975713E+04  0.14808631002E+04 0.  0.
        3    1    3    3  502    0 -0.42572713902E+03  0.57446575777E+03 -0.56389076147E+03  0.91061918760E+03  0.10100000352E+00 0.  1.
       -3    1    3    3    0  502  0.42572713902E+03 -0.57446575777E+03 -0.11527268070E+04  0.13564783837E+04  0.10100000352E+00 0. -1.
</event>
<event>
 5   0  0.7302027E-04  0.1589497E+04  0.7818609E-02  0.8827026E-01
       -1   -1    0    0    0  501  0.00000000000E+00  0.00000000000E+00  0.78291090343E+03  0.78291090345E+03  0.50400001928E-02 0.  1.
        1   -1    0    0  501    0  0.00000000000E+00  0.00000000000E+00 -0.80676521116E+03  0.80676521117E+03  0.50400001928E-02 0. -1.
    10030    2    1    2    0    0  0.00000000000E+00  0.00000000000E+00 -0.23854307726E+02  0.15896761146E+04  0.15894971285E+04 0.  0.
        5    1    3    3  502    0 -0.26533463902E+03 -0.54281836178E+03 -0.52826907444E+03  0.80258616333E+03  0.46999998093E+01 0. -1.
       -5    1    3    3    0  502  0.26533463902E+03  0.54281836178E+03  0.50441476671E+03  0.78708995130E+03  0.46999998093E+01 0.  1.
</event>
<event>
 5   0  0.7499834E-04  0.1615309E+04  0.7818609E-02  0.8811198E-01
        1   -1    0    0  501    0  0.00000000000E+00  0.00000000000E+00  0.53772685918E+03  0.53772685921E+03  0.50400001928E-02 0. -1.
       -1   -1    0    0    0  501  0.00000000000E+00  0.00000000000E+00 -0.12130798021E+04  0.12130798021E+04  0.50400001928E-02 0.  1.
    10030    2    1    2    0    0  0.00000000000E+00  0.00000000000E+00 -0.67535294291E+03  0.17508066613E+04  0.16153087531E+04 0.  0.
        3    1    3    3  502    0  0.75586572404E+03  0.22363313262E+01 -0.29259517012E+02  0.75643514163E+03  0.10100000352E+00 0. -1.
       -3    1    3    3    0  502 -0.75586572404E+03 -0.22363313262E+01 -0.64609342590E+03  0.99437151968E+03  0.10100000352E+00 0.  1.
</event>
<event>
 5   0  0.5095750E-04  0.2031758E+04  0.7818609E-02  0.8591915E-01
        3   -1    0    0  501    0  0.00000000000E+00  0.00000000000E+00  0.11323666755E+04  0.11323666800E+04  0.10100000352E+00 0. -1.
       -3   -1    0    0    0  501  0.00000000000E+00  0.00000000000E+00 -0.91137415788E+03  0.91137416348E+03  0.10100000352E+00 0.  1.
    10030    2    1    2    0    0  0.00000000000E+00  0.00000000000E+00  0.22099251758E+03  0.20437408434E+04  0.20317575993E+04 0.  0.
        3    1    3    3  502    0  0.30248548519E+03  0.91960635873E+03 -0.19927524568E+03  0.98837440149E+03  0.10100000352E+00 0.  1.
       -3    1    3    3    0  502 -0.30248548519E+03 -0.91960635873E+03  0.42026776326E+03  0.10553664420E+04  0.10100000352E+00 0. -1.
</event>
<event>
 5   0  0.1414751E-03  0.1620586E+04  0.7818609E-02  0.8808000E-01
       -2   -1    0    0    0  501  0.00000000000E+00  0.00000000000E+00  0.68321607677E+03  0.68321607678E+03  0.25500000920E-02 0.  1.
        2   -1    0    0  501    0  0.00000000000E+00  0.00000000000E+00 -0.96100553277E+03  0.96100553277E+03  0.25500000920E-02 0. -1.
    10030    2    1    2    0    0  0.00000000000E+00  0.00000000000E+00 -0.27778945599E+03  0.16442216096E+04  0.16205856100E+04 0.  0.
        2    1    3    3  502    0 -0.55852894820E+01  0.47185836322E+03 -0.80720733698E+03  0.93502149455E+03  0.25500000920E-02 0. -1.
       -2    1    3    3    0  502  0.55852894820E+01 -0.47185836322E+03  0.52941788099E+03  0.70920011500E+03  0.25500000920E-02 0.  1.
</event>
<event>
 5   0  0.1339162E-03  0.1546475E+04  0.7818609E-02  0.8854122E-01
       -2   -1    0    0    0  501  0.00000000000E+00  0.00000000000E+00  0.89832445584E+03  0.89832445585E+03  0.25500000920E-02 0.  1.
        2   -1    0    0  501    0  0.00000000000E+00  0.00000000000E+00 -0.66556857612E+03  0.66556857613E+03  0.25500000920E-02 0. -1.
    10030    2    1    2    0    0  0.00000000000E+00  0.00000000000E+00  0.23275587972E+03  0.15638930320E+04  0.15464753848E+04 0.  0.
        5    1    3    3  502    0 -0.69529985305E+03 -0.17030346188E+03  0.41195274817E+03  0.82593723218E+03  0.46999998093E+01 0. -1.
       -5    1    3    3    0  502  0.69529985305E+03  0.17030346188E+03 -0.17919686845E+03  0.73795579979E+03  0.46999998093E+01 0.  1.
</event>
<event>
 5   0  0.7601145E-04  0.1581540E+04  0.7818609E-02  0.8831969E-01
        1   -1    0    0  501    0  0.00000000000E+00  0.00000000000E+00  0.14072138320E+04  0.14072138320E+04  0.50400001928E-02 0.  1.
       -1   -1    0    0    0  501  0.00000000000E+00  0.00000000000E+00 -0.44436568641E+03  0.44436568644E+03  0.50400001928E-02 0. -1.
    10030    2    1    2    0    0  0.00000000000E+00  0.00000000000E+00  0.96284814559E+03  0.18515795185E+04  0.15815404395E+04 0.  0.
        4    1    3    3  502    0  0.13222650900E+03  0.63978855122E+03 -0.40185150959E+02  0.65454541417E+03  0.12699999809E+01 0. -1.
       -4    1    3    3    0  502 -0.13222650900E+03 -0.63978855122E+03  0.10030332965E+04  0.11970341043E+04  0.12699999809E+01 0.  1.
</event>
<event>
 5   0  0.1414796E-03  0.1562291E+04  0.7818609E-02  0.8844055E-01
        2   -1    0    0  501    0  0.00000000000E+00  0.00000000000E+00  0.34498736817E+03  0.34498736818E+03  0.25500000920E-02 0.  1.
       -2   -1    0    0    0  501  0.00000000000E+00  0.00000000000E+00 -0.17687256733E+04  0.17687256733E+04  0.25500000920E-02 0. -1.
    10030    2    1    2    0    0  0.00000000000E+00  0.00000000000E+00 -0.14237383052E+04  0.21137130415E+04  0.15622906453E+04 0.  0.
        4    1    3    3  502    0 -0.54927381204E+03 -0.55116899423E+03 -0.80459780617E+03  0.11193159623E+04  0.12699999809E+01 0.  1.
       -4    1    3    3    0  502  0.54927381204E+03  0.55116899423E+03 -0.61914049898E+03  0.99439707923E+03  0.12699999809E+01 0. -1.
</event>
<event>
 5   0  0.7302027E-04  0.1594269E+04  0.7818609E-02  0.8824077E-01
       -1   -1    0    0    0  501  0.00000000000E+00  0.00000000000E+00  0.10151437132E+04  0.10151437132E+04  0.50400001928E-02 0. -1.
        1   -1    0    0  501    0  0.00000000000E+00  0.00000000000E+00 -0.62594429457E+03  0.62594429459E+03  0.50400001928E-02 0.  1.
    10030    2    1    2    0    0  0.00000000000E+00  0.00000000000E+00  0.38919941860E+03  0.16410880078E+04  0.15942690055E+04 0.  0.
        5    1    3    3  502    0 -0.43071833770E+03 -0.47481640889E+03 -0.29305571810E+03  0.70489194384E+03  0.46999998093E+01 0.  1.
       -5    1    3    3    0  502  0.43071833770E+03  0.47481640889E+03  0.68225513669E+03  0.93619606393E+03  0.46999998093E+01 0. -1.
</event>
<event>
 5   0  0.1414751E-03  0.1599020E+04  0.7818609E-02  0.8821150E-01
       -2   -1    0    0    0  501  0.00000000000E+00  0.00000000000E+00  0.36054524601E+03  0.36054524602E+03  0.25500000920E-02 0.  1.
        2   -1    0    0  501    0  0.00000000000E+00  0.00000000000E+00 -0.17729149696E+04  0.17729149696E+04  0.25500000920E-02 0. -1.
    10030    2    1    2    0    0  0.00000000000E+00  0.00000000000E+00 -0.14123697236E+04  0.21334602156E+04  0.15990197796E+04 0.  0.
        2    1    3    3  502    0 -0.10741634094E+03 -0.46247711074E+03  0.15208158258E+03  0.49855005368E+03  0.25500000920E-02 0.  1.
       -2    1    3    3    0  502  0.10741634094E+03  0.46247711074E+03 -0.15644513062E+04  0.16349101620E+04  0.25500000920E-02 0. -1.
</event>
<event>
 5   0  0.1354766E-03  0.1631801E+04  0.7818609E-02  0.8801246E-01
        2   -1    0    0  501    0  0.00000000000E+00  0.00000000000E+00  0.76105787085E+03  0.76105787086E+03  0.25500000920E-02 0. -1.
       -2   -1    0    0    0  501  0.00000000000E+00  0.00000000000E+00 -0.87469464763E+03  0.87469464763E+03  0.25500000920E-02 0.  1.
    10030    2    1    2    0    0  0.00000000000E+00  0.00000000000E+00 -0.11363677677E+03  0.16357525185E+04  0.16318005346E+04 0.  0.
        3    1    3    3  502    0 -0.10497845107E+02 -0.52047230021E+03 -0.68658477563E+03  0.86162653415E+03  0.10100000352E+00 0.  1.
       -3    1    3    3    0  502  0.10497845107E+02  0.52047230021E+03  0.57294799885E+03  0.77412598434E+03  0.10100000352E+00 0. -1.
</event>
<event>
 5   0  0.7124495E-04  0.1376243E+04  0.7818609E-02  0.8971197E-01
       -1   -1    0    0    0  501  0.00000000000E+00  0.00000000000E+00  0.67973909800E+03  0.67973909802E+03  0.50400001928E-02 0.  1.
        1   -1    0    0  501    0  0.00000000000E+00  0.00000000000E+00 -0.69660715134E+03  0.69660715135E+03  0.50400001928E-02 0. -1.
    10030    2    1    2    0    0  0.00000000000E+00  0.00000000000E+00 -0.16868053334E+02  0.13763462494E+04  0.13762428808E+04 0.  0.
        2    1    3    3  502    0 -0.57956092957E+03 -0.23700056593E+03  0.27698358543E+03  0.68467513898E+03  0.25500000920E-02 0.  1.
       -2    1    3    3    0  502  0.57956092957E+03  0.23700056593E+03 -0.29385163876E+03  0.69167111039E+03  0.25500000920E-02 0. -1.
</event>
<event>
 5   0  0.7302027E-04  0.1637174E+04  0.7818609E-02  0.8798030E-01
       -1   -1    0    0    0  501  0.00000000000E+00  0.00000000000E+00  0.24770205002E+03  0.24770205008E+03  0.50400001928E-02 0.  1.
        1   -1    0    0  501    0  0.00000000000E+00  0.00000000000E+00 -0.27052048468E+04  0.27052048468E+04  0.50400001928E-02 0. -1.
    10030    2    1    2    0    0  0.00000000000E+00  0.00000000000E+00 -0.24575027967E+04  0.29529068969E+04  0.16371741341E+04 0.  0.
        5    1    3    3  502    0 -0.70791480124E+03 -0.40335696606E+03 -0.13710291293E+04  0.15948614897E+04  0.46999998093E+01 0. -1.
       -5    1    3    3    0  502  0.70791480124E+03  0.40335696606E+03 -0.10864736675E+04  0.13580454072E+04  0.46999998093E+01 0.  1.
</event>
<event>
 5   0  0.1354766E-03  0.1615580E+04  0.7818609E-02  0.8811034E-01
       -2   -1    0    0    0  501  0.00000000000E+00  0.00000000000E+00  0.53159900630E+03  0.53159900631E+03  0.25500000920E-02 0. -1.
        2   -1    0    0  501    0  0.00000000000E+00  0.00000000000E+00 -0.12274748630E+04  0.12274748630E+04  0.25500000920E-02 0.  1.
    10030    2    1    2    0    0  0.00000000000E+00  0.00000000000E+00 -0.69587585674E+03  0.17590738693E+04  0.16155796699E+04 0.  0.
        3    1    3    3  502    0  0.16011580205E+03  0.44726130285E+03 -0.10592998697E+04  0.11609461518E+04  0.10100000352E+00 0.  1.
       -3    1    3    3    0  502 -0.16011580205E+03 -0.44726130285E+03  0.36342401301E+03  0.59812771757E+03  0.10100000352E+00 0. -1.
</event>
<event>
 5   0  0.1354766E-03  0.1606744E+04  0.7818609E-02  0.8816416E-01
        2   -1    0    0  501    0  0.00000000000E+00  0.00000000000E+00  0.89491513804E+03  0.89491513804E+03  0.25500000920E-02 0. -1.
       -2   -1    0    0    0  501  0.00000000000E+00  0.00000000000E+00 -0.72119295594E+03  0.72119295594E+03  0.25500000920E-02 0.  1.
    10030    2    1    2    0    0  0.00000000000E+00  0.00000000000E+00  0.17372218210E+03  0.16161080940E+04  0.16067439046E+04 0.  0.
        3    1    3    3  502    0  0.63168006185E+02  0.32909214902E+03  0.82126342844E+03  0.88699800939E+03  0.10100000352E+00 0. -1.
       -3    1    3    3    0  502 -0.63168006185E+02 -0.32909214902E+03 -0.64754124634E+03  0.72911008460E+03  0.10100000352E+00 0.  1.
</event>
<event>
 5   0  0.1414751E-03  0.1576267E+04  0.7818609E-02  0.8835263E-01
       -2   -1    0    0    0  501  0.00000000000E+00  0.00000000000E+00  0.88200667753E+03  0.88200667753E+03  0.25500000920E-02 0. -1.
        2   -1    0    0  501    0  0.00000000000E+00  0.00000000000E+00 -0.70425093327E+03  0.70425093328E+03  0.25500000920E-02 0.  1.
    10030    2    1    2    0    0  0.00000000000E+00  0.00000000000E+00  0.17775574425E+03  0.15862576108E+04  0.15762665077E+04 0.  0.
        2    1    3    3  502    0 -0.18021156109E+02 -0.70728870019E+03 -0.26055779239E+03  0.75397110732E+03  0.25500000920E-02 0. -1.
       -2    1    3    3    0  502  0.18021156109E+02  0.70728870019E+03  0.43831353664E+03  0.83228650349E+03  0.25500000920E-02 0.  1.
</event>
<event>
 5   0  0.7633213E-04  0.1469787E+04  0.7818609E-02  0.8904796E-01
       -1   -1    0    0    0  501  0.00000000000E+00  0.00000000000E+00  0.42381988866E+03  0.42381988869E+03  0.50400001928E-02 0.  1.
        1   -1    0    0  501    0  0.00000000000E+00  0.00000000000E+00 -0.12742882505E+04  0.12742882505E+04  0.50400001928E-02 0. -1.
    10030    2    1    2    0    0  0.00000000000E+00  0.00000000000E+00 -0.85046836183E+03  0.16981081392E+04  0.14697873377E+04 0.  0.
        1    1    3    3  502    0  0.12425042967E+03  0.47992659074E+03  0.20153367144E+03  0.53514813138E+03  0.50400001928E-02 0.  1.
       -1    1    3    3    0  502 -0.12425042967E+03 -0.47992659074E+03 -0.10520020333E+04  0.11629600078E+04  0.50400001928E-02 0. -1.
</event>
<event>
 5   0  0.1414796E-03  0.1603935E+04  0.7818609E-02  0.8818134E-01
       -2   -1    0    0    0  501  0.00000000000E+00  0.00000000000E+00  0.13374327282E+04  0.13374327282E+04  0.25500000920E-02 0. -1.
        2   -1    0    0  501    0  0.00000000000E+00  0.00000000000E+00 -0.48088542053E+03  0.48088542053E+03  0.25500000920E-02 0.  1.
    10030    2    1    2    0    0  0.00000000000E+00  0.00000000000E+00  0.85654730770E+03  0.18183181488E+04  0.16039350360E+04 0.  0.
        4    1    3    3  502    0 -0.11569213855E+03 -0.49508438727E+03  0.11313782817E+04  0.12403675466E+04  0.12699999809E+01 0. -1.
       -4    1    3    3    0  502  0.11569213855E+03  0.49508438727E+03 -0.27483097396E+03  0.57795060221E+03  0.12699999809E+01 0.  1.
</event>
<event>
 5   0  0.1354766E-03  0.1563058E+04  0.7818609E-02  0.8843570E-01
       -2   -1    0    0    0  501  0.00000000000E+00  0.00000000000E+00  0.42027126446E+03  0.42027126446E+03  0.25500000920E-02 0. -1.
        2   -1    0    0  501    0  0.00000000000E+00  0.00000000000E+00 -0.14533179961E+04  0.14533179961E+04  0.25500000920E-02 0.  1.
    10030    2    1    2    0    0  0.00000000000E+00  0.00000000000E+00 -0.10330467316E+04  0.18735892605E+04  0.15630582739E+04 0.  0.
        3    1    3    3  502    0  0.47868167108E+03  0.23116369841E+03  0.17019461770E+03  0.55815680215E+03  0.10100000352E+00 0. -1.
       -3    1    3    3    0  502 -0.47868167108E+03 -0.23116369841E+03 -0.12032413493E+04  0.13154324584E+04  0.10100000352E+00 0.  1.
</event>
<event>
 5   0  0.7124495E-04  0.1587847E+04  0.7818609E-02  0.8828049E-01
       -1   -1    0    0    0  501  0.00000000000E+00  0.00000000000E+00  0.41962661057E+03  0.41962661060E+03  0.50400001928E-02 0.  1.
        1   -1    0    0  501    0  0.00000000000E+00  0.00000000000E+00 -0.15020837339E+04  0.15020837339E+04  0.50400001928E-02 0. -1.
    10030    2    1    2    0    0  0.00000000000E+00  0.00000000000E+00 -0.10824571233E+04  0.19217103445E+04  0.15878467257E+04 0.  0.
        2    1    3    3  502    0  0.32113797264E+03 -0.10708276324E+03 -0.14103600629E+04  0.14504178096E+04  0.25500000920E-02 0. -1.
       -2    1    3    3    0  502 -0.32113797264E+03  0.10708276324E+03  0.32790293952E+03  0.47129253486E+03  0.25500000920E-02 0.  1.
</event>
<event>
 5   0  0.7633213E-04  0.1639477E+04  0.7818609E-02  0.8796656E-01
       -1   -1    0    0    0  501  0.00000000000E+00  0.00000000000E+00  0.51180387462E+03  0.51180387464E+03  0.50400001928E-02 0.  1.
        1   -1    0    0  501    0  0.00000000000E+00  0.00000000000E+00 -0.13129465392E+04  0.13129465392E+04  0.50400001928E-02 0. -1.
    10030    2    1    2    0    0  0.00000000000E+00  0.00000000000E+00 -0.80114266457E+03  0.18247504138E+04  0.16394768994E+04 0.  0.
        1    1    3    3  502    0 -0.42543360497E+03  0.12277586078E+03 -0.11683881157E+04  0.12494792728E+04  0.50400001928E-02 0. -1.
       -1    1    3    3    0  502  0.42543360497E+03 -0.12277586078E+03  0.36724545117E+03  0.57527114100E+03  0.50400001928E-02 0.  1.
</event>
<event>
 5   0  0.1375777E-03  0.1607042E+04  0.7818609E-02  0.8816233E-01
        2   -1    0    0  501    0  0.00000000000E+00  0.00000000000E+00  0.99889130503E+03  0.99889130503E+03  0.25500000920E-02 0.  1.
       -2   -1    0    0    0  501  0.00000000000E+00  0.00000000000E+00 -0.64636292806E+03  0.64636292807E+03  0.25500000920E-02 0. -1.
    10030    2    1    2    0    0  0.00000000000E+00  0.00000000000E+00  0.35252837697E+03  0.16452542331E+04  0.16070423874E+04 0.  0.
        1    1    3    3  502    0 -0.47131567159E+03 -0.60439320370E+03 -0.70754313411E+02  0.76969849932E+03  0.50400001928E-02 0.  1.
       -1    1    3    3    0  502  0.47131567159E+03  0.60439320370E+03  0.42328269038E+03  0.87555573378E+03  0.50400001928E-02 0. -1.
</event>
<event>
 5   0  0.7302027E-04  0.1642336E+04  0.7818609E-02  0.8794954E-01
        1   -1    0    0  501    0  0.00000000000E+00  0.00000000000E+00  0.20366939623E+04  0.20366939623E+04  0.50400001928E-02 0.  1.
       -1   -1    0    0    0  501  0.00000000000E+00  0.00000000000E+00 -0.33108387913E+03  0.33108387917E+03  0.50400001928E-02 0. -1.
    10030    2    1    2    0    0  0.00000000000E+00  0.00000000000E+00  0.17056100831E+04  0.23677778414E+04  0.16423355780E+04 0.  0.
        5    1    3    3  502    0 -0.69947126871E+03 -0.39775324507E+03  0.61666857229E+03  0.10137898785E+04  0.46999998093E+01 0.  1.
       -5    1    3    3    0  502  0.69947126871E+03  0.39775324507E+03  0.10889415108E+04  0.13539879629E+04  0.46999998093E+01 0. -1.
</event>
<event>
 5   0  0.7633213E-04  0.1665764E+04  0.7818609E-02  0.8781135E-01
       -1   -1    0    0    0  501  0.00000000000E+00  0.00000000000E+00  0.28756771330E+03  0.28756771335E+03  0.50400001928E-02 0.  1.
        1   -1    0    0  501    0  0.00000000000E+00  0.00000000000E+00 -0.24122757173E+04  0.24122757173E+04  0.50400001928E-02 0. -1.
    10030    2    1    2    0    0  0.00000000000E+00  0.00000000000E+00 -0.21247080040E+04  0.26998434307E+04  0.16657642234E+04 0.  0.
        1    1    3    3  502    0 -0.61096764081E+03 -0.11185124814E+03 -0.19617070531E+04  0.20576896564E+04  0.50400001928E-02 0. -1.
       -1    1    3    3    0  502  0.61096764081E+03  0.11185124814E+03 -0.16300095096E+03  0.64215377432E+03  0.50400001928E-02 0.  1.
</event>
<event>
 5   0  0.1354766E-03  0.1571853E+04  0.7818609E-02  0.8838029E-01
       -2   -1    0    0    0  501  0.00000000000E+00  0.00000000000E+00  0.25237976227E+03  0.25237976228E+03  0.25500000920E-02 0. -1.
        2   -1    0    0  501    0  0.00000000000E+00  0.00000000000E+00 -0.24474250453E+04  0.24474250453E+04  0.25500000920E-02 0.  1.
    10030    2    1    2    0    0  0.00000000000E+00  0.00000000000E+00 -0.21950452830E+04  0.26998048076E+04  0.15718531116E+04 0.  0.
        3    1    3    3  502    0 -0.51871227707E+01 -0.72613793298E+03 -0.58116551255E+03  0.93008417207E+03  0.10100000352E+00 0. -1.
       -3    1    3    3    0  502  0.51871227707E+01  0.72613793298E+03 -0.16138797705E+04  0.17697206355E+04  0.10100000352E+00 0.  1.
</event>
<event>
 5   0  0.7633213E-04  0.1604506E+04  0.7818609E-02  0.8817784E-01
        1   -1    0    0  501    0  0.00000000000E+00  0.00000000000E+00  0.11176210228E+04  0.11176210228E+04  0.50400001928E-02 0.  1.
       -1   -1    0    0    0  501  0.00000000000E+00  0.00000000000E+00 -0.57587515872E+03  0.57587515874E+03  0.50400001928E-02 0. -1.
    10030    2    1    2    0    0  0.00000000000E+00  0.00000000000E+00  0.54174586406E+03  0.16934961815E+04  0.16045063838E+04 0.  0.
        1    1    3    3  502    0 -0.38476246358E+03  0.31294788308E+03 -0.39468098947E+03  0.63383879211E+03  0.50400001928E-02 0. -1.
       -1    1    3    3    0  502  0.38476246358E+03 -0.31294788308E+03  0.93642685353E+03  0.10596573894E+04  0.50400001928E-02 0.  1.
</event>
<event>
 5   0  0.7633213E-04  0.1608432E+04  0.7818609E-02  0.8815384E-01
       -1   -1    0    0    0  501  0.00000000000E+00  0.00000000000E+00  0.45696024889E+03  0.45696024892E+03  0.50400001928E-02 0. -1.
        1   -1    0    0  501    0  0.00000000000E+00  0.00000000000E+00 -0.14153606585E+04  0.14153606585E+04  0.50400001928E-02 0.  1.
    10030    2    1    2    0    0  0.00000000000E+00  0.00000000000E+00 -0.95840040957E+03  0.18723209074E+04  0.16084322290E+04 0.  0.
        1    1    3    3  502    0  0.27753514182E+03 -0.76048997264E+02 -0.13533774490E+04  0.13836327997E+04  0.50400001928E-02 0.  1.
       -1    1    3    3    0  502 -0.27753514182E+03  0.76048997264E+02  0.39497703940E+03  0.48868810770E+03  0.50400001928E-02 0. -1.
</event>
<event>
 5   0  0.7124495E-04  0.1643695E+04  0.7818609E-02  0.8794145E-01
        1   -1    0    0  501    0  0.00000000000E+00  0.00000000000E+00  0.28840433944E+04  0.28840433944E+04  0.50400001928E-02 0.  1.
       -1   -1    0    0    0  501  0.00000000000E+00  0.00000000000E+00 -0.23419678749E+03  0.23419678754E+03  0.50400001928E-02 0. -1.
    10030    2    1    2    0    0  0.00000000000E+00  0.00000000000E+00  0.26498466069E+04  0.31182401820E+04  0.16436954682E+04 0.  0.
        2    1    3    3  502    0  0.73727147621E+03  0.13581472398E+02  0.63651177505E+03  0.97411545815E+03  0.25500000920E-02 0. -1.
       -2    1    3    3    0  502 -0.73727147621E+03 -0.13581472398E+02  0.20133348319E+04  0.21441247238E+04  0.25500000920E-02 0.  1.
</event>
<event>
 5   0  0.1375777E-03  0.1576170E+04  0.7818609E-02  0.8835323E-01
       -2   -1    0    0    0  501  0.00000000000E+00  0.00000000000E+00  0.52438704366E+03  0.52438704366E+03  0.25500000920E-02 0. -1.
        2   -1    0    0  501    0  0.00000000000E+00  0.00000000000E+00 -0.11843887663E+04  0.11843887663E+04  0.25500000920E-02 0.  1.
    10030    2    1    2    0    0  0.00000000000E+00  0.00000000000E+00 -0.66000172267E+03  0.17087758100E+04  0.15761701986E+04 0.  0.
        1    1    3    3  502    0  0.10868828808E+03 -0.24081798539E+03  0.47494156008E+03  0.54348498744E+03  0.50400001928E-02 0. -1.
       -1    1    3    3    0  502 -0.10868828808E+03  0.24081798539E+03 -0.11349432827E+04  0.11652908226E+04  0.50400001928E-02 0.  1.
</event>
<event>
 5   0  0.5095750E-04  0.1620001E+04  0.7818609E-02  0.8808354E-01
       -3   -1    0    0    0  501  0.00000000000E+00  0.00000000000E+00  0.55342234906E+03  0.55342235828E+03  0.10100000352E+00 0.  1.
        3   -1    0    0  501    0  0.00000000000E+00  0.00000000000E+00 -0.11855334776E+04  0.11855334819E+04  0.10100000352E+00 0. -1.
    10030    2    1    2    0    0  0.00000000000E+00  0.00000000000E+00 -0.63211112851E+03  0.17389558401E+04  0.16200009059E+04 0.  0.
        3    1    3    3  502    0  0.30885618338E+03  0.70807834030E+03 -0.54584392785E+02  0.77443304691E+03  0.10100000352E+00 0.  1.
       -3    1    3    3    0  502 -0.30885618338E+03 -0.70807834030E+03 -0.57752673572E+03  0.96452279324E+03  0.10100000352E+00 0. -1.
</event>
<event>
 5   0  0.1354766E-03  0.1593474E+04  0.7818609E-02  0.8824567E-01
       -2   -1    0    0    0  501  0.00000000000E+00  0.00000000000E+00  0.35059408796E+03  0.35059408797E+03  0.25500000920E-02 0.  1.
        2   -1    0    0  501    0  0.00000000000E+00  0.00000000000E+00 -0.18106129948E+04  0.18106129948E+04  0.25500000920E-02 0. -1.
    10030    2    1    2    0    0  0.00000000000E+00  0.00000000000E+00 -0.14600189068E+04  0.21612070828E+04  0.15934744574E+04 0.  0.
        3    1    3    3  502    0  0.73501217490E+02 -0.31565014672E+03 -0.17171702249E+04  0.17474870631E+04  0.10100000352E+00 0. -1.
       -3    1    3    3    0  502 -0.73501217490E+02  0.31565014672E+03  0.25715131808E+03  0.41372001968E+03  0.10100000352E+00 0.  1.
</event>
<event>
 5   0  0.1414751E-03  0.1896134E+04  0.7818609E-02  0.8656783E-01
       -2   -1    0    0    0  501  0.00000000000E+00  0.00000000000E+00  0.10421873997E+04  0.10421873997E+04  0.25500000920E-02 0.  1.
        2   -1    0    0  501    0  0.00000000000E+00  0.00000000000E+00 -0.86244662127E+03  0.86244662127E+03  0.25500000920E-02 0. -1.
    10030    2    1    2    0    0  0.00000000000E+00  0.00000000000E+00  0.17974077847E+03  0.19046340210E+04  0.18961339632E+04 0.  0.
        2    1    3    3  502    0 -0.85475619452E+03 -0.21954525564E+03  0.43786640458E+03  0.98515747960E+03  0.25500000920E-02 0.  1.
       -2    1    3    3    0  502  0.85475619452E+03  0.21954525564E+03 -0.25812562611E+03  0.91947654141E+03  0.25500000920E-02 0. -1.
</event>
<event>
 5   0  0.1375777E-03  0.1582593E+04  0.7818609E-02  0.8831314E-01
        2   -1    0    0  501    0  0.00000000000E+00  0.00000000000E+00  0.17915633833E+04  0.17915633833E+04  0.25500000920E-02 0.  1.
       -2   -1    0    0    0  501  0.00000000000E+00  0.00000000000E+00 -0.34949942565E+03  0.34949942566E+03  0.25500000920E-02 0. -1.
    10030    2    1    2    0    0  0.00000000000E+00  0.00000000000E+00  0.14420639577E+04  0.21410628090E+04  0.15825932813E+04 0.  0.
        1    1    3    3  502    0  0.73211290065E+03  0.15959448532E+03  0.10651290131E+04  0.13022901034E+04  0.50400001928E-02 0.  1.
       -1    1    3    3    0  502 -0.73211290065E+03 -0.15959448532E+03  0.37693494460E+03  0.83877270553E+03  0.50400001928E-02 0. -1.
</event>
<event>
 5   0  0.1354766E-03  0.1487624E+04  0.7818609E-02  0.8892725E-01
        2   -1    0    0  501    0  0.00000000000E+00  0.00000000000E+00  0.91632837809E+03  0.91632837809E+03  0.25500000920E-02 0.  1.
       -2   -1    0    0    0  501  0.00000000000E+00  0.00000000000E+00 -0.60377494571E+03  0.60377494572E+03  0.25500000920E-02 0. -1.
    10030    2    1    2    0    0  0.00000000000E+00  0.00000000000E+00  0.31255343238E+03  0.15201033238E+04  0.14876237653E+04 0.  0.
        3    1    3    3  502    0  0.12587614615E+03 -0.44298553871E+03  0.75313149314E+03  0.88277293107E+03  0.10100000352E+00 0.  1.
       -3    1    3    3    0  502 -0.12587614615E+03  0.44298553871E+03 -0.44057806076E+03  0.63733039274E+03  0.10100000352E+00 0. -1.
</event>
<event>
 5   0  0.7633213E-04  0.1591806E+04  0.7818609E-02  0.8825597E-01
       -1   -1    0    0    0  501  0.00000000000E+00  0.00000000000E+00  0.45446297973E+03  0.45446297976E+03  0.50400001928E-02 0. -1.
        1   -1    0    0  501    0  0.00000000000E+00  0.00000000000E+00 -0.13938691923E+04  0.13938691923E+04  0.50400001928E-02 0.  1.
    10030    2    1    2    0    0  0.00000000000E+00  0.00000000000E+00 -0.93940621256E+03  0.18483321721E+04  0.15918064537E+04 0.  0.
        1    1    3    3  502    0 -0.72743413642E+03  0.28507936396E+03 -0.29348570244E+03  0.83460441177E+03  0.50400001928E-02 0. -1.
       -1    1    3    3    0  502  0.72743413642E+03 -0.28507936396E+03 -0.64592051013E+03  0.10137277603E+04  0.50400001928E-02 0.  1.
</event>
<event>
 5   0  0.5095750E-04  0.1645758E+04  0.7818609E-02  0.8792920E-01
        3   -1    0    0  501    0  0.00000000000E+00  0.00000000000E+00  0.55916860951E+03  0.55916861863E+03  0.10100000352E+00 0. -1.
       -3   -1    0    0    0  501  0.00000000000E+00  0.00000000000E+00 -0.12109583452E+04  0.12109583494E+04  0.10100000352E+00 0.  1.
    10030    2    1    2    0    0  0.00000000000E+00  0.00000000000E+00 -0.65178973565E+03  0.17701269680E+04  0.16457580695E+04 0.  0.
        1    1    3    3  502    0 -0.33289476690E+03 -0.23723060796E+03  0.44223986192E+03  0.60222369821E+03  0.50400001928E-02 0. -1.
       -1    1    3    3    0  502  0.33289476690E+03  0.23723060796E+03 -0.10940295976E+04  0.11679032698E+04  0.50400001928E-02 0.  1.
</event>
<event>
 5   0  0.1414796E-03  0.1556483E+04  0.7818609E-02  0.8847737E-01
       -2   -1    0    0    0  501  0.00000000000E+00  0.00000000000E+00  0.15457103533E+04  0.15457103534E+04  0.25500000920E-02 0. -1.
        2   -1    0    0  501    0  0.00000000000E+00  0.00000000000E+00 -0.39183282339E+03  0.39183282340E+03  0.25500000920E-02 0.  1.
    10030    2    1    2    0    0  0.00000000000E+00  0.00000000000E+00  0.11538775300E+04  0.19375431767E+04  0.15564832821E+04 0.  0.
        4    1    3    3  502    0  0.39679335291E+03 -0.23825402410E+02  0.14098029707E+04  0.14647725571E+04  0.12699999809E+01 0. -1.
       -4    1    3    3    0  502 -0.39679335291E+03  0.23825402410E+02 -0.25592544077E+03  0.47277061969E+03  0.12699999809E+01 0.  1.
</event>
<event>
 5   0  0.1414751E-03  0.1615544E+04  0.7818609E-02  0.8811055E-01
        2   -1    0    0  501    0  0.00000000000E+00  0.00000000000E+00  0.89029148567E+03  0.89029148568E+03  0.25500000920E-02 0. -1.
       -2   -1    0    0    0  501  0.00000000000E+00  0.00000000000E+00 -0.73290100384E+03  0.73290100385E+03  0.25500000920E-02 0.  1.
    10030    2    1    2    0    0  0.00000000000E+00  0.00000000000E+00  0.15739048183E+03  0.16231924895E+04  0.16155439004E+04 0.  0.
        2    1    3    3  502    0 -0.12618342014E+03  0.39697087917E+02  0.87933515546E+03  0.88922912117E+03  0.25500000920E-02 0. -1.
       -2    1    3    3    0  502  0.12618342014E+03 -0.39697087917E+02 -0.72194467362E+03  0.73396336836E+03  0.25500000920E-02 0.  1.
</event>
<event>
 5   0  0.7124495E-04  0.1594926E+04  0.7818609E-02  0.8823671E-01
        1   -1    0    0  501    0  0.00000000000E+00  0.00000000000E+00  0.34332171068E+03  0.34332171071E+03  0.50400001928E-02 0.  1.
       -1   -1    0    0    0  501  0.00000000000E+00  0.00000000000E+00 -0.18523355812E+04  0.18523355812E+04  0.50400001928E-02 0. -1.
    10030    2    1    2    0    0  0.00000000000E+00  0.00000000000E+00 -0.15090138705E+04  0.21956572919E+04  0.15949257294E+04 0.  0.
        2    1    3    3  502    0  0.16869893090E+03 -0.92554101211E+02 -0.18198979177E+04  0.18300420820E+04  0.25500000920E-02 0. -1.
       -2    1    3    3    0  502 -0.16869893090E+03  0.92554101211E+02  0.31088404718E+03  0.36561520994E+03  0.25500000920E-02 0.  1.
</event>
<event>
 5   0  0.5095750E-04  0.1619092E+04  0.7818609E-02  0.8808904E-01
        4   -1    0    0  501    0  0.00000000000E+00  0.00000000000E+00  0.63925314880E+03  0.63925441035E+03  0.12699999809E+01 0.  1.
       -4   -1    0    0    0  501  0.00000000000E+00  0.00000000000E+00 -0.10252009741E+04  0.10252017607E+04  0.12699999809E+01 0. -1.
    10030    2    1    2    0    0  0.00000000000E+00  0.00000000000E+00 -0.38594782531E+03  0.16644561711E+04  0.16190919127E+04 0.  0.
        5    1    3    3  502    0  0.58817847391E+03  0.53287884044E+03 -0.35690590036E+03  0.87024001716E+03  0.46999998093E+01 0. -1.
       -5    1    3    3    0  502 -0.58817847391E+03 -0.53287884044E+03 -0.29041924946E+02  0.79421615393E+03  0.46999998093E+01 0.  1.
</event>
<event>
 5   0  0.1375777E-03  0.1566752E+04  0.7818609E-02  0.8841238E-01
       -2   -1    0    0    0  501  0.00000000000E+00  0.00000000000E+00  0.22526234857E+03  0.22526234858E+03  0.25500000920E-02 0. -1.
        2   -1    0    0  501    0  0.00000000000E+00  0.00000000000E+00 -0.27242805156E+04  0.27242805156E+04  0.25500000920E-02 0.  1.
    10030    2    1    2    0    0  0.00000000000E+00  0.00000000000E+00 -0.24990181670E+04  0.29495428642E+04  0.15667518337E+04 0.  0.
        1    1    3    3  502    0 -0.61363406249E+02 -0.75345153691E+03 -0.16363476534E+04  0.18025227679E+04  0.50400001928E-02 0.  1.
       -1    1    3    3    0  502  0.61363406249E+02  0.75345153691E+03 -0.86267051365E+03  0.11470200963E+04  0.50400001928E-02 0. -1.
</event>
<event>
 5   0  0.7633213E-04  0.1581167E+04  0.7818609E-02  0.8832202E-01
        1   -1    0    0  501    0  0.00000000000E+00  0.00000000000E+00  0.62444190335E+03  0.62444190337E+03  0.50400001928E-02 0. -1.
       -1   -1    0    0    0  501  0.00000000000E+00  0.00000000000E+00 -0.10009292651E+04  0.10009292651E+04  0.50400001928E-02 0.  1.
    10030    2    1    2    0    0  0.00000000000E+00  0.00000000000E+00 -0.37648736176E+03  0.16253711685E+04  0.15811668798E+04 0.  0.
        1    1    3    3  502    0 -0.28219913608E+03  0.22897930824E+03  0.53349199357E+03  0.64550877859E+03  0.50400001928E-02 0. -1.
       -1    1    3    3    0  502  0.28219913608E+03 -0.22897930824E+03 -0.90997935533E+03  0.97986238991E+03  0.50400001928E-02 0.  1.
</event>
<event>
 5   0  0.7302027E-04  0.1618431E+04  0.7818609E-02  0.8809305E-01
        1   -1    0    0  501    0  0.00000000000E+00  0.00000000000E+00  0.81865230199E+03  0.81865230200E+03  0.50400001928E-02 0. -1.
       -1   -1    0    0    0  501  0.00000000000E+00  0.00000000000E+00 -0.79988730610E+03  0.79988730612E+03  0.50400001928E-02 0.  1.
    10030    2    1    2    0    0  0.00000000000E+00  0.00000000000E+00  0.18764995886E+02  0.16185396081E+04  0.16184308258E+04 0.  0.
        5    1    3    3  502    0 -0.45866041380E+03 -0.55399542564E+03 -0.36148901079E+03  0.80497000052E+03  0.46999998093E+01 0.  1.
       -5    1    3    3    0  502  0.45866041380E+03  0.55399542564E+03  0.38025400668E+03  0.81356960760E+03  0.46999998093E+01 0. -1.
</event>
<event>
 5   0  0.7633213E-04  0.1819447E+04  0.7818609E-02  0.8696026E-01
       -1   -1    0    0    0  501  0.00000000000E+00  0.00000000000E+00  0.65790957112E+03  0.65790957113E+03  0.50400001928E-02 0.  1.
        1   -1    0    0  501    0  0.00000000000E+00  0.00000000000E+00 -0.12579182873E+04  0.12579182873E+04  0.50400001928E-02 0. -1.
    10030    2    1    2    0    0  0.00000000000E+00  0.00000000000E+00 -0.60000871618E+03  0.19158278584E+04  0.18194465982E+04 0.  0.
        1    1    3    3  502    0 -0.85805984552E+03 -0.23139769607E+03 -0.95323964142E+02  0.89381108206E+03  0.50400001928E-02 0. -1.
       -1    1    3    3    0  502  0.85805984552E+03  0.23139769607E+03 -0.50468475204E+03  0.10220167764E+04  0.50400001928E-02 0.  1.
</event>
<event>
 5   0  0.7499834E-04  0.1563256E+04  0.7818609E-02  0.8843445E-01
        1   -1    0    0  501    0  0.00000000000E+00  0.00000000000E+00  0.59842352662E+03  0.59842352664E+03  0.50400001928E-02 0.  1.
       -1   -1    0    0    0  501  0.00000000000E+00  0.00000000000E+00 -0.10209200779E+04  0.10209200779E+04  0.50400001928E-02 0. -1.
    10030    2    1    2    0    0  0.00000000000E+00  0.00000000000E+00 -0.42249655125E+03  0.16193436045E+04  0.15632563365E+04 0.  0.
        3    1    3    3  502    0  0.31376998915E+03  0.83824050080E+02  0.52522017146E+03  0.61752272523E+03  0.10100000352E+00 0.  1.
       -3    1    3    3    0  502 -0.31376998915E+03 -0.83824050080E+02 -0.94771672271E+03  0.10018208793E+04  0.10100000352E+00 0. -1.
</event>
<event>
 5   0  0.1354766E-03  0.8914159E+03  0.7818609E-02  0.9436376E-01
       -2   -1    0    0    0  501  0.00000000000E+00  0.00000000000E+00  0.17516354627E+03  0.17516354629E+03  0.25500000920E-02 0. -1.
        2   -1    0    0  501    0  0.00000000000E+00  0.00000000000E+00 -0.11341148300E+04  0.11341148300E+04  0.25500000920E-02 0.  1.
    10030    2    1    2    0    0  0.00000000000E+00  0.00000000000E+00 -0.95895128372E+03  0.13092783763E+04  0.89141589736E+03 0.  0.
        3    1    3    3  502    0  0.16982948361E+03  0.37437766934E+03 -0.73240523823E+03  0.83989174064E+03  0.10100000352E+00 0.  1.
       -3    1    3    3    0  502 -0.16982948361E+03 -0.37437766934E+03 -0.22654604548E+03  0.46938663565E+03  0.10100000352E+00 0. -1.
</event>
<event>
 5   0  0.1375777E-03  0.1576675E+04  0.7818609E-02  0.8835007E-01
        2   -1    0    0  501    0  0.00000000000E+00  0.00000000000E+00  0.17313365311E+04  0.17313365311E+04  0.25500000920E-02 0.  1.
       -2   -1    0    0    0  501  0.00000000000E+00  0.00000000000E+00 -0.35895758268E+03  0.35895758269E+03  0.25500000920E-02 0. -1.
    10030    2    1    2    0    0  0.00000000000E+00  0.00000000000E+00  0.13723789484E+04  0.20902941138E+04  0.15766754593E+04 0.  0.
        1    1    3    3  502    0 -0.35186228166E+03 -0.29232442532E+02 -0.24827402279E+03  0.43162668056E+03  0.50400001928E-02 0. -1.
       -1    1    3    3    0  502  0.35186228166E+03  0.29232442532E+02  0.16206529712E+04  0.16586674332E+04  0.50400001928E-02 0.  1.
</event>
<event>
 5   0  0.5095750E-04  0.1652090E+04  0.7818609E-02  0.8789171E-01
        3   -1    0    0  501    0  0.00000000000E+00  0.00000000000E+00  0.51911952454E+03  0.51911953437E+03  0.10100000352E+00 0.  1.
       -3   -1    0    0    0  501  0.00000000000E+00  0.00000000000E+00 -0.13144381954E+04  0.13144381993E+04  0.10100000352E+00 0. -1.
    10030    2    1    2    0    0  0.00000000000E+00  0.00000000000E+00 -0.79531867087E+03  0.18335577337E+04  0.16520902440E+04 0.  0.
        3    1    3    3  502    0  0.15927672386E+03 -0.69612411080E+03 -0.85846757347E+03  0.11166577082E+04  0.10100000352E+00 0. -1.
       -3    1    3    3    0  502 -0.15927672386E+03  0.69612411080E+03  0.63148902603E+02  0.71690002546E+03  0.10100000352E+00 0.  1.
</event>
<event>
 5   0  0.1414796E-03  0.1583911E+04  0.7818609E-02  0.8830493E-01
       -2   -1    0    0    0  501  0.00000000000E+00  0.00000000000E+00  0.52497125164E+03  0.52497125165E+03  0.25500000920E-02 0. -1.
        2   -1    0    0  501    0  0.00000000000E+00  0.00000000000E+00 -0.11947201374E+04  0.11947201374E+04  0.25500000920E-02 0.  1.
    10030    2    1    2    0    0  0.00000000000E+00  0.00000000000E+00 -0.66974888578E+03  0.17196913891E+04  0.15839112676E+04 0.  0.
        4    1    3    3  502    0 -0.22695882982E+03 -0.95545194994E+02  0.48234729232E+03  0.54157152624E+03  0.12699999809E+01 0. -1.
       -4    1    3    3    0  502  0.22695882982E+03  0.95545194994E+02 -0.11520961781E+04  0.11781198628E+04  0.12699999809E+01 0.  1.
</event>
<event>
 5   0  0.7124495E-04  0.1607952E+04  0.7818609E-02  0.8815678E-01
        1   -1    0    0  501    0  0.00000000000E+00  0.00000000000E+00  0.68219139404E+03  0.68219139406E+03  0.50400001928E-02 0. -1.
       -1   -1    0    0    0  501  0.00000000000E+00  0.00000000000E+00 -0.94750102248E+03  0.94750102249E+03  0.50400001928E-02 0.  1.
    10030    2    1    2    0    0  0.00000000000E+00  0.00000000000E+00 -0.26530962844E+03  0.16296924165E+04  0.16079515458E+04 0.  0.
        2    1    3    3  502    0  0.70489731651E+02  0.43230181824E+03  0.55064420991E+03  0.70360692879E+03  0.25500000920E-02 0. -1.
       -2    1    3    3    0  502 -0.70489731651E+02 -0.43230181824E+03 -0.81595383834E+03  0.92608548776E+03  0.25500000920E-02 0.  1.
</event>
<event>
 5   0  0.1339162E-03  0.1588453E+04  0.7818609E-02  0.8827674E-01
        2   -1    0    0  501    0  0.00000000000E+00  0.00000000000E+00  0.10242852991E+04  0.10242852991E+04  0.25500000920E-02 0.  1.
       -2   -1    0    0    0  501  0.00000000000E+00  0.00000000000E+00 -0.61583962332E+03  0.61583962333E+03  0.25500000920E-02 0. -1.
    10030    2    1    2    0    0  0.00000000000E+00  0.00000000000E+00  0.40844567573E+03  0.16401249224E+04  0.15884526719E+04 0.  0.
        5    1    3    3  502    0 -0.46097994099E+03 -0.62126175644E+03  0.38980470929E+03  0.86627852184E+03  0.46999998093E+01 0.  1.
       -5    1    3    3    0  502  0.46097994099E+03  0.62126175644E+03  0.18640966439E+02  0.77384640055E+03  0.46999998093E+01 0. -1.
</event>
<event>
 5   0  0.1339162E-03  0.1613310E+04  0.7818609E-02  0.8812412E-01
       -2   -1    0    0    0  501  0.00000000000E+00  0.00000000000E+00  0.41341947080E+03  0.41341947081E+03  0.25500000920E-02 0. -1.
        2   -1    0    0  501    0  0.00000000000E+00  0.00000000000E+00 -0.15739280990E+04  0.15739280990E+04  0.25500000920E-02 0.  1.
    10030    2    1    2    0    0  0.00000000000E+00  0.00000000000E+00 -0.11605086282E+04  0.19873475698E+04  0.16133102885E+04 0.  0.
        5    1    3    3  502    0  0.74408418799E+02  0.36301228796E+03 -0.14628569143E+04  0.15090682475E+04  0.46999998093E+01 0.  1.
       -5    1    3    3    0  502 -0.74408418799E+02 -0.36301228796E+03  0.30234828611E+03  0.47827932227E+03  0.46999998093E+01 0. -1.
</event>
<event>
 5   0  0.1354766E-03  0.1622985E+04  0.7818609E-02  0.8806551E-01
       -2   -1    0    0    0  501  0.00000000000E+00  0.00000000000E+00  0.63254794114E+03  0.63254794114E+03  0.25500000920E-02 0. -1.
        2   -1    0    0  501    0  0.00000000000E+00  0.00000000000E+00 -0.10410591953E+04  0.10410591953E+04  0.25500000920E-02 0.  1.
    10030    2    1    2    0    0  0.00000000000E+00  0.00000000000E+00 -0.40851125420E+03  0.16736071365E+04  0.16229847204E+04 0.  0.
        3    1    3    3  502    0 -0.53021199082E+03  0.16333488382E+03  0.40642954265E+03  0.68774124700E+03  0.10100000352E+00 0. -1.
       -3    1    3    3    0  502  0.53021199082E+03 -0.16333488382E+03 -0.81494079685E+03  0.98586588949E+03  0.10100000352E+00 0.  1.
</event>
<event>
 5   0  0.1339162E-03  0.1615466E+04  0.7818609E-02  0.8811103E-01
       -2   -1    0    0    0  501  0.00000000000E+00  0.00000000000E+00  0.12758837860E+04  0.12758837860E+04  0.25500000920E-02 0.  1.
        2   -1    0    0  501    0  0.00000000000E+00  0.00000000000E+00 -0.51135720969E+03  0.51135720969E+03  0.25500000920E-02 0. -1.
    10030    2    1    2    0    0  0.00000000000E+00  0.00000000000E+00  0.76452657629E+03  0.17872409957E+04  0.16154657195E+04 0.  0.
        5    1    3    3  502    0 -0.78527579846E+03 -0.16978951455E+03  0.29020662292E+03  0.85424149564E+03  0.46999998093E+01 0. -1.
       -5    1    3    3    0  502  0.78527579846E+03  0.16978951455E+03  0.47431995337E+03  0.93299950003E+03  0.46999998093E+01 0.  1.
</event>
<event>
 5   0  0.1414751E-03  0.1503916E+04  0.7818609E-02  0.8881853E-01
        2   -1    0    0  501    0  0.00000000000E+00  0.00000000000E+00  0.61270802256E+03  0.61270802257E+03  0.25500000920E-02 0. -1.
       -2   -1    0    0    0  501  0.00000000000E+00  0.00000000000E+00 -0.92285553681E+03  0.92285553682E+03  0.25500000920E-02 0.  1.
    10030    2    1    2    0    0  0.00000000000E+00  0.00000000000E+00 -0.31014751425E+03  0.15355635594E+04  0.15039162092E+04 0.  0.
        2    1    3    3  502    0  0.37251146656E+03 -0.58594451657E+03  0.13969707715E+03  0.70824504416E+03  0.25500000920E-02 0.  1.
       -2    1    3    3    0  502 -0.37251146656E+03  0.58594451657E+03 -0.44984459140E+03  0.82731851522E+03  0.25500000920E-02 0. -1.
</event>
<event>
 5   0  0.1339162E-03  0.1607116E+04  0.7818609E-02  0.8816188E-01
       -2   -1    0    0    0  501  0.00000000000E+00  0.00000000000E+00  0.48669208412E+03  0.48669208412E+03  0.25500000920E-02 0. -1.
        2   -1    0    0  501    0  0.00000000000E+00  0.00000000000E+00 -0.13267233772E+04  0.13267233772E+04  0.25500000920E-02 0.  1.
    10030    2    1    2    0    0  0.00000000000E+00  0.00000000000E+00 -0.84003129307E+03  0.18134154613E+04  0.16071163810E+04 0.  0.
        5    1    3    3  502    0 -0.70150271525E+03  0.17712557812E+03 -0.81446655071E+03  0.10894298427E+04  0.46999998093E+01 0.  1.
       -5    1    3    3    0  502  0.70150271525E+03 -0.17712557812E+03 -0.25564742358E+02  0.72398561862E+03  0.46999998093E+01 0. -1.
</event>
<event>
 5   0  0.1414751E-03  0.1590413E+04  0.7818609E-02  0.8826460E-01
       -2   -1    0    0    0  501  0.00000000000E+00  0.00000000000E+00  0.51434713856E+03  0.51434713857E+03  0.25500000920E-02 0. -1.
        2   -1    0    0  501    0  0.00000000000E+00  0.00000000000E+00 -0.12294287233E+04  0.12294287233E+04  0.25500000920E-02 0.  1.
    10030    2    1    2    0    0  0.00000000000E+00  0.00000000000E+00 -0.71508158474E+03  0.17437758619E+04  0.15904127086E+04 0.  0.
        2    1    3    3  502    0 -0.71202894601E+03 -0.29265161036E+03 -0.57606604483E+03  0.96150001197E+03  0.25500000920E-02 0.  1.
       -2    1    3    3    0  502  0.71202894601E+03  0.29265161036E+03 -0.13901553991E+03  0.78227584991E+03  0.25500000920E-02 0. -1.
</event>
<event>
 5   0  0.1414796E-03  0.1573546E+04  0.7818609E-02  0.8836967E-01
       -2   -1    0    0    0  501  0.00000000000E+00  0.00000000000E+00  0.37437742865E+03  0.37437742866E+03  0.25500000920E-02 0. -1.
        2   -1    0    0  501    0  0.00000000000E+00  0.00000000000E+00 -0.16534428960E+04  0.16534428960E+04  0.25500000920E-02 0.  1.
    10030    2    1    2    0    0  0.00000000000E+00  0.00000000000E+00 -0.12790654674E+04  0.20278203247E+04  0.15735459318E+04 0.  0.
        4    1    3    3  502    0 -0.64366740734E+03  0.45988115027E+02 -0.12195705582E+04  0.13797741110E+04  0.12699999809E+01 0.  1.
       -4    1    3    3    0  502  0.64366740734E+03 -0.45988115027E+02 -0.59494909180E+02  0.64804621371E+03  0.12699999809E+01 0. -1.
</event>
<event>
 5   0  0.1375777E-03  0.1913830E+04  0.7818609E-02  0.8648003E-01
        2   -1    0    0  501    0  0.00000000000E+00  0.00000000000E+00  0.13131863298E+04  0.13131863298E+04  0.25500000920E-02 0.  1.
       -2   -1    0    0    0  501  0.00000000000E+00  0.00000000000E+00 -0.69730114781E+03  0.69730114782E+03  0.25500000920E-02 0. -1.
    10030    2    1    2    0    0  0.00000000000E+00  0.00000000000E+00  0.61588518201E+03  0.20104874776E+04  0.19138300187E+04 0.  0.
        1    1    3    3  502    0  0.21414798168E+02  0.79795261504E+03 -0.24644067836E+03  0.83541605049E+03  0.50400001928E-02 0. -1.
       -1    1    3    3    0  502 -0.21414798168E+02 -0.79795261504E+03  0.86232586038E+03  0.11750714272E+04  0.50400001928E-02 0.  1.
</event>
<event>
 5   0  0.7633213E-04  0.1551817E+04  0.7818609E-02  0.8850708E-01
        1   -1    0    0  501    0  0.00000000000E+00  0.00000000000E+00  0.10346437727E+04  0.10346437727E+04  0.50400001928E-02 0.  1.
       -1   -1    0    0    0  501  0.00000000000E+00  0.00000000000E+00 -0.58187544455E+03  0.58187544458E+03  0.50400001928E-02 0. -1.
    10030    2    1    2    0    0  0.00000000000E+00  0.00000000000E+00  0.45276832810E+03  0.16165192172E+04  0.15518167485E+04 0.  0.
        1    1    3    3  502    0  0.33157905164E+03 -0.55816632426E+03 -0.21623126139E+03  0.68428814943E+03  0.50400001928E-02 0.  1.
       -1    1    3    3    0  502 -0.33157905164E+03  0.55816632426E+03  0.66899958949E+03  0.93223106781E+03  0.50400001928E-02 0. -1.
</event>
<event>
 5   0  0.7302027E-04  0.1336472E+04  0.7818609E-02  0.9001132E-01
        1   -1    0    0  501    0  0.00000000000E+00  0.00000000000E+00  0.10420184763E+04  0.10420184763E+04  0.50400001928E-02 0.  1.
       -1   -1    0    0    0  501  0.00000000000E+00  0.00000000000E+00 -0.42853306771E+03  0.42853306774E+03  0.50400001928E-02 0. -1.
    10030    2    1    2    0    0  0.00000000000E+00  0.00000000000E+00  0.61348540860E+03  0.14705515441E+04  0.13364720338E+04 0.  0.
        5    1    3    3  502    0 -0.51661957493E+03  0.41747077363E+03  0.38714655777E+03  0.76881869074E+03  0.46999998093E+01 0.  1.
       -5    1    3    3    0  502  0.51661957493E+03 -0.41747077363E+03  0.22633885083E+03  0.70173285332E+03  0.46999998093E+01 0. -1.
</event>
<event>
 5   0  0.7124495E-04  0.1607727E+04  0.7818609E-02  0.8815815E-01
       -1   -1    0    0    0  501  0.00000000000E+00  0.00000000000E+00  0.10429279800E+04  0.10429279800E+04  0.50400001928E-02 0. -1.
        1   -1    0    0  501    0  0.00000000000E+00  0.00000000000E+00 -0.61959853217E+03  0.61959853219E+03  0.50400001928E-02 0.  1.
    10030    2    1    2    0    0  0.00000000000E+00  0.00000000000E+00  0.42332944782E+03  0.16625265122E+04  0.16077271480E+04 0.  0.
        2    1    3    3  502    0 -0.79317126630E+03  0.65001528479E+02  0.32888996486E+03  0.86111234191E+03  0.25500000920E-02 0. -1.
       -2    1    3    3    0  502  0.79317126630E+03 -0.65001528479E+02  0.94439482962E+02  0.80141417029E+03  0.25500000920E-02 0.  1.
</event>
<event>
 5   0  0.7302027E-04  0.1407187E+04  0.7818609E-02  0.8948633E-01
        1   -1    0    0  501    0  0.00000000000E+00  0.00000000000E+00  0.11549668518E+04  0.11549668518E+04  0.50400001928E-02 0.  1.
       -1   -1    0    0    0  501  0.00000000000E+00  0.00000000000E+00 -0.42862155623E+03  0.42862155626E+03  0.50400001928E-02 0. -1.
    10030    2    1    2    0    0  0.00000000000E+00  0.00000000000E+00  0.72634529557E+03  0.15835884081E+04  0.14071868241E+04 0.  0.
        5    1    3    3  502    0  0.24174368596E+03 -0.64443380465E+03  0.52736174989E+03  0.86710290249E+03  0.46999998093E+01 0.  1.
       -5    1    3    3    0  502 -0.24174368596E+03  0.64443380465E+03  0.19898354569E+03  0.71648550559E+03  0.46999998093E+01 0. -1.
</event>
<event>
 5   0  0.1354766E-03  0.1594645E+04  0.7818609E-02  0.8823845E-01
        2   -1    0    0  501    0  0.00000000000E+00  0.00000000000E+00  0.15288138897E+04  0.15288138897E+04  0.25500000920E-02 0. -1.
       -2   -1    0    0    0  501  0.00000000000E+00  0.00000000000E+00 -0.41582759673E+03  0.41582759674E+03  0.25500000920E-02 0.  1.
    10030    2    1    2    0    0  0.00000000000E+00  0.00000000000E+00  0.11129862930E+04  0.19446414864E+04  0.15946447951E+04 0.  0.
        3    1    3    3  502    0 -0.13982628705E+03 -0.77601183369E+03  0.41231936816E+03  0.88980505064E+03  0.10100000352E+00 0.  1.
       -3    1    3    3    0  502  0.13982628705E+03  0.77601183369E+03  0.70066692480E+03  0.10548364358E+04  0.10100000352E+00 0. -1.
</event>
<event>
 5   0  0.1414796E-03  0.1601514E+04  0.7818609E-02  0.8819619E-01
        2   -1    0    0  501    0  0.00000000000E+00  0.00000000000E+00  0.55482754568E+03  0.55482754568E+03  0.25500000920E-02 0.  1.
       -2   -1    0    0    0  501  0.00000000000E+00  0.00000000000E+00 -0.11556951818E+04  0.11556951818E+04  0.25500000920E-02 0. -1.
    10030    2    1    2    0    0  0.00000000000E+00  0.00000000000E+00 -0.60086763613E+03  0.17105227275E+04  0.16015136856E+04 0.  0.
        4    1    3    3  502    0 -0.38145778182E+02 -0.76072397837E+03 -0.56434310617E+03  0.94796667981E+03  0.12699999809E+01 0.  1.
       -4    1    3    3    0  502  0.38145778182E+02  0.76072397837E+03 -0.36524529959E+02  0.76255604768E+03  0.12699999809E+01 0. -1.
</event>
<event>
 5   0  0.7601145E-04  0.1330486E+04  0.7818609E-02  0.9005733E-01
       -1   -1    0    0    0  501  0.00000000000E+00  0.00000000000E+00  0.56598089641E+03  0.56598089643E+03  0.50400001928E-02 0.  1.
        1   -1    0    0  501    0  0.00000000000E+00  0.00000000000E+00 -0.78191410372E+03  0.78191410373E+03  0.50400001928E-02 0. -1.
    10030    2    1    2    0    0  0.00000000000E+00  0.00000000000E+00 -0.21593320731E+03  0.13478950002E+04  0.13304862951E+04 0.  0.
        4    1    3    3  502    0 -0.60246408015E+02 -0.50231640347E+03 -0.54558559687E+03  0.74405420185E+03  0.12699999809E+01 0. -1.
       -4    1    3    3    0  502  0.60246408015E+02  0.50231640347E+03  0.32965238956E+03  0.60384079832E+03  0.12699999809E+01 0.  1.
</event>
<event>
 5   0  0.7124495E-04  0.1560669E+04  0.7818609E-02  0.8845081E-01
       -1   -1    0    0    0  501  0.00000000000E+00  0.00000000000E+00  0.36128808007E+03  0.36128808011E+03  0.50400001928E-02 0.  1.
        1   -1    0    0  501    0  0.00000000000E+00  0.00000000000E+00 -0.16854203304E+04  0.16854203304E+04  0.50400001928E-02 0. -1.
    10030    2    1    2    0    0  0.00000000000E+00  0.00000000000E+00 -0.13241322503E+04  0.20467084105E+04  0.15606694401E+04 0.  0.
        2    1    3    3  502    0  0.60244216354E+03  0.33034736395E+03 -0.17691449053E+03  0.70948197880E+03  0.25500000920E-02 0.  1.
       -2    1    3    3    0  502 -0.60244216354E+03 -0.33034736395E+03 -0.11472177598E+04  0.13372264317E+04  0.25500000920E-02 0. -1.
</event>
<event>
 5   0  0.7124495E-04  0.1364986E+04  0.7818609E-02  0.8979561E-01
       -1   -1    0    0    0  501  0.00000000000E+00  0.00000000000E+00  0.39649147058E+03  0.39649147061E+03  0.50400001928E-02 0.  1.
        1   -1    0    0  501    0  0.00000000000E+00  0.00000000000E+00 -0.11747953990E+04  0.11747953990E+04  0.50400001928E-02 0. -1.
    10030    2    1    2    0    0  0.00000000000E+00  0.00000000000E+00 -0.77830392840E+03  0.15712868696E+04  0.13649855023E+04 0.  0.
        2    1    3    3  502    0  0.53448276377E+02  0.67954016672E+03 -0.34986459654E+03  0.76618326290E+03  0.25500000920E-02 0. -1.
       -2    1    3    3    0  502 -0.53448276377E+02 -0.67954016672E+03 -0.42843933185E+03  0.80510360670E+03  0.25500000920E-02 0.  1.
</event>
<event>
 5   0  0.1414751E-03  0.1592163E+04  0.7818609E-02  0.8825377E-01
       -2   -1    0    0    0  501  0.00000000000E+00  0.00000000000E+00  0.56826823680E+03  0.56826823681E+03  0.25500000920E-02 0.  1.
        2   -1    0    0  501    0  0.00000000000E+00  0.00000000000E+00 -0.11152225589E+04  0.11152225589E+04  0.25500000920E-02 0. -1.
    10030    2    1    2    0    0  0.00000000000E+00  0.00000000000E+00 -0.54695432209E+03  0.16834907957E+04  0.15921627520E+04 0.  0.
        2    1    3    3  502    0  0.69188741077E+03  0.14569237538E+03  0.11330760160E+03  0.71608174814E+03  0.25500000920E-02 0.  1.
       -2    1    3    3    0  502 -0.69188741077E+03 -0.14569237538E+03 -0.66026192369E+03  0.96740904756E+03  0.25500000920E-02 0. -1.
</event>
<event>
 5   0  0.7633213E-04  0.1618002E+04  0.7818609E-02  0.8809564E-01
        1   -1    0    0  501    0  0.00000000000E+00  0.00000000000E+00  0.12484116735E+04  0.12484116735E+04  0.50400001928E-02 0.  1.
       -1   -1    0    0    0  501  0.00000000000E+00  0.00000000000E+00 -0.52425248808E+03  0.52425248810E+03  0.50400001928E-02 0. -1.
    10030    2    1    2    0    0  0.00000000000E+00  0.00000000000E+00  0.72415918540E+03  0.17726641616E+04  0.16180023807E+04 0.  0.
        1    1    3    3  502    0 -0.11683402930E+03 -0.56593486762E+03  0.98237063752E+03  0.11397300269E+04  0.50400001928E-02 0.  1.
       -1    1    3    3    0  502  0.11683402930E+03  0.56593486762E+03 -0.25821145212E+03  0.63293413466E+03  0.50400001928E-02 0. -1.
</event>
<event>
 5   0  0.7124495E-04  0.1564757E+04  0.7818609E-02  0.8842497E-01
        1   -1    0    0  501    0  0.00000000000E+00  0.00000000000E+00  0.35997860719E+03  0.35997860722E+03  0.50400001928E-02 0. -1.
       -1   -1    0    0    0  501  0.00000000000E+00  0.00000000000E+00 -0.17004228162E+04  0.17004228162E+04  0.50400001928E-02 0.  1.
    10030    2    1    2    0    0  0.00000000000E+00  0.00000000000E+00 -0.13404442090E+04  0.20604014234E+04  0.15647566418E+04 0.  0.
        2    1    3    3  502    0  0.39155754294E+02  0.69424895399E+03 -0.19802067085E+03  0.72299859564E+03  0.25500000920E-02 0. -1.
       -2    1    3    3    0  502 -0.39155754294E+02 -0.69424895399E+03 -0.11424235382E+04  0.13374028278E+04  0.25500000920E-02 0.  1.
</event>
<event>
 5   0  0.7499834E-04  0.1568308E+04  0.7818609E-02  0.8840257E-01
        1   -1    0    0  501    0  0.00000000000E+00  0.00000000000E+00  0.10346353354E+04  0.10346353354E+04  0.50400001928E-02 0. -1.
       -1   -1    0    0    0  501  0.00000000000E+00  0.00000000000E+00 -0.59431355356E+03  0.59431355358E+03  0.50400001928E-02 0.  1.
    10030    2    1    2    0    0  0.00000000000E+00  0.00000000000E+00  0.44032178179E+03  0.16289488890E+04  0.15683083916E+04 0.  0.
        3    1    3    3  502    0 -0.51730434425E+03  0.52218997450E+02  0.82985633324E+03  0.97928144692E+03  0.10100000352E+00 0. -1.
       -3    1    3    3    0  502  0.51730434425E+03 -0.52218997450E+02 -0.38953455144E+03  0.64966744203E+03  0.10100000352E+00 0.  1.
</event>
<event>
 5   0  0.7601145E-04  0.1436369E+04  0.7818609E-02  0.8927905E-01
       -1   -1    0    0    0  501  0.00000000000E+00  0.00000000000E+00  0.50144649645E+03  0.50144649647E+03  0.50400001928E-02 0. -1.
        1   -1    0    0  501    0  0.00000000000E+00  0.00000000000E+00 -0.10286029029E+04  0.10286029029E+04  0.50400001928E-02 0.  1.
    10030    2    1    2    0    0  0.00000000000E+00  0.00000000000E+00 -0.52715640642E+03  0.15300493994E+04  0.14363694816E+04 0.  0.
        4    1    3    3  502    0 -0.69381269082E+03 -0.18483534244E+03 -0.24681815173E+03  0.75925026618E+03  0.12699999809E+01 0. -1.
       -4    1    3    3    0  502  0.69381269082E+03  0.18483534244E+03 -0.28033825469E+03  0.77079913318E+03  0.12699999809E+01 0.  1.
</event>
<event>
 5   0  0.1414796E-03  0.1194223E+04  0.7818609E-02  0.9117928E-01
       -2   -1    0    0    0  501  0.00000000000E+00  0.00000000000E+00  0.12087394749E+04  0.12087394749E+04  0.25500000920E-02 0.  1.
        2   -1    0    0  501    0  0.00000000000E+00  0.00000000000E+00 -0.29497043272E+03  0.29497043273E+03  0.25500000920E-02 0. -1.
    10030    2    1    2    0    0  0.00000000000E+00  0.00000000000E+00  0.91376904219E+03  0.15037099076E+04  0.11942234397E+04 0.  0.
        4    1    3    3  502    0  0.35894049534E+02  0.59545416232E+03  0.42388724647E+03  0.73180328835E+03  0.12699999809E+01 0.  1.
       -4    1    3    3    0  502 -0.35894049534E+02 -0.59545416232E+03  0.48988179572E+03  0.77190661929E+03  0.12699999809E+01 0. -1.
</event>
<event>
 5   0  0.1414751E-03  0.1598849E+04  0.7818609E-02  0.8821255E-01
        2   -1    0    0  501    0  0.00000000000E+00  0.00000000000E+00  0.12505944003E+04  0.12505944003E+04  0.25500000920E-02 0. -1.
       -2   -1    0    0    0  501  0.00000000000E+00  0.00000000000E+00 -0.51102072494E+03  0.51102072495E+03  0.25500000920E-02 0.  1.
    10030    2    1    2    0    0  0.00000000000E+00  0.00000000000E+00  0.73957367536E+03  0.17616151253E+04  0.15988491574E+04 0.  0.
        2    1    3    3  502    0  0.58058019667E+03  0.51944497640E+03  0.56744657296E+03  0.96379046553E+03  0.25500000920E-02 0.  1.
       -2    1    3    3    0  502 -0.58058019667E+03 -0.51944497640E+03  0.17212710240E+03  0.79782465972E+03  0.25500000920E-02 0. -1.
</event>
<event>
 5   0  0.1339162E-03  0.1232562E+04  0.7818609E-02  0.9084823E-01
       -2   -1    0    0    0  501  0.00000000000E+00  0.00000000000E+00  0.72512900550E+03  0.72512900551E+03  0.25500000920E-02 0. -1.
        2   -1    0    0  501    0  0.00000000000E+00  0.00000000000E+00 -0.52377165597E+03  0.52377165598E+03  0.25500000920E-02 0.  1.
    10030    2    1    2    0    0  0.00000000000E+00  0.00000000000E+00  0.20135734953E+03  0.12489006615E+04  0.12325615928E+04 0.  0.
        5    1    3    3  502    0  0.41459603398E+03  0.19640489812E+02  0.56224362821E+03  0.69886737489E+03  0.46999998093E+01 0. -1.
       -5    1    3    3    0  502 -0.41459603398E+03 -0.19640489812E+02 -0.36088627867E+03  0.55003328659E+03  0.46999998093E+01 0.  1.
</event>
<event>
 5   0  0.1354766E-03  0.1595515E+04  0.7818609E-02  0.8823308E-01
       -2   -1    0    0    0  501  0.00000000000E+00  0.00000000000E+00  0.97286640874E+03  0.97286640875E+03  0.25500000920E-02 0. -1.
        2   -1    0    0  501    0  0.00000000000E+00  0.00000000000E+00 -0.65416668260E+03  0.65416668261E+03  0.25500000920E-02 0.  1.
    10030    2    1    2    0    0  0.00000000000E+00  0.00000000000E+00  0.31869972614E+03  0.16270330914E+04  0.15955147022E+04 0.  0.
        3    1    3    3  502    0  0.69066637082E+03  0.13287464379E+03  0.54327224863E+03  0.88871843296E+03  0.10100000352E+00 0. -1.
       -3    1    3    3    0  502 -0.69066637082E+03 -0.13287464379E+03 -0.22457252249E+03  0.73831465840E+03  0.10100000352E+00 0.  1.
</event>
<event>
 5   0  0.1375777E-03  0.1581969E+04  0.7818609E-02  0.8831702E-01
        2   -1    0    0  501    0  0.00000000000E+00  0.00000000000E+00  0.84371114453E+03  0.84371114454E+03  0.25500000920E-02 0. -1.
       -2   -1    0    0    0  501  0.00000000000E+00  0.00000000000E+00 -0.74155332873E+03  0.74155332874E+03  0.25500000920E-02 0.  1.
    10030    2    1    2    0    0  0.00000000000E+00  0.00000000000E+00  0.10215781580E+03  0.15852644733E+04  0.15819694153E+04 0.  0.
        1    1    3    3  502    0  0.13456412312E+03  0.13904273838E+03 -0.71747125041E+03  0.74310522911E+03  0.50400001928E-02 0.  1.
       -1    1    3    3    0  502 -0.13456412312E+03 -0.13904273838E+03  0.81962906621E+03  0.84215924417E+03  0.50400001928E-02 0. -1.
</event>
<event>
 5   0  0.7499834E-04  0.1452297E+04  0.7818609E-02  0.8916810E-01
        1   -1    0    0  501    0  0.00000000000E+00  0.00000000000E+00  0.73969973108E+03  0.73969973109E+03  0.50400001928E-02 0.  1.
       -1   -1    0    0    0  501  0.00000000000E+00  0.00000000000E+00 -0.71284528881E+03  0.71284528883E+03  0.50400001928E-02 0. -1.
    10030    2    1    2    0    0  0.00000000000E+00  0.00000000000E+00  0.26854442268E+02  0.14525450199E+04  0.14522967582E+04 0.  0.
        3    1    3    3  502    0  0.12749975301E+03 -0.34807055762E+03  0.63793940336E+03  0.73781840087E+03  0.10100000352E+00 0.  1.
       -3    1    3    3    0  502 -0.12749975301E+03  0.34807055762E+03 -0.61108496109E+03  0.71472661905E+03  0.10100000352E+00 0. -1.
</event>
<event>
 5   0  0.7499834E-04  0.1599520E+04  0.7818609E-02  0.8820843E-01
       -1   -1    0    0    0  501  0.00000000000E+00  0.00000000000E+00  0.11096070032E+04  0.11096070032E+04  0.50400001928E-02 0. -1.
        1   -1    0    0  501    0  0.00000000000E+00  0.00000000000E+00 -0.57643497727E+03  0.57643497730E+03  0.50400001928E-02 0.  1.
    10030    2    1    2    0    0  0.00000000000E+00  0.00000000000E+00  0.53317202590E+03  0.16860419805E+04  0.15995202877E+04 0.  0.
        3    1    3    3  502    0  0.37011789680E+03 -0.52401882249E+03 -0.23677289765E+03  0.68384530350E+03  0.10100000352E+00 0.  1.
       -3    1    3    3    0  502 -0.37011789680E+03  0.52401882249E+03  0.76994492354E+03  0.10021966770E+04  0.10100000352E+00 0. -1.
</event>
<event>
 5   0  0.1339162E-03  0.1658663E+04  0.7818609E-02  0.8785298E-01
        2   -1    0    0  501    0  0.00000000000E+00  0.00000000000E+00  0.66763358943E+03  0.66763358943E+03  0.25500000920E-02 0. -1.
       -2   -1    0    0    0  501  0.00000000000E+00  0.00000000000E+00 -0.10301914205E+04  0.10301914205E+04  0.25500000920E-02 0.  1.
    10030    2    1    2    0    0  0.00000000000E+00  0.00000000000E+00 -0.36255783108E+03  0.16978250099E+04  0.16586625888E+04 0.  0.
        5    1    3    3  502    0 -0.42362338391E+03 -0.34332626718E+03 -0.82088304020E+03  0.98549518153E+03  0.46999998093E+01 0.  1.
       -5    1    3    3    0  502  0.42362338391E+03  0.34332626718E+03  0.45832520912E+03  0.71232982841E+03  0.46999998093E+01 0. -1.
</event>
<event>
 5   0  0.7601145E-04  0.1767477E+04  0.7818609E-02  0.8723788E-01
        1   -1    0    0  501    0  0.00000000000E+00  0.00000000000E+00  0.66986762704E+03  0.66986762706E+03  0.50400001928E-02 0.  1.
       -1   -1    0    0    0  501  0.00000000000E+00  0.00000000000E+00 -0.11658930335E+04  0.11658930335E+04  0.50400001928E-02 0. -1.
    10030    2    1    2    0    0  0.00000000000E+00  0.00000000000E+00 -0.49602540647E+03  0.18357606606E+04  0.17674772980E+04 0.  0.
        4    1    3    3  502    0  0.76489220630E+03  0.62827815651E+02 -0.70310116468E+03  0.10408459455E+04  0.12699999809E+01 0. -1.
       -4    1    3    3    0  502 -0.76489220630E+03 -0.62827815651E+02  0.20707575820E+03  0.79491471505E+03  0.12699999809E+01 0.  1.
</event>
<event>
 5   0  0.1375777E-03  0.1648799E+04  0.7818609E-02  0.8791117E-01
        2   -1    0    0  501    0  0.00000000000E+00  0.00000000000E+00  0.11588428810E+04  0.11588428810E+04  0.25500000920E-02 0.  1.
       -2   -1    0    0    0  501  0.00000000000E+00  0.00000000000E+00 -0.58647695335E+03  0.58647695336E+03  0.25500000920E-02 0. -1.
    10030    2    1    2    0    0  0.00000000000E+00  0.00000000000E+00  0.57236592765E+03  0.17453198344E+04  0.16487991294E+04 0.  0.
        1    1    3    3  502    0 -0.55534186965E+03 -0.27544891154E+03  0.86146604947E+03  0.10613201447E+04  0.50400001928E-02 0.  1.
       -1    1    3    3    0  502  0.55534186965E+03  0.27544891154E+03 -0.28910012182E+03  0.68399968970E+03  0.50400001928E-02 0. -1.
</event>
<event>
 5   0  0.1354766E-03  0.8766396E+03  0.7818609E-02  0.9455264E-01
        2   -1    0    0  501    0  0.00000000000E+00  0.00000000000E+00  0.20179924808E+03  0.20179924810E+03  0.25500000920E-02 0.  1.
       -2   -1    0    0    0  501  0.00000000000E+00  0.00000000000E+00 -0.95205635016E+03  0.95205635017E+03  0.25500000920E-02 0. -1.
    10030    2    1    2    0    0  0.00000000000E+00  0.00000000000E+00 -0.75025710208E+03  0.11538555983E+04  0.87663961947E+03 0.  0.
        3    1    3    3  502    0 -0.64079394105E+02 -0.43360997678E+03 -0.37423129952E+03  0.57634439049E+03  0.10100000352E+00 0.  1.
       -3    1    3    3    0  502  0.64079394105E+02  0.43360997678E+03 -0.37602580256E+03  0.57751120777E+03  0.10100000352E+00 0. -1.
</event>
<event>
 5   0  0.7499834E-04  0.1588516E+04  0.7818609E-02  0.8827634E-01
       -1   -1    0    0    0  501  0.00000000000E+00  0.00000000000E+00  0.38017140226E+03  0.38017140230E+03  0.50400001928E-02 0.  1.
        1   -1    0    0  501    0  0.00000000000E+00  0.00000000000E+00 -0.16593718848E+04  0.16593718848E+04  0.50400001928E-02 0. -1.
    10030    2    1    2    0    0  0.00000000000E+00  0.00000000000E+00 -0.12792004825E+04  0.20395432871E+04  0.15885159569E+04 0.  0.
        3    1    3    3  502    0  0.47375090220E+03  0.37623061572E+03  0.21163990730E+02  0.60534066297E+03  0.10100000352E+00 0.  1.
       -3    1    3    3    0  502 -0.47375090220E+03 -0.37623061572E+03 -0.13003644732E+04  0.14342026241E+04  0.10100000352E+00 0. -1.
</event>
<event>
 5   0  0.1354766E-03  0.1627626E+04  0.7818609E-02  0.8803754E-01
       -2   -1    0    0    0  501  0.00000000000E+00  0.00000000000E+00  0.32973290613E+03  0.32973290614E+03  0.25500000920E-02 0.  1.
        2   -1    0    0  501    0  0.00000000000E+00  0.00000000000E+00 -0.20085705080E+04  0.20085705080E+04  0.25500000920E-02 0. -1.
    10030    2    1    2    0    0  0.00000000000E+00  0.00000000000E+00 -0.16788376018E+04  0.23383034141E+04  0.16276262357E+04 0.  0.
        3    1    3    3  502    0 -0.65911005849E+02  0.69369220101E+03 -0.23545355455E+03  0.73552125529E+03  0.10100000352E+00 0.  1.
       -3    1    3    3    0  502  0.65911005849E+02 -0.69369220101E+03 -0.14433840473E+04  0.16027821588E+04  0.10100000352E+00 0. -1.
</event>
<event>
 5   0  0.1375777E-03  0.1581793E+04  0.7818609E-02  0.8831812E-01
        2   -1    0    0  501    0  0.00000000000E+00  0.00000000000E+00  0.81771568741E+03  0.81771568741E+03  0.25500000920E-02 0.  1.
       -2   -1    0    0    0  501  0.00000000000E+00  0.00000000000E+00 -0.76495647265E+03  0.76495647266E+03  0.25500000920E-02 0. -1.
    10030    2    1    2    0    0  0.00000000000E+00  0.00000000000E+00  0.52759214756E+02  0.15826721601E+04  0.15817925374E+04 0.  0.
        1    1    3    3  502    0 -0.55960502375E+03  0.27494884364E+03  0.51323241386E+03  0.80756557621E+03  0.50400001928E-02 0. -1.
       -1    1    3    3    0  502  0.55960502375E+03 -0.27494884364E+03 -0.46047319910E+03  0.77510658386E+03  0.50400001928E-02 0.  1.
</event>
<event>
 5   0  0.7124495E-04  0.1686992E+04  0.7818609E-02  0.8768818E-01
       -1   -1    0    0    0  501  0.00000000000E+00  0.00000000000E+00  0.10563249622E+04  0.10563249622E+04  0.50400001928E-02 0.  1.
        1   -1    0    0  501    0  0.00000000000E+00  0.00000000000E+00 -0.67354808472E+03  0.67354808474E+03  0.50400001928E-02 0. -1.
    10030    2    1    2    0    0  0.00000000000E+00  0.00000000000E+00  0.38277687744E+03  0.17298730469E+04  0.16869921815E+04 0.  0.
        2    1    3    3  502    0 -0.11418552063E+03 -0.73867694409E+02  0.10450091103E+04  0.10538210521E+04  0.25500000920E-02 0.  1.
       -2    1    3    3    0  502  0.11418552063E+03  0.73867694409E+02 -0.66223223283E+03  0.67605199475E+03  0.25500000920E-02 0. -1.
</event>
<event>
 5   0  0.1414796E-03  0.1583416E+04  0.7818609E-02  0.8830802E-01
        2   -1    0    0  501    0  0.00000000000E+00  0.00000000000E+00  0.13508696395E+04  0.13508696395E+04  0.25500000920E-02 0. -1.
       -2   -1    0    0    0  501  0.00000000000E+00  0.00000000000E+00 -0.46399847294E+03  0.46399847294E+03  0.25500000920E-02 0.  1.
    10030    2    1    2    0    0  0.00000000000E+00  0.00000000000E+00  0.88687116660E+03  0.18148681125E+04  0.15834158644E+04 0.  0.
        4    1    3    3  502    0  0.66666652992E+03 -0.10996116145E+03  0.91638167893E+03  0.11385485117E+04  0.12699999809E+01 0. -1.
       -4    1    3    3    0  502 -0.66666652992E+03  0.10996116145E+03 -0.29510512329E+02  0.67631960077E+03  0.12699999809E+01 0.  1.
</event>
<event>
 5   0  0.1414751E-03  0.1600385E+04  0.7818609E-02  0.8820311E-01
       -2   -1    0    0    0  501  0.00000000000E+00  0.00000000000E+00  0.51706993945E+03  0.51706993945E+03  0.25500000920E-02 0.  1.
        2   -1    0    0  501    0  0.00000000000E+00  0.00000000000E+00 -0.12383399455E+04  0.12383399455E+04  0.25500000920E-02 0. -1.
    10030    2    1    2    0    0  0.00000000000E+00  0.00000000000E+00 -0.72127000607E+03  0.17554098850E+04  0.16003854044E+04 0.  0.
        2    1    3    3  502    0 -0.46489620548E+03  0.11504448067E+03  0.34251117599E+03  0.58879335941E+03  0.25500000920E-02 0.  1.
       -2    1    3    3    0  502  0.46489620548E+03 -0.11504448067E+03 -0.10637811821E+04  0.11666165256E+04  0.25500000920E-02 0. -1.
</event>
<event>
 5   0  0.7499834E-04  0.1573526E+04  0.7818609E-02  0.8836979E-01
       -1   -1    0    0    0  501  0.00000000000E+00  0.00000000000E+00  0.29910967359E+03  0.29910967363E+03  0.50400001928E-02 0. -1.
        1   -1    0    0  501    0  0.00000000000E+00  0.00000000000E+00 -0.20694621230E+04  0.20694621230E+04  0.50400001928E-02 0.  1.
    10030    2    1    2    0    0  0.00000000000E+00  0.00000000000E+00 -0.17703524494E+04  0.23685717967E+04  0.15735261551E+04 0.  0.
        3    1    3    3  502    0 -0.17608326021E+03  0.69123453191E+03 -0.13848367976E+04  0.15577494853E+04  0.10100000352E+00 0.  1.
       -3    1    3    3    0  502  0.17608326021E+03 -0.69123453191E+03 -0.38551565179E+03  0.81082231136E+03  0.10100000352E+00 0. -1.
</event>
<event>
 5   0  0.7601145E-04  0.1624115E+04  0.7818609E-02  0.8805869E-01
       -1   -1    0    0    0  501  0.00000000000E+00  0.00000000000E+00  0.80155655584E+03  0.80155655585E+03  0.50400001928E-02 0. -1.
        1   -1    0    0  501    0  0.00000000000E+00  0.00000000000E+00 -0.82269628750E+03  0.82269628751E+03  0.50400001928E-02 0.  1.
    10030    2    1    2    0    0  0.00000000000E+00  0.00000000000E+00 -0.21139731658E+02  0.16242528434E+04  0.16241152702E+04 0.  0.
        4    1    3    3  502    0 -0.59952767413E+02 -0.22591215348E+03 -0.78832806777E+03  0.82224898342E+03  0.12699999809E+01 0.  1.
       -4    1    3    3    0  502  0.59952767413E+02  0.22591215348E+03  0.76718833611E+03  0.80200385995E+03  0.12699999809E+01 0. -1.
</event>
<event>
 5   0  0.7302027E-04  0.1392638E+04  0.7818609E-02  0.8959165E-01
        1   -1    0    0  501    0  0.00000000000E+00  0.00000000000E+00  0.13824714852E+04  0.13824714852E+04  0.50400001928E-02 0.  1.
       -1   -1    0    0    0  501  0.00000000000E+00  0.00000000000E+00 -0.35071957624E+03  0.35071957628E+03  0.50400001928E-02 0. -1.
    10030    2    1    2    0    0  0.00000000000E+00  0.00000000000E+00  0.10317519089E+04  0.17331910615E+04  0.13926375171E+04 0.  0.
        5    1    3    3  502    0  0.68266653047E+03 -0.62368946075E+02  0.36388805793E+03  0.77611860302E+03  0.46999998093E+01 0. -1.
       -5    1    3    3    0  502 -0.68266653047E+03  0.62368946075E+02  0.66786385101E+03  0.95707245846E+03  0.46999998093E+01 0.  1.
</event>
<event>
 5   0  0.7601145E-04  0.1602537E+04  0.7818609E-02  0.8818991E-01
        1   -1    0    0  501    0  0.00000000000E+00  0.00000000000E+00  0.16571035345E+04  0.16571035345E+04  0.50400001928E-02 0. -1.
       -1   -1    0    0    0  501  0.00000000000E+00  0.00000000000E+00 -0.38744187653E+03  0.38744187656E+03  0.50400001928E-02 0.  1.
    10030    2    1    2    0    0  0.00000000000E+00  0.00000000000E+00  0.12696616579E+04  0.20445454110E+04  0.16025371172E+04 0.  0.
        4    1    3    3  502    0 -0.65038300686E+03 -0.40020227574E+03  0.94438370579E+03  0.12145048842E+04  0.12699999809E+01 0. -1.
       -4    1    3    3    0  502  0.65038300686E+03  0.40020227574E+03  0.32527795214E+03  0.83004052682E+03  0.12699999809E+01 0.  1.
</event>
<event>
 5   0  0.7633213E-04  0.1574513E+04  0.7818609E-02  0.8836361E-01
        1   -1    0    0  501    0  0.00000000000E+00  0.00000000000E+00  0.18941609006E+04  0.18941609006E+04  0.50400001928E-02 0.  1.
       -1   -1    0    0    0  501  0.00000000000E+00  0.00000000000E+00 -0.32720166942E+03  0.32720166946E+03  0.50400001928E-02 0. -1.
    10030    2    1    2    0    0  0.00000000000E+00  0.00000000000E+00  0.15669592312E+04  0.22213625701E+04  0.15745127613E+04 0.  0.
        1    1    3    3  502    0 -0.75110585069E+03  0.12309820301E+03  0.49969868338E+03  0.91050092846E+03  0.50400001928E-02 0.  1.
       -1    1    3    3    0  502  0.75110585069E+03 -0.12309820301E+03  0.10672605478E+04  0.13108616416E+04  0.50400001928E-02 0. -1.
</event>
<event>
 5   0  0.1339162E-03  0.1642213E+04  0.7818609E-02  0.8795027E-01
        2   -1    0    0  501    0  0.00000000000E+00  0.00000000000E+00  0.10838100449E+04  0.10838100449E+04  0.25500000920E-02 0. -1.
       -2   -1    0    0    0  501  0.00000000000E+00  0.00000000000E+00 -0.62207917268E+03  0.62207917268E+03  0.25500000920E-02 0.  1.
    10030    2    1    2    0    0  0.00000000000E+00  0.00000000000E+00  0.46173087226E+03  0.17058892176E+04  0.16422127220E+04 0.  0.
        5    1    3    3  502    0 -0.37542950275E+03 -0.24184274882E+03 -0.48487855880E+03  0.65921508893E+03  0.46999998093E+01 0.  1.
       -5    1    3    3    0  502  0.37542950275E+03  0.24184274882E+03  0.94660943106E+03  0.10466741287E+04  0.46999998093E+01 0. -1.
</event>
<event>
 5   0  0.7601145E-04  0.1603003E+04  0.7818609E-02  0.8818705E-01
       -1   -1    0    0    0  501  0.00000000000E+00  0.00000000000E+00  0.18834272915E+04  0.18834272915E+04  0.50400001928E-02 0.  1.
        1   -1    0    0  501    0  0.00000000000E+00  0.00000000000E+00 -0.34108268468E+03  0.34108268471E+03  0.50400001928E-02 0. -1.
    10030    2    1    2    0    0  0.00000000000E+00  0.00000000000E+00  0.15423446069E+04  0.22245099763E+04  0.16030027287E+04 0.  0.
        4    1    3    3  502    0  0.59503106928E+03  0.53348755390E+03  0.85594655492E+03  0.11710324766E+04  0.12699999809E+01 0.  1.
       -4    1    3    3    0  502 -0.59503106928E+03 -0.53348755390E+03  0.68639805193E+03  0.10534774996E+04  0.12699999809E+01 0. -1.
</event>
<event>
 5   0  0.5095750E-04  0.1433078E+04  0.7818609E-02  0.8930217E-01
        4   -1    0    0  501    0  0.00000000000E+00  0.00000000000E+00  0.53495857673E+03  0.53496008423E+03  0.12699999809E+01 0. -1.
       -4   -1    0    0    0  501  0.00000000000E+00  0.00000000000E+00 -0.95974926216E+03  0.95975010243E+03  0.12699999809E+01 0.  1.
    10030    2    1    2    0    0  0.00000000000E+00  0.00000000000E+00 -0.42479068543E+03  0.14947101867E+04  0.14330776028E+04 0.  0.
        4    1    3    3  502    0  0.50636581894E+03  0.35902326292E+03 -0.58573099980E+03  0.85345560103E+03  0.12699999809E+01 0.  1.
       -4    1    3    3    0  502 -0.50636581894E+03 -0.35902326292E+03  0.16094031437E+03  0.64125458563E+03  0.12699999809E+01 0. -1.
</event>
<event>
 5   0  0.1354766E-03  0.1477650E+04  0.7818609E-02  0.8899453E-01
        2   -1    0    0  501    0  0.00000000000E+00  0.00000000000E+00  0.14544115940E+04  0.14544115940E+04  0.25500000920E-02 0. -1.
       -2   -1    0    0    0  501  0.00000000000E+00  0.00000000000E+00 -0.37531517376E+03  0.37531517377E+03  0.25500000920E-02 0.  1.
    10030    2    1    2    0    0  0.00000000000E+00  0.00000000000E+00  0.10790964202E+04  0.18297267678E+04  0.14776504866E+04 0.  0.
        3    1    3    3  502    0  0.39611429265E+03 -0.58218661350E+03  0.81647464491E+03  0.10781830280E+04  0.10100000352E+00 0.  1.
       -3    1    3    3    0  502 -0.39611429265E+03  0.58218661350E+03  0.26262177533E+03  0.75154373982E+03  0.10100000352E+00 0. -1.
</event>
<event>
 5   0  0.1354766E-03  0.1602838E+04  0.7818609E-02  0.8818806E-01
       -2   -1    0    0    0  501  0.00000000000E+00  0.00000000000E+00  0.45691322733E+03  0.45691322734E+03  0.25500000920E-02 0.  1.
        2   -1    0    0  501    0  0.00000000000E+00  0.00000000000E+00 -0.14056771400E+04  0.14056771400E+04  0.25500000920E-02 0. -1.
    10030    2    1    2    0    0  0.00000000000E+00  0.00000000000E+00 -0.94876391264E+03  0.18625903673E+04  0.16028380812E+04 0.  0.
        3    1    3    3  502    0  0.19507496511E+03  0.67448862181E+03 -0.25395386023E+02  0.70259097545E+03  0.10100000352E+00 0.  1.
       -3    1    3    3    0  502 -0.19507496511E+03 -0.67448862181E+03 -0.92336852662E+03  0.11599993919E+04  0.10100000352E+00 0. -1.
</event>
<event>
 5   0  0.7302027E-04  0.1574617E+04  0.7818609E-02  0.8836295E-01
        1   -1    0    0  501    0  0.00000000000E+00  0.00000000000E+00  0.63506827244E+03  0.63506827246E+03  0.50400001928E-02 0.  1.
       -1   -1    0    0    0  501  0.00000000000E+00  0.00000000000E+00 -0.97604399687E+03  0.97604399688E+03  0.50400001928E-02 0. -1.
    10030    2    1    2    0    0  0.00000000000E+00  0.00000000000E+00 -0.34097572442E+03  0.16111122693E+04  0.15746168740E+04 0.  0.
        5    1    3    3  502    0  0.54831695569E+03 -0.79239288869E+02  0.40185354622E+03  0.68442582608E+03  0.46999998093E+01 0.  1.
       -5    1    3    3    0  502 -0.54831695569E+03  0.79239288869E+02 -0.74282927065E+03  0.92668644326E+03  0.46999998093E+01 0. -1.
</event>
<event>
 5   0  0.1339162E-03  0.1410388E+04  0.7818609E-02  0.8946333E-01
        2   -1    0    0  501    0  0.00000000000E+00  0.00000000000E+00  0.10151976752E+04  0.10151976752E+04  0.25500000920E-02 0.  1.
       -2   -1    0    0    0  501  0.00000000000E+00  0.00000000000E+00 -0.48985383443E+03  0.48985383444E+03  0.25500000920E-02 0. -1.
    10030    2    1    2    0    0  0.00000000000E+00  0.00000000000E+00  0.52534384074E+03  0.15050515096E+04  0.14103878529E+04 0.  0.
        5    1    3    3  502    0 -0.48737175681E+03 -0.38732454865E+02 -0.27961449456E+03  0.56323865986E+03  0.46999998093E+01 0. -1.
       -5    1    3    3    0  502  0.48737175681E+03  0.38732454865E+02  0.80495833530E+03  0.94181284976E+03  0.46999998093E+01 0.  1.
</event>
<event>
 5   0  0.1354766E-03  0.1595238E+04  0.7818609E-02  0.8823479E-01
       -2   -1    0    0    0  501  0.00000000000E+00  0.00000000000E+00  0.77371836525E+03  0.77371836525E+03  0.25500000920E-02 0.  1.
        2   -1    0    0  501    0  0.00000000000E+00  0.00000000000E+00 -0.82225779880E+03  0.82225779881E+03  0.25500000920E-02 0. -1.
    10030    2    1    2    0    0  0.00000000000E+00  0.00000000000E+00 -0.48539433554E+02  0.15959761641E+04  0.15952378630E+04 0.  0.
        3    1    3    3  502    0 -0.64456453311E+01 -0.54341252953E+03 -0.60836971441E+03  0.81575268508E+03  0.10100000352E+00 0. -1.
       -3    1    3    3    0  502  0.64456453311E+01  0.54341252953E+03  0.55983028086E+03  0.78022347899E+03  0.10100000352E+00 0.  1.
</event>
<event>
 5   0  0.7499834E-04  0.1590392E+04  0.7818609E-02  0.8826472E-01
       -1   -1    0    0    0  501  0.00000000000E+00  0.00000000000E+00  0.66415587011E+03  0.66415587013E+03  0.50400001928E-02 0.  1.
        1   -1    0    0  501    0  0.00000000000E+00  0.00000000000E+00 -0.95209088128E+03  0.95209088129E+03  0.50400001928E-02 0. -1.
    10030    2    1    2    0    0  0.00000000000E+00  0.00000000000E+00 -0.28793501117E+03  0.16162467514E+04  0.15903920871E+04 0.  0.
        3    1    3    3  502    0 -0.22624994538E+03 -0.41583010114E+03 -0.79328563251E+03  0.92379966212E+03  0.10100000352E+00 0. -1.
       -3    1    3    3    0  502  0.22624994538E+03  0.41583010114E+03  0.50535062133E+03  0.69244708930E+03  0.10100000352E+00 0.  1.
</event>
<event>
 5   0  0.7499834E-04  0.1563927E+04  0.7818609E-02  0.8843021E-01
        1   -1    0    0  501    0  0.00000000000E+00  0.00000000000E+00  0.53800451142E+03  0.53800451144E+03  0.50400001928E-02 0.  1.
       -1   -1    0    0    0  501  0.00000000000E+00  0.00000000000E+00 -0.11365461424E+04  0.11365461424E+04  0.50400001928E-02 0. -1.
    10030    2    1    2    0    0  0.00000000000E+00  0.00000000000E+00 -0.59854163095E+03  0.16745506538E+04  0.15639270470E+04 0.  0.
        3    1    3    3  502    0 -0.53912491109E+03  0.43826219869E+03 -0.68345047151E+03  0.97459426521E+03  0.10100000352E+00 0.  1.
       -3    1    3    3    0  502  0.53912491109E+03 -0.43826219869E+03  0.84908840563E+02  0.69995638862E+03  0.10100000352E+00 0. -1.
</event>
<event>
 5   0  0.7601145E-04  0.1535414E+04  0.7818609E-02  0.8861238E-01
       -1   -1    0    0    0  501  0.00000000000E+00  0.00000000000E+00  0.87216221756E+03  0.87216221757E+03  0.50400001928E-02 0.  1.
        1   -1    0    0  501    0  0.00000000000E+00  0.00000000000E+00 -0.67576214627E+03  0.67576214628E+03  0.50400001928E-02 0. -1.
    10030    2    1    2    0    0  0.00000000000E+00  0.00000000000E+00  0.19640007129E+03  0.15479243639E+04  0.15354142269E+04 0.  0.
        4    1    3    3  502    0  0.53344560664E+03  0.44076889730E+03 -0.23697104957E+03  0.73143579849E+03  0.12699999809E+01 0. -1.
       -4    1    3    3    0  502 -0.53344560664E+03 -0.44076889730E+03  0.43337112087E+03  0.81648856537E+03  0.12699999809E+01 0.  1.
</event>
<event>
 5   0  0.1375777E-03  0.1195189E+04  0.7818609E-02  0.9117078E-01
       -2   -1    0    0    0  501  0.00000000000E+00  0.00000000000E+00  0.34349710490E+03  0.34349710491E+03  0.25500000920E-02 0.  1.
        2   -1    0    0  501    0  0.00000000000E+00  0.00000000000E+00 -0.10396572243E+04  0.10396572243E+04  0.25500000920E-02 0. -1.
    10030    2    1    2    0    0  0.00000000000E+00  0.00000000000E+00 -0.69616011937E+03  0.13831543292E+04  0.11951891007E+04 0.  0.
        1    1    3    3  502    0  0.57983225296E+03  0.99749567971E+02 -0.46925564819E+03  0.75256646302E+03  0.50400001928E-02 0. -1.
       -1    1    3    3    0  502 -0.57983225296E+03 -0.99749567971E+02 -0.22690447117E+03  0.63058786616E+03  0.50400001928E-02 0.  1.
</event>
<event>
 5   0  0.5095750E-04  0.1607820E+04  0.7818609E-02  0.8815758E-01
        4   -1    0    0  501    0  0.00000000000E+00  0.00000000000E+00  0.13023209882E+04  0.13023216074E+04  0.12699999809E+01 0.  1.
       -4   -1    0    0    0  501  0.00000000000E+00  0.00000000000E+00 -0.49624429537E+03  0.49624592047E+03  0.12699999809E+01 0. -1.
    10030    2    1    2    0    0  0.00000000000E+00  0.00000000000E+00  0.80607669282E+03  0.17985675279E+04  0.16078201136E+04 0.  0.
        2    1    3    3  502    0 -0.46974487435E+02 -0.26037599228E+03 -0.44614597037E+03  0.51869884009E+03  0.25500000920E-02 0. -1.
       -2    1    3    3    0  502  0.46974487435E+02  0.26037599228E+03  0.12522226632E+04  0.12798686878E+04  0.25500000920E-02 0.  1.
</event>
<event>
 5   0  0.1414751E-03  0.1773051E+04  0.7818609E-02  0.8720763E-01
        2   -1    0    0  501    0  0.00000000000E+00  0.00000000000E+00  0.11570895705E+04  0.11570895705E+04  0.25500000920E-02 0.  1.
       -2   -1    0    0    0  501  0.00000000000E+00  0.00000000000E+00 -0.67922786002E+03  0.67922786002E+03  0.25500000920E-02 0. -1.
    10030    2    1    2    0    0  0.00000000000E+00  0.00000000000E+00  0.47786171044E+03  0.18363174305E+04  0.17730510120E+04 0.  0.
        2    1    3    3  502    0  0.36711603188E+03 -0.32780043529E+03  0.10026017850E+04  0.11168874811E+04  0.25500000920E-02 0.  1.
       -2    1    3    3    0  502 -0.36711603188E+03  0.32780043529E+03 -0.52474007452E+03  0.71942994937E+03  0.25500000920E-02 0. -1.
</event>
<event>
 5   0  0.1354766E-03  0.1604923E+04  0.7818609E-02  0.8817529E-01
       -2   -1    0    0    0  501  0.00000000000E+00  0.00000000000E+00  0.41474478802E+03  0.41474478803E+03  0.25500000920E-02 0. -1.
        2   -1    0    0  501    0  0.00000000000E+00  0.00000000000E+00 -0.15526281506E+04  0.15526281506E+04  0.25500000920E-02 0.  1.
    10030    2    1    2    0    0  0.00000000000E+00  0.00000000000E+00 -0.11378833626E+04  0.19673729387E+04  0.16049229679E+04 0.  0.
        3    1    3    3  502    0  0.30887126430E+03 -0.52024812566E+03 -0.12151386827E+04  0.13574319867E+04  0.10100000352E+00 0.  1.
       -3    1    3    3    0  502 -0.30887126430E+03  0.52024812566E+03  0.77255320100E+02  0.60994095194E+03  0.10100000352E+00 0. -1.
</event>
<event>
 5   0  0.7124495E-04  0.1478510E+04  0.7818609E-02  0.8898871E-01
        1   -1    0    0  501    0  0.00000000000E+00  0.00000000000E+00  0.43442321961E+03  0.43442321964E+03  0.50400001928E-02 0.  1.
       -1   -1    0    0    0  501  0.00000000000E+00  0.00000000000E+00 -0.12579851417E+04  0.12579851417E+04  0.50400001928E-02 0. -1.
    10030    2    1    2    0    0  0.00000000000E+00  0.00000000000E+00 -0.82356192208E+03  0.16924083613E+04  0.14785100006E+04 0.  0.
        2    1    3    3  502    0  0.15470996933E+03 -0.31295332624E+03 -0.11576844717E+04  0.12091767014E+04  0.25500000920E-02 0. -1.
       -2    1    3    3    0  502 -0.15470996933E+03  0.31295332624E+03  0.33412254965E+03  0.48323165998E+03  0.25500000920E-02 0.  1.
</event>
<event>
 5   0  0.7633213E-04  0.1572813E+04  0.7818609E-02  0.8837426E-01
        1   -1    0    0  501    0  0.00000000000E+00  0.00000000000E+00  0.12264953360E+04  0.12264953360E+04  0.50400001928E-02 0. -1.
       -1   -1    0    0    0  501  0.00000000000E+00  0.00000000000E+00 -0.50422969577E+03  0.50422969580E+03  0.50400001928E-02 0.  1.
    10030    2    1    2    0    0  0.00000000000E+00  0.00000000000E+00  0.72226564019E+03  0.17307250318E+04  0.15728132377E+04 0.  0.
        1    1    3    3  502    0 -0.36703314582E+03  0.49709788938E+03  0.89640259914E+03  0.10887411361E+04  0.50400001928E-02 0. -1.
       -1    1    3    3    0  502  0.36703314582E+03 -0.49709788938E+03 -0.17413695895E+03  0.64198389563E+03  0.50400001928E-02 0.  1.
</event>
<event>
 5   0  0.1354766E-03  0.1655667E+04  0.7818609E-02  0.8787061E-01
        2   -1    0    0  501    0  0.00000000000E+00  0.00000000000E+00  0.88611545779E+03  0.88611545779E+03  0.25500000920E-02 0. -1.
       -2   -1    0    0    0  501  0.00000000000E+00  0.00000000000E+00 -0.77338467100E+03  0.77338467101E+03  0.25500000920E-02 0.  1.
    10030    2    1    2    0    0  0.00000000000E+00  0.00000000000E+00  0.11273078679E+03  0.16595001288E+04  0.16556667682E+04 0.  0.
        3    1    3    3  502    0 -0.22727231038E+03 -0.60225418948E+03 -0.46536382752E+03  0.79430870194E+03  0.10100000352E+00 0.  1.
       -3    1    3    3    0  502  0.22727231038E+03  0.60225418948E+03  0.57809461431E+03  0.86519142686E+03  0.10100000352E+00 0. -1.
</event>
<event>
 5   0  0.1339162E-03  0.1925447E+04  0.7818609E-02  0.8642292E-01
       -2   -1    0    0    0  501  0.00000000000E+00  0.00000000000E+00  0.63051747036E+03  0.63051747037E+03  0.25500000920E-02 0. -1.
        2   -1    0    0  501    0  0.00000000000E+00  0.00000000000E+00 -0.14699621722E+04  0.14699621722E+04  0.25500000920E-02 0.  1.
    10030    2    1    2    0    0  0.00000000000E+00  0.00000000000E+00 -0.83944470184E+03  0.21004796426E+04  0.19254473042E+04 0.  0.
        5    1    3    3  502    0 -0.45188282975E+03  0.80668643773E+03 -0.71218584121E+03  0.11671211861E+04  0.46999998093E+01 0.  1.
       -5    1    3    3    0  502  0.45188282975E+03 -0.80668643773E+03 -0.12725886063E+03  0.93335845646E+03  0.46999998093E+01 0. -1.
</event>
<event>
 5   0  0.7499834E-04  0.1294863E+04  0.7818609E-02  0.9033649E-01
        1   -1    0    0  501    0  0.00000000000E+00  0.00000000000E+00  0.44047118866E+03  0.44047118869E+03  0.50400001928E-02 0.  1.
       -1   -1    0    0    0  501  0.00000000000E+00  0.00000000000E+00 -0.95163377070E+03  0.95163377071E+03  0.50400001928E-02 0. -1.
    10030    2    1    2    0    0  0.00000000000E+00  0.00000000000E+00 -0.51116258204E+03  0.13921049594E+04  0.12948625536E+04 0.  0.
        3    1    3    3  502    0 -0.38341474103E+03  0.21062065658E+03  0.25754530341E+03  0.50763916133E+03  0.10100000352E+00 0.  1.
       -3    1    3    3    0  502  0.38341474103E+03 -0.21062065658E+03 -0.76870788544E+03  0.88446579807E+03  0.10100000352E+00 0. -1.
</event>
<event>
 5   0  0.7124495E-04  0.1602307E+04  0.7818609E-02  0.8819132E-01
        1   -1    0    0  501    0  0.00000000000E+00  0.00000000000E+00  0.64421229557E+03  0.64421229559E+03  0.50400001928E-02 0.  1.
       -1   -1    0    0    0  501  0.00000000000E+00  0.00000000000E+00 -0.99632873279E+03  0.99632873280E+03  0.50400001928E-02 0. -1.
    10030    2    1    2    0    0  0.00000000000E+00  0.00000000000E+00 -0.35211643722E+03  0.16405410284E+04  0.16023073614E+04 0.  0.
        2    1    3    3  502    0 -0.35583615917E+03  0.16080463061E+03 -0.89230026852E+03  0.97400065226E+03  0.25500000920E-02 0. -1.
       -2    1    3    3    0  502  0.35583615917E+03 -0.16080463061E+03  0.54018383130E+03  0.66654037613E+03  0.25500000920E-02 0.  1.
</event>
<event>
 5   0  0.7124495E-04  0.1602724E+04  0.7818609E-02  0.8818876E-01
       -1   -1    0    0    0  501  0.00000000000E+00  0.00000000000E+00  0.83691231038E+03  0.83691231040E+03  0.50400001928E-02 0.  1.
        1   -1    0    0  501    0  0.00000000000E+00  0.00000000000E+00 -0.76732198758E+03  0.76732198759E+03  0.50400001928E-02 0. -1.
    10030    2    1    2    0    0  0.00000000000E+00  0.00000000000E+00  0.69590322803E+02  0.16042342980E+04  0.16027242027E+04 0.  0.
        2    1    3    3  502    0  0.47929323004E+03 -0.13623325568E+03  0.66300080899E+03  0.82936817701E+03  0.25500000920E-02 0.  1.
       -2    1    3    3    0  502 -0.47929323004E+03  0.13623325568E+03 -0.59341048618E+03  0.77486612098E+03  0.25500000920E-02 0. -1.
</event>
<event>
 5   0  0.1414796E-03  0.1602035E+04  0.7818609E-02  0.8819299E-01
       -2   -1    0    0    0  501  0.00000000000E+00  0.00000000000E+00  0.11796097926E+04  0.11796097926E+04  0.25500000920E-02 0. -1.
        2   -1    0    0  501    0  0.00000000000E+00  0.00000000000E+00 -0.54393333261E+03  0.54393333262E+03  0.25500000920E-02 0.  1.
    10030    2    1    2    0    0  0.00000000000E+00  0.00000000000E+00  0.63567645998E+03  0.17235431252E+04  0.16020350629E+04 0.  0.
        4    1    3    3  502    0 -0.10950124471E+03 -0.34687513992E+03 -0.44995308469E+03  0.57859508865E+03  0.12699999809E+01 0.  1.
       -4    1    3    3    0  502  0.10950124471E+03  0.34687513992E+03  0.10856295447E+04  0.11449480366E+04  0.12699999809E+01 0. -1.
</event>
<event>
 5   0  0.7302027E-04  0.8397960E+03  0.7818609E-02  0.9504136E-01
        1   -1    0    0  501    0  0.00000000000E+00  0.00000000000E+00  0.65953332703E+03  0.65953332704E+03  0.50400001928E-02 0. -1.
       -1   -1    0    0    0  501  0.00000000000E+00  0.00000000000E+00 -0.26733197520E+03  0.26733197525E+03  0.50400001928E-02 0.  1.
    10030    2    1    2    0    0  0.00000000000E+00  0.00000000000E+00  0.39220135182E+03  0.92686530229E+03  0.83979603966E+03 0.  0.
        5    1    3    3  502    0 -0.31430530953E+03  0.43937240128E+02 -0.10730860313E+03  0.33504557149E+03  0.46999998093E+01 0.  1.
       -5    1    3    3    0  502  0.31430530953E+03 -0.43937240128E+02  0.49950995496E+03  0.59181973080E+03  0.46999998093E+01 0. -1.
</event>
<event>
 5   0  0.1339162E-03  0.8713330E+03  0.7818609E-02  0.9462143E-01
       -2   -1    0    0    0  501  0.00000000000E+00  0.00000000000E+00  0.10885445758E+03  0.10885445761E+03  0.25500000920E-02 0.  1.
        2   -1    0    0  501    0  0.00000000000E+00  0.00000000000E+00 -0.17436612843E+04  0.17436612843E+04  0.25500000920E-02 0. -1.
    10030    2    1    2    0    0  0.00000000000E+00  0.00000000000E+00 -0.16348068268E+04  0.18525157420E+04  0.87133300947E+03 0.  0.
        5    1    3    3  502    0  0.39121707111E+03 -0.79496649190E+02 -0.44663286895E+03  0.59906053416E+03  0.46999998093E+01 0.  1.
       -5    1    3    3    0  502 -0.39121707111E+03  0.79496649190E+02 -0.11881739578E+04  0.12534552078E+04  0.46999998093E+01 0. -1.
</event>
<event>
 5   0  0.7124495E-04  0.1537674E+04  0.7818609E-02  0.8859779E-01
       -1   -1    0    0    0  501  0.00000000000E+00  0.00000000000E+00  0.87097515946E+03  0.87097515947E+03  0.50400001928E-02 0.  1.
        1   -1    0    0  501    0  0.00000000000E+00  0.00000000000E+00 -0.67867670587E+03  0.67867670589E+03  0.50400001928E-02 0. -1.
    10030    2    1    2    0    0  0.00000000000E+00  0.00000000000E+00  0.19229845359E+03  0.15496518654E+04  0.15376742856E+04 0.  0.
        2    1    3    3  502    0  0.67447020171E+03  0.29610764191E+01  0.46806548326E+03  0.82097753781E+03  0.25500000920E-02 0.  1.
       -2    1    3    3    0  502 -0.67447020171E+03 -0.29610764191E+01 -0.27576702967E+03  0.72867432755E+03  0.25500000920E-02 0. -1.
</event>
<event>
 5   0  0.1375777E-03  0.1599372E+04  0.7818609E-02  0.8820934E-01
        2   -1    0    0  501    0  0.00000000000E+00  0.00000000000E+00  0.98387616562E+03  0.98387616562E+03  0.25500000920E-02 0.  1.
       -2   -1    0    0    0  501  0.00000000000E+00  0.00000000000E+00 -0.64997764846E+03  0.64997764846E+03  0.25500000920E-02 0. -1.
    10030    2    1    2    0    0  0.00000000000E+00  0.00000000000E+00  0.33389851717E+03  0.16338538141E+04  0.15993717723E+04 0.  0.
        1    1    3    3  502    0 -0.60347914943E+03  0.52436255471E+03  0.18617912439E+03  0.82085677128E+03  0.50400001928E-02 0.  1.
       -1    1    3    3    0  502  0.60347914943E+03 -0.52436255471E+03  0.14771939277E+03  0.81299704280E+03  0.50400001928E-02 0. -1.
</event>
<event>
 5   0  0.7302027E-04  0.1555265E+04  0.7818609E-02  0.8848512E-01
       -1   -1    0    0    0  501  0.00000000000E+00  0.00000000000E+00  0.78076216828E+03  0.78076216830E+03  0.50400001928E-02 0. -1.
        1   -1    0    0  501    0  0.00000000000E+00  0.00000000000E+00 -0.77451550282E+03  0.77451550284E+03  0.50400001928E-02 0.  1.
    10030    2    1    2    0    0  0.00000000000E+00  0.00000000000E+00  0.62466654633E+01  0.15552776711E+04  0.15552651264E+04 0.  0.
        5    1    3    3  502    0  0.16626287838E+03  0.73212602542E+03  0.20570446115E+03  0.77845248869E+03  0.46999998093E+01 0. -1.
       -5    1    3    3    0  502 -0.16626287838E+03 -0.73212602542E+03 -0.19945779569E+03  0.77682518244E+03  0.46999998093E+01 0.  1.
</event>
<event>
 5   0  0.7124495E-04  0.1587623E+04  0.7818609E-02  0.8828188E-01
       -1   -1    0    0    0  501  0.00000000000E+00  0.00000000000E+00  0.47859907927E+03  0.47859907930E+03  0.50400001928E-02 0. -1.
        1   -1    0    0  501    0  0.00000000000E+00  0.00000000000E+00 -0.13166279641E+04  0.13166279641E+04  0.50400001928E-02 0.  1.
    10030    2    1    2    0    0  0.00000000000E+00  0.00000000000E+00 -0.83802888479E+03  0.17952270434E+04  0.15876232946E+04 0.  0.
        2    1    3    3  502    0  0.43583671205E+03  0.28434632000E+03 -0.10968415565E+04  0.12140295999E+04  0.25500000920E-02 0.  1.
       -2    1    3    3    0  502 -0.43583671205E+03 -0.28434632000E+03  0.25881267173E+03  0.58119744349E+03  0.25500000920E-02 0. -1.
</event>
<event>
 5   0  0.1414751E-03  0.1610216E+04  0.7818609E-02  0.8814297E-01
        2   -1    0    0  501    0  0.00000000000E+00  0.00000000000E+00  0.10402666930E+04  0.10402666930E+04  0.25500000920E-02 0.  1.
       -2   -1    0    0    0  501  0.00000000000E+00  0.00000000000E+00 -0.62310800688E+03  0.62310800689E+03  0.25500000920E-02 0. -1.
    10030    2    1    2    0    0  0.00000000000E+00  0.00000000000E+00  0.41715868611E+03  0.16633746999E+04  0.16102155206E+04 0.  0.
        2    1    3    3  502    0  0.76678851573E+03 -0.17017395131E+03  0.39126425830E+03  0.87750300363E+03  0.25500000920E-02 0.  1.
       -2    1    3    3    0  502 -0.76678851573E+03  0.17017395131E+03  0.25894427809E+02  0.78587169624E+03  0.25500000920E-02 0. -1.
</event>
<event>
 5   0  0.1414751E-03  0.1610525E+04  0.7818609E-02  0.8814108E-01
       -2   -1    0    0    0  501  0.00000000000E+00  0.00000000000E+00  0.85364647276E+03  0.85364647277E+03  0.25500000920E-02 0. -1.
        2   -1    0    0  501    0  0.00000000000E+00  0.00000000000E+00 -0.75962090636E+03  0.75962090636E+03  0.25500000920E-02 0.  1.
    10030    2    1    2    0    0  0.00000000000E+00  0.00000000000E+00  0.94025566406E+02  0.16132673791E+04  0.16105250167E+04 0.  0.
        2    1    3    3  502    0  0.15097565653E+03  0.29707393834E+03  0.78133753336E+03  0.84943211309E+03  0.25500000920E-02 0. -1.
       -2    1    3    3    0  502 -0.15097565653E+03 -0.29707393834E+03 -0.68731196696E+03  0.76383526603E+03  0.25500000920E-02 0.  1.
</event>
<event>
 5   0  0.1414796E-03  0.1821389E+04  0.7818609E-02  0.8695007E-01
       -2   -1    0    0    0  501  0.00000000000E+00  0.00000000000E+00  0.34152915219E+03  0.34152915220E+03  0.25500000920E-02 0.  1.
        2   -1    0    0  501    0  0.00000000000E+00  0.00000000000E+00 -0.24283845221E+04  0.24283845221E+04  0.25500000920E-02 0. -1.
    10030    2    1    2    0    0  0.00000000000E+00  0.00000000000E+00 -0.20868553699E+04  0.27699136743E+04  0.18213885989E+04 0.  0.
        4    1    3    3  502    0 -0.11220812074E+03  0.89680926101E+03 -0.87336652339E+03  0.12568326102E+04  0.12699999809E+01 0. -1.
       -4    1    3    3    0  502  0.11220812074E+03 -0.89680926101E+03 -0.12134888466E+04  0.15130810641E+04  0.12699999809E+01 0.  1.
</event>
<event>
 5   0  0.1414751E-03  0.1602236E+04  0.7818609E-02  0.8819175E-01
       -2   -1    0    0    0  501  0.00000000000E+00  0.00000000000E+00  0.62426804333E+03  0.62426804333E+03  0.25500000920E-02 0.  1.
        2   -1    0    0  501    0  0.00000000000E+00  0.00000000000E+00 -0.10280683571E+04  0.10280683571E+04  0.25500000920E-02 0. -1.
    10030    2    1    2    0    0  0.00000000000E+00  0.00000000000E+00 -0.40380031377E+03  0.16523364004E+04  0.16022362144E+04 0.  0.
        2    1    3    3  502    0  0.57565865893E+03 -0.54481395352E+03 -0.81700528469E+02  0.79679364449E+03  0.25500000920E-02 0.  1.
       -2    1    3    3    0  502 -0.57565865893E+03  0.54481395352E+03 -0.32209978530E+03  0.85554275594E+03  0.25500000920E-02 0. -1.
</event>
<event>
 5   0  0.1414751E-03  0.1640874E+04  0.7818609E-02  0.8795823E-01
       -2   -1    0    0    0  501  0.00000000000E+00  0.00000000000E+00  0.78320096492E+03  0.78320096492E+03  0.25500000920E-02 0. -1.
        2   -1    0    0  501    0  0.00000000000E+00  0.00000000000E+00 -0.85944376306E+03  0.85944376306E+03  0.25500000920E-02 0.  1.
    10030    2    1    2    0    0  0.00000000000E+00  0.00000000000E+00 -0.76242798137E+02  0.16426447280E+04  0.16408743822E+04 0.  0.
        2    1    3    3  502    0  0.19247727649E+03 -0.53743254843E+03 -0.62802445133E+03  0.84870251417E+03  0.25500000920E-02 0.  1.
       -2    1    3    3    0  502 -0.19247727649E+03  0.53743254843E+03  0.55178165319E+03  0.79394221382E+03  0.25500000920E-02 0. -1.
</event>
<event>
 5   0  0.1354766E-03  0.1624304E+04  0.7818609E-02  0.8805754E-01
       -2   -1    0    0    0  501  0.00000000000E+00  0.00000000000E+00  0.42387642593E+03  0.42387642593E+03  0.25500000920E-02 0.  1.
        2   -1    0    0  501    0  0.00000000000E+00  0.00000000000E+00 -0.15560930313E+04  0.15560930313E+04  0.25500000920E-02 0. -1.
    10030    2    1    2    0    0  0.00000000000E+00  0.00000000000E+00 -0.11322166054E+04  0.19799694572E+04  0.16243043465E+04 0.  0.
        3    1    3    3  502    0  0.67283520998E+03 -0.36262543489E+03 -0.90079503663E+03  0.11813704474E+04  0.10100000352E+00 0. -1.
       -3    1    3    3    0  502 -0.67283520998E+03  0.36262543489E+03 -0.23142156875E+03  0.79859900982E+03  0.10100000352E+00 0.  1.
</event>
<event>
 5   0  0.7601145E-04  0.1563323E+04  0.7818609E-02  0.8843403E-01
        1   -1    0    0  501    0  0.00000000000E+00  0.00000000000E+00  0.20531850693E+04  0.20531850693E+04  0.50400001928E-02 0. -1.
       -1   -1    0    0    0  501  0.00000000000E+00  0.00000000000E+00 -0.29758373871E+03  0.29758373876E+03  0.50400001928E-02 0.  1.
    10030    2    1    2    0    0  0.00000000000E+00  0.00000000000E+00  0.17556013306E+04  0.23507688081E+04  0.15633227296E+04 0.  0.
        4    1    3    3  502    0  0.77269622508E+03  0.30697332388E+02  0.10491901362E+04  0.13033815011E+04  0.12699999809E+01 0.  1.
       -4    1    3    3    0  502 -0.77269622508E+03 -0.30697332388E+02  0.70641119439E+03  0.10473873070E+04  0.12699999809E+01 0. -1.
</event>
<event>
 5   0  0.7633213E-04  0.1669588E+04  0.7818609E-02  0.8778902E-01
       -1   -1    0    0    0  501  0.00000000000E+00  0.00000000000E+00  0.14195071972E+04  0.14195071972E+04  0.50400001928E-02 0.  1.
        1   -1    0    0  501    0  0.00000000000E+00  0.00000000000E+00 -0.49093190608E+03  0.49093190611E+03  0.50400001928E-02 0. -1.
    10030    2    1    2    0    0  0.00000000000E+00  0.00000000000E+00  0.92857529112E+03  0.19104391033E+04  0.16695884212E+04 0.  0.
        1    1    3    3  502    0 -0.23428950670E+03  0.37015185795E+03  0.12774172009E+04  0.13504438811E+04  0.50400001928E-02 0.  1.
       -1    1    3    3    0  502  0.23428950670E+03 -0.37015185795E+03 -0.34884190975E+03  0.55999522222E+03  0.50400001928E-02 0. -1.
</event>
<event>
 5   0  0.7499834E-04  0.1532398E+04  0.7818609E-02  0.8863190E-01
        1   -1    0    0  501    0  0.00000000000E+00  0.00000000000E+00  0.10504461598E+04  0.10504461598E+04  0.50400001928E-02 0. -1.
       -1   -1    0    0    0  501  0.00000000000E+00  0.00000000000E+00 -0.55886844400E+03  0.55886844403E+03  0.50400001928E-02 0.  1.
    10030    2    1    2    0    0  0.00000000000E+00  0.00000000000E+00  0.49157771578E+03  0.16093146038E+04  0.15323983958E+04 0.  0.
        3    1    3    3  502    0 -0.34556766419E+03  0.67378249769E+03  0.36853726046E+03  0.84215176024E+03  0.10100000352E+00 0. -1.
       -3    1    3    3    0  502  0.34556766419E+03 -0.67378249769E+03  0.12304045532E+03  0.76716284358E+03  0.10100000352E+00 0.  1.
</event>
<event>
 5   0  0.7124495E-04  0.1565396E+04  0.7818609E-02  0.8842093E-01
       -1   -1    0    0    0  501  0.00000000000E+00  0.00000000000E+00  0.48948328447E+03  0.48948328449E+03  0.50400001928E-02 0. -1.
        1   -1    0    0  501    0  0.00000000000E+00  0.00000000000E+00 -0.12515561260E+04  0.12515561260E+04  0.50400001928E-02 0.  1.
    10030    2    1    2    0    0  0.00000000000E+00  0.00000000000E+00 -0.76207284153E+03  0.17410394105E+04  0.15653955453E+04 0.  0.
        2    1    3    3  502    0  0.60971910456E+03  0.34602758650E+02  0.16344523405E+03  0.63219386418E+03  0.25500000920E-02 0.  1.
       -2    1    3    3    0  502 -0.60971910456E+03 -0.34602758650E+02 -0.92551807558E+03  0.11088455463E+04  0.25500000920E-02 0. -1.
</event>
<event>
 5   0  0.7499834E-04  0.1483652E+04  0.7818609E-02  0.8895397E-01
       -1   -1    0    0    0  501  0.00000000000E+00  0.00000000000E+00  0.67643425071E+03  0.67643425073E+03  0.50400001928E-02 0.  1.
        1   -1    0    0  501    0  0.00000000000E+00  0.00000000000E+00 -0.81353978357E+03  0.81353978358E+03  0.50400001928E-02 0. -1.
    10030    2    1    2    0    0  0.00000000000E+00  0.00000000000E+00 -0.13710553286E+03  0.14899740343E+04  0.14836524848E+04 0.  0.
        3    1    3    3  502    0  0.92581196389E+02 -0.59776859206E+03  0.36270399292E+03  0.70530331366E+03  0.10100000352E+00 0.  1.
       -3    1    3    3    0  502 -0.92581196389E+02  0.59776859206E+03 -0.49980952579E+03  0.78467072065E+03  0.10100000352E+00 0. -1.
</event>
<event>
 5   0  0.1414796E-03  0.1575888E+04  0.7818609E-02  0.8835499E-01
        2   -1    0    0  501    0  0.00000000000E+00  0.00000000000E+00  0.86317990287E+03  0.86317990287E+03  0.25500000920E-02 0.  1.
       -2   -1    0    0    0  501  0.00000000000E+00  0.00000000000E+00 -0.71926614371E+03  0.71926614372E+03  0.25500000920E-02 0. -1.
    10030    2    1    2    0    0  0.00000000000E+00  0.00000000000E+00  0.14391375915E+03  0.15824460466E+04  0.15758884225E+04 0.  0.
        4    1    3    3  502    0 -0.39847814194E+03  0.27377174171E+03 -0.55282080004E+03  0.73440332653E+03  0.12699999809E+01 0. -1.
       -4    1    3    3    0  502  0.39847814194E+03 -0.27377174171E+03  0.69673455919E+03  0.84804272006E+03  0.12699999809E+01 0.  1.
</event>
<event>
 5   0  0.1414796E-03  0.1578184E+04  0.7818609E-02  0.8834064E-01
       -2   -1    0    0    0  501  0.00000000000E+00  0.00000000000E+00  0.75688883117E+03  0.75688883118E+03  0.25500000920E-02 0.  1.
        2   -1    0    0  501    0  0.00000000000E+00  0.00000000000E+00 -0.82266535393E+03  0.82266535394E+03  0.25500000920E-02 0. -1.
    10030    2    1    2    0    0  0.00000000000E+00  0.00000000000E+00 -0.65776522761E+02  0.15795541851E+04  0.15781840427E+04 0.  0.
        4    1    3    3  502    0 -0.56384052531E+03  0.11450841550E+02  0.51951240698E+03  0.76677376955E+03  0.12699999809E+01 0.  1.
       -4    1    3    3    0  502  0.56384052531E+03 -0.11450841550E+02 -0.58528892974E+03  0.81278041557E+03  0.12699999809E+01 0. -1.
</event>
<event>
 5   0  0.1414751E-03  0.1150334E+04  0.7818609E-02  0.9157476E-01
        2   -1    0    0  501    0  0.00000000000E+00  0.00000000000E+00  0.37544873409E+03  0.37544873410E+03  0.25500000920E-02 0.  1.
       -2   -1    0    0    0  501  0.00000000000E+00  0.00000000000E+00 -0.88112378814E+03  0.88112378814E+03  0.25500000920E-02 0. -1.
    10030    2    1    2    0    0  0.00000000000E+00  0.00000000000E+00 -0.50567505405E+03  0.12565725222E+04  0.11503335357E+04 0.  0.
        2    1    3    3  502    0  0.18505567781E+03 -0.34694875054E+02 -0.84650753780E+03  0.86719337509E+03  0.25500000920E-02 0. -1.
       -2    1    3    3    0  502 -0.18505567781E+03  0.34694875054E+02  0.34083248375E+03  0.38937914715E+03  0.25500000920E-02 0.  1.
</event>
<event>
 5   0  0.5095750E-04  0.1481562E+04  0.7818609E-02  0.8896807E-01
        3   -1    0    0  501    0  0.00000000000E+00  0.00000000000E+00  0.96486905800E+03  0.96486906329E+03  0.10100000352E+00 0.  1.
       -3   -1    0    0    0  501  0.00000000000E+00  0.00000000000E+00 -0.56873710454E+03  0.56873711351E+03  0.10100000352E+00 0. -1.
    10030    2    1    2    0    0  0.00000000000E+00  0.00000000000E+00  0.39613195346E+03  0.15336061768E+04  0.14815624796E+04 0.  0.
        1    1    3    3  502    0  0.48845129975E+03  0.38659629692E+02  0.77317004490E+03  0.91535302346E+03  0.50400001928E-02 0.  1.
       -1    1    3    3    0  502 -0.48845129975E+03 -0.38659629692E+02 -0.37703809144E+03  0.61825315334E+03  0.50400001928E-02 0. -1.
</event>
<event>
 5   0  0.7601145E-04  0.1583418E+04  0.7818609E-02  0.8830800E-01
        1   -1    0    0  501    0  0.00000000000E+00  0.00000000000E+00  0.49307134267E+03  0.49307134269E+03  0.50400001928E-02 0.  1.
       -1   -1    0    0    0  501  0.00000000000E+00  0.00000000000E+00 -0.12712219456E+04  0.12712219456E+04  0.50400001928E-02 0. -1.
    10030    2    1    2    0    0  0.00000000000E+00  0.00000000000E+00 -0.77815060293E+03  0.17642932883E+04  0.15834179632E+04 0.  0.
        4    1    3    3  502    0 -0.27733220200E+03 -0.49876812474E+03  0.22235095163E+03  0.61247395954E+03  0.12699999809E+01 0.  1.
       -4    1    3    3    0  502  0.27733220200E+03  0.49876812474E+03 -0.10005015546E+04  0.11518193288E+04  0.12699999809E+01 0. -1.
</event>
<event>
 5   0  0.7499834E-04  0.1657821E+04  0.7818609E-02  0.8785793E-01
        1   -1    0    0  501    0  0.00000000000E+00  0.00000000000E+00  0.86871837946E+03  0.86871837947E+03  0.50400001928E-02 0. -1.
       -1   -1    0    0    0  501  0.00000000000E+00  0.00000000000E+00 -0.79092666595E+03  0.79092666597E+03  0.50400001928E-02 0.  1.
    10030    2    1    2    0    0  0.00000000000E+00  0.00000000000E+00  0.77791713507E+02  0.16596450454E+04  0.16578208969E+04 0.  0.
        3    1    3    3  502    0  0.30288226211E+03 -0.73597074853E+03 -0.19309586405E+03  0.81894849063E+03  0.10100000352E+00 0. -1.
       -3    1    3    3    0  502 -0.30288226211E+03  0.73597074853E+03  0.27088757755E+03  0.84069655481E+03  0.10100000352E+00 0.  1.
</event>
<event>
 5   0  0.7601145E-04  0.1594940E+04  0.7818609E-02  0.8823662E-01
       -1   -1    0    0    0  501  0.00000000000E+00  0.00000000000E+00  0.53438798807E+03  0.53438798810E+03  0.50400001928E-02 0.  1.
        1   -1    0    0  501    0  0.00000000000E+00  0.00000000000E+00 -0.11900694119E+04  0.11900694119E+04  0.50400001928E-02 0. -1.
    10030    2    1    2    0    0  0.00000000000E+00  0.00000000000E+00 -0.65568142380E+03  0.17244574000E+04  0.15949404988E+04 0.  0.
        4    1    3    3  502    0  0.70578274704E+03  0.91269778114E+02 -0.71692084690E+03  0.10101666061E+04  0.12699999809E+01 0. -1.
       -4    1    3    3    0  502 -0.70578274704E+03 -0.91269778114E+02  0.61239423100E+02  0.71429079390E+03  0.12699999809E+01 0.  1.
</event>
<event>
 5   0  0.7601145E-04  0.1643756E+04  0.7818609E-02  0.8794109E-01
       -1   -1    0    0    0  501  0.00000000000E+00  0.00000000000E+00  0.46654931445E+03  0.46654931448E+03  0.50400001928E-02 0.  1.
        1   -1    0    0  501    0  0.00000000000E+00  0.00000000000E+00 -0.14478278241E+04  0.14478278241E+04  0.50400001928E-02 0. -1.
    10030    2    1    2    0    0  0.00000000000E+00  0.00000000000E+00 -0.98127850961E+03  0.19143771385E+04  0.16437555521E+04 0.  0.
        4    1    3    3  502    0 -0.45840160617E+03  0.53589606007E+03  0.94874769037E+00  0.70520857394E+03  0.12699999809E+01 0. -1.
       -4    1    3    3    0  502  0.45840160617E+03 -0.53589606007E+03 -0.98222725730E+03  0.12091685646E+04  0.12699999809E+01 0.  1.
</event>
<event>
 5   0  0.1375777E-03  0.1553684E+04  0.7818609E-02  0.8849518E-01
        2   -1    0    0  501    0  0.00000000000E+00  0.00000000000E+00  0.16170153792E+04  0.16170153792E+04  0.25500000920E-02 0.  1.
       -2   -1    0    0    0  501  0.00000000000E+00  0.00000000000E+00 -0.37320830894E+03  0.37320830895E+03  0.25500000920E-02 0. -1.
    10030    2    1    2    0    0  0.00000000000E+00  0.00000000000E+00  0.12438070702E+04  0.19902236881E+04  0.15536841059E+04 0.  0.
        1    1    3    3  502    0  0.34891549185E+03 -0.32771240131E+02  0.15100029681E+04  0.15501370709E+04  0.50400001928E-02 0.  1.
       -1    1    3    3    0  502 -0.34891549185E+03  0.32771240131E+02 -0.26619589789E+03  0.44008661729E+03  0.50400001928E-02 0. -1.
</event>
<event>
 5   0  0.1414751E-03  0.1635566E+04  0.7818609E-02  0.8798992E-01
        2   -1    0    0  501    0  0.00000000000E+00  0.00000000000E+00  0.15590399343E+04  0.15590399343E+04  0.25500000920E-02 0.  1.
       -2   -1    0    0    0  501  0.00000000000E+00  0.00000000000E+00 -0.42896201394E+03  0.42896201394E+03  0.25500000920E-02 0. -1.
    10030    2    1    2    0    0  0.00000000000E+00  0.00000000000E+00  0.11300779204E+04  0.19880019482E+04  0.16355658471E+04 0.  0.
        2    1    3    3  502    0 -0.52495047106E+03 -0.32634955050E+03  0.12158523381E+04  0.13639552537E+04  0.25500000920E-02 0.  1.
       -2    1    3    3    0  502  0.52495047106E+03  0.32634955050E+03 -0.85774417725E+02  0.62404669450E+03  0.25500000920E-02 0. -1.
</event>
<event>
 5   0  0.1354766E-03  0.1568708E+04  0.7818609E-02  0.8840006E-01
       -2   -1    0    0    0  501  0.00000000000E+00  0.00000000000E+00  0.74672557988E+03  0.74672557988E+03  0.25500000920E-02 0.  1.
        2   -1    0    0  501    0  0.00000000000E+00  0.00000000000E+00 -0.82387805424E+03  0.82387805425E+03  0.25500000920E-02 0. -1.
    10030    2    1    2    0    0  0.00000000000E+00  0.00000000000E+00 -0.77152474364E+02  0.15706036341E+04  0.15687075162E+04 0.  0.
        3    1    3    3  502    0 -0.37483164925E+03  0.41509591369E+03  0.51200428778E+03  0.75825575088E+03  0.10100000352E+00 0.  1.
       -3    1    3    3    0  502  0.37483164925E+03 -0.41509591369E+03 -0.58915676214E+03  0.81234788325E+03  0.10100000352E+00 0. -1.
</event>
<event>
 5   0  0.1339162E-03  0.1549643E+04  0.7818609E-02  0.8852096E-01
       -2   -1    0    0    0  501  0.00000000000E+00  0.00000000000E+00  0.10576411984E+04  0.10576411984E+04  0.25500000920E-02 0. -1.
        2   -1    0    0  501    0  0.00000000000E+00  0.00000000000E+00 -0.56762918568E+03  0.56762918568E+03  0.25500000920E-02 0.  1.
    10030    2    1    2    0    0  0.00000000000E+00  0.00000000000E+00  0.49001201277E+03  0.16252703841E+04  0.15496425552E+04 0.  0.
        5    1    3    3  502    0 -0.53817947640E+03 -0.23255259673E+02 -0.33908236019E+03  0.63653506809E+03  0.46999998093E+01 0.  1.
       -5    1    3    3    0  502  0.53817947640E+03  0.23255259673E+02  0.82909437296E+03  0.98873531604E+03  0.46999998093E+01 0. -1.
</event>
<event>
 5   0  0.7302027E-04  0.1068286E+04  0.7818609E-02  0.9236666E-01
        1   -1    0    0  501    0  0.00000000000E+00  0.00000000000E+00  0.71827999891E+03  0.71827999892E+03  0.50400001928E-02 0. -1.
       -1   -1    0    0    0  501  0.00000000000E+00  0.00000000000E+00 -0.39721109871E+03  0.39721109874E+03  0.50400001928E-02 0.  1.
    10030    2    1    2    0    0  0.00000000000E+00  0.00000000000E+00  0.32106890020E+03  0.11154910977E+04  0.10682860807E+04 0.  0.
        5    1    3    3  502    0  0.38126554441E+03  0.18331222205E+03 -0.17994103087E+03  0.45974737704E+03  0.46999998093E+01 0.  1.
       -5    1    3    3    0  502 -0.38126554441E+03 -0.18331222205E+03  0.50100993107E+03  0.65574372062E+03  0.46999998093E+01 0. -1.
</event>
<event>
 5   0  0.7124495E-04  0.1617196E+04  0.7818609E-02  0.8810053E-01
        1   -1    0    0  501    0  0.00000000000E+00  0.00000000000E+00  0.17892073144E+04  0.17892073144E+04  0.50400001928E-02 0.  1.
       -1   -1    0    0    0  501  0.00000000000E+00  0.00000000000E+00 -0.36543036478E+03  0.36543036482E+03  0.50400001928E-02 0. -1.
    10030    2    1    2    0    0  0.00000000000E+00  0.00000000000E+00  0.14237769496E+04  0.21546376792E+04  0.16171959456E+04 0.  0.
        2    1    3    3  502    0 -0.63295260703E+03 -0.36572253262E+03  0.25141742095E+03  0.77304119759E+03  0.25500000920E-02 0.  1.
       -2    1    3    3    0  502  0.63295260703E+03  0.36572253262E+03  0.11723595286E+04  0.13815964816E+04  0.25500000920E-02 0. -1.
</event>
<event>
 5   0  0.7302027E-04  0.1545868E+04  0.7818609E-02  0.8854511E-01
        1   -1    0    0  501    0  0.00000000000E+00  0.00000000000E+00  0.40130979868E+03  0.40130979871E+03  0.50400001928E-02 0.  1.
       -1   -1    0    0    0  501  0.00000000000E+00  0.00000000000E+00 -0.14886929593E+04  0.14886929593E+04  0.50400001928E-02 0. -1.
    10030    2    1    2    0    0  0.00000000000E+00  0.00000000000E+00 -0.10873831606E+04  0.18900027580E+04  0.15458681339E+04 0.  0.
        5    1    3    3  502    0 -0.59757568639E+03  0.38100656043E+03 -0.16657400361E+03  0.72803275251E+03  0.46999998093E+01 0.  1.
       -5    1    3    3    0  502  0.59757568639E+03 -0.38100656043E+03 -0.92080915701E+03  0.11619700055E+04  0.46999998093E+01 0. -1.
</event>
<event>
 5   0  0.1414751E-03  0.1455869E+04  0.7818609E-02  0.8914342E-01
        2   -1    0    0  501    0  0.00000000000E+00  0.00000000000E+00  0.57149021798E+03  0.57149021798E+03  0.25500000920E-02 0.  1.
       -2   -1    0    0    0  501  0.00000000000E+00  0.00000000000E+00 -0.92720456077E+03  0.92720456078E+03  0.25500000920E-02 0. -1.
    10030    2    1    2    0    0  0.00000000000E+00  0.00000000000E+00 -0.35571434279E+03  0.14986947788E+04  0.14558685882E+04 0.  0.
        2    1    3    3  502    0 -0.68010600304E+03 -0.30988160564E+02  0.87372669036E+02  0.68639523947E+03  0.25500000920E-02 0.  1.
       -2    1    3    3    0  502  0.68010600304E+03  0.30988160564E+02 -0.44308701183E+03  0.81229953929E+03  0.25500000920E-02 0. -1.
</event>
<event>
 5   0  0.1375777E-03  0.1276424E+04  0.7818609E-02  0.9048473E-01
        2   -1    0    0  501    0  0.00000000000E+00  0.00000000000E+00  0.18344866370E+04  0.18344866370E+04  0.25500000920E-02 0. -1.
       -2   -1    0    0    0  501  0.00000000000E+00  0.00000000000E+00 -0.22203193489E+03  0.22203193490E+03  0.25500000920E-02 0.  1.
    10030    2    1    2    0    0  0.00000000000E+00  0.00000000000E+00  0.16124547021E+04  0.20565185719E+04  0.12764240950E+04 0.  0.
        1    1    3    3  502    0  0.47174466978E+03 -0.12485022980E+03  0.14352686082E+03  0.50865565282E+03  0.50400001928E-02 0.  1.
       -1    1    3    3    0  502 -0.47174466978E+03  0.12485022980E+03  0.14689278413E+04  0.15478629191E+04  0.50400001928E-02 0. -1.
</event>
<event>
 5   0  0.1375777E-03  0.1620259E+04  0.7818609E-02  0.8808198E-01
       -2   -1    0    0    0  501  0.00000000000E+00  0.00000000000E+00  0.49263416513E+03  0.49263416514E+03  0.25500000920E-02 0. -1.
        2   -1    0    0  501    0  0.00000000000E+00  0.00000000000E+00 -0.13322464756E+04  0.13322464756E+04  0.25500000920E-02 0.  1.
    10030    2    1    2    0    0  0.00000000000E+00  0.00000000000E+00 -0.83961231042E+03  0.18248806407E+04  0.16202593993E+04 0.  0.
        1    1    3    3  502    0 -0.67861663885E+03  0.13483452282E+03  0.54853906529E+02  0.69405319836E+03  0.50400001928E-02 0. -1.
       -1    1    3    3    0  502  0.67861663885E+03 -0.13483452282E+03 -0.89446621695E+03  0.11308274423E+04  0.50400001928E-02 0.  1.
</event>
<event>
 5   0  0.1354766E-03  0.1558935E+04  0.7818609E-02  0.8846180E-01
        2   -1    0    0  501    0  0.00000000000E+00  0.00000000000E+00  0.15209559179E+04  0.15209559179E+04  0.25500000920E-02 0.  1.
       -2   -1    0    0    0  501  0.00000000000E+00  0.00000000000E+00 -0.39946575735E+03  0.39946575736E+03  0.25500000920E-02 0. -1.
    10030    2    1    2    0    0  0.00000000000E+00  0.00000000000E+00  0.11214901606E+04  0.19204216753E+04  0.15589352875E+04 0.  0.
        3    1    3    3  502    0 -0.21054604866E+03 -0.74471655041E+03  0.44625694286E+03  0.89335191740E+03  0.10100000352E+00 0. -1.
       -3    1    3    3    0  502  0.21054604866E+03  0.74471655041E+03  0.67523321771E+03  0.10270697579E+04  0.10100000352E+00 0.  1.
</event>
<event>
 5   0  0.7601145E-04  0.1479848E+04  0.7818609E-02  0.8897965E-01
       -1   -1    0    0    0  501  0.00000000000E+00  0.00000000000E+00  0.56422653817E+03  0.56422653819E+03  0.50400001928E-02 0. -1.
        1   -1    0    0  501    0  0.00000000000E+00  0.00000000000E+00 -0.97033274608E+03  0.97033274609E+03  0.50400001928E-02 0.  1.
    10030    2    1    2    0    0  0.00000000000E+00  0.00000000000E+00 -0.40610620791E+03  0.15345592843E+04  0.14798479465E+04 0.  0.
        4    1    3    3  502    0 -0.72120852066E+03  0.45388881327E+02 -0.38164969945E+02  0.72364359920E+03  0.12699999809E+01 0. -1.
       -4    1    3    3    0  502  0.72120852066E+03 -0.45388881327E+02 -0.36794123797E+03  0.81091568509E+03  0.12699999809E+01 0.  1.
</event>
<event>
 5   0  0.1354766E-03  0.1607281E+04  0.7818609E-02  0.8816087E-01
        2   -1    0    0  501    0  0.00000000000E+00  0.00000000000E+00  0.53131861027E+03  0.53131861028E+03  0.25500000920E-02 0.  1.
       -2   -1    0    0    0  501  0.00000000000E+00  0.00000000000E+00 -0.12155388644E+04  0.12155388644E+04  0.25500000920E-02 0. -1.
    10030    2    1    2    0    0  0.00000000000E+00  0.00000000000E+00 -0.68422025408E+03  0.17468574746E+04  0.16072814566E+04 0.  0.
        3    1    3    3  502    0  0.57766110117E+03  0.48685450874E+03 -0.44231246527E+02  0.75675364146E+03  0.10100000352E+00 0.  1.
       -3    1    3    3    0  502 -0.57766110117E+03 -0.48685450874E+03 -0.63998900755E+03  0.99010383318E+03  0.10100000352E+00 0. -1.
</event>
<event>
 5   0  0.7124495E-04  0.1613108E+04  0.7818609E-02  0.8812535E-01
        1   -1    0    0  501    0  0.00000000000E+00  0.00000000000E+00  0.18197337848E+04  0.18197337848E+04  0.50400001928E-02 0. -1.
       -1   -1    0    0    0  501  0.00000000000E+00  0.00000000000E+00 -0.35748613542E+03  0.35748613545E+03  0.50400001928E-02 0.  1.
    10030    2    1    2    0    0  0.00000000000E+00  0.00000000000E+00  0.14622476494E+04  0.21772199203E+04  0.16131083017E+04 0.  0.
        2    1    3    3  502    0  0.27905433813E+03 -0.71881844522E+03  0.10504033704E+04  0.13030420259E+04  0.25500000920E-02 0.  1.
       -2    1    3    3    0  502 -0.27905433813E+03  0.71881844522E+03  0.41184427903E+03  0.87417789436E+03  0.25500000920E-02 0. -1.
</event>
<event>
 5   0  0.1339162E-03  0.1623227E+04  0.7818609E-02  0.8806405E-01
        2   -1    0    0  501    0  0.00000000000E+00  0.00000000000E+00  0.10744186133E+04  0.10744186133E+04  0.25500000920E-02 0.  1.
       -2   -1    0    0    0  501  0.00000000000E+00  0.00000000000E+00 -0.61309094787E+03  0.61309094788E+03  0.25500000920E-02 0. -1.
    10030    2    1    2    0    0  0.00000000000E+00  0.00000000000E+00  0.46132766539E+03  0.16875095611E+04  0.16232268184E+04 0.  0.
        5    1    3    3  502    0 -0.91921762074E+02 -0.35655086992E+03  0.98257420753E+03  0.10493103909E+04  0.46999998093E+01 0.  1.
       -5    1    3    3    0  502  0.91921762074E+02  0.35655086992E+03 -0.52124654214E+03  0.63819917023E+03  0.46999998093E+01 0. -1.
</event>
<event>
 5   0  0.1354766E-03  0.1610235E+04  0.7818609E-02  0.8814285E-01
        2   -1    0    0  501    0  0.00000000000E+00  0.00000000000E+00  0.12045901395E+04  0.12045901395E+04  0.25500000920E-02 0. -1.
       -2   -1    0    0    0  501  0.00000000000E+00  0.00000000000E+00 -0.53812007427E+03  0.53812007427E+03  0.25500000920E-02 0.  1.
    10030    2    1    2    0    0  0.00000000000E+00  0.00000000000E+00  0.66647006525E+03  0.17427102138E+04  0.16102349336E+04 0.  0.
        3    1    3    3  502    0 -0.32464307895E+03  0.58688997099E+03 -0.14880836978E+03  0.68700575535E+03  0.10100000352E+00 0.  1.
       -3    1    3    3    0  502  0.32464307895E+03 -0.58688997099E+03  0.81527843503E+03  0.10557044584E+04  0.10100000352E+00 0. -1.
</event>
<event>
 5   0  0.7124495E-04  0.1603858E+04  0.7818609E-02  0.8818181E-01
       -1   -1    0    0    0  501  0.00000000000E+00  0.00000000000E+00  0.11554517820E+04  0.11554517820E+04  0.50400001928E-02 0.  1.
        1   -1    0    0  501    0  0.00000000000E+00  0.00000000000E+00 -0.55657058840E+03  0.55657058842E+03  0.50400001928E-02 0. -1.
    10030    2    1    2    0    0  0.00000000000E+00  0.00000000000E+00  0.59888119362E+03  0.17120223704E+04  0.16038584454E+04 0.  0.
        2    1    3    3  502    0 -0.57813148300E+03  0.52890778495E+03  0.48156666962E+03  0.91972056295E+03  0.25500000920E-02 0.  1.
       -2    1    3    3    0  502  0.57813148300E+03 -0.52890778495E+03  0.11731452400E+03  0.79230180750E+03  0.25500000920E-02 0. -1.
</event>
<event>
 5   0  0.7124495E-04  0.1670506E+04  0.7818609E-02  0.8778367E-01
        1   -1    0    0  501    0  0.00000000000E+00  0.00000000000E+00  0.12463550174E+04  0.12463550174E+04  0.50400001928E-02 0. -1.
       -1   -1    0    0    0  501  0.00000000000E+00  0.00000000000E+00 -0.55975026545E+03  0.55975026547E+03  0.50400001928E-02 0.  1.
    10030    2    1    2    0    0  0.00000000000E+00  0.00000000000E+00  0.68660475194E+03  0.18061052829E+04  0.16705059735E+04 0.  0.
        2    1    3    3  502    0 -0.19180063290E+03 -0.36872450200E+03 -0.44000870868E+03  0.60527093510E+03  0.25500000920E-02 0.  1.
       -2    1    3    3    0  502  0.19180063290E+03  0.36872450200E+03  0.11266134606E+04  0.12008343478E+04  0.25500000920E-02 0. -1.
</event>
<event>
 5   0  0.5095750E-04  0.1603873E+04  0.7818609E-02  0.8818172E-01
       -3   -1    0    0    0  501  0.00000000000E+00  0.00000000000E+00  0.10172279246E+04  0.10172279296E+04  0.10100000352E+00 0.  1.
        3   -1    0    0  501    0  0.00000000000E+00  0.00000000000E+00 -0.63221029792E+03  0.63221030598E+03  0.10100000352E+00 0. -1.
    10030    2    1    2    0    0  0.00000000000E+00  0.00000000000E+00  0.38501762668E+03  0.16494382356E+04  0.16038727880E+04 0.  0.
        2    1    3    3  502    0  0.71020874141E+03  0.36574160139E+03  0.12023711335E+03  0.80784920548E+03  0.25500000920E-02 0. -1.
       -2    1    3    3    0  502 -0.71020874141E+03 -0.36574160139E+03  0.26478051333E+03  0.84158903011E+03  0.25500000920E-02 0.  1.
</event>
<event>
 5   0  0.1414751E-03  0.1616805E+04  0.7818609E-02  0.8810290E-01
        2   -1    0    0  501    0  0.00000000000E+00  0.00000000000E+00  0.13436626638E+04  0.13436626638E+04  0.25500000920E-02 0. -1.
       -2   -1    0    0    0  501  0.00000000000E+00  0.00000000000E+00 -0.48636784269E+03  0.48636784270E+03  0.25500000920E-02 0.  1.
    10030    2    1    2    0    0  0.00000000000E+00  0.00000000000E+00  0.85729482114E+03  0.18300305065E+04  0.16168046402E+04 0.  0.
        2    1    3    3  502    0  0.44996086957E+03 -0.29085201151E+03 -0.25654239331E+03  0.59403171323E+03  0.25500000920E-02 0. -1.
       -2    1    3    3    0  502 -0.44996086957E+03  0.29085201151E+03  0.11138372145E+04  0.12359987933E+04  0.25500000920E-02 0.  1.
</event>
<event>
 5   0  0.1414751E-03  0.1604366E+04  0.7818609E-02  0.8817870E-01
        2   -1    0    0  501    0  0.00000000000E+00  0.00000000000E+00  0.19741703464E+04  0.19741703464E+04  0.25500000920E-02 0. -1.
       -2   -1    0    0    0  501  0.00000000000E+00  0.00000000000E+00 -0.32595867376E+03  0.32595867377E+03  0.25500000920E-02 0.  1.
    10030    2    1    2    0    0  0.00000000000E+00  0.00000000000E+00  0.16482116726E+04  0.23001290201E+04  0.16043664767E+04 0.  0.
        2    1    3    3  502    0 -0.25159899794E+03  0.70222553305E+03  0.12471598708E+04  0.14532138516E+04  0.25500000920E-02 0. -1.
       -2    1    3    3    0  502  0.25159899794E+03 -0.70222553305E+03  0.40105180180E+03  0.84691516857E+03  0.25500000920E-02 0.  1.
</event>
<event>
 5   0  0.7499834E-04  0.1530335E+04  0.7818609E-02  0.8864527E-01
        1   -1    0    0  501    0  0.00000000000E+00  0.00000000000E+00  0.15562239437E+04  0.15562239437E+04  0.50400001928E-02 0. -1.
       -1   -1    0    0    0  501  0.00000000000E+00  0.00000000000E+00 -0.37621920454E+03  0.37621920458E+03  0.50400001928E-02 0.  1.
    10030    2    1    2    0    0  0.00000000000E+00  0.00000000000E+00  0.11800047391E+04  0.19324431483E+04  0.15303350407E+04 0.  0.
        3    1    3    3  502    0 -0.70453325663E+03 -0.28771762540E+03  0.48951361011E+03  0.90486028001E+03  0.10100000352E+00 0.  1.
       -3    1    3    3    0  502  0.70453325663E+03  0.28771762540E+03  0.69049112903E+03  0.10275828683E+04  0.10100000352E+00 0. -1.
</event>
<event>
 5   0  0.1414796E-03  0.1573237E+04  0.7818609E-02  0.8837161E-01
       -2   -1    0    0    0  501  0.00000000000E+00  0.00000000000E+00  0.74593407169E+03  0.74593407169E+03  0.25500000920E-02 0. -1.
        2   -1    0    0  501    0  0.00000000000E+00  0.00000000000E+00 -0.82952147800E+03  0.82952147801E+03  0.25500000920E-02 0.  1.
    10030    2    1    2    0    0  0.00000000000E+00  0.00000000000E+00 -0.83587406314E+02  0.15754555497E+04  0.15732365793E+04 0.  0.
        4    1    3    3  502    0 -0.70011757038E+03 -0.10854580262E+03 -0.38406506723E+03  0.80588733231E+03  0.12699999809E+01 0.  1.
       -4    1    3    3    0  502  0.70011757038E+03  0.10854580262E+03  0.30047766091E+03  0.76956821739E+03  0.12699999809E+01 0. -1.
</event>
<event>
 5   0  0.7633213E-04  0.1551756E+04  0.7818609E-02  0.8850747E-01
       -1   -1    0    0    0  501  0.00000000000E+00  0.00000000000E+00  0.33377070618E+03  0.33377070622E+03  0.50400001928E-02 0.  1.
        1   -1    0    0  501    0  0.00000000000E+00  0.00000000000E+00 -0.18035942741E+04  0.18035942741E+04  0.50400001928E-02 0. -1.
    10030    2    1    2    0    0  0.00000000000E+00  0.00000000000E+00 -0.14698235680E+04  0.21373649804E+04  0.15517563399E+04 0.  0.
        1    1    3    3  502    0 -0.53874871864E+03 -0.55315985318E+03 -0.63045799819E+03  0.99685169033E+03  0.50400001928E-02 0. -1.
       -1    1    3    3    0  502  0.53874871864E+03  0.55315985318E+03 -0.83936556977E+03  0.11405132900E+04  0.50400001928E-02 0.  1.
</event>
<event>
 5   0  0.1414751E-03  0.1594042E+04  0.7818609E-02  0.8824217E-01
       -2   -1    0    0    0  501  0.00000000000E+00  0.00000000000E+00  0.51110958737E+03  0.51110958738E+03  0.25500000920E-02 0. -1.
        2   -1    0    0  501    0  0.00000000000E+00  0.00000000000E+00 -0.12428693858E+04  0.12428693858E+04  0.25500000920E-02 0.  1.
    10030    2    1    2    0    0  0.00000000000E+00  0.00000000000E+00 -0.73175979845E+03  0.17539789732E+04  0.15940419806E+04 0.  0.
        2    1    3    3  502    0 -0.44321689635E+02  0.70268374290E+03  0.45111664377E+02  0.70552385996E+03  0.25500000920E-02 0. -1.
       -2    1    3    3    0  502  0.44321689635E+02 -0.70268374290E+03 -0.77687146282E+03  0.10484551132E+04  0.25500000920E-02 0.  1.
</event>
<event>
 5   0  0.7302027E-04  0.1003627E+04  0.7818609E-02  0.9304576E-01
        1   -1    0    0  501    0  0.00000000000E+00  0.00000000000E+00  0.22934520241E+03  0.22934520246E+03  0.50400001928E-02 0.  1.
       -1   -1    0    0    0  501  0.00000000000E+00  0.00000000000E+00 -0.10979812584E+04  0.10979812584E+04  0.50400001928E-02 0. -1.
    10030    2    1    2    0    0  0.00000000000E+00  0.00000000000E+00 -0.86863605601E+03  0.13273264609E+04  0.10036268908E+04 0.  0.
        5    1    3    3  502    0  0.21652015847E+03 -0.31255115542E+03 -0.86738432074E+03  0.94707278159E+03  0.46999998093E+01 0. -1.
       -5    1    3    3    0  502 -0.21652015847E+03  0.31255115542E+03 -0.12517352707E+01  0.38025367929E+03  0.46999998093E+01 0.  1.
</event>
<event>
 5   0  0.1375777E-03  0.1597375E+04  0.7818609E-02  0.8822162E-01
        2   -1    0    0  501    0  0.00000000000E+00  0.00000000000E+00  0.71214233474E+03  0.71214233474E+03  0.25500000920E-02 0. -1.
       -2   -1    0    0    0  501  0.00000000000E+00  0.00000000000E+00 -0.89575041907E+03  0.89575041907E+03  0.25500000920E-02 0.  1.
    10030    2    1    2    0    0  0.00000000000E+00  0.00000000000E+00 -0.18360808433E+03  0.16078927538E+04  0.15973750903E+04 0.  0.
        1    1    3    3  502    0  0.17145799345E+03  0.62276464463E+03 -0.56465034319E+03  0.85794152261E+03  0.50400001928E-02 0.  1.
       -1    1    3    3    0  502 -0.17145799345E+03 -0.62276464463E+03  0.38104225886E+03  0.74995123120E+03  0.50400001928E-02 0. -1.
</event>
<event>
 5   0  0.5095750E-04  0.1615233E+04  0.7818609E-02  0.8811244E-01
        4   -1    0    0  501    0  0.00000000000E+00  0.00000000000E+00  0.92421012521E+03  0.92421099780E+03  0.12699999809E+01 0.  1.
       -4   -1    0    0    0  501  0.00000000000E+00  0.00000000000E+00 -0.70573012098E+03  0.70573126369E+03  0.12699999809E+01 0. -1.
    10030    2    1    2    0    0  0.00000000000E+00  0.00000000000E+00  0.21848000424E+03  0.16299422615E+04  0.16152331917E+04 0.  0.
        2    1    3    3  502    0 -0.37310509889E+03  0.61504064623E+03  0.47968263551E+03  0.86462583940E+03  0.25500000920E-02 0.  1.
       -2    1    3    3    0  502  0.37310509889E+03 -0.61504064623E+03 -0.26120263127E+03  0.76531642209E+03  0.25500000920E-02 0. -1.
</event>
<event>
 5   0  0.7633213E-04  0.1585217E+04  0.7818609E-02  0.8829682E-01
        1   -1    0    0  501    0  0.00000000000E+00  0.00000000000E+00  0.82353086796E+03  0.82353086797E+03  0.50400001928E-02 0. -1.
       -1   -1    0    0    0  501  0.00000000000E+00  0.00000000000E+00 -0.76284702043E+03  0.76284702044E+03  0.50400001928E-02 0.  1.
    10030    2    1    2    0    0  0.00000000000E+00  0.00000000000E+00  0.60683847529E+02  0.15863778884E+04  0.15852167913E+04 0.  0.
        1    1    3    3  502    0 -0.93738748522E+02  0.73489198095E+03  0.31228378227E+03  0.80397408997E+03  0.50400001928E-02 0. -1.
       -1    1    3    3    0  502  0.93738748522E+02 -0.73489198095E+03 -0.25159993474E+03  0.78240379845E+03  0.50400001928E-02 0.  1.
</event>
<event>
 5   0  0.7601145E-04  0.1335312E+04  0.7818609E-02  0.9002022E-01
        1   -1    0    0  501    0  0.00000000000E+00  0.00000000000E+00  0.84496975701E+03  0.84496975702E+03  0.50400001928E-02 0. -1.
       -1   -1    0    0    0  501  0.00000000000E+00  0.00000000000E+00 -0.52755072558E+03  0.52755072560E+03  0.50400001928E-02 0.  1.
    10030    2    1    2    0    0  0.00000000000E+00  0.00000000000E+00  0.31741903143E+03  0.13725204826E+04  0.13353118114E+04 0.  0.
        4    1    3    3  502    0  0.21391111559E+03 -0.29327085285E+03  0.73467826297E+03  0.81946294699E+03  0.12699999809E+01 0. -1.
       -4    1    3    3    0  502 -0.21391111559E+03  0.29327085285E+03 -0.41725923154E+03  0.55305753563E+03  0.12699999809E+01 0.  1.
</event>
<event>
 5   0  0.7601145E-04  0.1576447E+04  0.7818609E-02  0.8835150E-01
       -1   -1    0    0    0  501  0.00000000000E+00  0.00000000000E+00  0.10277108653E+04  0.10277108653E+04  0.50400001928E-02 0.  1.
        1   -1    0    0  501    0  0.00000000000E+00  0.00000000000E+00 -0.60454355074E+03  0.60454355076E+03  0.50400001928E-02 0. -1.
    10030    2    1    2    0    0  0.00000000000E+00  0.00000000000E+00  0.42316731455E+03  0.16322544161E+04  0.15764466063E+04 0.  0.
        4    1    3    3  502    0  0.57385949975E+03 -0.13200396396E+03 -0.33094532228E+03  0.67547478946E+03  0.12699999809E+01 0. -1.
       -4    1    3    3    0  502 -0.57385949975E+03  0.13200396396E+03  0.75411263683E+03  0.95677962660E+03  0.12699999809E+01 0.  1.
</event>
<event>
 5   0  0.1414751E-03  0.1592943E+04  0.7818609E-02  0.8824895E-01
        2   -1    0    0  501    0  0.00000000000E+00  0.00000000000E+00  0.11317858280E+04  0.11317858280E+04  0.25500000920E-02 0.  1.
       -2   -1    0    0    0  501  0.00000000000E+00  0.00000000000E+00 -0.56050100887E+03  0.56050100888E+03  0.25500000920E-02 0. -1.
    10030    2    1    2    0    0  0.00000000000E+00  0.00000000000E+00  0.57128481914E+03  0.16922868369E+04  0.15929433115E+04 0.  0.
        2    1    3    3  502    0  0.45264983580E+03  0.97345926290E+02  0.97413263888E+03  0.10785650195E+04  0.25500000920E-02 0.  1.
       -2    1    3    3    0  502 -0.45264983580E+03 -0.97345926290E+02 -0.40284781974E+03  0.61372181736E+03  0.25500000920E-02 0. -1.
</event>
<event>
 5   0  0.1414751E-03  0.1620878E+04  0.7818609E-02  0.8807824E-01
        2   -1    0    0  501    0  0.00000000000E+00  0.00000000000E+00  0.80810706705E+03  0.80810706705E+03  0.25500000920E-02 0. -1.
       -2   -1    0    0    0  501  0.00000000000E+00  0.00000000000E+00 -0.81277718346E+03  0.81277718346E+03  0.25500000920E-02 0.  1.
    10030    2    1    2    0    0  0.00000000000E+00  0.00000000000E+00 -0.46701164097E+01  0.16208842505E+04  0.16208775227E+04 0.  0.
        2    1    3    3  502    0 -0.57629458336E+03  0.53614323843E+03  0.19065788509E+03  0.80988607105E+03  0.25500000920E-02 0. -1.
       -2    1    3    3    0  502  0.57629458336E+03 -0.53614323843E+03 -0.19532800150E+03  0.81099817947E+03  0.25500000920E-02 0.  1.
</event>
<event>
 5   0  0.1414796E-03  0.1726933E+04  0.7818609E-02  0.8746151E-01
        2   -1    0    0  501    0  0.00000000000E+00  0.00000000000E+00  0.84555647990E+03  0.84555647990E+03  0.25500000920E-02 0.  1.
       -2   -1    0    0    0  501  0.00000000000E+00  0.00000000000E+00 -0.88175559751E+03  0.88175559752E+03  0.25500000920E-02 0. -1.
    10030    2    1    2    0    0  0.00000000000E+00  0.00000000000E+00 -0.36199117619E+02  0.17273120774E+04  0.17269327250E+04 0.  0.
        4    1    3    3  502    0  0.17508868820E+03 -0.70235496937E+03  0.45276280790E+03  0.85378822014E+03  0.12699999809E+01 0.  1.
       -4    1    3    3    0  502 -0.17508868820E+03  0.70235496937E+03 -0.48896192552E+03  0.87352385728E+03  0.12699999809E+01 0. -1.
</event>
<event>
 5   0  0.1339162E-03  0.1631796E+04  0.7818609E-02  0.8801249E-01
        2   -1    0    0  501    0  0.00000000000E+00  0.00000000000E+00  0.10045183142E+04  0.10045183142E+04  0.25500000920E-02 0. -1.
       -2   -1    0    0    0  501  0.00000000000E+00  0.00000000000E+00 -0.66269499624E+03  0.66269499625E+03  0.25500000920E-02 0.  1.
    10030    2    1    2    0    0  0.00000000000E+00  0.00000000000E+00  0.34182331792E+03  0.16672133104E+04  0.16317956495E+04 0.  0.
        5    1    3    3  502    0 -0.10201351782E+03  0.81546906855E+02  0.99375543843E+03  0.10023116368E+04  0.46999998093E+01 0. -1.
       -5    1    3    3    0  502  0.10201351782E+03 -0.81546906855E+02 -0.65193212051E+03  0.66490167362E+03  0.46999998093E+01 0.  1.
</event>
<event>
 5   0  0.1414751E-03  0.1671670E+04  0.7818609E-02  0.8777689E-01
       -2   -1    0    0    0  501  0.00000000000E+00  0.00000000000E+00  0.60038941117E+03  0.60038941118E+03  0.25500000920E-02 0. -1.
        2   -1    0    0  501    0  0.00000000000E+00  0.00000000000E+00 -0.11636116666E+04  0.11636116666E+04  0.25500000920E-02 0.  1.
    10030    2    1    2    0    0  0.00000000000E+00  0.00000000000E+00 -0.56322225544E+03  0.17640010778E+04  0.16716699714E+04 0.  0.
        2    1    3    3  502    0 -0.21523891571E+03  0.62429063395E+03 -0.82231221324E+03  0.10546392571E+04  0.25500000920E-02 0.  1.
       -2    1    3    3    0  502  0.21523891571E+03 -0.62429063395E+03  0.25908995781E+03  0.70936182073E+03  0.25500000920E-02 0. -1.
</event>
<event>
 5   0  0.1375777E-03  0.1604285E+04  0.7818609E-02  0.8817920E-01
       -2   -1    0    0    0  501  0.00000000000E+00  0.00000000000E+00  0.60297392526E+03  0.60297392526E+03  0.25500000920E-02 0. -1.
        2   -1    0    0  501    0  0.00000000000E+00  0.00000000000E+00 -0.10670989174E+04  0.10670989174E+04  0.25500000920E-02 0.  1.
    10030    2    1    2    0    0  0.00000000000E+00  0.00000000000E+00 -0.46412499216E+03  0.16700728427E+04  0.16042852899E+04 0.  0.
        1    1    3    3  502    0  0.40676221858E+03 -0.27665936013E+03 -0.89163488655E+03  0.10183362288E+04  0.50400001928E-02 0.  1.
       -1    1    3    3    0  502 -0.40676221858E+03  0.27665936013E+03  0.42750989439E+03  0.65173661385E+03  0.50400001928E-02 0. -1.
</event>
<event>
 5   0  0.1414796E-03  0.1595877E+04  0.7818609E-02  0.8823085E-01
       -2   -1    0    0    0  501  0.00000000000E+00  0.00000000000E+00  0.12186563837E+04  0.12186563837E+04  0.25500000920E-02 0. -1.
        2   -1    0    0  501    0  0.00000000000E+00  0.00000000000E+00 -0.52246557695E+03  0.52246557695E+03  0.25500000920E-02 0.  1.
    10030    2    1    2    0    0  0.00000000000E+00  0.00000000000E+00  0.69619080679E+03  0.17411219607E+04  0.15958772016E+04 0.  0.
        4    1    3    3  502    0  0.51983265758E+03 -0.56800494492E+03  0.11963627181E+03  0.77921117791E+03  0.12699999809E+01 0.  1.
       -4    1    3    3    0  502 -0.51983265758E+03  0.56800494492E+03  0.57655453498E+03  0.96191078279E+03  0.12699999809E+01 0. -1.
</event>
<event>
 5   0  0.1414796E-03  0.1592306E+04  0.7818609E-02  0.8825289E-01
        2   -1    0    0  501    0  0.00000000000E+00  0.00000000000E+00  0.12389490419E+04  0.12389490419E+04  0.25500000920E-02 0.  1.
       -2   -1    0    0    0  501  0.00000000000E+00  0.00000000000E+00 -0.51161039603E+03  0.51161039603E+03  0.25500000920E-02 0. -1.
    10030    2    1    2    0    0  0.00000000000E+00  0.00000000000E+00  0.72733864586E+03  0.17505594379E+04  0.15923055109E+04 0.  0.
        4    1    3    3  502    0 -0.39138877657E+02 -0.37764507843E+03 -0.40567352848E+03  0.55562602676E+03  0.12699999809E+01 0. -1.
       -4    1    3    3    0  502  0.39138877657E+02  0.37764507843E+03  0.11330121743E+04  0.11949334112E+04  0.12699999809E+01 0.  1.
</event>
<event>
 5   0  0.1339162E-03  0.1606436E+04  0.7818609E-02  0.8816604E-01
        2   -1    0    0  501    0  0.00000000000E+00  0.00000000000E+00  0.97448720109E+03  0.97448720109E+03  0.25500000920E-02 0. -1.
       -2   -1    0    0    0  501  0.00000000000E+00  0.00000000000E+00 -0.66204975284E+03  0.66204975284E+03  0.25500000920E-02 0.  1.
    10030    2    1    2    0    0  0.00000000000E+00  0.00000000000E+00  0.31243744825E+03  0.16365369539E+04  0.16064358196E+04 0.  0.
        5    1    3    3  502    0  0.20242421057E+03 -0.76659280740E+03  0.28706538689E+03  0.84324890734E+03  0.46999998093E+01 0. -1.
       -5    1    3    3    0  502 -0.20242421057E+03  0.76659280740E+03  0.25372061365E+02  0.79328804660E+03  0.46999998093E+01 0.  1.
</event>
<event>
 5   0  0.7601145E-04  0.1684819E+04  0.7818609E-02  0.8770070E-01
       -1   -1    0    0    0  501  0.00000000000E+00  0.00000000000E+00  0.13339634376E+04  0.13339634376E+04  0.50400001928E-02 0. -1.
        1   -1    0    0  501    0  0.00000000000E+00  0.00000000000E+00 -0.53198891237E+03  0.53198891240E+03  0.50400001928E-02 0.  1.
    10030    2    1    2    0    0  0.00000000000E+00  0.00000000000E+00  0.80197452520E+03  0.18659523500E+04  0.16848189913E+04 0.  0.
        4    1    3    3  502    0  0.16544103801E+02  0.46631960213E+03  0.11777645378E+04  0.12668301378E+04  0.12699999809E+01 0. -1.
       -4    1    3    3    0  502 -0.16544103801E+02 -0.46631960213E+03 -0.37579001256E+03  0.59912221219E+03  0.12699999809E+01 0.  1.
</event>
<event>
 5   0  0.1339162E-03  0.1582977E+04  0.7818609E-02  0.8831074E-01
       -2   -1    0    0    0  501  0.00000000000E+00  0.00000000000E+00  0.34113137175E+03  0.34113137176E+03  0.25500000920E-02 0.  1.
        2   -1    0    0  501    0  0.00000000000E+00  0.00000000000E+00 -0.18364022057E+04  0.18364022057E+04  0.25500000920E-02 0. -1.
    10030    2    1    2    0    0  0.00000000000E+00  0.00000000000E+00 -0.14952708339E+04  0.21775335774E+04  0.15829774522E+04 0.  0.
        5    1    3    3  502    0 -0.34070787846E+03  0.65599297294E+03 -0.11367695944E+04  0.13559778169E+04  0.46999998093E+01 0. -1.
       -5    1    3    3    0  502  0.34070787846E+03 -0.65599297294E+03 -0.35850123948E+03  0.82155576056E+03  0.46999998093E+01 0.  1.
</event>
<event>
 5   0  0.1354766E-03  0.1568761E+04  0.7818609E-02  0.8839973E-01
       -2   -1    0    0    0  501  0.00000000000E+00  0.00000000000E+00  0.98617845528E+03  0.98617845529E+03  0.25500000920E-02 0. -1.
        2   -1    0    0  501    0  0.00000000000E+00  0.00000000000E+00 -0.62387568972E+03  0.62387568973E+03  0.25500000920E-02 0.  1.
    10030    2    1    2    0    0  0.00000000000E+00  0.00000000000E+00  0.36230276556E+03  0.16100541450E+04  0.15687609939E+04 0.  0.
        3    1    3    3  502    0 -0.42004201644E+03 -0.35760886007E+03  0.75344296753E+03  0.93380710422E+03  0.10100000352E+00 0. -1.
       -3    1    3    3    0  502  0.42004201644E+03  0.35760886007E+03 -0.39114020197E+03  0.67624704079E+03  0.10100000352E+00 0.  1.
</event>
<event>
 5   0  0.5095750E-04  0.1624124E+04  0.7818609E-02  0.8805863E-01
        4   -1    0    0  501    0  0.00000000000E+00  0.00000000000E+00  0.83950777343E+03  0.83950873405E+03  0.12699999809E+01 0.  1.
       -4   -1    0    0    0  501  0.00000000000E+00  0.00000000000E+00 -0.78551121727E+03  0.78551224393E+03  0.12699999809E+01 0. -1.
    10030    2    1    2    0    0  0.00000000000E+00  0.00000000000E+00  0.53996556153E+02  0.16250209780E+04  0.16241236255E+04 0.  0.
        4    1    3    3  502    0  0.73546667514E+03 -0.47102087322E+02 -0.31423698197E+03  0.80117184836E+03  0.12699999809E+01 0.  1.
       -4    1    3    3    0  502 -0.73546667514E+03  0.47102087322E+02  0.36823353812E+03  0.82384912961E+03  0.12699999809E+01 0. -1.
</event>
<event>
 5   0  0.7633213E-04  0.1624657E+04  0.7818609E-02  0.8805542E-01
        1   -1    0    0  501    0  0.00000000000E+00  0.00000000000E+00  0.13432362738E+04  0.13432362738E+04  0.50400001928E-02 0.  1.
       -1   -1    0    0    0  501  0.00000000000E+00  0.00000000000E+00 -0.49125965822E+03  0.49125965825E+03  0.50400001928E-02 0. -1.
    10030    2    1    2    0    0  0.00000000000E+00  0.00000000000E+00  0.85197661558E+03  0.18344959321E+04  0.16246572473E+04 0.  0.
        1    1    3    3  502    0  0.46686989650E+03 -0.52585347197E+03  0.88519430162E+03  0.11305124174E+04  0.50400001928E-02 0.  1.
       -1    1    3    3    0  502 -0.46686989650E+03  0.52585347197E+03 -0.33217686044E+02  0.70398351467E+03  0.50400001928E-02 0. -1.
</event>
<event>
 5   0  0.7302027E-04  0.1422777E+04  0.7818609E-02  0.8937494E-01
        1   -1    0    0  501    0  0.00000000000E+00  0.00000000000E+00  0.38816770082E+03  0.38816770085E+03  0.50400001928E-02 0. -1.
       -1   -1    0    0    0  501  0.00000000000E+00  0.00000000000E+00 -0.13037502110E+04  0.13037502110E+04  0.50400001928E-02 0.  1.
    10030    2    1    2    0    0  0.00000000000E+00  0.00000000000E+00 -0.91558251015E+03  0.16919179118E+04  0.14227771742E+04 0.  0.
        5    1    3    3  502    0 -0.15237703153E+03  0.70075466321E+02 -0.12798844386E+04  0.12908352323E+04  0.46999998093E+01 0.  1.
       -5    1    3    3    0  502  0.15237703153E+03 -0.70075466321E+02  0.36430192848E+03  0.40108267952E+03  0.46999998093E+01 0. -1.
</event>
<event>
 5   0  0.7302027E-04  0.1592481E+04  0.7818609E-02  0.8825180E-01
        1   -1    0    0  501    0  0.00000000000E+00  0.00000000000E+00  0.64454583375E+03  0.64454583377E+03  0.50400001928E-02 0.  1.
       -1   -1    0    0    0  501  0.00000000000E+00  0.00000000000E+00 -0.98363724666E+03  0.98363724668E+03  0.50400001928E-02 0. -1.
    10030    2    1    2    0    0  0.00000000000E+00  0.00000000000E+00 -0.33909141291E+03  0.16281830805E+04  0.15924814464E+04 0.  0.
        5    1    3    3  502    0  0.96709313891E+02  0.52332218820E+03  0.43598043000E+03  0.68798243393E+03  0.46999998093E+01 0.  1.
       -5    1    3    3    0  502 -0.96709313891E+02 -0.52332218820E+03 -0.77507184290E+03  0.94020064652E+03  0.46999998093E+01 0. -1.
</event>
<event>
 5   0  0.1375777E-03  0.1032654E+04  0.7818609E-02  0.9273438E-01
        2   -1    0    0  501    0  0.00000000000E+00  0.00000000000E+00  0.13175842278E+04  0.13175842278E+04  0.25500000920E-02 0.  1.
       -2   -1    0    0    0  501  0.00000000000E+00  0.00000000000E+00 -0.20233503050E+03  0.20233503051E+03  0.25500000920E-02 0. -1.
    10030    2    1    2    0    0  0.00000000000E+00  0.00000000000E+00  0.11152491973E+04  0.15199192583E+04  0.10326537560E+04 0.  0.
        1    1    3    3  502    0  0.30002654400E+03  0.34297019588E+03  0.20026629993E+03  0.49774599273E+03  0.50400001928E-02 0. -1.
       -1    1    3    3    0  502 -0.30002654400E+03 -0.34297019588E+03  0.91498289738E+03  0.10221732656E+04  0.50400001928E-02 0.  1.
</event>
<event>
 5   0  0.1375777E-03  0.1687340E+04  0.7818609E-02  0.8768618E-01
       -2   -1    0    0    0  501  0.00000000000E+00  0.00000000000E+00  0.48389628447E+03  0.48389628447E+03  0.25500000920E-02 0. -1.
        2   -1    0    0  501    0  0.00000000000E+00  0.00000000000E+00 -0.14709332386E+04  0.14709332386E+04  0.25500000920E-02 0.  1.
    10030    2    1    2    0    0  0.00000000000E+00  0.00000000000E+00 -0.98703695413E+03  0.19548295231E+04  0.16873400711E+04 0.  0.
        1    1    3    3  502    0  0.24483439226E+03  0.16287709942E+02 -0.14286803578E+04  0.14495988182E+04  0.50400001928E-02 0.  1.
       -1    1    3    3    0  502 -0.24483439226E+03 -0.16287709942E+02  0.44164340363E+03  0.50523070485E+03  0.50400001928E-02 0. -1.
</event>
<event>
 5   0  0.7601145E-04  0.1558002E+04  0.7818609E-02  0.8846773E-01
        1   -1    0    0  501    0  0.00000000000E+00  0.00000000000E+00  0.82430598894E+03  0.82430598895E+03  0.50400001928E-02 0. -1.
       -1   -1    0    0    0  501  0.00000000000E+00  0.00000000000E+00 -0.73618575269E+03  0.73618575271E+03  0.50400001928E-02 0.  1.
    10030    2    1    2    0    0  0.00000000000E+00  0.00000000000E+00  0.88120236246E+02  0.15604917417E+04  0.15580017008E+04 0.  0.
        4    1    3    3  502    0 -0.44665619869E+03 -0.38897728856E+02 -0.59400269981E+03  0.74421476297E+03  0.12699999809E+01 0.  1.
       -4    1    3    3    0  502  0.44665619869E+03  0.38897728856E+02  0.68212293606E+03  0.81627697869E+03  0.12699999809E+01 0. -1.
</event>
<event>
 5   0  0.1414751E-03  0.1607269E+04  0.7818609E-02  0.8816095E-01
       -2   -1    0    0    0  501  0.00000000000E+00  0.00000000000E+00  0.56893276120E+03  0.56893276121E+03  0.25500000920E-02 0.  1.
        2   -1    0    0  501    0  0.00000000000E+00  0.00000000000E+00 -0.11351570856E+04  0.11351570856E+04  0.25500000920E-02 0. -1.
    10030    2    1    2    0    0  0.00000000000E+00  0.00000000000E+00 -0.56622432444E+03  0.17040898469E+04  0.16072685589E+04 0.  0.
        2    1    3    3  502    0 -0.19695716469E+03 -0.27509300956E+03  0.48974346496E+03  0.59524528567E+03  0.25500000920E-02 0.  1.
       -2    1    3    3    0  502  0.19695716469E+03  0.27509300956E+03 -0.10559677894E+04  0.11088445612E+04  0.25500000920E-02 0. -1.
</event>
<event>
 5   0  0.5095750E-04  0.1573523E+04  0.7818609E-02  0.8836981E-01
       -3   -1    0    0    0  501  0.00000000000E+00  0.00000000000E+00  0.20520685110E+04  0.20520685135E+04  0.10100000352E+00 0.  1.
        3   -1    0    0  501    0  0.00000000000E+00  0.00000000000E+00 -0.30164390872E+03  0.30164392563E+03  0.10100000352E+00 0. -1.
    10030    2    1    2    0    0  0.00000000000E+00  0.00000000000E+00  0.17504246023E+04  0.23537124391E+04  0.15735234214E+04 0.  0.
        5    1    3    3  502    0  0.67752285956E+03 -0.29225892533E+03  0.12835456499E+04  0.14805282943E+04  0.46999998093E+01 0. -1.
       -5    1    3    3    0  502 -0.67752285956E+03  0.29225892533E+03  0.46687895231E+03  0.87318414482E+03  0.46999998093E+01 0.  1.
</event>
<event>
 5   0  0.1339162E-03  0.1598024E+04  0.7818609E-02  0.8821763E-01
       -2   -1    0    0    0  501  0.00000000000E+00  0.00000000000E+00  0.62298096812E+03  0.62298096812E+03  0.25500000920E-02 0. -1.
        2   -1    0    0  501    0  0.00000000000E+00  0.00000000000E+00 -0.10247825437E+04  0.10247825437E+04  0.25500000920E-02 0.  1.
    10030    2    1    2    0    0  0.00000000000E+00  0.00000000000E+00 -0.40180157560E+03  0.16477635118E+04  0.15980238061E+04 0.  0.
        5    1    3    3  502    0  0.38822802869E+03  0.62811705946E+03  0.11379684912E+03  0.74714379842E+03  0.46999998093E+01 0. -1.
       -5    1    3    3    0  502 -0.38822802869E+03 -0.62811705946E+03 -0.51559842472E+03  0.90061971343E+03  0.46999998093E+01 0.  1.
</event>
<event>
 5   0  0.1339162E-03  0.1598550E+04  0.7818609E-02  0.8821439E-01
        2   -1    0    0  501    0  0.00000000000E+00  0.00000000000E+00  0.72217600793E+03  0.72217600793E+03  0.25500000920E-02 0.  1.
       -2   -1    0    0    0  501  0.00000000000E+00  0.00000000000E+00 -0.88460506746E+03  0.88460506747E+03  0.25500000920E-02 0. -1.
    10030    2    1    2    0    0  0.00000000000E+00  0.00000000000E+00 -0.16242905954E+03  0.16067810754E+04  0.15985500383E+04 0.  0.
        5    1    3    3  502    0  0.15563537116E+03  0.61252938148E+03  0.41059398307E+03  0.75367374962E+03  0.46999998093E+01 0.  1.
       -5    1    3    3    0  502 -0.15563537116E+03 -0.61252938148E+03 -0.57302304261E+03  0.85310732578E+03  0.46999998093E+01 0. -1.
</event>
<event>
 5   0  0.7633213E-04  0.1581003E+04  0.7818609E-02  0.8832305E-01
        1   -1    0    0  501    0  0.00000000000E+00  0.00000000000E+00  0.61563813623E+03  0.61563813625E+03  0.50400001928E-02 0. -1.
       -1   -1    0    0    0  501  0.00000000000E+00  0.00000000000E+00 -0.10150319451E+04  0.10150319452E+04  0.50400001928E-02 0.  1.
    10030    2    1    2    0    0  0.00000000000E+00  0.00000000000E+00 -0.39939380892E+03  0.16306700814E+04  0.15810026881E+04 0.  0.
        1    1    3    3  502    0 -0.60021519799E+03 -0.71520615338E+02 -0.72513067769E+03  0.94402753247E+03  0.50400001928E-02 0.  1.
       -1    1    3    3    0  502  0.60021519799E+03  0.71520615338E+02  0.32573686877E+03  0.68664254894E+03  0.50400001928E-02 0. -1.
</event>
<event>
 5   0  0.7601145E-04  0.1609224E+04  0.7818609E-02  0.8814901E-01
        1   -1    0    0  501    0  0.00000000000E+00  0.00000000000E+00  0.11282725286E+04  0.11282725286E+04  0.50400001928E-02 0. -1.
       -1   -1    0    0    0  501  0.00000000000E+00  0.00000000000E+00 -0.57379814663E+03  0.57379814666E+03  0.50400001928E-02 0.  1.
    10030    2    1    2    0    0  0.00000000000E+00  0.00000000000E+00  0.55447438197E+03  0.17020706753E+04  0.16092242676E+04 0.  0.
        4    1    3    3  502    0  0.44063829492E+03  0.58505681069E+03  0.62953979299E+03  0.96580305578E+03  0.12699999809E+01 0. -1.
       -4    1    3    3    0  502 -0.44063829492E+03 -0.58505681069E+03 -0.75065411016E+02  0.73626761950E+03  0.12699999809E+01 0.  1.
</event>
<event>
 5   0  0.1354766E-03  0.1608200E+04  0.7818609E-02  0.8815526E-01
        2   -1    0    0  501    0  0.00000000000E+00  0.00000000000E+00  0.12517996964E+04  0.12517996964E+04  0.25500000920E-02 0.  1.
       -2   -1    0    0    0  501  0.00000000000E+00  0.00000000000E+00 -0.51651797528E+03  0.51651797528E+03  0.25500000920E-02 0. -1.
    10030    2    1    2    0    0  0.00000000000E+00  0.00000000000E+00  0.73528172109E+03  0.17683176717E+04  0.16082002918E+04 0.  0.
        3    1    3    3  502    0  0.77687140419E+03  0.11270130649E+03  0.55918674205E+03  0.96380526344E+03  0.10100000352E+00 0. -1.
       -3    1    3    3    0  502 -0.77687140419E+03 -0.11270130649E+03  0.17609497904E+03  0.80451240822E+03  0.10100000352E+00 0.  1.
</event>
<event>
 5   0  0.1375777E-03  0.1605257E+04  0.7818609E-02  0.8817325E-01
        2   -1    0    0  501    0  0.00000000000E+00  0.00000000000E+00  0.19041604578E+04  0.19041604578E+04  0.25500000920E-02 0. -1.
       -2   -1    0    0    0  501  0.00000000000E+00  0.00000000000E+00 -0.33831854846E+03  0.33831854847E+03  0.25500000920E-02 0.  1.
    10030    2    1    2    0    0  0.00000000000E+00  0.00000000000E+00  0.15658419093E+04  0.22424790063E+04  0.16052573652E+04 0.  0.
        1    1    3    3  502    0  0.28911274158E+03  0.71266080736E+03  0.46210296604E+03  0.89722391571E+03  0.50400001928E-02 0.  1.
       -1    1    3    3    0  502 -0.28911274158E+03 -0.71266080736E+03  0.11037389433E+04  0.13452550905E+04  0.50400001928E-02 0. -1.
</event>
<event>
 5   0  0.1339162E-03  0.9171710E+03  0.7818609E-02  0.9404368E-01
       -2   -1    0    0    0  501  0.00000000000E+00  0.00000000000E+00  0.22920587910E+03  0.22920587912E+03  0.25500000920E-02 0.  1.
        2   -1    0    0  501    0  0.00000000000E+00  0.00000000000E+00 -0.91751860770E+03  0.91751860770E+03  0.25500000920E-02 0. -1.
    10030    2    1    2    0    0  0.00000000000E+00  0.00000000000E+00 -0.68831272859E+03  0.11467244868E+04  0.91717099623E+03 0.  0.
        5    1    3    3  502    0  0.73943490324E+01  0.40017756618E+03 -0.64355678746E+02  0.40541399119E+03  0.46999998093E+01 0.  1.
       -5    1    3    3    0  502 -0.73943490324E+01 -0.40017756618E+03 -0.62395704985E+03  0.74131049562E+03  0.46999998093E+01 0. -1.
</event>
<event>
 5   0  0.5095750E-04  0.1603916E+04  0.7818609E-02  0.8818146E-01
        4   -1    0    0  501    0  0.00000000000E+00  0.00000000000E+00  0.60558935955E+03  0.60559069122E+03  0.12699999809E+01 0. -1.
       -4   -1    0    0    0  501  0.00000000000E+00  0.00000000000E+00 -0.10619983427E+04  0.10619991021E+04  0.12699999809E+01 0.  1.
    10030    2    1    2    0    0  0.00000000000E+00  0.00000000000E+00 -0.45640898317E+03  0.16675897933E+04  0.16039160074E+04 0.  0.
        3    1    3    3  502    0  0.51722940529E+02 -0.76329636457E+03  0.21842624031E+02  0.76535855203E+03  0.10100000352E+00 0.  1.
       -3    1    3    3    0  502 -0.51722940529E+02  0.76329636457E+03 -0.47825160720E+03  0.90223124127E+03  0.10100000352E+00 0. -1.
</event>
<event>
 5   0  0.1354766E-03  0.1588710E+04  0.7818609E-02  0.8827514E-01
       -2   -1    0    0    0  501  0.00000000000E+00  0.00000000000E+00  0.35981564978E+03  0.35981564979E+03  0.25500000920E-02 0.  1.
        2   -1    0    0  501    0  0.00000000000E+00  0.00000000000E+00 -0.17536752634E+04  0.17536752634E+04  0.25500000920E-02 0. -1.
    10030    2    1    2    0    0  0.00000000000E+00  0.00000000000E+00 -0.13938596136E+04  0.21134909132E+04  0.15887099224E+04 0.  0.
        3    1    3    3  502    0  0.19243243533E+03  0.48465752779E+03  0.10023726088E+03  0.53100911488E+03  0.10100000352E+00 0.  1.
       -3    1    3    3    0  502 -0.19243243533E+03 -0.48465752779E+03 -0.14940968745E+04  0.15824817983E+04  0.10100000352E+00 0. -1.
</event>
<event>
 5   0  0.1414796E-03  0.1560621E+04  0.7818609E-02  0.8845112E-01
        2   -1    0    0  501    0  0.00000000000E+00  0.00000000000E+00  0.19787776499E+04  0.19787776499E+04  0.25500000920E-02 0. -1.
       -2   -1    0    0    0  501  0.00000000000E+00  0.00000000000E+00 -0.30770725442E+03  0.30770725443E+03  0.25500000920E-02 0.  1.
    10030    2    1    2    0    0  0.00000000000E+00  0.00000000000E+00  0.16710703954E+04  0.22864849043E+04  0.15606206942E+04 0.  0.
        4    1    3    3  502    0 -0.14219574091E+03  0.51940804723E+03  0.81962986161E+01  0.53858438566E+03  0.12699999809E+01 0.  1.
       -4    1    3    3    0  502  0.14219574091E+03 -0.51940804723E+03  0.16628740968E+04  0.17479005186E+04  0.12699999809E+01 0. -1.
</event>
<event>
 5   0  0.5095750E-04  0.1593388E+04  0.7818609E-02  0.8824621E-01
       -3   -1    0    0    0  501  0.00000000000E+00  0.00000000000E+00  0.37913031712E+03  0.37913033057E+03  0.10100000352E+00 0.  1.
        3   -1    0    0  501    0  0.00000000000E+00  0.00000000000E+00 -0.16741500862E+04  0.16741500892E+04  0.10100000352E+00 0. -1.
    10030    2    1    2    0    0  0.00000000000E+00  0.00000000000E+00 -0.12950197690E+04  0.20532804198E+04  0.15933876741E+04 0.  0.
        1    1    3    3  502    0 -0.52931401355E+03  0.59543842769E+03 -0.64634023507E+03  0.10259025030E+04  0.50400001928E-02 0. -1.
       -1    1    3    3    0  502  0.52931401355E+03 -0.59543842769E+03 -0.64867953397E+03  0.10273779168E+04  0.50400001928E-02 0.  1.
</event>
<event>
 5   0  0.1354766E-03  0.1575995E+04  0.7818609E-02  0.8835433E-01
       -2   -1    0    0    0  501  0.00000000000E+00  0.00000000000E+00  0.72772695341E+03  0.72772695342E+03  0.25500000920E-02 0. -1.
        2   -1    0    0  501    0  0.00000000000E+00  0.00000000000E+00 -0.85325918527E+03  0.85325918527E+03  0.25500000920E-02 0.  1.
    10030    2    1    2    0    0  0.00000000000E+00  0.00000000000E+00 -0.12553223185E+03  0.15809861387E+04  0.15759945525E+04 0.  0.
        3    1    3    3  502    0 -0.21850481827E+03  0.69728964525E+03  0.23309594193E+03  0.76700126032E+03  0.10100000352E+00 0. -1.
       -3    1    3    3    0  502  0.21850481827E+03 -0.69728964525E+03 -0.35862817378E+03  0.81398487837E+03  0.10100000352E+00 0.  1.
</event>
<event>
 5   0  0.1414796E-03  0.1615386E+04  0.7818609E-02  0.8811151E-01
        2   -1    0    0  501    0  0.00000000000E+00  0.00000000000E+00  0.11577479349E+04  0.11577479349E+04  0.25500000920E-02 0.  1.
       -2   -1    0    0    0  501  0.00000000000E+00  0.00000000000E+00 -0.56348026203E+03  0.56348026203E+03  0.25500000920E-02 0. -1.
    10030    2    1    2    0    0  0.00000000000E+00  0.00000000000E+00  0.59426767291E+03  0.17212281970E+04  0.16153861579E+04 0.  0.
        4    1    3    3  502    0  0.15615936341E+03  0.19924010138E+03 -0.52011754246E+03  0.57845158454E+03  0.12699999809E+01 0. -1.
       -4    1    3    3    0  502 -0.15615936341E+03 -0.19924010138E+03  0.11143852154E+04  0.11427766124E+04  0.12699999809E+01 0.  1.
</event>
<event>
 5   0  0.1375777E-03  0.1631087E+04  0.7818609E-02  0.8801675E-01
       -2   -1    0    0    0  501  0.00000000000E+00  0.00000000000E+00  0.91955567300E+03  0.91955567300E+03  0.25500000920E-02 0.  1.
        2   -1    0    0  501    0  0.00000000000E+00  0.00000000000E+00 -0.72329592580E+03  0.72329592581E+03  0.25500000920E-02 0. -1.
    10030    2    1    2    0    0  0.00000000000E+00  0.00000000000E+00  0.19625974720E+03  0.16428515988E+04  0.16310865971E+04 0.  0.
        1    1    3    3  502    0 -0.19364828080E+02  0.46453248461E+02  0.91799008834E+03  0.91936864378E+03  0.50400001928E-02 0.  1.
       -1    1    3    3    0  502  0.19364828080E+02 -0.46453248461E+02 -0.72173034114E+03  0.72348295502E+03  0.50400001928E-02 0. -1.
</event>
<event>
 5   0  0.7601145E-04  0.1195807E+04  0.7818609E-02  0.9116535E-01
       -1   -1    0    0    0  501  0.00000000000E+00  0.00000000000E+00  0.11579063037E+04  0.11579063038E+04  0.50400001928E-02 0. -1.
        1   -1    0    0  501    0  0.00000000000E+00  0.00000000000E+00 -0.30873710616E+03  0.30873710620E+03  0.50400001928E-02 0.  1.
    10030    2    1    2    0    0  0.00000000000E+00  0.00000000000E+00  0.84916919758E+03  0.14666434100E+04  0.11958070772E+04 0.  0.
        4    1    3    3  502    0 -0.13927637261E+03 -0.17993956336E+01  0.11377281085E+04  0.11462233672E+04  0.12699999809E+01 0. -1.
       -4    1    3    3    0  502  0.13927637261E+03  0.17993956336E+01 -0.28855891094E+03  0.32042004272E+03  0.12699999809E+01 0.  1.
</event>
<event>
 5   0  0.1354766E-03  0.1533258E+04  0.7818609E-02  0.8862633E-01
       -2   -1    0    0    0  501  0.00000000000E+00  0.00000000000E+00  0.12531300756E+04  0.12531300756E+04  0.25500000920E-02 0.  1.
        2   -1    0    0  501    0  0.00000000000E+00  0.00000000000E+00 -0.46900187149E+03  0.46900187149E+03  0.25500000920E-02 0. -1.
    10030    2    1    2    0    0  0.00000000000E+00  0.00000000000E+00  0.78412820409E+03  0.17221319471E+04  0.15332584266E+04 0.  0.
        3    1    3    3  502    0 -0.61449062280E+03  0.43072158459E+03  0.56823059493E+03  0.94127882594E+03  0.10100000352E+00 0. -1.
       -3    1    3    3    0  502  0.61449062280E+03 -0.43072158459E+03  0.21589760916E+03  0.78085312114E+03  0.10100000352E+00 0.  1.
</event>
<event>
 5   0  0.1339162E-03  0.1585074E+04  0.7818609E-02  0.8829770E-01
       -2   -1    0    0    0  501  0.00000000000E+00  0.00000000000E+00  0.30863995488E+03  0.30863995489E+03  0.25500000920E-02 0. -1.
        2   -1    0    0  501    0  0.00000000000E+00  0.00000000000E+00 -0.20351059411E+04  0.20351059411E+04  0.25500000920E-02 0.  1.
    10030    2    1    2    0    0  0.00000000000E+00  0.00000000000E+00 -0.17264659862E+04  0.23437458960E+04  0.15850741381E+04 0.  0.
        5    1    3    3  502    0  0.77267144136E+03  0.14628972359E+03 -0.71782162853E+03  0.10647590431E+04  0.46999998093E+01 0.  1.
       -5    1    3    3    0  502 -0.77267144136E+03 -0.14628972359E+03 -0.10086443577E+04  0.12789868529E+04  0.46999998093E+01 0. -1.
</event>
<event>
 5   0  0.7499834E-04  0.1597356E+04  0.7818609E-02  0.8822174E-01
       -1   -1    0    0    0  501  0.00000000000E+00  0.00000000000E+00  0.31429145872E+03  0.31429145876E+03  0.50400001928E-02 0. -1.
        1   -1    0    0  501    0  0.00000000000E+00  0.00000000000E+00 -0.20296019552E+04  0.20296019552E+04  0.50400001928E-02 0.  1.
    10030    2    1    2    0    0  0.00000000000E+00  0.00000000000E+00 -0.17153104965E+04  0.23438934140E+04  0.15973560144E+04 0.  0.
        3    1    3    3  502    0  0.16473553401E+03  0.31425592269E+03  0.19229256004E+03  0.40357281866E+03  0.10100000352E+00 0. -1.
       -3    1    3    3    0  502 -0.16473553401E+03 -0.31425592269E+03 -0.19076030566E+04  0.19403205953E+04  0.10100000352E+00 0.  1.
</event>
<event>
 5   0  0.7601145E-04  0.1644999E+04  0.7818609E-02  0.8793370E-01
        1   -1    0    0  501    0  0.00000000000E+00  0.00000000000E+00  0.12645634689E+04  0.12645634689E+04  0.50400001928E-02 0. -1.
       -1   -1    0    0    0  501  0.00000000000E+00  0.00000000000E+00 -0.53497163034E+03  0.53497163037E+03  0.50400001928E-02 0.  1.
    10030    2    1    2    0    0  0.00000000000E+00  0.00000000000E+00  0.72959183854E+03  0.17995350993E+04  0.16449991862E+04 0.  0.
        4    1    3    3  502    0 -0.53312558014E+02  0.50954301930E+03 -0.33910139375E+03  0.61438398864E+03  0.12699999809E+01 0.  1.
       -4    1    3    3    0  502  0.53312558014E+02 -0.50954301930E+03  0.10686932323E+04  0.11851511106E+04  0.12699999809E+01 0. -1.
</event>
<event>
 5   0  0.1414796E-03  0.1634743E+04  0.7818609E-02  0.8799484E-01
        2   -1    0    0  501    0  0.00000000000E+00  0.00000000000E+00  0.13138044709E+04  0.13138044709E+04  0.25500000920E-02 0.  1.
       -2   -1    0    0    0  501  0.00000000000E+00  0.00000000000E+00 -0.50852004335E+03  0.50852004336E+03  0.25500000920E-02 0. -1.
    10030    2    1    2    0    0  0.00000000000E+00  0.00000000000E+00  0.80528442753E+03  0.18223245142E+04  0.16347426788E+04 0.  0.
        4    1    3    3  502    0 -0.51835374302E+03  0.20562223284E+03  0.10688126285E+04  0.12055426799E+04  0.12699999809E+01 0.  1.
       -4    1    3    3    0  502  0.51835374302E+03 -0.20562223284E+03 -0.26352820092E+03  0.61678183430E+03  0.12699999809E+01 0. -1.
</event>
<event>
 5   0  0.7499834E-04  0.1584963E+04  0.7818609E-02  0.8829839E-01
       -1   -1    0    0    0  501  0.00000000000E+00  0.00000000000E+00  0.79868737141E+03  0.79868737143E+03  0.50400001928E-02 0. -1.
        1   -1    0    0  501    0  0.00000000000E+00  0.00000000000E+00 -0.78632373681E+03  0.78632373682E+03  0.50400001928E-02 0.  1.
    10030    2    1    2    0    0  0.00000000000E+00  0.00000000000E+00  0.12363634605E+02  0.15850111082E+04  0.15849628872E+04 0.  0.
        3    1    3    3  502    0  0.75418481547E+03 -0.17171066452E+03  0.17866181663E+03  0.79385095775E+03  0.10100000352E+00 0. -1.
       -3    1    3    3    0  502 -0.75418481547E+03  0.17171066452E+03 -0.16629818202E+03  0.79116015050E+03  0.10100000352E+00 0.  1.
</event>
<event>
 5   0  0.1339162E-03  0.1721992E+04  0.7818609E-02  0.8748920E-01
       -2   -1    0    0    0  501  0.00000000000E+00  0.00000000000E+00  0.13740231335E+04  0.13740231335E+04  0.25500000920E-02 0.  1.
        2   -1    0    0  501    0  0.00000000000E+00  0.00000000000E+00 -0.53952066533E+03  0.53952066533E+03  0.25500000920E-02 0. -1.
    10030    2    1    2    0    0  0.00000000000E+00  0.00000000000E+00  0.83450246814E+03  0.19135437988E+04  0.17219917249E+04 0.  0.
        5    1    3    3  502    0  0.21096075520E+03  0.65246560516E+03  0.99581717574E+03  0.12090863260E+04  0.46999998093E+01 0.  1.
       -5    1    3    3    0  502 -0.21096075520E+03 -0.65246560516E+03 -0.16131470759E+03  0.70445747284E+03  0.46999998093E+01 0. -1.
</event>
<event>
 5   0  0.1414751E-03  0.1631521E+04  0.7818609E-02  0.8801414E-01
       -2   -1    0    0    0  501  0.00000000000E+00  0.00000000000E+00  0.70124331434E+03  0.70124331435E+03  0.25500000920E-02 0. -1.
        2   -1    0    0  501    0  0.00000000000E+00  0.00000000000E+00 -0.94897919114E+03  0.94897919114E+03  0.25500000920E-02 0.  1.
    10030    2    1    2    0    0  0.00000000000E+00  0.00000000000E+00 -0.24773587679E+03  0.16502225055E+04  0.16315211470E+04 0.  0.
        2    1    3    3  502    0 -0.20021639543E+03  0.29049559213E+03  0.62008390837E+03  0.71342718442E+03  0.25500000920E-02 0. -1.
       -2    1    3    3    0  502  0.20021639543E+03 -0.29049559213E+03 -0.86781978516E+03  0.93679532107E+03  0.25500000920E-02 0.  1.
</event>
<event>
 5   0  0.1339162E-03  0.1580292E+04  0.7818609E-02  0.8832748E-01
       -2   -1    0    0    0  501  0.00000000000E+00  0.00000000000E+00  0.70218512227E+03  0.70218512228E+03  0.25500000920E-02 0.  1.
        2   -1    0    0  501    0  0.00000000000E+00  0.00000000000E+00 -0.88912539833E+03  0.88912539833E+03  0.25500000920E-02 0. -1.
    10030    2    1    2    0    0  0.00000000000E+00  0.00000000000E+00 -0.18694027606E+03  0.15913105206E+04  0.15802919054E+04 0.  0.
        5    1    3    3  502    0 -0.25900050173E+03 -0.57061614019E+03  0.39115938052E+03  0.73872308094E+03  0.46999998093E+01 0.  1.
       -5    1    3    3    0  502  0.25900050173E+03  0.57061614019E+03 -0.57809965658E+03  0.85258743967E+03  0.46999998093E+01 0. -1.
</event>
<event>
 5   0  0.7302027E-04  0.1627631E+04  0.7818609E-02  0.8803751E-01
       -1   -1    0    0    0  501  0.00000000000E+00  0.00000000000E+00  0.33795728157E+03  0.33795728161E+03  0.50400001928E-02 0. -1.
        1   -1    0    0  501    0  0.00000000000E+00  0.00000000000E+00 -0.19597032744E+04  0.19597032745E+04  0.50400001928E-02 0.  1.
    10030    2    1    2    0    0  0.00000000000E+00  0.00000000000E+00 -0.16217459929E+04  0.22976605561E+04  0.16276313973E+04 0.  0.
        5    1    3    3  502    0  0.46396345138E+03  0.55998088932E+03 -0.29521495543E+03  0.78486600163E+03  0.46999998093E+01 0.  1.
       -5    1    3    3    0  502 -0.46396345138E+03 -0.55998088932E+03 -0.13265310374E+04  0.15127945544E+04  0.46999998093E+01 0. -1.
</event>
<event>
 5   0  0.7601145E-04  0.1555583E+04  0.7818609E-02  0.8848309E-01
        1   -1    0    0  501    0  0.00000000000E+00  0.00000000000E+00  0.11373881884E+04  0.11373881885E+04  0.50400001928E-02 0.  1.
       -1   -1    0    0    0  501  0.00000000000E+00  0.00000000000E+00 -0.53188523472E+03  0.53188523474E+03  0.50400001928E-02 0. -1.
    10030    2    1    2    0    0  0.00000000000E+00  0.00000000000E+00  0.60550295373E+03  0.16692734232E+04  0.15555834707E+04 0.  0.
        4    1    3    3  502    0 -0.65551753670E+03 -0.19918657625E+03 -0.92370980277E+02  0.69131218995E+03  0.12699999809E+01 0. -1.
       -4    1    3    3    0  502  0.65551753670E+03  0.19918657625E+03  0.69787393400E+03  0.97796123325E+03  0.12699999809E+01 0.  1.
</event>
<event>
 5   0  0.1354766E-03  0.1688891E+04  0.7818609E-02  0.8767725E-01
       -2   -1    0    0    0  501  0.00000000000E+00  0.00000000000E+00  0.56554291027E+03  0.56554291027E+03  0.25500000920E-02 0. -1.
        2   -1    0    0  501    0  0.00000000000E+00  0.00000000000E+00 -0.12608919390E+04  0.12608919390E+04  0.25500000920E-02 0.  1.
    10030    2    1    2    0    0  0.00000000000E+00  0.00000000000E+00 -0.69534902872E+03  0.18264348493E+04  0.16888913484E+04 0.  0.
        3    1    3    3  502    0  0.18181211344E+03 -0.82376903883E+03 -0.38867539594E+03  0.92882702778E+03  0.10100000352E+00 0.  1.
       -3    1    3    3    0  502 -0.18181211344E+03  0.82376903883E+03 -0.30667363278E+03  0.89760782148E+03  0.10100000352E+00 0. -1.
</event>
<event>
 5   0  0.7124495E-04  0.1597024E+04  0.7818609E-02  0.8822378E-01
        1   -1    0    0  501    0  0.00000000000E+00  0.00000000000E+00  0.73612550057E+03  0.73612550059E+03  0.50400001928E-02 0.  1.
       -1   -1    0    0    0  501  0.00000000000E+00  0.00000000000E+00 -0.86618566108E+03  0.86618566110E+03  0.50400001928E-02 0. -1.
    10030    2    1    2    0    0  0.00000000000E+00  0.00000000000E+00 -0.13006016051E+03  0.16023111617E+04  0.15970239239E+04 0.  0.
        2    1    3    3  502    0  0.72005300742E+03  0.34269852128E+03 -0.23629155987E+02  0.79779505326E+03  0.25500000920E-02 0. -1.
       -2    1    3    3    0  502 -0.72005300742E+03 -0.34269852128E+03 -0.10643100453E+03  0.80451610843E+03  0.25500000920E-02 0.  1.
</event>
<event>
 5   0  0.1414796E-03  0.1636396E+04  0.7818609E-02  0.8798495E-01
        2   -1    0    0  501    0  0.00000000000E+00  0.00000000000E+00  0.18199310927E+04  0.18199310927E+04  0.25500000920E-02 0. -1.
       -2   -1    0    0    0  501  0.00000000000E+00  0.00000000000E+00 -0.36784237034E+03  0.36784237035E+03  0.25500000920E-02 0.  1.
    10030    2    1    2    0    0  0.00000000000E+00  0.00000000000E+00  0.14520887223E+04  0.21877734630E+04  0.16363957553E+04 0.  0.
        4    1    3    3  502    0 -0.45329268735E+03 -0.46449445558E+03  0.59959463016E+02  0.65178685916E+03  0.12699999809E+01 0.  1.
       -4    1    3    3    0  502  0.45329268735E+03  0.46449445558E+03  0.13921292593E+04  0.15359866038E+04  0.12699999809E+01 0. -1.
</event>
<event>
 5   0  0.7601145E-04  0.1574374E+04  0.7818609E-02  0.8836447E-01
       -1   -1    0    0    0  501  0.00000000000E+00  0.00000000000E+00  0.39454866327E+03  0.39454866330E+03  0.50400001928E-02 0. -1.
        1   -1    0    0  501    0  0.00000000000E+00  0.00000000000E+00 -0.15705635765E+04  0.15705635765E+04  0.50400001928E-02 0.  1.
    10030    2    1    2    0    0  0.00000000000E+00  0.00000000000E+00 -0.11760149132E+04  0.19651122398E+04  0.15743744913E+04 0.  0.
        4    1    3    3  502    0 -0.27245683492E+03  0.73722520537E+03 -0.53319494097E+03  0.94975375140E+03  0.12699999809E+01 0. -1.
       -4    1    3    3    0  502  0.27245683492E+03 -0.73722520537E+03 -0.64281997222E+03  0.10153584884E+04  0.12699999809E+01 0.  1.
</event>
<event>
 5   0  0.7633213E-04  0.1572310E+04  0.7818609E-02  0.8837742E-01
       -1   -1    0    0    0  501  0.00000000000E+00  0.00000000000E+00  0.64451660561E+03  0.64451660563E+03  0.50400001928E-02 0. -1.
        1   -1    0    0  501    0  0.00000000000E+00  0.00000000000E+00 -0.95891924018E+03  0.95891924019E+03  0.50400001928E-02 0.  1.
    10030    2    1    2    0    0  0.00000000000E+00  0.00000000000E+00 -0.31440263456E+03  0.16034358458E+04  0.15723096053E+04 0.  0.
        1    1    3    3  502    0  0.61661390654E+02 -0.43311142382E+03  0.50891532146E+03  0.67110538441E+03  0.50400001928E-02 0. -1.
       -1    1    3    3    0  502 -0.61661390654E+02  0.43311142382E+03 -0.82331795602E+03  0.93233046141E+03  0.50400001928E-02 0.  1.
</event>
<event>
 5   0  0.7302027E-04  0.1561796E+04  0.7818609E-02  0.8844368E-01
        1   -1    0    0  501    0  0.00000000000E+00  0.00000000000E+00  0.64204123139E+03  0.64204123141E+03  0.50400001928E-02 0.  1.
       -1   -1    0    0    0  501  0.00000000000E+00  0.00000000000E+00 -0.94978624051E+03  0.94978624052E+03  0.50400001928E-02 0. -1.
    10030    2    1    2    0    0  0.00000000000E+00  0.00000000000E+00 -0.30774500911E+03  0.15918274719E+04  0.15617963087E+04 0.  0.
        5    1    3    3  502    0  0.48195043894E+02  0.48693365933E+03  0.46639546259E+03  0.67599849731E+03  0.46999998093E+01 0.  1.
       -5    1    3    3    0  502 -0.48195043894E+02 -0.48693365933E+03 -0.77414047170E+03  0.91582897463E+03  0.46999998093E+01 0. -1.
</event>
<event>
 5   0  0.7499834E-04  0.1630486E+04  0.7818609E-02  0.8802035E-01
        1   -1    0    0  501    0  0.00000000000E+00  0.00000000000E+00  0.74387580402E+03  0.74387580404E+03  0.50400001928E-02 0. -1.
       -1   -1    0    0    0  501  0.00000000000E+00  0.00000000000E+00 -0.89345735929E+03  0.89345735931E+03  0.50400001928E-02 0.  1.
    10030    2    1    2    0    0  0.00000000000E+00  0.00000000000E+00 -0.14958155527E+03  0.16373331633E+04  0.16304861993E+04 0.  0.
        3    1    3    3  502    0 -0.84677520586E+02 -0.18035149581E+03  0.71905046295E+03  0.74614376832E+03  0.10100000352E+00 0. -1.
       -3    1    3    3    0  502  0.84677520586E+02  0.18035149581E+03 -0.86863201822E+03  0.89118939503E+03  0.10100000352E+00 0.  1.
</event>
<event>
 5   0  0.1414751E-03  0.1607825E+04  0.7818609E-02  0.8815755E-01
        2   -1    0    0  501    0  0.00000000000E+00  0.00000000000E+00  0.13072110911E+04  0.13072110911E+04  0.25500000920E-02 0.  1.
       -2   -1    0    0    0  501  0.00000000000E+00  0.00000000000E+00 -0.49439263789E+03  0.49439263790E+03  0.25500000920E-02 0. -1.
    10030    2    1    2    0    0  0.00000000000E+00  0.00000000000E+00  0.81281845321E+03  0.18016037290E+04  0.16078252885E+04 0.  0.
        2    1    3    3  502    0  0.78159949565E+03 -0.12775313195E+02  0.61668127541E+03  0.99566900910E+03  0.25500000920E-02 0.  1.
       -2    1    3    3    0  502 -0.78159949565E+03  0.12775313195E+02  0.19613717780E+03  0.80593471990E+03  0.25500000920E-02 0. -1.
</event>
<event>
 5   0  0.7601145E-04  0.1491509E+04  0.7818609E-02  0.8890119E-01
        1   -1    0    0  501    0  0.00000000000E+00  0.00000000000E+00  0.11029910699E+04  0.11029910700E+04  0.50400001928E-02 0.  1.
       -1   -1    0    0    0  501  0.00000000000E+00  0.00000000000E+00 -0.50421943083E+03  0.50421943086E+03  0.50400001928E-02 0. -1.
    10030    2    1    2    0    0  0.00000000000E+00  0.00000000000E+00  0.59877163911E+03  0.16072105008E+04  0.14915086718E+04 0.  0.
        4    1    3    3  502    0 -0.59623768236E+03 -0.23528202566E+03 -0.11135342706E+03  0.65058297248E+03  0.12699999809E+01 0. -1.
       -4    1    3    3    0  502  0.59623768236E+03  0.23528202566E+03  0.71012506618E+03  0.95662752834E+03  0.12699999809E+01 0.  1.
</event>
<event>
 5   0  0.1339162E-03  0.1601405E+04  0.7818609E-02  0.8819685E-01
        2   -1    0    0  501    0  0.00000000000E+00  0.00000000000E+00  0.17443338596E+04  0.17443338596E+04  0.25500000920E-02 0. -1.
       -2   -1    0    0    0  501  0.00000000000E+00  0.00000000000E+00 -0.36754709547E+03  0.36754709548E+03  0.25500000920E-02 0.  1.
    10030    2    1    2    0    0  0.00000000000E+00  0.00000000000E+00  0.13767867641E+04  0.21118809551E+04  0.16014054373E+04 0.  0.
        5    1    3    3  502    0  0.32171453547E+03 -0.41855750779E+03  0.14823001312E+04  0.15735076735E+04  0.46999998093E+01 0. -1.
       -5    1    3    3    0  502 -0.32171453547E+03  0.41855750779E+03 -0.10551336708E+03  0.53837328156E+03  0.46999998093E+01 0.  1.
</event>
<event>
 5   0  0.1414796E-03  0.1595253E+04  0.7818609E-02  0.8823469E-01
        2   -1    0    0  501    0  0.00000000000E+00  0.00000000000E+00  0.66294077041E+03  0.66294077041E+03  0.25500000920E-02 0.  1.
       -2   -1    0    0    0  501  0.00000000000E+00  0.00000000000E+00 -0.95967598624E+03  0.95967598624E+03  0.25500000920E-02 0. -1.
    10030    2    1    2    0    0  0.00000000000E+00  0.00000000000E+00 -0.29673521583E+03  0.16226167567E+04  0.15952533813E+04 0.  0.
        4    1    3    3  502    0 -0.60745948045E+02  0.21475303315E+03  0.63053372124E+03  0.66886719308E+03  0.12699999809E+01 0.  1.
       -4    1    3    3    0  502  0.60745948045E+02 -0.21475303315E+03 -0.92726893707E+03  0.95374956357E+03  0.12699999809E+01 0. -1.
</event>
<event>
 5   0  0.7633213E-04  0.1417889E+04  0.7818609E-02  0.8940970E-01
        1   -1    0    0  501    0  0.00000000000E+00  0.00000000000E+00  0.38654727481E+03  0.38654727484E+03  0.50400001928E-02 0.  1.
       -1   -1    0    0    0  501  0.00000000000E+00  0.00000000000E+00 -0.13002357009E+04  0.13002357010E+04  0.50400001928E-02 0. -1.
    10030    2    1    2    0    0  0.00000000000E+00  0.00000000000E+00 -0.91368842614E+03  0.16867829758E+04  0.14178893706E+04 0.  0.
        1    1    3    3  502    0  0.68140058558E+03  0.55818362427E+02 -0.23371033388E+03  0.72252540980E+03  0.50400001928E-02 0.  1.
       -1    1    3    3    0  502 -0.68140058558E+03 -0.55818362427E+02 -0.67997809225E+03  0.96425756600E+03  0.50400001928E-02 0. -1.
</event>
<event>
 5   0  0.1339162E-03  0.1451993E+04  0.7818609E-02  0.8917020E-01
        2   -1    0    0  501    0  0.00000000000E+00  0.00000000000E+00  0.91031928645E+03  0.91031928646E+03  0.25500000920E-02 0.  1.
       -2   -1    0    0    0  501  0.00000000000E+00  0.00000000000E+00 -0.57899589073E+03  0.57899589073E+03  0.25500000920E-02 0. -1.
    10030    2    1    2    0    0  0.00000000000E+00  0.00000000000E+00  0.33132339572E+03  0.14893151772E+04  0.14519932866E+04 0.  0.
        5    1    3    3  502    0 -0.42621861294E+03 -0.90740445205E+02  0.76123532429E+03  0.87715303304E+03  0.46999998093E+01 0.  1.
       -5    1    3    3    0  502  0.42621861294E+03  0.90740445205E+02 -0.42991192857E+03  0.61216214416E+03  0.46999998093E+01 0. -1.
</event>
<event>
 5   0  0.1375777E-03  0.1551730E+04  0.7818609E-02  0.8850763E-01
       -2   -1    0    0    0  501  0.00000000000E+00  0.00000000000E+00  0.25860664876E+03  0.25860664877E+03  0.25500000920E-02 0.  1.
        2   -1    0    0  501    0  0.00000000000E+00  0.00000000000E+00 -0.23277312414E+04  0.23277312414E+04  0.25500000920E-02 0. -1.
    10030    2    1    2    0    0  0.00000000000E+00  0.00000000000E+00 -0.20691245926E+04  0.25863378901E+04  0.15517303574E+04 0.  0.
        1    1    3    3  502    0  0.48522555029E+03  0.34588340686E+03 -0.18627306923E+04  0.19557210430E+04  0.50400001928E-02 0. -1.
       -1    1    3    3    0  502 -0.48522555029E+03 -0.34588340686E+03 -0.20639390025E+03  0.63061684712E+03  0.50400001928E-02 0.  1.
</event>
<event>
 5   0  0.1354766E-03  0.1617330E+04  0.7818609E-02  0.8809972E-01
       -2   -1    0    0    0  501  0.00000000000E+00  0.00000000000E+00  0.53492481137E+03  0.53492481138E+03  0.25500000920E-02 0.  1.
        2   -1    0    0  501    0  0.00000000000E+00  0.00000000000E+00 -0.12224871052E+04  0.12224871052E+04  0.25500000920E-02 0. -1.
    10030    2    1    2    0    0  0.00000000000E+00  0.00000000000E+00 -0.68756229386E+03  0.17574119166E+04  0.16173295078E+04 0.  0.
        3    1    3    3  502    0  0.69170910686E+03 -0.41555612562E+03 -0.40117955896E+03  0.90116226662E+03  0.10100000352E+00 0. -1.
       -3    1    3    3    0  502 -0.69170910686E+03  0.41555612562E+03 -0.28638273490E+03  0.85624964999E+03  0.10100000352E+00 0.  1.
</event>
<event>
 5   0  0.7633213E-04  0.1605483E+04  0.7818609E-02  0.8817187E-01
        1   -1    0    0  501    0  0.00000000000E+00  0.00000000000E+00  0.66297378507E+03  0.66297378509E+03  0.50400001928E-02 0. -1.
       -1   -1    0    0    0  501  0.00000000000E+00  0.00000000000E+00 -0.97197456368E+03  0.97197456369E+03  0.50400001928E-02 0.  1.
    10030    2    1    2    0    0  0.00000000000E+00  0.00000000000E+00 -0.30900077861E+03  0.16349483488E+04  0.16054826757E+04 0.  0.
        1    1    3    3  502    0 -0.62282888056E+03 -0.26932810189E+03 -0.59125425517E+03  0.90001946380E+03  0.50400001928E-02 0.  1.
       -1    1    3    3    0  502  0.62282888056E+03  0.26932810189E+03  0.28225347656E+03  0.73492888499E+03  0.50400001928E-02 0. -1.
</event>
<event>
 5   0  0.7124495E-04  0.1618268E+04  0.7818609E-02  0.8809403E-01
        1   -1    0    0  501    0  0.00000000000E+00  0.00000000000E+00  0.95729522295E+03  0.95729522296E+03  0.50400001928E-02 0. -1.
       -1   -1    0    0    0  501  0.00000000000E+00  0.00000000000E+00 -0.68390413112E+03  0.68390413114E+03  0.50400001928E-02 0.  1.
    10030    2    1    2    0    0  0.00000000000E+00  0.00000000000E+00  0.27339109183E+03  0.16411993541E+04  0.16182684051E+04 0.  0.
        2    1    3    3  502    0  0.58835761322E+02 -0.33942340007E+03  0.87920951452E+03  0.94428770073E+03  0.25500000920E-02 0. -1.
       -2    1    3    3    0  502 -0.58835761322E+02  0.33942340007E+03 -0.60581842269E+03  0.69691165337E+03  0.25500000920E-02 0.  1.
</event>
<event>
 5   0  0.1375777E-03  0.1637111E+04  0.7818609E-02  0.8798068E-01
        2   -1    0    0  501    0  0.00000000000E+00  0.00000000000E+00  0.13173923472E+04  0.13173923472E+04  0.25500000920E-02 0. -1.
       -2   -1    0    0    0  501  0.00000000000E+00  0.00000000000E+00 -0.50860561459E+03  0.50860561460E+03  0.25500000920E-02 0.  1.
    10030    2    1    2    0    0  0.00000000000E+00  0.00000000000E+00  0.80878673257E+03  0.18259979618E+04  0.16371110462E+04 0.  0.
        1    1    3    3  502    0 -0.51773018428E+03  0.56884316170E+03  0.92075406151E+02  0.77466442204E+03  0.50400001928E-02 0.  1.
       -1    1    3    3    0  502  0.51773018428E+03 -0.56884316170E+03  0.71671132642E+03  0.10513335397E+04  0.50400001928E-02 0. -1.
</event>
<event>
 5   0  0.1354766E-03  0.1981484E+04  0.7818609E-02  0.8615327E-01
        2   -1    0    0  501    0  0.00000000000E+00  0.00000000000E+00  0.12568714175E+04  0.12568714175E+04  0.25500000920E-02 0. -1.
       -2   -1    0    0    0  501  0.00000000000E+00  0.00000000000E+00 -0.78096237880E+03  0.78096237881E+03  0.25500000920E-02 0.  1.
    10030    2    1    2    0    0  0.00000000000E+00  0.00000000000E+00  0.47590903868E+03  0.20378337963E+04  0.19814835776E+04 0.  0.
        3    1    3    3  502    0 -0.66012183079E+03 -0.16655108906E+03  0.97819386243E+03  0.11917899729E+04  0.10100000352E+00 0. -1.
       -3    1    3    3    0  502  0.66012183079E+03  0.16655108906E+03 -0.50228482375E+03  0.84604382341E+03  0.10100000352E+00 0.  1.
</event>
<event>
 5   0  0.7302027E-04  0.1613850E+04  0.7818609E-02  0.8812084E-01
       -1   -1    0    0    0  501  0.00000000000E+00  0.00000000000E+00  0.13447860412E+04  0.13447860412E+04  0.50400001928E-02 0.  1.
        1   -1    0    0  501    0  0.00000000000E+00  0.00000000000E+00 -0.48418729702E+03  0.48418729705E+03  0.50400001928E-02 0. -1.
    10030    2    1    2    0    0  0.00000000000E+00  0.00000000000E+00  0.86059874422E+03  0.18289733383E+04  0.16138504496E+04 0.  0.
        5    1    3    3  502    0 -0.23619513280E+03  0.18562487171E+03 -0.41843521293E+03  0.51512605367E+03  0.46999998093E+01 0. -1.
       -5    1    3    3    0  502  0.23619513280E+03 -0.18562487171E+03  0.12790339572E+04  0.13138472846E+04  0.46999998093E+01 0.  1.
</event>
<event>
 5   0  0.1354766E-03  0.1618069E+04  0.7818609E-02  0.8809524E-01
       -2   -1    0    0    0  501  0.00000000000E+00  0.00000000000E+00  0.34066697464E+03  0.34066697465E+03  0.25500000920E-02 0. -1.
        2   -1    0    0  501    0  0.00000000000E+00  0.00000000000E+00 -0.19213396716E+04  0.19213396716E+04  0.25500000920E-02 0.  1.
    10030    2    1    2    0    0  0.00000000000E+00  0.00000000000E+00 -0.15806726970E+04  0.22620066463E+04  0.16180691867E+04 0.  0.
        3    1    3    3  502    0 -0.24035859186E+03  0.23711131695E+03  0.23747139718E+03  0.41277924365E+03  0.10100000352E+00 0. -1.
       -3    1    3    3    0  502  0.24035859186E+03 -0.23711131695E+03 -0.18181440942E+04  0.18492274026E+04  0.10100000352E+00 0.  1.
</event>
<event>
 5   0  0.7601145E-04  0.1805998E+04  0.7818609E-02  0.8703116E-01
       -1   -1    0    0    0  501  0.00000000000E+00  0.00000000000E+00  0.59460523499E+03  0.59460523501E+03  0.50400001928E-02 0.  1.
        1   -1    0    0  501    0  0.00000000000E+00  0.00000000000E+00 -0.13713420531E+04  0.13713420531E+04  0.50400001928E-02 0. -1.
    10030    2    1    2    0    0  0.00000000000E+00  0.00000000000E+00 -0.77673681809E+03  0.19659472881E+04  0.18059979665E+04 0.  0.
        4    1    3    3  502    0 -0.64537188882E+03  0.23136773793E+03 -0.10280983758E+04  0.12357280398E+04  0.12699999809E+01 0. -1.
       -4    1    3    3    0  502  0.64537188882E+03 -0.23136773793E+03  0.25136155771E+03  0.73021924833E+03  0.12699999809E+01 0.  1.
</event>
<event>
 5   0  0.7601145E-04  0.1585723E+04  0.7818609E-02  0.8829367E-01
        1   -1    0    0  501    0  0.00000000000E+00  0.00000000000E+00  0.12071731791E+04  0.12071731791E+04  0.50400001928E-02 0. -1.
       -1   -1    0    0    0  501  0.00000000000E+00  0.00000000000E+00 -0.52074480831E+03  0.52074480834E+03  0.50400001928E-02 0.  1.
    10030    2    1    2    0    0  0.00000000000E+00  0.00000000000E+00  0.68642837079E+03  0.17279179874E+04  0.15857227573E+04 0.  0.
        4    1    3    3  502    0 -0.11121751589E+03 -0.11977102310E+03 -0.50218684188E+03  0.52811709959E+03  0.12699999809E+01 0.  1.
       -4    1    3    3    0  502  0.11121751589E+03  0.11977102310E+03  0.11886152127E+04  0.11998008879E+04  0.12699999809E+01 0. -1.
</event>
<event>
 5   0  0.1354766E-03  0.1592345E+04  0.7818609E-02  0.8825265E-01
       -2   -1    0    0    0  501  0.00000000000E+00  0.00000000000E+00  0.48114665062E+03  0.48114665062E+03  0.25500000920E-02 0. -1.
        2   -1    0    0  501    0  0.00000000000E+00  0.00000000000E+00 -0.13174583622E+04  0.13174583622E+04  0.25500000920E-02 0.  1.
    10030    2    1    2    0    0  0.00000000000E+00  0.00000000000E+00 -0.83631171155E+03  0.17986050128E+04  0.15923450358E+04 0.  0.
        3    1    3    3  502    0  0.41546474577E+03 -0.47307990583E+03 -0.96859292682E+03  0.11552436195E+04  0.10100000352E+00 0.  1.
       -3    1    3    3    0  502 -0.41546474577E+03  0.47307990583E+03  0.13228121527E+03  0.64336139330E+03  0.10100000352E+00 0. -1.
</event>
<event>
 5   0  0.7302027E-04  0.1543761E+04  0.7818609E-02  0.8855863E-01
       -1   -1    0    0    0  501  0.00000000000E+00  0.00000000000E+00  0.67724576214E+03  0.67724576215E+03  0.50400001928E-02 0. -1.
        1   -1    0    0  501    0  0.00000000000E+00  0.00000000000E+00 -0.87973905502E+03  0.87973905504E+03  0.50400001928E-02 0.  1.
    10030    2    1    2    0    0  0.00000000000E+00  0.00000000000E+00 -0.20249329289E+03  0.15569848172E+04  0.15437610525E+04 0.  0.
        5    1    3    3  502    0 -0.68291293999E+02  0.51151875055E+03  0.47765818795E+03  0.70320307700E+03  0.46999998093E+01 0. -1.
       -5    1    3    3    0  502  0.68291293999E+02 -0.51151875055E+03 -0.68015148083E+03  0.85378174019E+03  0.46999998093E+01 0.  1.
</event>
<event>
 5   0  0.7633213E-04  0.1427277E+04  0.7818609E-02  0.8934308E-01
       -1   -1    0    0    0  501  0.00000000000E+00  0.00000000000E+00  0.25655809220E+03  0.25655809225E+03  0.50400001928E-02 0. -1.
        1   -1    0    0  501    0  0.00000000000E+00  0.00000000000E+00 -0.19850457697E+04  0.19850457697E+04  0.50400001928E-02 0.  1.
    10030    2    1    2    0    0  0.00000000000E+00  0.00000000000E+00 -0.17284876775E+04  0.22416038620E+04  0.14272765053E+04 0.  0.
        1    1    3    3  502    0  0.50792891026E+03 -0.40627633980E+03 -0.40306095883E+03  0.76518649930E+03  0.50400001928E-02 0. -1.
       -1    1    3    3    0  502 -0.50792891026E+03  0.40627633980E+03 -0.13254267187E+04  0.14764173627E+04  0.50400001928E-02 0.  1.
</event>
<event>
 5   0  0.7601145E-04  0.1602775E+04  0.7818609E-02  0.8818845E-01
       -1   -1    0    0    0  501  0.00000000000E+00  0.00000000000E+00  0.91550118812E+03  0.91550118813E+03  0.50400001928E-02 0.  1.
        1   -1    0    0  501    0  0.00000000000E+00  0.00000000000E+00 -0.70149798345E+03  0.70149798347E+03  0.50400001928E-02 0. -1.
    10030    2    1    2    0    0  0.00000000000E+00  0.00000000000E+00  0.21400320467E+03  0.16169991716E+04  0.16027753895E+04 0.  0.
        4    1    3    3  502    0 -0.22165882271E+03  0.23650297748E+03 -0.63241070255E+03  0.71064140158E+03  0.12699999809E+01 0. -1.
       -4    1    3    3    0  502  0.22165882271E+03 -0.23650297748E+03  0.84641390722E+03  0.90635777002E+03  0.12699999809E+01 0.  1.
</event>
<event>
 5   0  0.1414751E-03  0.1519435E+04  0.7818609E-02  0.8871631E-01
       -2   -1    0    0    0  501  0.00000000000E+00  0.00000000000E+00  0.61736832050E+03  0.61736832050E+03  0.25500000920E-02 0.  1.
        2   -1    0    0  501    0  0.00000000000E+00  0.00000000000E+00 -0.93488820890E+03  0.93488820890E+03  0.25500000920E-02 0. -1.
    10030    2    1    2    0    0  0.00000000000E+00  0.00000000000E+00 -0.31751988840E+03  0.15522565294E+04  0.15194345835E+04 0.  0.
        2    1    3    3  502    0 -0.69321850720E+03 -0.25893434928E+03 -0.33443816576E+03  0.81206390307E+03  0.25500000920E-02 0. -1.
       -2    1    3    3    0  502  0.69321850720E+03  0.25893434928E+03  0.16918277354E+02  0.74019262633E+03  0.25500000920E-02 0.  1.
</event>
<event>
 5   0  0.1414751E-03  0.1604705E+04  0.7818609E-02  0.8817663E-01
       -2   -1    0    0    0  501  0.00000000000E+00  0.00000000000E+00  0.64909870783E+03  0.64909870784E+03  0.25500000920E-02 0.  1.
        2   -1    0    0  501    0  0.00000000000E+00  0.00000000000E+00 -0.99179027913E+03  0.99179027913E+03  0.25500000920E-02 0. -1.
    10030    2    1    2    0    0  0.00000000000E+00  0.00000000000E+00 -0.34269157130E+03  0.16408889870E+04  0.16047053170E+04 0.  0.
        2    1    3    3  502    0 -0.17280208791E+03  0.66649570275E+03  0.24988052982E+03  0.73247345519E+03  0.25500000920E-02 0.  1.
       -2    1    3    3    0  502  0.17280208791E+03 -0.66649570275E+03 -0.59257210111E+03  0.90841553179E+03  0.25500000920E-02 0. -1.
</event>
<event>
 5   0  0.1414751E-03  0.1611958E+04  0.7818609E-02  0.8813235E-01
        2   -1    0    0  501    0  0.00000000000E+00  0.00000000000E+00  0.65032349802E+03  0.65032349803E+03  0.25500000920E-02 0.  1.
       -2   -1    0    0    0  501  0.00000000000E+00  0.00000000000E+00 -0.99889084942E+03  0.99889084943E+03  0.25500000920E-02 0. -1.
    10030    2    1    2    0    0  0.00000000000E+00  0.00000000000E+00 -0.34856735140E+03  0.16492143475E+04  0.16119580532E+04 0.  0.
        2    1    3    3  502    0  0.76991794155E+03 -0.22211453660E+03 -0.85716835659E+02  0.80588825529E+03  0.25500000920E-02 0.  1.
       -2    1    3    3    0  502 -0.76991794155E+03  0.22211453660E+03 -0.26285051574E+03  0.84332609217E+03  0.25500000920E-02 0. -1.
</event>
<event>
 5   0  0.7124495E-04  0.1620731E+04  0.7818609E-02  0.8807912E-01
       -1   -1    0    0    0  501  0.00000000000E+00  0.00000000000E+00  0.12319539825E+04  0.12319539825E+04  0.50400001928E-02 0. -1.
        1   -1    0    0  501    0  0.00000000000E+00  0.00000000000E+00 -0.53304952676E+03  0.53304952678E+03  0.50400001928E-02 0.  1.
    10030    2    1    2    0    0  0.00000000000E+00  0.00000000000E+00  0.69890445571E+03  0.17650035093E+04  0.16207313008E+04 0.  0.
        2    1    3    3  502    0  0.66956064545E+03 -0.10055580406E+03  0.83436382926E+03  0.10745166017E+04  0.25500000920E-02 0.  1.
       -2    1    3    3    0  502 -0.66956064545E+03  0.10055580406E+03 -0.13545937355E+03  0.69048690760E+03  0.25500000920E-02 0. -1.
</event>
<event>
 5   0  0.7601145E-04  0.1655068E+04  0.7818609E-02  0.8787414E-01
        1   -1    0    0  501    0  0.00000000000E+00  0.00000000000E+00  0.11922644454E+04  0.11922644454E+04  0.50400001928E-02 0.  1.
       -1   -1    0    0    0  501  0.00000000000E+00  0.00000000000E+00 -0.57437970654E+03  0.57437970656E+03  0.50400001928E-02 0. -1.
    10030    2    1    2    0    0  0.00000000000E+00  0.00000000000E+00  0.61788473887E+03  0.17666441520E+04  0.16550679772E+04 0.  0.
        4    1    3    3  502    0 -0.50825657415E+03  0.49746882933E+03 -0.14267744924E+03  0.72536780239E+03  0.12699999809E+01 0. -1.
       -4    1    3    3    0  502  0.50825657415E+03 -0.49746882933E+03  0.76056218810E+03  0.10412763496E+04  0.12699999809E+01 0.  1.
</event>
<event>
 5   0  0.7499834E-04  0.1650700E+04  0.7818609E-02  0.8789992E-01
        1   -1    0    0  501    0  0.00000000000E+00  0.00000000000E+00  0.12666572532E+04  0.12666572532E+04  0.50400001928E-02 0.  1.
       -1   -1    0    0    0  501  0.00000000000E+00  0.00000000000E+00 -0.53779561053E+03  0.53779561056E+03  0.50400001928E-02 0. -1.
    10030    2    1    2    0    0  0.00000000000E+00  0.00000000000E+00  0.72886164263E+03  0.18044528637E+04  0.16507001070E+04 0.  0.
        3    1    3    3  502    0 -0.31334248160E+03 -0.57229227083E+03  0.91698319527E+03  0.11254155431E+04  0.10100000352E+00 0.  1.
       -3    1    3    3    0  502  0.31334248160E+03  0.57229227083E+03 -0.18812155265E+03  0.67903732063E+03  0.10100000352E+00 0. -1.
</event>
<event>
 5   0  0.1339162E-03  0.1551550E+04  0.7818609E-02  0.8850878E-01
       -2   -1    0    0    0  501  0.00000000000E+00  0.00000000000E+00  0.85795570635E+03  0.85795570636E+03  0.25500000920E-02 0. -1.
        2   -1    0    0  501    0  0.00000000000E+00  0.00000000000E+00 -0.70146649436E+03  0.70146649437E+03  0.25500000920E-02 0.  1.
    10030    2    1    2    0    0  0.00000000000E+00  0.00000000000E+00  0.15648921199E+03  0.15594222007E+04  0.15515504267E+04 0.  0.
        5    1    3    3  502    0 -0.29248960469E+03 -0.56057364617E+03  0.52998249716E+03  0.82504334366E+03  0.46999998093E+01 0. -1.
       -5    1    3    3    0  502  0.29248960469E+03  0.56057364617E+03 -0.37349328517E+03  0.73437885706E+03  0.46999998093E+01 0.  1.
</event>
<event>
 5   0  0.7601145E-04  0.1626405E+04  0.7818609E-02  0.8804489E-01
       -1   -1    0    0    0  501  0.00000000000E+00  0.00000000000E+00  0.49405486947E+03  0.49405486949E+03  0.50400001928E-02 0. -1.
        1   -1    0    0  501    0  0.00000000000E+00  0.00000000000E+00 -0.13385112024E+04  0.13385112024E+04  0.50400001928E-02 0.  1.
    10030    2    1    2    0    0  0.00000000000E+00  0.00000000000E+00 -0.84445633292E+03  0.18325660719E+04  0.16264045959E+04 0.  0.
        4    1    3    3  502    0 -0.34214944836E+02 -0.25564323200E+03 -0.12912013895E+04  0.13167105854E+04  0.12699999809E+01 0.  1.
       -4    1    3    3    0  502  0.34214944836E+02  0.25564323200E+03  0.44674505656E+03  0.51585548652E+03  0.12699999809E+01 0. -1.
</event>
<event>
 5   0  0.1339162E-03  0.1003320E+04  0.7818609E-02  0.9304911E-01
        2   -1    0    0  501    0  0.00000000000E+00  0.00000000000E+00  0.14810448595E+04  0.14810448595E+04  0.25500000920E-02 0.  1.
       -2   -1    0    0    0  501  0.00000000000E+00  0.00000000000E+00 -0.16992239997E+03  0.16992239999E+03  0.25500000920E-02 0. -1.
    10030    2    1    2    0    0  0.00000000000E+00  0.00000000000E+00  0.13111224595E+04  0.16509672595E+04  0.10033198832E+04 0.  0.
        5    1    3    3  502    0 -0.11917773959E+03  0.46282083393E+03  0.90638138224E+03  0.10246734885E+04  0.46999998093E+01 0.  1.
       -5    1    3    3    0  502  0.11917773959E+03 -0.46282083393E+03  0.40474107727E+03  0.62629377098E+03  0.46999998093E+01 0. -1.
</event>
<event>
 5   0  0.7601145E-04  0.1311835E+04  0.7818609E-02  0.9020232E-01
       -1   -1    0    0    0  501  0.00000000000E+00  0.00000000000E+00  0.47084265236E+03  0.47084265239E+03  0.50400001928E-02 0. -1.
        1   -1    0    0  501    0  0.00000000000E+00  0.00000000000E+00 -0.91374064254E+03  0.91374064256E+03  0.50400001928E-02 0.  1.
    10030    2    1    2    0    0  0.00000000000E+00  0.00000000000E+00 -0.44289799018E+03  0.13845832949E+04  0.13118354588E+04 0.  0.
        4    1    3    3  502    0  0.59193037312E+03 -0.14927856271E+03  0.31773992528E+02  0.61129113801E+03  0.12699999809E+01 0. -1.
       -4    1    3    3    0  502 -0.59193037312E+03  0.14927856271E+03 -0.47467198271E+03  0.77329215694E+03  0.12699999809E+01 0.  1.
</event>
<event>
 5   0  0.5095750E-04  0.1637887E+04  0.7818609E-02  0.8797605E-01
       -3   -1    0    0    0  501  0.00000000000E+00  0.00000000000E+00  0.46987846191E+03  0.46987847277E+03  0.10100000352E+00 0.  1.
        3   -1    0    0  501    0  0.00000000000E+00  0.00000000000E+00 -0.14273232661E+04  0.14273232696E+04  0.10100000352E+00 0. -1.
    10030    2    1    2    0    0  0.00000000000E+00  0.00000000000E+00 -0.95744480416E+03  0.18972017424E+04  0.16378870225E+04 0.  0.
        2    1    3    3  502    0 -0.11323229440E+03 -0.69294637302E+03  0.95243573060E+01  0.70220149655E+03  0.25500000920E-02 0.  1.
       -2    1    3    3    0  502  0.11323229440E+03  0.69294637302E+03 -0.96696916146E+03  0.11950002459E+04  0.25500000920E-02 0. -1.
</event>
<event>
 5   0  0.7499834E-04  0.1612174E+04  0.7818609E-02  0.8813104E-01
        1   -1    0    0  501    0  0.00000000000E+00  0.00000000000E+00  0.11097274644E+04  0.11097274644E+04  0.50400001928E-02 0.  1.
       -1   -1    0    0    0  501  0.00000000000E+00  0.00000000000E+00 -0.58552787697E+03  0.58552787699E+03  0.50400001928E-02 0. -1.
    10030    2    1    2    0    0  0.00000000000E+00  0.00000000000E+00  0.52419958745E+03  0.16952553414E+04  0.16121741423E+04 0.  0.
        3    1    3    3  502    0 -0.74016743562E+03 -0.23909750150E+03  0.48457038788E+03  0.91641907389E+03  0.10100000352E+00 0. -1.
       -3    1    3    3    0  502  0.74016743562E+03  0.23909750150E+03  0.39629199567E+02  0.77883626754E+03  0.10100000352E+00 0.  1.
</event>
<event>
 5   0  0.7499834E-04  0.1582852E+04  0.7818609E-02  0.8831152E-01
        1   -1    0    0  501    0  0.00000000000E+00  0.00000000000E+00  0.94974841167E+03  0.94974841168E+03  0.50400001928E-02 0.  1.
       -1   -1    0    0    0  501  0.00000000000E+00  0.00000000000E+00 -0.65949607040E+03  0.65949607042E+03  0.50400001928E-02 0. -1.
    10030    2    1    2    0    0  0.00000000000E+00  0.00000000000E+00  0.29025234127E+03  0.16092444821E+04  0.15828522930E+04 0.  0.
        3    1    3    3  502    0 -0.10548895084E+03  0.46313929138E+02 -0.65092516667E+03  0.66104196658E+03  0.10100000352E+00 0. -1.
       -3    1    3    3    0  502  0.10548895084E+03 -0.46313929138E+02  0.94117750794E+03  0.94820251552E+03  0.10100000352E+00 0.  1.
</event>
<event>
 5   0  0.1414796E-03  0.1437369E+04  0.7818609E-02  0.8927204E-01
        2   -1    0    0  501    0  0.00000000000E+00  0.00000000000E+00  0.45531843991E+03  0.45531843991E+03  0.25500000920E-02 0. -1.
       -2   -1    0    0    0  501  0.00000000000E+00  0.00000000000E+00 -0.11343872080E+04  0.11343872080E+04  0.25500000920E-02 0.  1.
    10030    2    1    2    0    0  0.00000000000E+00  0.00000000000E+00 -0.67906876812E+03  0.15897056479E+04  0.14373690046E+04 0.  0.
        4    1    3    3  502    0  0.53002506651E+03  0.18857405694E+03 -0.83416856816E+03  0.10061439058E+04  0.12699999809E+01 0.  1.
       -4    1    3    3    0  502 -0.53002506651E+03 -0.18857405694E+03  0.15509980004E+03  0.58356174219E+03  0.12699999809E+01 0. -1.
</event>
<event>
 5   0  0.1414751E-03  0.1430038E+04  0.7818609E-02  0.8932358E-01
       -2   -1    0    0    0  501  0.00000000000E+00  0.00000000000E+00  0.35380590926E+03  0.35380590927E+03  0.25500000920E-02 0. -1.
        2   -1    0    0  501    0  0.00000000000E+00  0.00000000000E+00 -0.14450081893E+04  0.14450081893E+04  0.25500000920E-02 0.  1.
    10030    2    1    2    0    0  0.00000000000E+00  0.00000000000E+00 -0.10912022801E+04  0.17988140986E+04  0.14300383720E+04 0.  0.
        2    1    3    3  502    0 -0.70031655122E+02 -0.52414599166E+03 -0.11509777918E+04  0.12666425425E+04  0.25500000920E-02 0.  1.
       -2    1    3    3    0  502  0.70031655122E+02  0.52414599166E+03  0.59775511738E+02  0.53217155608E+03  0.25500000920E-02 0. -1.
</event>
<event>
 5   0  0.7499834E-04  0.1372420E+04  0.7818609E-02  0.8974028E-01
        1   -1    0    0  501    0  0.00000000000E+00  0.00000000000E+00  0.84540015140E+03  0.84540015141E+03  0.50400001928E-02 0.  1.
       -1   -1    0    0    0  501  0.00000000000E+00  0.00000000000E+00 -0.55699533805E+03  0.55699533807E+03  0.50400001928E-02 0. -1.
    10030    2    1    2    0    0  0.00000000000E+00  0.00000000000E+00  0.28840481335E+03  0.14023954895E+04  0.13724196780E+04 0.  0.
        3    1    3    3  502    0  0.15156947525E+02  0.15933089143E+03  0.82606088883E+03  0.84142300199E+03  0.10100000352E+00 0.  1.
       -3    1    3    3    0  502 -0.15156947525E+02 -0.15933089143E+03 -0.53765607548E+03  0.56097248749E+03  0.10100000352E+00 0. -1.
</event>
<event>
 5   0  0.1354766E-03  0.1516506E+04  0.7818609E-02  0.8873550E-01
        2   -1    0    0  501    0  0.00000000000E+00  0.00000000000E+00  0.13855052892E+04  0.13855052892E+04  0.25500000920E-02 0. -1.
       -2   -1    0    0    0  501  0.00000000000E+00  0.00000000000E+00 -0.41497324847E+03  0.41497324848E+03  0.25500000920E-02 0.  1.
    10030    2    1    2    0    0  0.00000000000E+00  0.00000000000E+00  0.97053204071E+03  0.18004785377E+04  0.15165060246E+04 0.  0.
        3    1    3    3  502    0 -0.17934869960E+03  0.67894022983E+03  0.82487440156E+03  0.10833021648E+04  0.10100000352E+00 0. -1.
       -3    1    3    3    0  502  0.17934869960E+03 -0.67894022983E+03  0.14565763915E+03  0.71717637285E+03  0.10100000352E+00 0.  1.
</event>
<event>
 5   0  0.7633213E-04  0.1611432E+04  0.7818609E-02  0.8813556E-01
        1   -1    0    0  501    0  0.00000000000E+00  0.00000000000E+00  0.45560190090E+03  0.45560190093E+03  0.50400001928E-02 0. -1.
       -1   -1    0    0    0  501  0.00000000000E+00  0.00000000000E+00 -0.14248803957E+04  0.14248803957E+04  0.50400001928E-02 0.  1.
    10030    2    1    2    0    0  0.00000000000E+00  0.00000000000E+00 -0.96927849476E+03  0.18804822966E+04  0.16114319307E+04 0.  0.
        1    1    3    3  502    0 -0.11314997723E+03  0.37204504263E+03  0.33884168534E+03  0.51578495407E+03  0.50400001928E-02 0. -1.
       -1    1    3    3    0  502  0.11314997723E+03 -0.37204504263E+03 -0.13081201801E+04  0.13646973425E+04  0.50400001928E-02 0.  1.
</event>
<event>
 5   0  0.7601145E-04  0.1052239E+04  0.7818609E-02  0.9253035E-01
       -1   -1    0    0    0  501  0.00000000000E+00  0.00000000000E+00  0.23390615729E+03  0.23390615734E+03  0.50400001928E-02 0.  1.
        1   -1    0    0  501    0  0.00000000000E+00  0.00000000000E+00 -0.11833883629E+04  0.11833883629E+04  0.50400001928E-02 0. -1.
    10030    2    1    2    0    0  0.00000000000E+00  0.00000000000E+00 -0.94948220558E+03  0.14172945202E+04  0.10522391830E+04 0.  0.
        4    1    3    3  502    0  0.43745688742E+03 -0.24946275070E+03 -0.26958246274E+03  0.57120618822E+03  0.12699999809E+01 0.  1.
       -4    1    3    3    0  502 -0.43745688742E+03  0.24946275070E+03 -0.67989974284E+03  0.84608833200E+03  0.12699999809E+01 0. -1.
</event>
<event>
 5   0  0.7302027E-04  0.1667486E+04  0.7818609E-02  0.8780129E-01
        1   -1    0    0  501    0  0.00000000000E+00  0.00000000000E+00  0.80155453736E+03  0.80155453737E+03  0.50400001928E-02 0.  1.
       -1   -1    0    0    0  501  0.00000000000E+00  0.00000000000E+00 -0.86722371644E+03  0.86722371646E+03  0.50400001928E-02 0. -1.
    10030    2    1    2    0    0  0.00000000000E+00  0.00000000000E+00 -0.65669179086E+02  0.16687782538E+04  0.16674856579E+04 0.  0.
        5    1    3    3  502    0 -0.81191678492E+03 -0.17367512116E+03 -0.10861053078E+03  0.83737103529E+03  0.46999998093E+01 0.  1.
       -5    1    3    3    0  502  0.81191678492E+03  0.17367512116E+03  0.42941351698E+02  0.83140721854E+03  0.46999998093E+01 0. -1.
</event>
<event>
 5   0  0.1354766E-03  0.1613267E+04  0.7818609E-02  0.8812439E-01
        2   -1    0    0  501    0  0.00000000000E+00  0.00000000000E+00  0.69228914956E+03  0.69228914956E+03  0.25500000920E-02 0.  1.
       -2   -1    0    0    0  501  0.00000000000E+00  0.00000000000E+00 -0.93986404735E+03  0.93986404735E+03  0.25500000920E-02 0. -1.
    10030    2    1    2    0    0  0.00000000000E+00  0.00000000000E+00 -0.24757489779E+03  0.16321531969E+04  0.16132670976E+04 0.  0.
        3    1    3    3  502    0  0.76573986863E+03 -0.18577003519E+03  0.50829791836E+02  0.78958959613E+03  0.10100000352E+00 0.  1.
       -3    1    3    3    0  502 -0.76573986863E+03  0.18577003519E+03 -0.29840468963E+03  0.84256360079E+03  0.10100000352E+00 0. -1.
</event>
<event>
 5   0  0.7633213E-04  0.1581189E+04  0.7818609E-02  0.8832189E-01
        1   -1    0    0  501    0  0.00000000000E+00  0.00000000000E+00  0.72108206841E+03  0.72108206843E+03  0.50400001928E-02 0.  1.
       -1   -1    0    0    0  501  0.00000000000E+00  0.00000000000E+00 -0.86680745008E+03  0.86680745009E+03  0.50400001928E-02 0. -1.
    10030    2    1    2    0    0  0.00000000000E+00  0.00000000000E+00 -0.14572538167E+03  0.15878895185E+04  0.15811885517E+04 0.  0.
        1    1    3    3  502    0  0.35732388616E+03 -0.24857710200E+03 -0.73563566354E+03  0.85476942198E+03  0.50400001928E-02 0. -1.
       -1    1    3    3    0  502 -0.35732388616E+03  0.24857710200E+03  0.58991028187E+03  0.73312009653E+03  0.50400001928E-02 0.  1.
</event>
<event>
 5   0  0.1375777E-03  0.1571335E+04  0.7818609E-02  0.8838354E-01
       -2   -1    0    0    0  501  0.00000000000E+00  0.00000000000E+00  0.90914343807E+03  0.90914343807E+03  0.25500000920E-02 0.  1.
        2   -1    0    0  501    0  0.00000000000E+00  0.00000000000E+00 -0.67896122770E+03  0.67896122771E+03  0.25500000920E-02 0. -1.
    10030    2    1    2    0    0  0.00000000000E+00  0.00000000000E+00  0.23018221036E+03  0.15881046658E+04  0.15713346491E+04 0.  0.
        1    1    3    3  502    0 -0.19447668587E+03  0.63092610335E+03 -0.31534647397E+03  0.73166408133E+03  0.50400001928E-02 0. -1.
       -1    1    3    3    0  502  0.19447668587E+03 -0.63092610335E+03  0.54552868434E+03  0.85644058445E+03  0.50400001928E-02 0.  1.
</event>
<event>
 5   0  0.7601145E-04  0.1517029E+04  0.7818609E-02  0.8873207E-01
        1   -1    0    0  501    0  0.00000000000E+00  0.00000000000E+00  0.50313072919E+03  0.50313072922E+03  0.50400001928E-02 0.  1.
       -1   -1    0    0    0  501  0.00000000000E+00  0.00000000000E+00 -0.11435278966E+04  0.11435278966E+04  0.50400001928E-02 0. -1.
    10030    2    1    2    0    0  0.00000000000E+00  0.00000000000E+00 -0.64039716739E+03  0.16466586258E+04  0.15170287070E+04 0.  0.
        4    1    3    3  502    0 -0.18616976246E+03 -0.14611240022E+03 -0.11024265137E+04  0.11275432786E+04  0.12699999809E+01 0. -1.
       -4    1    3    3    0  502  0.18616976246E+03  0.14611240022E+03  0.46202934635E+03  0.51911534724E+03  0.12699999809E+01 0.  1.
</event>
<event>
 5   0  0.7302027E-04  0.1576088E+04  0.7818609E-02  0.8835374E-01
       -1   -1    0    0    0  501  0.00000000000E+00  0.00000000000E+00  0.64057770424E+03  0.64057770426E+03  0.50400001928E-02 0. -1.
        1   -1    0    0  501    0  0.00000000000E+00  0.00000000000E+00 -0.96945793584E+03  0.96945793586E+03  0.50400001928E-02 0.  1.
    10030    2    1    2    0    0  0.00000000000E+00  0.00000000000E+00 -0.32888023161E+03  0.16100356401E+04  0.15760877373E+04 0.  0.
        5    1    3    3  502    0 -0.62246374683E+03 -0.29304429758E+03 -0.55697579546E+03  0.88520065702E+03  0.46999998093E+01 0. -1.
       -5    1    3    3    0  502  0.62246374683E+03  0.29304429758E+03  0.22809556385E+03  0.72483498309E+03  0.46999998093E+01 0.  1.
</event>
<event>
 5   0  0.7124495E-04  0.1482809E+04  0.7818609E-02  0.8895966E-01
       -1   -1    0    0    0  501  0.00000000000E+00  0.00000000000E+00  0.51062447720E+03  0.51062447723E+03  0.50400001928E-02 0. -1.
        1   -1    0    0  501    0  0.00000000000E+00  0.00000000000E+00 -0.10764877589E+04  0.10764877589E+04  0.50400001928E-02 0.  1.
    10030    2    1    2    0    0  0.00000000000E+00  0.00000000000E+00 -0.56586328170E+03  0.15871122361E+04  0.14828094943E+04 0.  0.
        2    1    3    3  502    0 -0.55961481808E+03  0.34104791122E+03  0.88152115779E+02  0.66125125170E+03  0.25500000920E-02 0. -1.
       -2    1    3    3    0  502  0.55961481808E+03 -0.34104791122E+03 -0.65401539748E+03  0.92586098444E+03  0.25500000920E-02 0.  1.
</event>
<event>
 5   0  0.7124495E-04  0.1615531E+04  0.7818609E-02  0.8811063E-01
        1   -1    0    0  501    0  0.00000000000E+00  0.00000000000E+00  0.81052536963E+03  0.81052536965E+03  0.50400001928E-02 0. -1.
       -1   -1    0    0    0  501  0.00000000000E+00  0.00000000000E+00 -0.80501524186E+03  0.80501524187E+03  0.50400001928E-02 0.  1.
    10030    2    1    2    0    0  0.00000000000E+00  0.00000000000E+00  0.55101277723E+01  0.16155406115E+04  0.16155312148E+04 0.  0.
        2    1    3    3  502    0 -0.51317471451E+03 -0.61897815888E+03 -0.74724595017E+02  0.80750604572E+03  0.25500000920E-02 0. -1.
       -2    1    3    3    0  502  0.51317471451E+03  0.61897815888E+03  0.80234722790E+02  0.80803456580E+03  0.25500000920E-02 0.  1.
</event>
<event>
 5   0  0.7302027E-04  0.1610716E+04  0.7818609E-02  0.8813992E-01
        1   -1    0    0  501    0  0.00000000000E+00  0.00000000000E+00  0.84798324270E+03  0.84798324272E+03  0.50400001928E-02 0. -1.
       -1   -1    0    0    0  501  0.00000000000E+00  0.00000000000E+00 -0.76487494755E+03  0.76487494757E+03  0.50400001928E-02 0.  1.
    10030    2    1    2    0    0  0.00000000000E+00  0.00000000000E+00  0.83108295153E+02  0.16128581903E+04  0.16107155408E+04 0.  0.
        5    1    3    3  502    0  0.45994909738E+03  0.34131568571E+03 -0.52535220517E+03  0.77721721479E+03  0.46999998093E+01 0.  1.
       -5    1    3    3    0  502 -0.45994909738E+03 -0.34131568571E+03  0.60846050032E+03  0.83564097550E+03  0.46999998093E+01 0. -1.
</event>
<event>
 5   0  0.1414751E-03  0.1547652E+04  0.7818609E-02  0.8853369E-01
       -2   -1    0    0    0  501  0.00000000000E+00  0.00000000000E+00  0.97677718412E+03  0.97677718413E+03  0.25500000920E-02 0.  1.
        2   -1    0    0  501    0  0.00000000000E+00  0.00000000000E+00 -0.61304327708E+03  0.61304327708E+03  0.25500000920E-02 0. -1.
    10030    2    1    2    0    0  0.00000000000E+00  0.00000000000E+00  0.36373390705E+03  0.15898204612E+04  0.15476520099E+04 0.  0.
        2    1    3    3  502    0 -0.72833541174E+03  0.21372618122E+03  0.33648493345E+03  0.83028516967E+03  0.25500000920E-02 0. -1.
       -2    1    3    3    0  502  0.72833541174E+03 -0.21372618122E+03  0.27248973598E+02  0.75953529154E+03  0.25500000920E-02 0.  1.
</event>
<event>
 5   0  0.7633213E-04  0.1574342E+04  0.7818609E-02  0.8836467E-01
        1   -1    0    0  501    0  0.00000000000E+00  0.00000000000E+00  0.14227978100E+04  0.14227978100E+04  0.50400001928E-02 0. -1.
       -1   -1    0    0    0  501  0.00000000000E+00  0.00000000000E+00 -0.43550710023E+03  0.43550710026E+03  0.50400001928E-02 0.  1.
    10030    2    1    2    0    0  0.00000000000E+00  0.00000000000E+00  0.98729070974E+03  0.18583049102E+04  0.15743424640E+04 0.  0.
        1    1    3    3  502    0  0.40635535077E+03 -0.66118015089E+03  0.64914383109E+03  0.10117665623E+04  0.50400001928E-02 0.  1.
       -1    1    3    3    0  502 -0.40635535077E+03  0.66118015089E+03  0.33814687865E+03  0.84653834798E+03  0.50400001928E-02 0. -1.
</event>
<event>
 5   0  0.7633213E-04  0.1577452E+04  0.7818609E-02  0.8834521E-01
        1   -1    0    0  501    0  0.00000000000E+00  0.00000000000E+00  0.13752203642E+04  0.13752203642E+04  0.50400001928E-02 0.  1.
       -1   -1    0    0    0  501  0.00000000000E+00  0.00000000000E+00 -0.45235571942E+03  0.45235571945E+03  0.50400001928E-02 0. -1.
    10030    2    1    2    0    0  0.00000000000E+00  0.00000000000E+00  0.92286464476E+03  0.18275760836E+04  0.15774521194E+04 0.  0.
        1    1    3    3  502    0  0.32049273549E+03 -0.15219747017E+03  0.12775478806E+04  0.13258990349E+04  0.50400001928E-02 0.  1.
       -1    1    3    3    0  502 -0.32049273549E+03  0.15219747017E+03 -0.35468323585E+03  0.50167704875E+03  0.50400001928E-02 0. -1.
</event>
<event>
 5   0  0.7633213E-04  0.1577462E+04  0.7818609E-02  0.8834515E-01
        1   -1    0    0  501    0  0.00000000000E+00  0.00000000000E+00  0.61862483449E+03  0.61862483451E+03  0.50400001928E-02 0. -1.
       -1   -1    0    0    0  501  0.00000000000E+00  0.00000000000E+00 -0.10056118641E+04  0.10056118641E+04  0.50400001928E-02 0.  1.
    10030    2    1    2    0    0  0.00000000000E+00  0.00000000000E+00 -0.38698702958E+03  0.16242366986E+04  0.15774618512E+04 0.  0.
        1    1    3    3  502    0  0.19625217128E+03  0.47633872010E+03  0.42144493411E+03  0.66560447978E+03  0.50400001928E-02 0. -1.
       -1    1    3    3    0  502 -0.19625217128E+03 -0.47633872010E+03 -0.80843196369E+03  0.95863221881E+03  0.50400001928E-02 0.  1.
</event>
<event>
 5   0  0.1414796E-03  0.1633755E+04  0.7818609E-02  0.8800075E-01
        2   -1    0    0  501    0  0.00000000000E+00  0.00000000000E+00  0.11721416645E+04  0.11721416645E+04  0.25500000920E-02 0.  1.
       -2   -1    0    0    0  501  0.00000000000E+00  0.00000000000E+00 -0.56929032059E+03  0.56929032060E+03  0.25500000920E-02 0. -1.
    10030    2    1    2    0    0  0.00000000000E+00  0.00000000000E+00  0.60285134391E+03  0.17414319851E+04  0.16337550661E+04 0.  0.
        4    1    3    3  502    0  0.19069895350E+03  0.66782656401E+03  0.75980174547E+03  0.10293972585E+04  0.12699999809E+01 0.  1.
       -4    1    3    3    0  502 -0.19069895350E+03 -0.66782656401E+03 -0.15695040155E+03  0.71203472662E+03  0.12699999809E+01 0. -1.
</event>
<event>
 5   0  0.7499834E-04  0.1716450E+04  0.7818609E-02  0.8752037E-01
       -1   -1    0    0    0  501  0.00000000000E+00  0.00000000000E+00  0.67522921538E+03  0.67522921540E+03  0.50400001928E-02 0.  1.
        1   -1    0    0  501    0  0.00000000000E+00  0.00000000000E+00 -0.10908154243E+04  0.10908154243E+04  0.50400001928E-02 0. -1.
    10030    2    1    2    0    0  0.00000000000E+00  0.00000000000E+00 -0.41558620888E+03  0.17660446397E+04  0.17164503408E+04 0.  0.
        3    1    3    3  502    0 -0.50294270312E+03 -0.26477311469E+03 -0.86940785699E+03  0.10387137223E+04  0.10100000352E+00 0. -1.
       -3    1    3    3    0  502  0.50294270312E+03  0.26477311469E+03  0.45382164811E+03  0.72733091738E+03  0.10100000352E+00 0.  1.
</event>
<event>
 5   0  0.1414796E-03  0.1388879E+04  0.7818609E-02  0.8961908E-01
        2   -1    0    0  501    0  0.00000000000E+00  0.00000000000E+00  0.17461825288E+04  0.17461825288E+04  0.25500000920E-02 0. -1.
       -2   -1    0    0    0  501  0.00000000000E+00  0.00000000000E+00 -0.27617174525E+03  0.27617174526E+03  0.25500000920E-02 0.  1.
    10030    2    1    2    0    0  0.00000000000E+00  0.00000000000E+00  0.14700107836E+04  0.20223542741E+04  0.13888790826E+04 0.  0.
        4    1    3    3  502    0  0.47045942733E+03 -0.11731764124E+03  0.11115735426E+02  0.48499554038E+03  0.12699999809E+01 0.  1.
       -4    1    3    3    0  502 -0.47045942733E+03  0.11731764124E+03  0.14588950481E+04  0.15373587337E+04  0.12699999809E+01 0. -1.
</event>
<event>
 5   0  0.1354766E-03  0.1597358E+04  0.7818609E-02  0.8822172E-01
       -2   -1    0    0    0  501  0.00000000000E+00  0.00000000000E+00  0.31951536171E+03  0.31951536172E+03  0.25500000920E-02 0.  1.
        2   -1    0    0  501    0  0.00000000000E+00  0.00000000000E+00 -0.19964251079E+04  0.19964251079E+04  0.25500000920E-02 0. -1.
    10030    2    1    2    0    0  0.00000000000E+00  0.00000000000E+00 -0.16769097462E+04  0.23159404697E+04  0.15973584326E+04 0.  0.
        3    1    3    3  502    0 -0.27564338429E+02  0.70537233110E+03 -0.29678538464E+03  0.76576203417E+03  0.10100000352E+00 0.  1.
       -3    1    3    3    0  502  0.27564338429E+02 -0.70537233110E+03 -0.13801243616E+04  0.15501784355E+04  0.10100000352E+00 0. -1.
</event>
<event>
 5   0  0.1375777E-03  0.1599659E+04  0.7818609E-02  0.8820757E-01
       -2   -1    0    0    0  501  0.00000000000E+00  0.00000000000E+00  0.41490857865E+03  0.41490857865E+03  0.25500000920E-02 0.  1.
        2   -1    0    0  501    0  0.00000000000E+00  0.00000000000E+00 -0.15418514132E+04  0.15418514132E+04  0.25500000920E-02 0. -1.
    10030    2    1    2    0    0  0.00000000000E+00  0.00000000000E+00 -0.11269428345E+04  0.19567599918E+04  0.15996591866E+04 0.  0.
        1    1    3    3  502    0  0.42642923876E+03  0.40362701323E+03 -0.12278254070E+04  0.13609966538E+04  0.50400001928E-02 0. -1.
       -1    1    3    3    0  502 -0.42642923876E+03 -0.40362701323E+03  0.10088257251E+03  0.59576333803E+03  0.50400001928E-02 0.  1.
</event>
<event>
 5   0  0.1414796E-03  0.1645465E+04  0.7818609E-02  0.8793094E-01
       -2   -1    0    0    0  501  0.00000000000E+00  0.00000000000E+00  0.62096894661E+03  0.62096894661E+03  0.25500000920E-02 0.  1.
        2   -1    0    0  501    0  0.00000000000E+00  0.00000000000E+00 -0.10900531474E+04  0.10900531474E+04  0.25500000920E-02 0. -1.
    10030    2    1    2    0    0  0.00000000000E+00  0.00000000000E+00 -0.46908420075E+03  0.17110220940E+04  0.16454654717E+04 0.  0.
        4    1    3    3  502    0 -0.47703903218E+03 -0.23071206486E+03  0.41989146052E+03  0.67609522008E+03  0.12699999809E+01 0.  1.
       -4    1    3    3    0  502  0.47703903218E+03  0.23071206486E+03 -0.88897566127E+03  0.10349268739E+04  0.12699999809E+01 0. -1.
</event>
<event>
 5   0  0.7499834E-04  0.1587334E+04  0.7818609E-02  0.8828367E-01
        1   -1    0    0  501    0  0.00000000000E+00  0.00000000000E+00  0.98079967909E+03  0.98079967910E+03  0.50400001928E-02 0. -1.
       -1   -1    0    0    0  501  0.00000000000E+00  0.00000000000E+00 -0.64223846430E+03  0.64223846432E+03  0.50400001928E-02 0.  1.
    10030    2    1    2    0    0  0.00000000000E+00  0.00000000000E+00  0.33856121479E+03  0.16230381434E+04  0.15873339658E+04 0.  0.
        3    1    3    3  502    0 -0.52292724571E+03 -0.52452975853E+03 -0.12230550748E+03  0.75069502413E+03  0.10100000352E+00 0.  1.
       -3    1    3    3    0  502  0.52292724571E+03  0.52452975853E+03  0.46086672227E+03  0.87234311930E+03  0.10100000352E+00 0. -1.
</event>
<event>
 5   0  0.1354766E-03  0.1562222E+04  0.7818609E-02  0.8844098E-01
        2   -1    0    0  501    0  0.00000000000E+00  0.00000000000E+00  0.19786073361E+04  0.19786073361E+04  0.25500000920E-02 0. -1.
       -2   -1    0    0    0  501  0.00000000000E+00  0.00000000000E+00 -0.30836568702E+03  0.30836568703E+03  0.25500000920E-02 0.  1.
    10030    2    1    2    0    0  0.00000000000E+00  0.00000000000E+00  0.16702416491E+04  0.22869730231E+04  0.15622222768E+04 0.  0.
        3    1    3    3  502    0 -0.68258928991E+03 -0.79644839551E+02  0.13786743684E+04  0.15404591729E+04  0.10100000352E+00 0. -1.
       -3    1    3    3    0  502  0.68258928991E+03  0.79644839551E+02  0.29156728065E+03  0.74651385018E+03  0.10100000352E+00 0.  1.
</event>
<event>
 5   0  0.7499834E-04  0.1521353E+04  0.7818609E-02  0.8870376E-01
       -1   -1    0    0    0  501  0.00000000000E+00  0.00000000000E+00  0.83540945830E+03  0.83540945831E+03  0.50400001928E-02 0. -1.
        1   -1    0    0  501    0  0.00000000000E+00  0.00000000000E+00 -0.69262895038E+03  0.69262895040E+03  0.50400001928E-02 0.  1.
    10030    2    1    2    0    0  0.00000000000E+00  0.00000000000E+00  0.14278050792E+03  0.15280384087E+04  0.15213530508E+04 0.  0.
        3    1    3    3  502    0  0.75454086174E+03  0.83696679506E+02  0.23307977039E+02  0.75952637755E+03  0.10100000352E+00 0. -1.
       -3    1    3    3    0  502 -0.75454086174E+03 -0.83696679506E+02  0.11947253088E+03  0.76851203116E+03  0.10100000352E+00 0.  1.
</event>
<event>
 5   0  0.1414796E-03  0.1600866E+04  0.7818609E-02  0.8820016E-01
       -2   -1    0    0    0  501  0.00000000000E+00  0.00000000000E+00  0.59576139720E+03  0.59576139721E+03  0.25500000920E-02 0. -1.
        2   -1    0    0  501    0  0.00000000000E+00  0.00000000000E+00 -0.10754190704E+04  0.10754190704E+04  0.25500000920E-02 0.  1.
    10030    2    1    2    0    0  0.00000000000E+00  0.00000000000E+00 -0.47965767316E+03  0.16711804676E+04  0.16008662254E+04 0.  0.
        4    1    3    3  502    0 -0.15482773869E+03 -0.78437461532E+03 -0.19971735155E+03  0.82407754443E+03  0.12699999809E+01 0. -1.
       -4    1    3    3    0  502  0.15482773869E+03  0.78437461532E+03 -0.27994032161E+03  0.84710292314E+03  0.12699999809E+01 0.  1.
</event>
<event>
 5   0  0.1414751E-03  0.1574882E+04  0.7818609E-02  0.8836129E-01
       -2   -1    0    0    0  501  0.00000000000E+00  0.00000000000E+00  0.43820987707E+03  0.43820987707E+03  0.25500000920E-02 0.  1.
        2   -1    0    0  501    0  0.00000000000E+00  0.00000000000E+00 -0.14149913416E+04  0.14149913416E+04  0.25500000920E-02 0. -1.
    10030    2    1    2    0    0  0.00000000000E+00  0.00000000000E+00 -0.97678146449E+03  0.18532012186E+04  0.15748818138E+04 0.  0.
        2    1    3    3  502    0 -0.56740299584E+03  0.45220185352E+03 -0.12832375406E+03  0.73681725135E+03  0.25500000920E-02 0. -1.
       -2    1    3    3    0  502  0.56740299584E+03 -0.45220185352E+03 -0.84845771043E+03  0.11163839673E+04  0.25500000920E-02 0.  1.
</event>
<event>
 5   0  0.1375777E-03  0.1598502E+04  0.7818609E-02  0.8821469E-01
        2   -1    0    0  501    0  0.00000000000E+00  0.00000000000E+00  0.14527174508E+04  0.14527174508E+04  0.25500000920E-02 0. -1.
       -2   -1    0    0    0  501  0.00000000000E+00  0.00000000000E+00 -0.43972905929E+03  0.43972905929E+03  0.25500000920E-02 0.  1.
    10030    2    1    2    0    0  0.00000000000E+00  0.00000000000E+00  0.10129883915E+04  0.18924465101E+04  0.15985018962E+04 0.  0.
        1    1    3    3  502    0 -0.77089891704E+03 -0.10680253178E+03  0.29107168819E+03  0.83091193804E+03  0.50400001928E-02 0.  1.
       -1    1    3    3    0  502  0.77089891704E+03  0.10680253178E+03  0.72191670333E+03  0.10615345721E+04  0.50400001928E-02 0. -1.
</event>
<event>
 5   0  0.1354766E-03  0.1577679E+04  0.7818609E-02  0.8834379E-01
        2   -1    0    0  501    0  0.00000000000E+00  0.00000000000E+00  0.12568899684E+04  0.12568899684E+04  0.25500000920E-02 0. -1.
       -2   -1    0    0    0  501  0.00000000000E+00  0.00000000000E+00 -0.49508519087E+03  0.49508519088E+03  0.25500000920E-02 0.  1.
    10030    2    1    2    0    0  0.00000000000E+00  0.00000000000E+00  0.76180477757E+03  0.17519751593E+04  0.15776788139E+04 0.  0.
        3    1    3    3  502    0 -0.16254533120E+03  0.18501469305E+03 -0.45130037843E+03  0.51412397640E+03  0.10100000352E+00 0.  1.
       -3    1    3    3    0  502  0.16254533120E+03 -0.18501469305E+03  0.12131051560E+04  0.12378511829E+04  0.10100000352E+00 0. -1.
</event>
<event>
 5   0  0.1414751E-03  0.1557840E+04  0.7818609E-02  0.8846875E-01
       -2   -1    0    0    0  501  0.00000000000E+00  0.00000000000E+00  0.54692328730E+03  0.54692328731E+03  0.25500000920E-02 0. -1.
        2   -1    0    0  501    0  0.00000000000E+00  0.00000000000E+00 -0.11093263673E+04  0.11093263673E+04  0.25500000920E-02 0.  1.
    10030    2    1    2    0    0  0.00000000000E+00  0.00000000000E+00 -0.56240308002E+03  0.16562496546E+04  0.15578400733E+04 0.  0.
        2    1    3    3  502    0 -0.11009285021E+03 -0.24005241300E+03 -0.10602747584E+04  0.10926701972E+04  0.25500000920E-02 0.  1.
       -2    1    3    3    0  502  0.11009285021E+03  0.24005241300E+03  0.49787167838E+03  0.56357945739E+03  0.25500000920E-02 0. -1.
</event>
<event>
 5   0  0.7124495E-04  0.1595564E+04  0.7818609E-02  0.8823278E-01
        1   -1    0    0  501    0  0.00000000000E+00  0.00000000000E+00  0.11299594059E+04  0.11299594059E+04  0.50400001928E-02 0.  1.
       -1   -1    0    0    0  501  0.00000000000E+00  0.00000000000E+00 -0.56325585319E+03  0.56325585321E+03  0.50400001928E-02 0. -1.
    10030    2    1    2    0    0  0.00000000000E+00  0.00000000000E+00  0.56670355273E+03  0.16932152591E+04  0.15955641627E+04 0.  0.
        2    1    3    3  502    0 -0.69357822409E+02  0.13934691094E+03  0.11136890970E+04  0.11245138834E+04  0.25500000920E-02 0.  1.
       -2    1    3    3    0  502  0.69357822409E+02 -0.13934691094E+03 -0.54698554429E+03  0.56870137575E+03  0.25500000920E-02 0. -1.
</event>
<event>
 5   0  0.7124495E-04  0.1633438E+04  0.7818609E-02  0.8800265E-01
       -1   -1    0    0    0  501  0.00000000000E+00  0.00000000000E+00  0.61207460469E+03  0.61207460471E+03  0.50400001928E-02 0.  1.
        1   -1    0    0  501    0  0.00000000000E+00  0.00000000000E+00 -0.10897852712E+04  0.10897852712E+04  0.50400001928E-02 0. -1.
    10030    2    1    2    0    0  0.00000000000E+00  0.00000000000E+00 -0.47771066647E+03  0.17018598759E+04  0.16334379561E+04 0.  0.
        2    1    3    3  502    0  0.69322117671E+03  0.74298566875E+02  0.20435029276E+03  0.72652248350E+03  0.25500000920E-02 0.  1.
       -2    1    3    3    0  502 -0.69322117671E+03 -0.74298566875E+02 -0.68206095923E+03  0.97533739239E+03  0.25500000920E-02 0. -1.
</event>
<event>
 5   0  0.7601145E-04  0.1110928E+04  0.7818609E-02  0.9194606E-01
       -1   -1    0    0    0  501  0.00000000000E+00  0.00000000000E+00  0.34300397729E+03  0.34300397733E+03  0.50400001928E-02 0. -1.
        1   -1    0    0  501    0  0.00000000000E+00  0.00000000000E+00 -0.89952333934E+03  0.89952333935E+03  0.50400001928E-02 0.  1.
    10030    2    1    2    0    0  0.00000000000E+00  0.00000000000E+00 -0.55651936205E+03  0.12425273167E+04  0.11109276900E+04 0.  0.
        4    1    3    3  502    0  0.23991205007E+03 -0.31189348243E+03 -0.71675152025E+03  0.81766111001E+03  0.12699999809E+01 0.  1.
       -4    1    3    3    0  502 -0.23991205007E+03  0.31189348243E+03  0.16023215820E+03  0.42486620667E+03  0.12699999809E+01 0. -1.
</event>
<event>
 5   0  0.7302027E-04  0.1560647E+04  0.7818609E-02  0.8845095E-01
       -1   -1    0    0    0  501  0.00000000000E+00  0.00000000000E+00  0.97914517738E+03  0.97914517739E+03  0.50400001928E-02 0.  1.
        1   -1    0    0  501    0  0.00000000000E+00  0.00000000000E+00 -0.62187392080E+03  0.62187392082E+03  0.50400001928E-02 0. -1.
    10030    2    1    2    0    0  0.00000000000E+00  0.00000000000E+00  0.35727125658E+03  0.16010190982E+04  0.15606471100E+04 0.  0.
        5    1    3    3  502    0 -0.53327150574E+03 -0.41785389422E+03 -0.21855232793E+03  0.71187610284E+03  0.46999998093E+01 0. -1.
       -5    1    3    3    0  502  0.53327150574E+03  0.41785389422E+03  0.57582358451E+03  0.88914299537E+03  0.46999998093E+01 0.  1.
</event>
<event>
 5   0  0.7302027E-04  0.1584627E+04  0.7818609E-02  0.8830049E-01
        1   -1    0    0  501    0  0.00000000000E+00  0.00000000000E+00  0.97764555674E+03  0.97764555675E+03  0.50400001928E-02 0.  1.
       -1   -1    0    0    0  501  0.00000000000E+00  0.00000000000E+00 -0.64211445151E+03  0.64211445153E+03  0.50400001928E-02 0. -1.
    10030    2    1    2    0    0  0.00000000000E+00  0.00000000000E+00  0.33553110523E+03  0.16197600083E+04  0.15846265686E+04 0.  0.
        5    1    3    3  502    0 -0.15545808599E+03 -0.59400417276E+03  0.67959698797E+03  0.91590519696E+03  0.46999998093E+01 0.  1.
       -5    1    3    3    0  502  0.15545808599E+03  0.59400417276E+03 -0.34406588274E+03  0.70385481133E+03  0.46999998093E+01 0. -1.
</event>
<event>
 5   0  0.1354766E-03  0.1415575E+04  0.7818609E-02  0.8942621E-01
       -2   -1    0    0    0  501  0.00000000000E+00  0.00000000000E+00  0.47922042069E+03  0.47922042070E+03  0.25500000920E-02 0. -1.
        2   -1    0    0  501    0  0.00000000000E+00  0.00000000000E+00 -0.10453706336E+04  0.10453706336E+04  0.25500000920E-02 0.  1.
    10030    2    1    2    0    0  0.00000000000E+00  0.00000000000E+00 -0.56615021287E+03  0.15245910543E+04  0.14155747311E+04 0.  0.
        3    1    3    3  502    0 -0.61894163494E+03 -0.53868766147E+02  0.82113547293E+02  0.62668431948E+03  0.10100000352E+00 0. -1.
       -3    1    3    3    0  502  0.61894163494E+03  0.53868766147E+02 -0.64826376016E+03  0.89790673479E+03  0.10100000352E+00 0.  1.
</event>
<event>
 5   0  0.1354766E-03  0.1165672E+04  0.7818609E-02  0.9143446E-01
        2   -1    0    0  501    0  0.00000000000E+00  0.00000000000E+00  0.16591675153E+04  0.16591675153E+04  0.25500000920E-02 0.  1.
       -2   -1    0    0    0  501  0.00000000000E+00  0.00000000000E+00 -0.20473975794E+03  0.20473975795E+03  0.25500000920E-02 0. -1.
    10030    2    1    2    0    0  0.00000000000E+00  0.00000000000E+00  0.14544277574E+04  0.18639072733E+04  0.11656715755E+04 0.  0.
        3    1    3    3  502    0 -0.26725101516E+03  0.10670687496E+03 -0.83224642643E+02  0.29955936575E+03  0.10100000352E+00 0. -1.
       -3    1    3    3    0  502  0.26725101516E+03 -0.10670687496E+03  0.15376524000E+04  0.15643479075E+04  0.10100000352E+00 0.  1.
</event>
<event>
 5   0  0.5095750E-04  0.1246823E+04  0.7818609E-02  0.9072832E-01
        3   -1    0    0  501    0  0.00000000000E+00  0.00000000000E+00  0.71664946801E+03  0.71664947513E+03  0.10100000352E+00 0. -1.
       -3   -1    0    0    0  501  0.00000000000E+00  0.00000000000E+00 -0.54230402436E+03  0.54230403377E+03  0.10100000352E+00 0.  1.
    10030    2    1    2    0    0  0.00000000000E+00  0.00000000000E+00  0.17434544365E+03  0.12589535089E+04  0.12468230042E+04 0.  0.
        2    1    3    3  502    0 -0.61327354225E+03 -0.10516246051E+03  0.48349717031E+02  0.62410037323E+03  0.25500000920E-02 0.  1.
       -2    1    3    3    0  502  0.61327354225E+03  0.10516246051E+03  0.12599572662E+03  0.63485313566E+03  0.25500000920E-02 0. -1.
</event>
<event>
 5   0  0.1375777E-03  0.9111706E+03  0.7818609E-02  0.9411724E-01
       -2   -1    0    0    0  501  0.00000000000E+00  0.00000000000E+00  0.24965157033E+03  0.24965157034E+03  0.25500000920E-02 0. -1.
        2   -1    0    0  501    0  0.00000000000E+00  0.00000000000E+00 -0.83139058865E+03  0.83139058866E+03  0.25500000920E-02 0.  1.
    10030    2    1    2    0    0  0.00000000000E+00  0.00000000000E+00 -0.58173901833E+03  0.10810421590E+04  0.91117060098E+03 0.  0.
        1    1    3    3  502    0  0.37764065034E+03  0.93146892798E+02 -0.57230454022E+03  0.69196914036E+03  0.50400001928E-02 0.  1.
       -1    1    3    3    0  502 -0.37764065034E+03 -0.93146892798E+02 -0.94344781032E+01  0.38907301863E+03  0.50400001928E-02 0. -1.
</event>
<event>
 5   0  0.7124495E-04  0.1575352E+04  0.7818609E-02  0.8835835E-01
        1   -1    0    0  501    0  0.00000000000E+00  0.00000000000E+00  0.12393147736E+04  0.12393147736E+04  0.50400001928E-02 0. -1.
       -1   -1    0    0    0  501  0.00000000000E+00  0.00000000000E+00 -0.50062594488E+03  0.50062594491E+03  0.50400001928E-02 0.  1.
    10030    2    1    2    0    0  0.00000000000E+00  0.00000000000E+00  0.73868882875E+03  0.17399407185E+04  0.15753515539E+04 0.  0.
        2    1    3    3  502    0 -0.64527078798E+03  0.23913640236E+03 -0.53935090467E+02  0.69026777612E+03  0.25500000920E-02 0.  1.
       -2    1    3    3    0  502  0.64527078798E+03 -0.23913640236E+03  0.79262391921E+03  0.10496729424E+04  0.25500000920E-02 0. -1.
</event>
<event>
 5   0  0.1354766E-03  0.1525682E+04  0.7818609E-02  0.8867552E-01
       -2   -1    0    0    0  501  0.00000000000E+00  0.00000000000E+00  0.72346813237E+03  0.72346813238E+03  0.25500000920E-02 0. -1.
        2   -1    0    0  501    0  0.00000000000E+00  0.00000000000E+00 -0.80435674999E+03  0.80435674999E+03  0.25500000920E-02 0.  1.
    10030    2    1    2    0    0  0.00000000000E+00  0.00000000000E+00 -0.80888617612E+02  0.15278248824E+04  0.15256821106E+04 0.  0.
        3    1    3    3  502    0  0.13017608223E+03 -0.40850118740E+03 -0.67228802095E+03  0.79736455013E+03  0.10100000352E+00 0.  1.
       -3    1    3    3    0  502 -0.13017608223E+03  0.40850118740E+03  0.59139940334E+03  0.73046033223E+03  0.10100000352E+00 0. -1.
</event>
<event>
 5   0  0.1414796E-03  0.1606794E+04  0.7818609E-02  0.8816385E-01
        2   -1    0    0  501    0  0.00000000000E+00  0.00000000000E+00  0.12379240209E+04  0.12379240209E+04  0.25500000920E-02 0. -1.
       -2   -1    0    0    0  501  0.00000000000E+00  0.00000000000E+00 -0.52139418114E+03  0.52139418114E+03  0.25500000920E-02 0.  1.
    10030    2    1    2    0    0  0.00000000000E+00  0.00000000000E+00  0.71652983979E+03  0.17593182021E+04  0.16067935539E+04 0.  0.
        4    1    3    3  502    0 -0.61692374845E+02  0.39840959507E+03  0.11191460106E+04  0.11895484692E+04  0.12699999809E+01 0. -1.
       -4    1    3    3    0  502  0.61692374845E+02 -0.39840959507E+03 -0.40261617085E+03  0.56976973286E+03  0.12699999809E+01 0.  1.
</event>
<event>
 5   0  0.1339162E-03  0.1497268E+04  0.7818609E-02  0.8886272E-01
        2   -1    0    0  501    0  0.00000000000E+00  0.00000000000E+00  0.95502331927E+03  0.95502331927E+03  0.25500000920E-02 0. -1.
       -2   -1    0    0    0  501  0.00000000000E+00  0.00000000000E+00 -0.58684707831E+03  0.58684707831E+03  0.25500000920E-02 0.  1.
    10030    2    1    2    0    0  0.00000000000E+00  0.00000000000E+00  0.36817624096E+03  0.15418703976E+04  0.14972677044E+04 0.  0.
        5    1    3    3  502    0 -0.24870888261E+03 -0.48475334630E+03 -0.34461485886E+03  0.64468861165E+03  0.46999998093E+01 0.  1.
       -5    1    3    3    0  502  0.24870888261E+03  0.48475334630E+03  0.71279109982E+03  0.89718178594E+03  0.46999998093E+01 0. -1.
</event>
<event>
 5   0  0.7633213E-04  0.1634678E+04  0.7818609E-02  0.8799523E-01
       -1   -1    0    0    0  501  0.00000000000E+00  0.00000000000E+00  0.66763243450E+03  0.66763243452E+03  0.50400001928E-02 0.  1.
        1   -1    0    0  501    0  0.00000000000E+00  0.00000000000E+00 -0.10006145366E+04  0.10006145366E+04  0.50400001928E-02 0. -1.
    10030    2    1    2    0    0  0.00000000000E+00  0.00000000000E+00 -0.33298210205E+03  0.16682469711E+04  0.16346776062E+04 0.  0.
        1    1    3    3  502    0 -0.22128206029E+03 -0.43942638460E+03  0.49958460467E+03  0.70117478202E+03  0.50400001928E-02 0.  1.
       -1    1    3    3    0  502  0.22128206029E+03  0.43942638460E+03 -0.83256670673E+03  0.96707218906E+03  0.50400001928E-02 0. -1.
</event>
<event>
 5   0  0.7499834E-04  0.1558403E+04  0.7818609E-02  0.8846518E-01
       -1   -1    0    0    0  501  0.00000000000E+00  0.00000000000E+00  0.31395400362E+03  0.31395400366E+03  0.50400001928E-02 0.  1.
        1   -1    0    0  501    0  0.00000000000E+00  0.00000000000E+00 -0.19338968213E+04  0.19338968213E+04  0.50400001928E-02 0. -1.
    10030    2    1    2    0    0  0.00000000000E+00  0.00000000000E+00 -0.16199428176E+04  0.22478508249E+04  0.15584025792E+04 0.  0.
        3    1    3    3  502    0  0.76250193640E+02 -0.76162122143E+03 -0.10203535936E+04  0.12755400594E+04  0.10100000352E+00 0. -1.
       -3    1    3    3    0  502 -0.76250193640E+02  0.76162122143E+03 -0.59958922403E+03  0.97231076552E+03  0.10100000352E+00 0.  1.
</event>
<event>
 5   0  0.7601145E-04  0.1614324E+04  0.7818609E-02  0.8811796E-01
        1   -1    0    0  501    0  0.00000000000E+00  0.00000000000E+00  0.11412091496E+04  0.11412091496E+04  0.50400001928E-02 0.  1.
       -1   -1    0    0    0  501  0.00000000000E+00  0.00000000000E+00 -0.57089496240E+03  0.57089496243E+03  0.50400001928E-02 0. -1.
    10030    2    1    2    0    0  0.00000000000E+00  0.00000000000E+00  0.57031418723E+03  0.17121041121E+04  0.16143240748E+04 0.  0.
        4    1    3    3  502    0 -0.10383289095E+03 -0.80044705017E+03  0.28145384466E+03  0.85481847719E+03  0.12699999809E+01 0.  1.
       -4    1    3    3    0  502  0.10383289095E+03  0.80044705017E+03  0.28886034257E+03  0.85728563488E+03  0.12699999809E+01 0. -1.
</event>
<event>
 5   0  0.7302027E-04  0.1595802E+04  0.7818609E-02  0.8823131E-01
       -1   -1    0    0    0  501  0.00000000000E+00  0.00000000000E+00  0.74985719339E+03  0.74985719340E+03  0.50400001928E-02 0.  1.
        1   -1    0    0  501    0  0.00000000000E+00  0.00000000000E+00 -0.84902306558E+03  0.84902306560E+03  0.50400001928E-02 0. -1.
    10030    2    1    2    0    0  0.00000000000E+00  0.00000000000E+00 -0.99165872196E+02  0.15988802590E+04  0.15958020593E+04 0.  0.
        5    1    3    3  502    0  0.49253650629E+03  0.60227991730E+03  0.12764992216E+03  0.78844777978E+03  0.46999998093E+01 0. -1.
       -5    1    3    3    0  502 -0.49253650629E+03 -0.60227991730E+03 -0.22681579436E+03  0.81043247922E+03  0.46999998093E+01 0.  1.
</event>
<event>
 5   0  0.1354766E-03  0.1651948E+04  0.7818609E-02  0.8789255E-01
        2   -1    0    0  501    0  0.00000000000E+00  0.00000000000E+00  0.97530508420E+03  0.97530508421E+03  0.25500000920E-02 0. -1.
       -2   -1    0    0    0  501  0.00000000000E+00  0.00000000000E+00 -0.69950746008E+03  0.69950746009E+03  0.25500000920E-02 0.  1.
    10030    2    1    2    0    0  0.00000000000E+00  0.00000000000E+00  0.27579762412E+03  0.16748125443E+04  0.16519481617E+04 0.  0.
        3    1    3    3  502    0  0.52081354683E+03  0.22684295449E+03 -0.47000738348E+03  0.73730009311E+03  0.10100000352E+00 0.  1.
       -3    1    3    3    0  502 -0.52081354683E+03 -0.22684295449E+03  0.74580500760E+03  0.93751245119E+03  0.10100000352E+00 0. -1.
</event>
<event>
 5   0  0.7124495E-04  0.1624001E+04  0.7818609E-02  0.8805937E-01
        1   -1    0    0  501    0  0.00000000000E+00  0.00000000000E+00  0.11655460421E+04  0.11655460421E+04  0.50400001928E-02 0. -1.
       -1   -1    0    0    0  501  0.00000000000E+00  0.00000000000E+00 -0.56569633719E+03  0.56569633721E+03  0.50400001928E-02 0.  1.
    10030    2    1    2    0    0  0.00000000000E+00  0.00000000000E+00  0.59984970490E+03  0.17312423793E+04  0.16240013878E+04 0.  0.
        2    1    3    3  502    0  0.23883035524E+03  0.17823930339E+03 -0.50529223409E+03  0.58662545947E+03  0.25500000920E-02 0.  1.
       -2    1    3    3    0  502 -0.23883035524E+03 -0.17823930339E+03  0.11051419390E+04  0.11446169198E+04  0.25500000920E-02 0. -1.
</event>
<event>
 5   0  0.7601145E-04  0.1602110E+04  0.7818609E-02  0.8819253E-01
       -1   -1    0    0    0  501  0.00000000000E+00  0.00000000000E+00  0.62705743424E+03  0.62705743426E+03  0.50400001928E-02 0. -1.
        1   -1    0    0  501    0  0.00000000000E+00  0.00000000000E+00 -0.10233334012E+04  0.10233334012E+04  0.50400001928E-02 0.  1.
    10030    2    1    2    0    0  0.00000000000E+00  0.00000000000E+00 -0.39627596696E+03  0.16503908355E+04  0.16021096304E+04 0.  0.
        4    1    3    3  502    0 -0.21257334735E+03 -0.44796069476E+03 -0.84624909866E+03  0.98081362243E+03  0.12699999809E+01 0.  1.
       -4    1    3    3    0  502  0.21257334735E+03  0.44796069476E+03  0.44997313171E+03  0.66957721303E+03  0.12699999809E+01 0. -1.
</event>
<event>
 5   0  0.7499834E-04  0.1589801E+04  0.7818609E-02  0.8826838E-01
       -1   -1    0    0    0  501  0.00000000000E+00  0.00000000000E+00  0.54104809834E+03  0.54104809836E+03  0.50400001928E-02 0. -1.
        1   -1    0    0  501    0  0.00000000000E+00  0.00000000000E+00 -0.11678574564E+04  0.11678574564E+04  0.50400001928E-02 0.  1.
    10030    2    1    2    0    0  0.00000000000E+00  0.00000000000E+00 -0.62680935806E+03  0.17089055548E+04  0.15898013158E+04 0.  0.
        3    1    3    3  502    0  0.45226759713E+03  0.44425537878E+02 -0.10144516545E+04  0.11115897522E+04  0.10100000352E+00 0.  1.
       -3    1    3    3    0  502 -0.45226759713E+03 -0.44425537878E+02  0.38764229639E+03  0.59731580255E+03  0.10100000352E+00 0. -1.
</event>
<event>
 5   0  0.7601145E-04  0.1877581E+04  0.7818609E-02  0.8666097E-01
        1   -1    0    0  501    0  0.00000000000E+00  0.00000000000E+00  0.93545568909E+03  0.93545568910E+03  0.50400001928E-02 0. -1.
       -1   -1    0    0    0  501  0.00000000000E+00  0.00000000000E+00 -0.94213741104E+03  0.94213741105E+03  0.50400001928E-02 0.  1.
    10030    2    1    2    0    0  0.00000000000E+00  0.00000000000E+00 -0.66817219446E+01  0.18775931002E+04  0.18775812111E+04 0.  0.
        4    1    3    3  502    0  0.13475310874E+03 -0.70249272565E+03  0.60466936912E+03  0.93663284629E+03  0.12699999809E+01 0. -1.
       -4    1    3    3    0  502 -0.13475310874E+03  0.70249272565E+03 -0.61135109106E+03  0.94096025386E+03  0.12699999809E+01 0.  1.
</event>
<event>
 5   0  0.1414751E-03  0.1565574E+04  0.7818609E-02  0.8841981E-01
        2   -1    0    0  501    0  0.00000000000E+00  0.00000000000E+00  0.10351917163E+04  0.10351917163E+04  0.25500000920E-02 0. -1.
       -2   -1    0    0    0  501  0.00000000000E+00  0.00000000000E+00 -0.59192475599E+03  0.59192475599E+03  0.25500000920E-02 0.  1.
    10030    2    1    2    0    0  0.00000000000E+00  0.00000000000E+00  0.44326696034E+03  0.16271164723E+04  0.15655741491E+04 0.  0.
        2    1    3    3  502    0  0.63465959455E+03  0.18451246654E+03 -0.21427978121E+03  0.69480463147E+03  0.25500000920E-02 0.  1.
       -2    1    3    3    0  502 -0.63465959455E+03 -0.18451246654E+03  0.65754674155E+03  0.93231184085E+03  0.25500000920E-02 0. -1.
</event>
<event>
 5   0  0.1339162E-03  0.1798514E+04  0.7818609E-02  0.8707090E-01
        2   -1    0    0  501    0  0.00000000000E+00  0.00000000000E+00  0.81077564587E+03  0.81077564588E+03  0.25500000920E-02 0. -1.
       -2   -1    0    0    0  501  0.00000000000E+00  0.00000000000E+00 -0.99739394184E+03  0.99739394184E+03  0.25500000920E-02 0.  1.
    10030    2    1    2    0    0  0.00000000000E+00  0.00000000000E+00 -0.18661829596E+03  0.18081695877E+04  0.17985135166E+04 0.  0.
        5    1    3    3  502    0  0.86548344564E+03 -0.88920541067E+02  0.13522642213E+03  0.88049800258E+03  0.46999998093E+01 0. -1.
       -5    1    3    3    0  502 -0.86548344564E+03  0.88920541067E+02 -0.32184471810E+03  0.92767158514E+03  0.46999998093E+01 0.  1.
</event>
<event>
 5   0  0.1354766E-03  0.1597249E+04  0.7818609E-02  0.8822240E-01
        2   -1    0    0  501    0  0.00000000000E+00  0.00000000000E+00  0.92527850694E+03  0.92527850694E+03  0.25500000920E-02 0. -1.
       -2   -1    0    0    0  501  0.00000000000E+00  0.00000000000E+00 -0.68930699803E+03  0.68930699803E+03  0.25500000920E-02 0.  1.
    10030    2    1    2    0    0  0.00000000000E+00  0.00000000000E+00  0.23597150891E+03  0.16145855050E+04  0.15972488221E+04 0.  0.
        3    1    3    3  502    0 -0.55287129705E+03 -0.22743827901E+03 -0.41729570336E+03  0.72906142135E+03  0.10100000352E+00 0.  1.
       -3    1    3    3    0  502  0.55287129705E+03  0.22743827901E+03  0.65326721227E+03  0.88552408362E+03  0.10100000352E+00 0. -1.
</event>
<event>
 5   0  0.1339162E-03  0.1099617E+04  0.7818609E-02  0.9205565E-01
        2   -1    0    0  501    0  0.00000000000E+00  0.00000000000E+00  0.23043728975E+03  0.23043728976E+03  0.25500000920E-02 0.  1.
       -2   -1    0    0    0  501  0.00000000000E+00  0.00000000000E+00 -0.13118071225E+04  0.13118071225E+04  0.25500000920E-02 0. -1.
    10030    2    1    2    0    0  0.00000000000E+00  0.00000000000E+00 -0.10813698327E+04  0.15422444122E+04  0.10996168023E+04 0.  0.
        5    1    3    3  502    0 -0.14520002317E+03  0.22206452185E+03  0.13467536218E+03  0.29758232772E+03  0.46999998093E+01 0.  1.
       -5    1    3    3    0  502  0.14520002317E+03 -0.22206452185E+03 -0.12160451949E+04  0.12446620845E+04  0.46999998093E+01 0. -1.
</event>
<event>
 5   0  0.7601145E-04  0.1605569E+04  0.7818609E-02  0.8817134E-01
        1   -1    0    0  501    0  0.00000000000E+00  0.00000000000E+00  0.96927170195E+03  0.96927170196E+03  0.50400001928E-02 0.  1.
       -1   -1    0    0    0  501  0.00000000000E+00  0.00000000000E+00 -0.66489428392E+03  0.66489428394E+03  0.50400001928E-02 0. -1.
    10030    2    1    2    0    0  0.00000000000E+00  0.00000000000E+00  0.30437741803E+03  0.16341659859E+04  0.16055693248E+04 0.  0.
        4    1    3    3  502    0  0.32643418927E+03  0.33990826183E+03  0.81365986161E+03  0.94028766326E+03  0.12699999809E+01 0.  1.
       -4    1    3    3    0  502 -0.32643418927E+03 -0.33990826183E+03 -0.50928244358E+03  0.69387832264E+03  0.12699999809E+01 0. -1.
</event>
<event>
 5   0  0.7302027E-04  0.8313248E+03  0.7818609E-02  0.9515751E-01
        1   -1    0    0  501    0  0.00000000000E+00  0.00000000000E+00  0.42709107023E+03  0.42709107026E+03  0.50400001928E-02 0. -1.
       -1   -1    0    0    0  501  0.00000000000E+00  0.00000000000E+00 -0.40453957116E+03  0.40453957119E+03  0.50400001928E-02 0.  1.
    10030    2    1    2    0    0  0.00000000000E+00  0.00000000000E+00  0.22551499067E+02  0.83163064145E+03  0.83132481840E+03 0.  0.
        5    1    3    3  502    0 -0.69426840687E+02  0.59232237879E+02  0.41691795843E+03  0.42681520389E+03  0.46999998093E+01 0. -1.
       -5    1    3    3    0  502  0.69426840687E+02 -0.59232237879E+02 -0.39436645937E+03  0.40481543756E+03  0.46999998093E+01 0.  1.
</event>
<event>
 5   0  0.7499834E-04  0.1580910E+04  0.7818609E-02  0.8832363E-01
        1   -1    0    0  501    0  0.00000000000E+00  0.00000000000E+00  0.86497491539E+03  0.86497491540E+03  0.50400001928E-02 0.  1.
       -1   -1    0    0    0  501  0.00000000000E+00  0.00000000000E+00 -0.72235478653E+03  0.72235478655E+03  0.50400001928E-02 0. -1.
    10030    2    1    2    0    0  0.00000000000E+00  0.00000000000E+00  0.14262012885E+03  0.15873297020E+04  0.15809095741E+04 0.  0.
        3    1    3    3  502    0  0.25795771568E+03 -0.59038720236E+03 -0.38850113970E+03  0.75235123283E+03  0.10100000352E+00 0. -1.
       -3    1    3    3    0  502 -0.25795771568E+03  0.59038720236E+03  0.53112126855E+03  0.83497846912E+03  0.10100000352E+00 0.  1.
</event>
<event>
 5   0  0.7302027E-04  0.1618182E+04  0.7818609E-02  0.8809456E-01
        1   -1    0    0  501    0  0.00000000000E+00  0.00000000000E+00  0.81591555695E+03  0.81591555696E+03  0.50400001928E-02 0. -1.
       -1   -1    0    0    0  501  0.00000000000E+00  0.00000000000E+00 -0.80232322295E+03  0.80232322297E+03  0.50400001928E-02 0.  1.
    10030    2    1    2    0    0  0.00000000000E+00  0.00000000000E+00  0.13592333992E+02  0.16182387799E+04  0.16181816948E+04 0.  0.
        5    1    3    3  502    0  0.75156522332E+03 -0.25526015610E+03 -0.15004646965E+03  0.80780199631E+03  0.46999998093E+01 0. -1.
       -5    1    3    3    0  502 -0.75156522332E+03  0.25526015610E+03  0.16363880364E+03  0.81043678362E+03  0.46999998093E+01 0.  1.
</event>
<event>
 5   0  0.1414751E-03  0.1575725E+04  0.7818609E-02  0.8835601E-01
        2   -1    0    0  501    0  0.00000000000E+00  0.00000000000E+00  0.75028572300E+03  0.75028572300E+03  0.25500000920E-02 0. -1.
       -2   -1    0    0    0  501  0.00000000000E+00  0.00000000000E+00 -0.82732149635E+03  0.82732149636E+03  0.25500000920E-02 0.  1.
    10030    2    1    2    0    0  0.00000000000E+00  0.00000000000E+00 -0.77035773351E+02  0.15776072194E+04  0.15757252388E+04 0.  0.
        2    1    3    3  502    0 -0.78345973701E+03 -0.79351314915E+02 -0.13553865833E+02  0.78758459735E+03  0.25500000920E-02 0.  1.
       -2    1    3    3    0  502  0.78345973701E+03  0.79351314915E+02 -0.63481907519E+02  0.79002262201E+03  0.25500000920E-02 0. -1.
</event>
<event>
 5   0  0.1354766E-03  0.1598510E+04  0.7818609E-02  0.8821464E-01
       -2   -1    0    0    0  501  0.00000000000E+00  0.00000000000E+00  0.61942660314E+03  0.61942660315E+03  0.25500000920E-02 0.  1.
        2   -1    0    0  501    0  0.00000000000E+00  0.00000000000E+00 -0.10312906984E+04  0.10312906984E+04  0.25500000920E-02 0. -1.
    10030    2    1    2    0    0  0.00000000000E+00  0.00000000000E+00 -0.41186409525E+03  0.16507173015E+04  0.15985104243E+04 0.  0.
        3    1    3    3  502    0 -0.19286501530E+03  0.35304748832E+02  0.59420634672E+03  0.62571921187E+03  0.10100000352E+00 0.  1.
       -3    1    3    3    0  502  0.19286501530E+03 -0.35304748832E+02 -0.10060704420E+04  0.10249980897E+04  0.10100000352E+00 0. -1.
</event>
<event>
 5   0  0.1354766E-03  0.1571810E+04  0.7818609E-02  0.8838056E-01
        2   -1    0    0  501    0  0.00000000000E+00  0.00000000000E+00  0.75500720404E+03  0.75500720405E+03  0.25500000920E-02 0.  1.
       -2   -1    0    0    0  501  0.00000000000E+00  0.00000000000E+00 -0.81806759108E+03  0.81806759108E+03  0.25500000920E-02 0. -1.
    10030    2    1    2    0    0  0.00000000000E+00  0.00000000000E+00 -0.63060387038E+02  0.15730747951E+04  0.15718103253E+04 0.  0.
        3    1    3    3  502    0 -0.47983242021E+03 -0.48522496077E+03 -0.42167003983E+03  0.80217706695E+03  0.10100000352E+00 0. -1.
       -3    1    3    3    0  502  0.47983242021E+03  0.48522496077E+03  0.35860965279E+03  0.77089772819E+03  0.10100000352E+00 0.  1.
</event>
<event>
 5   0  0.7124495E-04  0.1610987E+04  0.7818609E-02  0.8813826E-01
       -1   -1    0    0    0  501  0.00000000000E+00  0.00000000000E+00  0.73842758477E+03  0.73842758479E+03  0.50400001928E-02 0. -1.
        1   -1    0    0  501    0  0.00000000000E+00  0.00000000000E+00 -0.87865065773E+03  0.87865065775E+03  0.50400001928E-02 0.  1.
    10030    2    1    2    0    0  0.00000000000E+00  0.00000000000E+00 -0.14022307296E+03  0.16170782425E+04  0.16109871298E+04 0.  0.
        2    1    3    3  502    0 -0.76146487429E+03 -0.15546017210E+03  0.14240400610E+03  0.79011108133E+03  0.25500000920E-02 0.  1.
       -2    1    3    3    0  502  0.76146487429E+03  0.15546017210E+03 -0.28262707905E+03  0.82696716120E+03  0.25500000920E-02 0. -1.
</event>
<event>
 5   0  0.1414796E-03  0.1511016E+04  0.7818609E-02  0.8877160E-01
        2   -1    0    0  501    0  0.00000000000E+00  0.00000000000E+00  0.21571729607E+04  0.21571729607E+04  0.25500000920E-02 0.  1.
       -2   -1    0    0    0  501  0.00000000000E+00  0.00000000000E+00 -0.26460218122E+03  0.26460218124E+03  0.25500000920E-02 0. -1.
    10030    2    1    2    0    0  0.00000000000E+00  0.00000000000E+00  0.18925707795E+04  0.24217751420E+04  0.15110164403E+04 0.  0.
        4    1    3    3  502    0 -0.21803753588E+02  0.46735635030E+03  0.18970442270E+04  0.19538873493E+04  0.12699999809E+01 0.  1.
       -4    1    3    3    0  502  0.21803753588E+02 -0.46735635030E+03 -0.44734475099E+01  0.46788779261E+03  0.12699999809E+01 0. -1.
</event>
<event>
 5   0  0.1354766E-03  0.1440157E+04  0.7818609E-02  0.8925253E-01
        2   -1    0    0  501    0  0.00000000000E+00  0.00000000000E+00  0.58176777232E+03  0.58176777233E+03  0.25500000920E-02 0.  1.
       -2   -1    0    0    0  501  0.00000000000E+00  0.00000000000E+00 -0.89127210150E+03  0.89127210151E+03  0.25500000920E-02 0. -1.
    10030    2    1    2    0    0  0.00000000000E+00  0.00000000000E+00 -0.30950432918E+03  0.14730398738E+04  0.14401574706E+04 0.  0.
        3    1    3    3  502    0  0.59421069631E+03 -0.22752659687E+02  0.26061020439E+03  0.64924704386E+03  0.10100000352E+00 0.  1.
       -3    1    3    3    0  502 -0.59421069631E+03  0.22752659687E+02 -0.57011453356E+03  0.82379282997E+03  0.10100000352E+00 0. -1.
</event>
<event>
 5   0  0.1354766E-03  0.1433261E+04  0.7818609E-02  0.8930088E-01
        2   -1    0    0  501    0  0.00000000000E+00  0.00000000000E+00  0.16403404931E+04  0.16403404931E+04  0.25500000920E-02 0.  1.
       -2   -1    0    0    0  501  0.00000000000E+00  0.00000000000E+00 -0.31308104500E+03  0.31308104501E+03  0.25500000920E-02 0. -1.
    10030    2    1    2    0    0  0.00000000000E+00  0.00000000000E+00  0.13272594481E+04  0.19534215381E+04  0.14332613380E+04 0.  0.
        3    1    3    3  502    0  0.61697394791E+03 -0.12071647922E+03  0.11324629229E+04  0.12952612102E+04  0.10100000352E+00 0.  1.
       -3    1    3    3    0  502 -0.61697394791E+03  0.12071647922E+03  0.19479652516E+03  0.65816032786E+03  0.10100000352E+00 0. -1.
</event>
<event>
 5   0  0.1354766E-03  0.1565487E+04  0.7818609E-02  0.8842036E-01
        2   -1    0    0  501    0  0.00000000000E+00  0.00000000000E+00  0.20040560678E+04  0.20040560678E+04  0.25500000920E-02 0.  1.
       -2   -1    0    0    0  501  0.00000000000E+00  0.00000000000E+00 -0.30572356381E+03  0.30572356382E+03  0.25500000920E-02 0. -1.
    10030    2    1    2    0    0  0.00000000000E+00  0.00000000000E+00  0.16983325040E+04  0.23097796317E+04  0.15654867143E+04 0.  0.
        3    1    3    3  502    0 -0.25040762031E+03 -0.59416738124E+03  0.15039490764E+04  0.16363378893E+04  0.10100000352E+00 0.  1.
       -3    1    3    3    0  502  0.25040762031E+03  0.59416738124E+03  0.19438342760E+03  0.67344174237E+03  0.10100000352E+00 0. -1.
</event>
<event>
 5   0  0.1339162E-03  0.1517640E+04  0.7818609E-02  0.8872806E-01
        2   -1    0    0  501    0  0.00000000000E+00  0.00000000000E+00  0.12963950070E+04  0.12963950070E+04  0.25500000920E-02 0. -1.
       -2   -1    0    0    0  501  0.00000000000E+00  0.00000000000E+00 -0.44416080095E+03  0.44416080095E+03  0.25500000920E-02 0.  1.
    10030    2    1    2    0    0  0.00000000000E+00  0.00000000000E+00  0.85223420603E+03  0.17405558079E+04  0.15176400689E+04 0.  0.
        5    1    3    3  502    0  0.28257891901E+03  0.39826990770E+03 -0.23998013480E+03  0.54413446862E+03  0.46999998093E+01 0.  1.
       -5    1    3    3    0  502 -0.28257891901E+03 -0.39826990770E+03  0.10922143408E+04  0.11964213393E+04  0.46999998093E+01 0. -1.
</event>
<event>
 5   0  0.7499834E-04  0.1588340E+04  0.7818609E-02  0.8827743E-01
        1   -1    0    0  501    0  0.00000000000E+00  0.00000000000E+00  0.77856677470E+03  0.77856677471E+03  0.50400001928E-02 0. -1.
       -1   -1    0    0    0  501  0.00000000000E+00  0.00000000000E+00 -0.81008613919E+03  0.81008613920E+03  0.50400001928E-02 0.  1.
    10030    2    1    2    0    0  0.00000000000E+00  0.00000000000E+00 -0.31519364491E+02  0.15886529139E+04  0.15883402062E+04 0.  0.
        3    1    3    3  502    0  0.27250605395E+03 -0.71620163147E+03 -0.22437163487E+03  0.79846538253E+03  0.10100000352E+00 0. -1.
       -3    1    3    3    0  502 -0.27250605395E+03  0.71620163147E+03  0.19285227038E+03  0.79018753139E+03  0.10100000352E+00 0.  1.
</event>
<event>
 5   0  0.7124495E-04  0.1478720E+04  0.7818609E-02  0.8898728E-01
       -1   -1    0    0    0  501  0.00000000000E+00  0.00000000000E+00  0.33920398330E+03  0.33920398334E+03  0.50400001928E-02 0.  1.
        1   -1    0    0  501    0  0.00000000000E+00  0.00000000000E+00 -0.16115768455E+04  0.16115768455E+04  0.50400001928E-02 0. -1.
    10030    2    1    2    0    0  0.00000000000E+00  0.00000000000E+00 -0.12723728622E+04  0.19507808288E+04  0.14787201026E+04 0.  0.
        2    1    3    3  502    0 -0.38288059092E+03 -0.62513571881E+03 -0.76314239951E+03  0.10581958872E+04  0.25500000920E-02 0. -1.
       -2    1    3    3    0  502  0.38288059092E+03  0.62513571881E+03 -0.50923046266E+03  0.89258494159E+03  0.25500000920E-02 0.  1.
</event>
<event>
 5   0  0.7601145E-04  0.1559156E+04  0.7818609E-02  0.8846040E-01
        1   -1    0    0  501    0  0.00000000000E+00  0.00000000000E+00  0.78630643318E+03  0.78630643319E+03  0.50400001928E-02 0. -1.
       -1   -1    0    0    0  501  0.00000000000E+00  0.00000000000E+00 -0.77290755568E+03  0.77290755569E+03  0.50400001928E-02 0.  1.
    10030    2    1    2    0    0  0.00000000000E+00  0.00000000000E+00  0.13398877498E+02  0.15592139889E+04  0.15591564172E+04 0.  0.
        4    1    3    3  502    0 -0.97396154113E+02 -0.50856227231E+03 -0.57609045136E+03  0.77459887471E+03  0.12699999809E+01 0.  1.
       -4    1    3    3    0  502  0.97396154113E+02  0.50856227231E+03  0.58948932886E+03  0.78461511418E+03  0.12699999809E+01 0. -1.
</event>
<event>
 5   0  0.1354766E-03  0.1594650E+04  0.7818609E-02  0.8823841E-01
       -2   -1    0    0    0  501  0.00000000000E+00  0.00000000000E+00  0.39931629834E+03  0.39931629834E+03  0.25500000920E-02 0.  1.
        2   -1    0    0  501    0  0.00000000000E+00  0.00000000000E+00 -0.15920397058E+04  0.15920397058E+04  0.25500000920E-02 0. -1.
    10030    2    1    2    0    0  0.00000000000E+00  0.00000000000E+00 -0.11927234075E+04  0.19913560042E+04  0.15946503092E+04 0.  0.
        3    1    3    3  502    0  0.75391870032E+03  0.27520850223E+02 -0.91857556087E+03  0.11886681097E+04  0.10100000352E+00 0.  1.
       -3    1    3    3    0  502 -0.75391870032E+03 -0.27520850223E+02 -0.27414784664E+03  0.80268789445E+03  0.10100000352E+00 0. -1.
</event>
<event>
 5   0  0.1354766E-03  0.1598218E+04  0.7818609E-02  0.8821644E-01
       -2   -1    0    0    0  501  0.00000000000E+00  0.00000000000E+00  0.41854817853E+03  0.41854817853E+03  0.25500000920E-02 0.  1.
        2   -1    0    0  501    0  0.00000000000E+00  0.00000000000E+00 -0.15256906041E+04  0.15256906041E+04  0.25500000920E-02 0. -1.
    10030    2    1    2    0    0  0.00000000000E+00  0.00000000000E+00 -0.11071424256E+04  0.19442387826E+04  0.15982177866E+04 0.  0.
        3    1    3    3  502    0  0.27851264434E+03  0.74861366032E+03 -0.52419048918E+03  0.95538860398E+03  0.10100000352E+00 0. -1.
       -3    1    3    3    0  502 -0.27851264434E+03 -0.74861366032E+03 -0.58295193641E+03  0.98885017866E+03  0.10100000352E+00 0.  1.
</event>
<event>
 5   0  0.1375777E-03  0.1610064E+04  0.7818609E-02  0.8814389E-01
       -2   -1    0    0    0  501  0.00000000000E+00  0.00000000000E+00  0.30646329090E+03  0.30646329091E+03  0.25500000920E-02 0.  1.
        2   -1    0    0  501    0  0.00000000000E+00  0.00000000000E+00 -0.21146943919E+04  0.21146943919E+04  0.25500000920E-02 0. -1.
    10030    2    1    2    0    0  0.00000000000E+00  0.00000000000E+00 -0.18082311010E+04  0.24211576828E+04  0.16100636045E+04 0.  0.
        1    1    3    3  502    0 -0.53589729718E+03 -0.57042447870E+03 -0.62075971502E+03  0.99895576621E+03  0.50400001928E-02 0.  1.
       -1    1    3    3    0  502  0.53589729718E+03  0.57042447870E+03 -0.11874713860E+04  0.14222019166E+04  0.50400001928E-02 0. -1.
</event>
<event>
 5   0  0.7633213E-04  0.9018725E+03  0.7818609E-02  0.9423244E-01
       -1   -1    0    0    0  501  0.00000000000E+00  0.00000000000E+00  0.36226611108E+03  0.36226611112E+03  0.50400001928E-02 0.  1.
        1   -1    0    0  501    0  0.00000000000E+00  0.00000000000E+00 -0.56130977648E+03  0.56130977651E+03  0.50400001928E-02 0. -1.
    10030    2    1    2    0    0  0.00000000000E+00  0.00000000000E+00 -0.19904366540E+03  0.92357588762E+03  0.90187251841E+03 0.  0.
        1    1    3    3  502    0 -0.26298013581E+02  0.44909253284E+03 -0.13138030996E+03  0.46865389622E+03  0.50400001928E-02 0. -1.
       -1    1    3    3    0  502  0.26298013581E+02 -0.44909253284E+03 -0.67663355440E+02  0.45492199141E+03  0.50400001928E-02 0.  1.
</event>
<event>
 5   0  0.1414751E-03  0.1582636E+04  0.7818609E-02  0.8831287E-01
        2   -1    0    0  501    0  0.00000000000E+00  0.00000000000E+00  0.10665866541E+04  0.10665866541E+04  0.25500000920E-02 0. -1.
       -2   -1    0    0    0  501  0.00000000000E+00  0.00000000000E+00 -0.58709165471E+03  0.58709165472E+03  0.25500000920E-02 0.  1.
    10030    2    1    2    0    0  0.00000000000E+00  0.00000000000E+00  0.47949499935E+03  0.16536783088E+04  0.15826359324E+04 0.  0.
        2    1    3    3  502    0  0.21712990710E+03  0.74173049185E+03  0.41730050610E+03  0.87832182684E+03  0.25500000920E-02 0.  1.
       -2    1    3    3    0  502 -0.21712990710E+03 -0.74173049185E+03  0.62194493258E+02  0.77535648195E+03  0.25500000920E-02 0. -1.
</event>
<event>
 5   0  0.1354766E-03  0.1504924E+04  0.7818609E-02  0.8881185E-01
       -2   -1    0    0    0  501  0.00000000000E+00  0.00000000000E+00  0.80270608576E+03  0.80270608577E+03  0.25500000920E-02 0.  1.
        2   -1    0    0  501    0  0.00000000000E+00  0.00000000000E+00 -0.70536242231E+03  0.70536242231E+03  0.25500000920E-02 0. -1.
    10030    2    1    2    0    0  0.00000000000E+00  0.00000000000E+00  0.97343663452E+02  0.15080685081E+04  0.15049235317E+04 0.  0.
        3    1    3    3  502    0  0.19536588738E+03  0.47641768026E+03 -0.50116147993E+03  0.71854330084E+03  0.10100000352E+00 0. -1.
       -3    1    3    3    0  502 -0.19536588738E+03 -0.47641768026E+03  0.59850514338E+03  0.78952520724E+03  0.10100000352E+00 0.  1.
</event>
<event>
 5   0  0.7633213E-04  0.1618370E+04  0.7818609E-02  0.8809341E-01
        1   -1    0    0  501    0  0.00000000000E+00  0.00000000000E+00  0.11103199233E+04  0.11103199233E+04  0.50400001928E-02 0.  1.
       -1   -1    0    0    0  501  0.00000000000E+00  0.00000000000E+00 -0.58972223591E+03  0.58972223593E+03  0.50400001928E-02 0. -1.
    10030    2    1    2    0    0  0.00000000000E+00  0.00000000000E+00  0.52059768738E+03  0.17000421592E+04  0.16183699797E+04 0.  0.
        1    1    3    3  502    0  0.14336533116E+03  0.27942858207E+03  0.10436859906E+04  0.10899148580E+04  0.50400001928E-02 0.  1.
       -1    1    3    3    0  502 -0.14336533116E+03 -0.27942858207E+03 -0.52308830326E+03  0.61012730121E+03  0.50400001928E-02 0. -1.
</event>
<event>
 5   0  0.1414796E-03  0.1171533E+04  0.7818609E-02  0.9138145E-01
       -2   -1    0    0    0  501  0.00000000000E+00  0.00000000000E+00  0.22377331178E+03  0.22377331179E+03  0.25500000920E-02 0. -1.
        2   -1    0    0  501    0  0.00000000000E+00  0.00000000000E+00 -0.15333493748E+04  0.15333493748E+04  0.25500000920E-02 0.  1.
    10030    2    1    2    0    0  0.00000000000E+00  0.00000000000E+00 -0.13095760630E+04  0.17571226866E+04  0.11715334698E+04 0.  0.
        4    1    3    3  502    0  0.51067911586E+03 -0.27471239101E+03 -0.53055387339E+03  0.78597015377E+03  0.12699999809E+01 0. -1.
       -4    1    3    3    0  502 -0.51067911586E+03  0.27471239101E+03 -0.77902218959E+03  0.97115253278E+03  0.12699999809E+01 0.  1.
</event>
<event>
 5   0  0.5095750E-04  0.1581247E+04  0.7818609E-02  0.8832152E-01
        3   -1    0    0  501    0  0.00000000000E+00  0.00000000000E+00  0.83207013580E+03  0.83207014193E+03  0.10100000352E+00 0.  1.
       -3   -1    0    0    0  501  0.00000000000E+00  0.00000000000E+00 -0.75124095417E+03  0.75124096096E+03  0.10100000352E+00 0. -1.
    10030    2    1    2    0    0  0.00000000000E+00  0.00000000000E+00  0.80829181626E+02  0.15833111029E+04  0.15812465627E+04 0.  0.
        4    1    3    3  502    0  0.65935578586E+03  0.43483063611E+03  0.49306917898E+01  0.78984407263E+03  0.12699999809E+01 0.  1.
       -4    1    3    3    0  502 -0.65935578586E+03 -0.43483063611E+03  0.75898489836E+02  0.79346703026E+03  0.12699999809E+01 0. -1.
</event>
<event>
 5   0  0.1339162E-03  0.1626440E+04  0.7818609E-02  0.8804468E-01
        2   -1    0    0  501    0  0.00000000000E+00  0.00000000000E+00  0.10866864645E+04  0.10866864645E+04  0.25500000920E-02 0. -1.
       -2   -1    0    0    0  501  0.00000000000E+00  0.00000000000E+00 -0.60857163784E+03  0.60857163785E+03  0.25500000920E-02 0.  1.
    10030    2    1    2    0    0  0.00000000000E+00  0.00000000000E+00  0.47811482670E+03  0.16952581024E+04  0.16264397456E+04 0.  0.
        5    1    3    3  502    0  0.49554071545E+03 -0.54324661089E+03 -0.12295219426E+03  0.74553122871E+03  0.46999998093E+01 0.  1.
       -5    1    3    3    0  502 -0.49554071545E+03  0.54324661089E+03  0.60106702096E+03  0.94972687368E+03  0.46999998093E+01 0. -1.
</event>
<event>
 5   0  0.1414796E-03  0.1625369E+04  0.7818609E-02  0.8805113E-01
       -2   -1    0    0    0  501  0.00000000000E+00  0.00000000000E+00  0.47793146357E+03  0.47793146357E+03  0.25500000920E-02 0. -1.
        2   -1    0    0  501    0  0.00000000000E+00  0.00000000000E+00 -0.13819057767E+04  0.13819057767E+04  0.25500000920E-02 0.  1.
    10030    2    1    2    0    0  0.00000000000E+00  0.00000000000E+00 -0.90397431317E+03  0.18598372403E+04  0.16253691893E+04 0.  0.
        4    1    3    3  502    0 -0.66538878385E+03  0.31034935863E+03 -0.85066723188E+03  0.11236971613E+04  0.12699999809E+01 0.  1.
       -4    1    3    3    0  502  0.66538878385E+03 -0.31034935863E+03 -0.53307081285E+02  0.73614007898E+03  0.12699999809E+01 0. -1.
</event>
<event>
 5   0  0.1354766E-03  0.1570103E+04  0.7818609E-02  0.8839128E-01
       -2   -1    0    0    0  501  0.00000000000E+00  0.00000000000E+00  0.81840745769E+03  0.81840745770E+03  0.25500000920E-02 0.  1.
        2   -1    0    0  501    0  0.00000000000E+00  0.00000000000E+00 -0.75305536113E+03  0.75305536113E+03  0.25500000920E-02 0. -1.
    10030    2    1    2    0    0  0.00000000000E+00  0.00000000000E+00  0.65352096564E+02  0.15714628188E+04  0.15701033388E+04 0.  0.
        3    1    3    3  502    0  0.57421999215E+03 -0.34805698755E+03  0.43976382080E+03  0.80266088372E+03  0.10100000352E+00 0.  1.
       -3    1    3    3    0  502 -0.57421999215E+03  0.34805698755E+03 -0.37441172424E+03  0.76880193511E+03  0.10100000352E+00 0. -1.
</event>
<event>
 5   0  0.1354766E-03  0.1605147E+04  0.7818609E-02  0.8817392E-01
       -2   -1    0    0    0  501  0.00000000000E+00  0.00000000000E+00  0.54587567518E+03  0.54587567518E+03  0.25500000920E-02 0. -1.
        2   -1    0    0  501    0  0.00000000000E+00  0.00000000000E+00 -0.11799831496E+04  0.11799831496E+04  0.25500000920E-02 0.  1.
    10030    2    1    2    0    0  0.00000000000E+00  0.00000000000E+00 -0.63410747442E+03  0.17258588248E+04  0.16051468450E+04 0.  0.
        3    1    3    3  502    0  0.25052822758E+03 -0.64006097593E+03  0.12845110416E+03  0.69924397895E+03  0.10100000352E+00 0. -1.
       -3    1    3    3    0  502 -0.25052822758E+03  0.64006097593E+03 -0.76255857857E+03  0.10266148458E+04  0.10100000352E+00 0.  1.
</event>
<event>
 5   0  0.1414796E-03  0.1623307E+04  0.7818609E-02  0.8806356E-01
        2   -1    0    0  501    0  0.00000000000E+00  0.00000000000E+00  0.19751238203E+04  0.19751238203E+04  0.25500000920E-02 0. -1.
       -2   -1    0    0    0  501  0.00000000000E+00  0.00000000000E+00 -0.33353949634E+03  0.33353949635E+03  0.25500000920E-02 0.  1.
    10030    2    1    2    0    0  0.00000000000E+00  0.00000000000E+00  0.16415843240E+04  0.23086633166E+04  0.16233074930E+04 0.  0.
        4    1    3    3  502    0  0.94949506811E+02  0.51933749646E+03  0.16975549115E+04  0.17777573328E+04  0.12699999809E+01 0. -1.
       -4    1    3    3    0  502 -0.94949506811E+02 -0.51933749646E+03 -0.55970587513E+02  0.53090598381E+03  0.12699999809E+01 0.  1.
</event>
<event>
 5   0  0.1354766E-03  0.1351004E+04  0.7818609E-02  0.8990068E-01
       -2   -1    0    0    0  501  0.00000000000E+00  0.00000000000E+00  0.60434659456E+03  0.60434659457E+03  0.25500000920E-02 0.  1.
        2   -1    0    0  501    0  0.00000000000E+00  0.00000000000E+00 -0.75503539858E+03  0.75503539858E+03  0.25500000920E-02 0. -1.
    10030    2    1    2    0    0  0.00000000000E+00  0.00000000000E+00 -0.15068880401E+03  0.13593819932E+04  0.13510041775E+04 0.  0.
        3    1    3    3  502    0 -0.23024542221E+03 -0.25939698005E+03  0.50790808768E+03  0.61503689600E+03  0.10100000352E+00 0. -1.
       -3    1    3    3    0  502  0.23024542221E+03  0.25939698005E+03 -0.65859689169E+03  0.74434509715E+03  0.10100000352E+00 0.  1.
</event>
<event>
 5   0  0.7302027E-04  0.1583851E+04  0.7818609E-02  0.8830531E-01
        1   -1    0    0  501    0  0.00000000000E+00  0.00000000000E+00  0.10012512887E+04  0.10012512887E+04  0.50400001928E-02 0. -1.
       -1   -1    0    0    0  501  0.00000000000E+00  0.00000000000E+00 -0.62636186131E+03  0.62636186133E+03  0.50400001928E-02 0.  1.
    10030    2    1    2    0    0  0.00000000000E+00  0.00000000000E+00  0.37488942737E+03  0.16276131500E+04  0.15838505243E+04 0.  0.
        5    1    3    3  502    0  0.47908294627E+03 -0.58386015113E+03 -0.57274628489E+02  0.75744017489E+03  0.46999998093E+01 0. -1.
       -5    1    3    3    0  502 -0.47908294627E+03  0.58386015113E+03  0.43216405586E+03  0.87017297513E+03  0.46999998093E+01 0.  1.
</event>
<event>
 5   0  0.1375777E-03  0.1644092E+04  0.7818609E-02  0.8793909E-01
       -2   -1    0    0    0  501  0.00000000000E+00  0.00000000000E+00  0.24321256860E+03  0.24321256861E+03  0.25500000920E-02 0.  1.
        2   -1    0    0  501    0  0.00000000000E+00  0.00000000000E+00 -0.27784741820E+04  0.27784741820E+04  0.25500000920E-02 0. -1.
    10030    2    1    2    0    0  0.00000000000E+00  0.00000000000E+00 -0.25352616134E+04  0.30216867506E+04  0.16440922633E+04 0.  0.
        1    1    3    3  502    0 -0.69596446380E+03 -0.96381258788E+02 -0.48332947864E+03  0.85279731875E+03  0.50400001928E-02 0.  1.
       -1    1    3    3    0  502  0.69596446380E+03  0.96381258788E+02 -0.20519321347E+04  0.21688894318E+04  0.50400001928E-02 0. -1.
</event>
<event>
 5   0  0.7499834E-04  0.1628782E+04  0.7818609E-02  0.8803058E-01
        1   -1    0    0  501    0  0.00000000000E+00  0.00000000000E+00  0.48497572636E+03  0.48497572638E+03  0.50400001928E-02 0.  1.
       -1   -1    0    0    0  501  0.00000000000E+00  0.00000000000E+00 -0.13675592364E+04  0.13675592365E+04  0.50400001928E-02 0. -1.
    10030    2    1    2    0    0  0.00000000000E+00  0.00000000000E+00 -0.88258351009E+03  0.18525349628E+04  0.16287824091E+04 0.  0.
        3    1    3    3  502    0 -0.32334745151E+03  0.10672256317E+03 -0.12827101412E+04  0.13271354853E+04  0.10100000352E+00 0. -1.
       -3    1    3    3    0  502  0.32334745151E+03 -0.10672256317E+03  0.40012663108E+03  0.52539947753E+03  0.10100000352E+00 0.  1.
</event>
<event>
 5   0  0.1414796E-03  0.1569904E+04  0.7818609E-02  0.8839253E-01
       -2   -1    0    0    0  501  0.00000000000E+00  0.00000000000E+00  0.38940925393E+03  0.38940925393E+03  0.25500000920E-02 0.  1.
        2   -1    0    0  501    0  0.00000000000E+00  0.00000000000E+00 -0.15822682884E+04  0.15822682884E+04  0.25500000920E-02 0. -1.
    10030    2    1    2    0    0  0.00000000000E+00  0.00000000000E+00 -0.11928590345E+04  0.19716775424E+04  0.15699043458E+04 0.  0.
        4    1    3    3  502    0 -0.89580429210E+02 -0.43837009205E+03  0.21357237695E+03  0.49579004024E+03  0.12699999809E+01 0.  1.
       -4    1    3    3    0  502  0.89580429210E+02  0.43837009205E+03 -0.14064314114E+04  0.14758875021E+04  0.12699999809E+01 0. -1.
</event>
<event>
 5   0  0.1375777E-03  0.1634717E+04  0.7818609E-02  0.8799499E-01
       -2   -1    0    0    0  501  0.00000000000E+00  0.00000000000E+00  0.61705400066E+03  0.61705400067E+03  0.25500000920E-02 0. -1.
        2   -1    0    0  501    0  0.00000000000E+00  0.00000000000E+00 -0.10826847092E+04  0.10826847092E+04  0.25500000920E-02 0.  1.
    10030    2    1    2    0    0  0.00000000000E+00  0.00000000000E+00 -0.46563070853E+03  0.16997387099E+04  0.16347170168E+04 0.  0.
        1    1    3    3  502    0  0.19447181279E+03 -0.62060670327E+03 -0.74758610724E+03  0.99088695313E+03  0.50400001928E-02 0.  1.
       -1    1    3    3    0  502 -0.19447181279E+03  0.62060670327E+03  0.28195539872E+03  0.70885175672E+03  0.50400001928E-02 0. -1.
</event>
<event>
 5   0  0.5095750E-04  0.1599086E+04  0.7818609E-02  0.8821109E-01
       -3   -1    0    0    0  501  0.00000000000E+00  0.00000000000E+00  0.69354184269E+03  0.69354185005E+03  0.10100000352E+00 0.  1.
        3   -1    0    0  501    0  0.00000000000E+00  0.00000000000E+00 -0.92174586233E+03  0.92174586787E+03  0.10100000352E+00 0. -1.
    10030    2    1    2    0    0  0.00000000000E+00  0.00000000000E+00 -0.22820401964E+03  0.16152877179E+04  0.15990864070E+04 0.  0.
        5    1    3    3  502    0 -0.11837677895E+03  0.64233326745E+03 -0.57990539754E+03  0.87345145736E+03  0.46999998093E+01 0. -1.
       -5    1    3    3    0  502  0.11837677895E+03 -0.64233326745E+03  0.35170137790E+03  0.74183626056E+03  0.46999998093E+01 0.  1.
</event>
<event>
 5   0  0.1414796E-03  0.1574399E+04  0.7818609E-02  0.8836432E-01
       -2   -1    0    0    0  501  0.00000000000E+00  0.00000000000E+00  0.60212418097E+03  0.60212418098E+03  0.25500000920E-02 0.  1.
        2   -1    0    0  501    0  0.00000000000E+00  0.00000000000E+00 -0.10291620087E+04  0.10291620087E+04  0.25500000920E-02 0. -1.
    10030    2    1    2    0    0  0.00000000000E+00  0.00000000000E+00 -0.42703782773E+03  0.16312861897E+04  0.15743993542E+04 0.  0.
        4    1    3    3  502    0 -0.27576946337E+02 -0.16915494446E+03 -0.10095949129E+04  0.10240397376E+04  0.12699999809E+01 0. -1.
       -4    1    3    3    0  502  0.27576946337E+02  0.16915494446E+03  0.58255708514E+03  0.60724645208E+03  0.12699999809E+01 0.  1.
</event>
<event>
 5   0  0.1375777E-03  0.1474347E+04  0.7818609E-02  0.8901693E-01
        2   -1    0    0  501    0  0.00000000000E+00  0.00000000000E+00  0.18074668573E+04  0.18074668573E+04  0.25500000920E-02 0.  1.
       -2   -1    0    0    0  501  0.00000000000E+00  0.00000000000E+00 -0.30065551882E+03  0.30065551884E+03  0.25500000920E-02 0. -1.
    10030    2    1    2    0    0  0.00000000000E+00  0.00000000000E+00  0.15068113385E+04  0.21081223761E+04  0.14743471582E+04 0.  0.
        1    1    3    3  502    0  0.62200611945E+03 -0.66911315817E+02  0.19583739482E+03  0.65553109922E+03  0.50400001928E-02 0. -1.
       -1    1    3    3    0  502 -0.62200611945E+03  0.66911315817E+02  0.13109739437E+04  0.14525912769E+04  0.50400001928E-02 0.  1.
</event>
<event>
 5   0  0.7601145E-04  0.1594723E+04  0.7818609E-02  0.8823797E-01
        1   -1    0    0  501    0  0.00000000000E+00  0.00000000000E+00  0.57518100020E+03  0.57518100022E+03  0.50400001928E-02 0.  1.
       -1   -1    0    0    0  501  0.00000000000E+00  0.00000000000E+00 -0.11053653085E+04  0.11053653085E+04  0.50400001928E-02 0. -1.
    10030    2    1    2    0    0  0.00000000000E+00  0.00000000000E+00 -0.53018430828E+03  0.16805463087E+04  0.15947227016E+04 0.  0.
        4    1    3    3  502    0  0.55671466302E+03  0.39539613084E+03  0.16878655843E+03  0.70339166295E+03  0.12699999809E+01 0.  1.
       -4    1    3    3    0  502 -0.55671466302E+03 -0.39539613084E+03 -0.69897086671E+03  0.97715464575E+03  0.12699999809E+01 0. -1.
</event>
<event>
 5   0  0.7302027E-04  0.1623323E+04  0.7818609E-02  0.8806347E-01
        1   -1    0    0  501    0  0.00000000000E+00  0.00000000000E+00  0.82447956072E+03  0.82447956074E+03  0.50400001928E-02 0.  1.
       -1   -1    0    0    0  501  0.00000000000E+00  0.00000000000E+00 -0.79904261345E+03  0.79904261346E+03  0.50400001928E-02 0. -1.
    10030    2    1    2    0    0  0.00000000000E+00  0.00000000000E+00  0.25436947274E+02  0.16235221742E+04  0.16233228920E+04 0.  0.
        5    1    3    3  502    0  0.64289394699E+03 -0.48959369242E+03  0.88606654137E+02  0.81295008450E+03  0.46999998093E+01 0.  1.
       -5    1    3    3    0  502 -0.64289394699E+03  0.48959369242E+03 -0.63169706862E+02  0.81057208970E+03  0.46999998093E+01 0. -1.
</event>
<event>
 5   0  0.1414796E-03  0.1595158E+04  0.7818609E-02  0.8823528E-01
        2   -1    0    0  501    0  0.00000000000E+00  0.00000000000E+00  0.47672948431E+03  0.47672948432E+03  0.25500000920E-02 0.  1.
       -2   -1    0    0    0  501  0.00000000000E+00  0.00000000000E+00 -0.13343674160E+04  0.13343674160E+04  0.25500000920E-02 0. -1.
    10030    2    1    2    0    0  0.00000000000E+00  0.00000000000E+00 -0.85763793170E+03  0.18110969003E+04  0.15951580362E+04 0.  0.
        4    1    3    3  502    0 -0.62999164550E+03 -0.36118316120E+03 -0.54339228504E+02  0.72821501906E+03  0.12699999809E+01 0.  1.
       -4    1    3    3    0  502  0.62999164550E+03  0.36118316120E+03 -0.80329870320E+03  0.10828818813E+04  0.12699999809E+01 0. -1.
</event>
<event>
 5   0  0.1375777E-03  0.1530798E+04  0.7818609E-02  0.8864227E-01
        2   -1    0    0  501    0  0.00000000000E+00  0.00000000000E+00  0.16052776029E+04  0.16052776029E+04  0.25500000920E-02 0.  1.
       -2   -1    0    0    0  501  0.00000000000E+00  0.00000000000E+00 -0.36494371297E+03  0.36494371298E+03  0.25500000920E-02 0. -1.
    10030    2    1    2    0    0  0.00000000000E+00  0.00000000000E+00  0.12403338899E+04  0.19702213158E+04  0.15307984436E+04 0.  0.
        1    1    3    3  502    0  0.61308299330E+03 -0.10184348538E+03  0.45164381113E+02  0.62312332129E+03  0.50400001928E-02 0. -1.
       -1    1    3    3    0  502 -0.61308299330E+03  0.10184348538E+03  0.11951695088E+04  0.13470979945E+04  0.50400001928E-02 0.  1.
</event>
<event>
 5   0  0.1414751E-03  0.1603530E+04  0.7818609E-02  0.8818382E-01
        2   -1    0    0  501    0  0.00000000000E+00  0.00000000000E+00  0.51850025842E+03  0.51850025843E+03  0.25500000920E-02 0. -1.
       -2   -1    0    0    0  501  0.00000000000E+00  0.00000000000E+00 -0.12397822524E+04  0.12397822524E+04  0.25500000920E-02 0.  1.
    10030    2    1    2    0    0  0.00000000000E+00  0.00000000000E+00 -0.72128199395E+03  0.17582825108E+04  0.16035303779E+04 0.  0.
        2    1    3    3  502    0  0.29161131465E+03  0.71201969875E+03 -0.11345655192E+03  0.77774134480E+03  0.25500000920E-02 0. -1.
       -2    1    3    3    0  502 -0.29161131465E+03 -0.71201969875E+03 -0.60782544203E+03  0.98054116600E+03  0.25500000920E-02 0.  1.
</event>
<event>
 5   0  0.1339162E-03  0.1540042E+04  0.7818609E-02  0.8858254E-01
        2   -1    0    0  501    0  0.00000000000E+00  0.00000000000E+00  0.13849605556E+04  0.13849605556E+04  0.25500000920E-02 0. -1.
       -2   -1    0    0    0  501  0.00000000000E+00  0.00000000000E+00 -0.42812196284E+03  0.42812196285E+03  0.25500000920E-02 0.  1.
    10030    2    1    2    0    0  0.00000000000E+00  0.00000000000E+00  0.95683859278E+03  0.18130825185E+04  0.15400415988E+04 0.  0.
        5    1    3    3  502    0  0.19781791461E+03  0.48389879813E+03 -0.18716347233E+03  0.55528571884E+03  0.46999998093E+01 0. -1.
       -5    1    3    3    0  502 -0.19781791461E+03 -0.48389879813E+03  0.11440020651E+04  0.12577967996E+04  0.46999998093E+01 0.  1.
</event>
<event>
 5   0  0.1414751E-03  0.1596911E+04  0.7818609E-02  0.8822448E-01
        2   -1    0    0  501    0  0.00000000000E+00  0.00000000000E+00  0.43045393870E+03  0.43045393871E+03  0.25500000920E-02 0.  1.
       -2   -1    0    0    0  501  0.00000000000E+00  0.00000000000E+00 -0.14810677123E+04  0.14810677123E+04  0.25500000920E-02 0. -1.
    10030    2    1    2    0    0  0.00000000000E+00  0.00000000000E+00 -0.10506137736E+04  0.19115216510E+04  0.15969113065E+04 0.  0.
        2    1    3    3  502    0  0.50627385284E+03  0.33991350319E+03 -0.11422930530E+04  0.12948698092E+04  0.25500000920E-02 0. -1.
       -2    1    3    3    0  502 -0.50627385284E+03 -0.33991350319E+03  0.91679279455E+02  0.61665184181E+03  0.25500000920E-02 0.  1.
</event>
<event>
 5   0  0.7499834E-04  0.1611414E+04  0.7818609E-02  0.8813567E-01
       -1   -1    0    0    0  501  0.00000000000E+00  0.00000000000E+00  0.10059275869E+04  0.10059275869E+04  0.50400001928E-02 0.  1.
        1   -1    0    0  501    0  0.00000000000E+00  0.00000000000E+00 -0.64533833456E+03  0.64533833458E+03  0.50400001928E-02 0. -1.
    10030    2    1    2    0    0  0.00000000000E+00  0.00000000000E+00  0.36058925233E+03  0.16512659215E+04  0.16114138309E+04 0.  0.
        3    1    3    3  502    0 -0.73069849759E+03  0.19636804403E+03  0.46405990401E+03  0.88759918195E+03  0.10100000352E+00 0.  1.
       -3    1    3    3    0  502  0.73069849759E+03 -0.19636804403E+03 -0.10347065169E+03  0.76366673952E+03  0.10100000352E+00 0. -1.
</event>
<event>
 5   0  0.1375777E-03  0.2024836E+04  0.7818609E-02  0.8595096E-01
        2   -1    0    0  501    0  0.00000000000E+00  0.00000000000E+00  0.70002880461E+03  0.70002880461E+03  0.25500000920E-02 0.  1.
       -2   -1    0    0    0  501  0.00000000000E+00  0.00000000000E+00 -0.14642119236E+04  0.14642119236E+04  0.25500000920E-02 0. -1.
    10030    2    1    2    0    0  0.00000000000E+00  0.00000000000E+00 -0.76418311895E+03  0.21642407282E+04  0.20248363120E+04 0.  0.
        1    1    3    3  502    0  0.95885882825E+03  0.28926522892E+03 -0.22389531502E+03  0.10262620218E+04  0.50400001928E-02 0.  1.
       -1    1    3    3    0  502 -0.95885882825E+03 -0.28926522892E+03 -0.54028780393E+03  0.11379787064E+04  0.50400001928E-02 0. -1.
</event>
<event>
 5   0  0.7124495E-04  0.1601584E+04  0.7818609E-02  0.8819575E-01
       -1   -1    0    0    0  501  0.00000000000E+00  0.00000000000E+00  0.59715616647E+03  0.59715616649E+03  0.50400001928E-02 0. -1.
        1   -1    0    0  501    0  0.00000000000E+00  0.00000000000E+00 -0.10738701394E+04  0.10738701394E+04  0.50400001928E-02 0.  1.
    10030    2    1    2    0    0  0.00000000000E+00  0.00000000000E+00 -0.47671397294E+03  0.16710263059E+04  0.16015844352E+04 0.  0.
        2    1    3    3  502    0 -0.22255959629E+03  0.73695095776E+03 -0.46846109426E+03  0.90115774695E+03  0.25500000920E-02 0.  1.
       -2    1    3    3    0  502  0.22255959629E+03 -0.73695095776E+03 -0.82528786771E+01  0.76986855895E+03  0.25500000920E-02 0. -1.
</event>
<event>
 5   0  0.7601145E-04  0.1569153E+04  0.7818609E-02  0.8839726E-01
       -1   -1    0    0    0  501  0.00000000000E+00  0.00000000000E+00  0.83279920149E+03  0.83279920151E+03  0.50400001928E-02 0. -1.
        1   -1    0    0  501    0  0.00000000000E+00  0.00000000000E+00 -0.73914564859E+03  0.73914564860E+03  0.50400001928E-02 0.  1.
    10030    2    1    2    0    0  0.00000000000E+00  0.00000000000E+00  0.93653552907E+02  0.15719448501E+04  0.15691525177E+04 0.  0.
        4    1    3    3  502    0  0.36338672320E+03 -0.67971406571E+03  0.19370682457E+03  0.79472326537E+03  0.12699999809E+01 0.  1.
       -4    1    3    3    0  502 -0.36338672320E+03  0.67971406571E+03 -0.10005327166E+03  0.77722158475E+03  0.12699999809E+01 0. -1.
</event>
<event>
 5   0  0.1354766E-03  0.1575274E+04  0.7818609E-02  0.8835884E-01
       -2   -1    0    0    0  501  0.00000000000E+00  0.00000000000E+00  0.23533911276E+03  0.23533911277E+03  0.25500000920E-02 0.  1.
        2   -1    0    0  501    0  0.00000000000E+00  0.00000000000E+00 -0.26360757324E+04  0.26360757324E+04  0.25500000920E-02 0. -1.
    10030    2    1    2    0    0  0.00000000000E+00  0.00000000000E+00 -0.24007366197E+04  0.28714148452E+04  0.15752735941E+04 0.  0.
        3    1    3    3  502    0 -0.64723884447E+03  0.14351240829E+03 -0.19755589976E+04  0.20838299586E+04  0.10100000352E+00 0. -1.
       -3    1    3    3    0  502  0.64723884447E+03 -0.14351240829E+03 -0.42517762208E+03  0.78758488662E+03  0.10100000352E+00 0.  1.
</event>
<event>
 5   0  0.1339162E-03  0.1612060E+04  0.7818609E-02  0.8813173E-01
        2   -1    0    0  501    0  0.00000000000E+00  0.00000000000E+00  0.23169112635E+03  0.23169112636E+03  0.25500000920E-02 0.  1.
       -2   -1    0    0    0  501  0.00000000000E+00  0.00000000000E+00 -0.28040969504E+04  0.28040969505E+04  0.25500000920E-02 0. -1.
    10030    2    1    2    0    0  0.00000000000E+00  0.00000000000E+00 -0.25724058241E+04  0.30357880768E+04  0.16120600248E+04 0.  0.
        5    1    3    3  502    0 -0.42313059398E+03  0.37994706365E+03 -0.21054501922E+03  0.60642441067E+03  0.46999998093E+01 0.  1.
       -5    1    3    3    0  502  0.42313059398E+03 -0.37994706365E+03 -0.23618608049E+04  0.24293636661E+04  0.46999998093E+01 0. -1.
</event>
<event>
 5   0  0.1339162E-03  0.9097447E+03  0.7818609E-02  0.9413481E-01
        2   -1    0    0  501    0  0.00000000000E+00  0.00000000000E+00  0.14300950089E+04  0.14300950090E+04  0.25500000920E-02 0. -1.
       -2   -1    0    0    0  501  0.00000000000E+00  0.00000000000E+00 -0.14468190681E+03  0.14468190684E+03  0.25500000920E-02 0.  1.
    10030    2    1    2    0    0  0.00000000000E+00  0.00000000000E+00  0.12854131021E+04  0.15747769158E+04  0.90974473967E+03 0.  0.
        5    1    3    3  502    0 -0.28486954939E+03  0.18465753178E+03  0.11870011500E+03  0.35966772376E+03  0.46999998093E+01 0.  1.
       -5    1    3    3    0  502  0.28486954939E+03 -0.18465753178E+03  0.11667129871E+04  0.12151091920E+04  0.46999998093E+01 0. -1.
</event>
<event>
 5   0  0.1375777E-03  0.1556213E+04  0.7818609E-02  0.8847909E-01
       -2   -1    0    0    0  501  0.00000000000E+00  0.00000000000E+00  0.77978707626E+03  0.77978707626E+03  0.25500000920E-02 0.  1.
        2   -1    0    0  501    0  0.00000000000E+00  0.00000000000E+00 -0.77642969641E+03  0.77642969641E+03  0.25500000920E-02 0. -1.
    10030    2    1    2    0    0  0.00000000000E+00  0.00000000000E+00  0.33573798532E+01  0.15562167727E+04  0.15562131511E+04 0.  0.
        1    1    3    3  502    0  0.57454876441E+03 -0.44402785035E+03 -0.27793388523E+03  0.77750515056E+03  0.50400001928E-02 0.  1.
       -1    1    3    3    0  502 -0.57454876441E+03  0.44402785035E+03  0.28129126508E+03  0.77871162211E+03  0.50400001928E-02 0. -1.
</event>
<event>
 5   0  0.7601145E-04  0.1623053E+04  0.7818609E-02  0.8806510E-01
        1   -1    0    0  501    0  0.00000000000E+00  0.00000000000E+00  0.11650091958E+04  0.11650091959E+04  0.50400001928E-02 0. -1.
       -1   -1    0    0    0  501  0.00000000000E+00  0.00000000000E+00 -0.56529601512E+03  0.56529601514E+03  0.50400001928E-02 0.  1.
    10030    2    1    2    0    0  0.00000000000E+00  0.00000000000E+00  0.59971318072E+03  0.17303052110E+04  0.16230527484E+04 0.  0.
        4    1    3    3  502    0  0.62465024866E+03 -0.50542172423E+03  0.42110137539E+03  0.90717530485E+03  0.12699999809E+01 0. -1.
       -4    1    3    3    0  502 -0.62465024866E+03  0.50542172423E+03  0.17861180533E+03  0.82312990614E+03  0.12699999809E+01 0.  1.
</event>
<event>
 5   0  0.5095750E-04  0.1590376E+04  0.7818609E-02  0.8826482E-01
       -3   -1    0    0    0  501  0.00000000000E+00  0.00000000000E+00  0.12756861303E+04  0.12756861342E+04  0.10100000352E+00 0.  1.
        3   -1    0    0  501    0  0.00000000000E+00  0.00000000000E+00 -0.49567385428E+03  0.49567386457E+03  0.10100000352E+00 0. -1.
    10030    2    1    2    0    0  0.00000000000E+00  0.00000000000E+00  0.78001227597E+03  0.17713599988E+04  0.15903764003E+04 0.  0.
        4    1    3    3  502    0 -0.24067952839E+03  0.22329358505E+03  0.11966736395E+04  0.12408932560E+04  0.12699999809E+01 0.  1.
       -4    1    3    3    0  502  0.24067952839E+03 -0.22329358505E+03 -0.41666136349E+03  0.53046674282E+03  0.12699999809E+01 0. -1.
</event>
<event>
 5   0  0.1339162E-03  0.1624579E+04  0.7818609E-02  0.8805589E-01
       -2   -1    0    0    0  501  0.00000000000E+00  0.00000000000E+00  0.30949769143E+03  0.30949769144E+03  0.25500000920E-02 0.  1.
        2   -1    0    0  501    0  0.00000000000E+00  0.00000000000E+00 -0.21318886988E+04  0.21318886988E+04  0.25500000920E-02 0. -1.
    10030    2    1    2    0    0  0.00000000000E+00  0.00000000000E+00 -0.18223910074E+04  0.24413863902E+04  0.16245794910E+04 0.  0.
        5    1    3    3  502    0  0.28128777080E+03 -0.54761635319E+02  0.23098776988E+03  0.36810200561E+03  0.46999998093E+01 0.  1.
       -5    1    3    3    0  502 -0.28128777080E+03  0.54761635319E+02 -0.20533787772E+04  0.20732843846E+04  0.46999998093E+01 0. -1.
</event>
<event>
 5   0  0.1414751E-03  0.1621009E+04  0.7818609E-02  0.8807744E-01
        2   -1    0    0  501    0  0.00000000000E+00  0.00000000000E+00  0.12655687486E+04  0.12655687486E+04  0.25500000920E-02 0.  1.
       -2   -1    0    0    0  501  0.00000000000E+00  0.00000000000E+00 -0.51906919398E+03  0.51906919398E+03  0.25500000920E-02 0. -1.
    10030    2    1    2    0    0  0.00000000000E+00  0.00000000000E+00  0.74649955466E+03  0.17846379426E+04  0.16210092539E+04 0.  0.
        2    1    3    3  502    0 -0.76565492871E+03 -0.24676692701E+02  0.66470096576E+03  0.10142306360E+04  0.25500000920E-02 0.  1.
       -2    1    3    3    0  502  0.76565492871E+03  0.24676692701E+02  0.81798588907E+02  0.77040730667E+03  0.25500000920E-02 0. -1.
</event>
<event>
 5   0  0.1354766E-03  0.1232157E+04  0.7818609E-02  0.9085166E-01
        2   -1    0    0  501    0  0.00000000000E+00  0.00000000000E+00  0.50761618560E+03  0.50761618560E+03  0.25500000920E-02 0. -1.
       -2   -1    0    0    0  501  0.00000000000E+00  0.00000000000E+00 -0.74771653156E+03  0.74771653157E+03  0.25500000920E-02 0.  1.
    10030    2    1    2    0    0  0.00000000000E+00  0.00000000000E+00 -0.24010034597E+03  0.12553327172E+04  0.12321574797E+04 0.  0.
        3    1    3    3  502    0  0.48357427085E+03  0.15213151783E+03 -0.47672769408E+03  0.69588603855E+03  0.10100000352E+00 0. -1.
       -3    1    3    3    0  502 -0.48357427085E+03 -0.15213151783E+03  0.23662734812E+03  0.55944667862E+03  0.10100000352E+00 0.  1.
</event>
<event>
 5   0  0.7633213E-04  0.1611927E+04  0.7818609E-02  0.8813254E-01
        1   -1    0    0  501    0  0.00000000000E+00  0.00000000000E+00  0.14159558645E+04  0.14159558645E+04  0.50400001928E-02 0. -1.
       -1   -1    0    0    0  501  0.00000000000E+00  0.00000000000E+00 -0.45875515516E+03  0.45875515519E+03  0.50400001928E-02 0.  1.
    10030    2    1    2    0    0  0.00000000000E+00  0.00000000000E+00  0.95720070936E+03  0.18747110197E+04  0.16119268623E+04 0.  0.
        1    1    3    3  502    0  0.35583076540E+03  0.30849484320E+03 -0.28208588019E+03  0.54895996731E+03  0.50400001928E-02 0.  1.
       -1    1    3    3    0  502 -0.35583076540E+03 -0.30849484320E+03  0.12392865896E+04  0.13257510524E+04  0.50400001928E-02 0. -1.
</event>
<event>
 5   0  0.1354766E-03  0.1628459E+04  0.7818609E-02  0.8803253E-01
       -2   -1    0    0    0  501  0.00000000000E+00  0.00000000000E+00  0.42847056592E+03  0.42847056593E+03  0.25500000920E-02 0. -1.
        2   -1    0    0  501    0  0.00000000000E+00  0.00000000000E+00 -0.15472925706E+04  0.15472925706E+04  0.25500000920E-02 0.  1.
    10030    2    1    2    0    0  0.00000000000E+00  0.00000000000E+00 -0.11188220047E+04  0.19757631366E+04  0.16284585637E+04 0.  0.
        3    1    3    3  502    0 -0.38286593217E+03  0.70834287685E+03 -0.41264340182E+03  0.90477098786E+03  0.10100000352E+00 0. -1.
       -3    1    3    3    0  502  0.38286593217E+03 -0.70834287685E+03 -0.70617860289E+03  0.10709921487E+04  0.10100000352E+00 0.  1.
</event>
<event>
 5   0  0.1339162E-03  0.1617155E+04  0.7818609E-02  0.8810078E-01
        2   -1    0    0  501    0  0.00000000000E+00  0.00000000000E+00  0.22493308217E+04  0.22493308217E+04  0.25500000920E-02 0. -1.
       -2   -1    0    0    0  501  0.00000000000E+00  0.00000000000E+00 -0.29066326927E+03  0.29066326928E+03  0.25500000920E-02 0.  1.
    10030    2    1    2    0    0  0.00000000000E+00  0.00000000000E+00  0.19586675524E+04  0.25399940910E+04  0.16171553423E+04 0.  0.
        5    1    3    3  502    0  0.97193324994E+01  0.68992716974E+03  0.16414015261E+04  0.17805378470E+04  0.46999998093E+01 0. -1.
       -5    1    3    3    0  502 -0.97193324994E+01 -0.68992716974E+03  0.31726602636E+03  0.75945624393E+03  0.46999998093E+01 0.  1.
</event>
<event>
 5   0  0.7633213E-04  0.1599907E+04  0.7818609E-02  0.8820605E-01
       -1   -1    0    0    0  501  0.00000000000E+00  0.00000000000E+00  0.39166340608E+03  0.39166340611E+03  0.50400001928E-02 0.  1.
        1   -1    0    0  501    0  0.00000000000E+00  0.00000000000E+00 -0.16338668869E+04  0.16338668869E+04  0.50400001928E-02 0. -1.
    10030    2    1    2    0    0  0.00000000000E+00  0.00000000000E+00 -0.12422034808E+04  0.20255302930E+04  0.15999073349E+04 0.  0.
        1    1    3    3  502    0 -0.11337334574E+03 -0.50598961225E+03 -0.13922862501E+04  0.14857119524E+04  0.50400001928E-02 0. -1.
       -1    1    3    3    0  502  0.11337334574E+03  0.50598961225E+03  0.15008276927E+03  0.53981834064E+03  0.50400001928E-02 0.  1.
</event>
<event>
 5   0  0.7124495E-04  0.1654011E+04  0.7818609E-02  0.8788037E-01
        1   -1    0    0  501    0  0.00000000000E+00  0.00000000000E+00  0.16852121663E+04  0.16852121663E+04  0.50400001928E-02 0.  1.
       -1   -1    0    0    0  501  0.00000000000E+00  0.00000000000E+00 -0.40584699089E+03  0.40584699092E+03  0.50400001928E-02 0. -1.
    10030    2    1    2    0    0  0.00000000000E+00  0.00000000000E+00  0.12793651754E+04  0.20910591573E+04  0.16540112294E+04 0.  0.
        2    1    3    3  502    0  0.39242903911E+02  0.11439626929E+03  0.16739720462E+04  0.16783351642E+04  0.25500000920E-02 0.  1.
       -2    1    3    3    0  502 -0.39242903911E+02 -0.11439626929E+03 -0.39460687079E+03  0.41272399303E+03  0.25500000920E-02 0. -1.
</event>
<event>
 5   0  0.1414796E-03  0.1641523E+04  0.7818609E-02  0.8795437E-01
        2   -1    0    0  501    0  0.00000000000E+00  0.00000000000E+00  0.88575155803E+03  0.88575155803E+03  0.25500000920E-02 0. -1.
       -2   -1    0    0    0  501  0.00000000000E+00  0.00000000000E+00 -0.76053994917E+03  0.76053994917E+03  0.25500000920E-02 0.  1.
    10030    2    1    2    0    0  0.00000000000E+00  0.00000000000E+00  0.12521160886E+03  0.16462915072E+04  0.16415230061E+04 0.  0.
        4    1    3    3  502    0 -0.24429257255E+03 -0.36232963637E+02 -0.72239149079E+03  0.76344139756E+03  0.12699999809E+01 0.  1.
       -4    1    3    3    0  502  0.24429257255E+03  0.36232963637E+02  0.84760309965E+03  0.88285010964E+03  0.12699999809E+01 0. -1.
</event>
<event>
 5   0  0.1414796E-03  0.1635346E+04  0.7818609E-02  0.8799123E-01
        2   -1    0    0  501    0  0.00000000000E+00  0.00000000000E+00  0.17492080421E+04  0.17492080421E+04  0.25500000920E-02 0.  1.
       -2   -1    0    0    0  501  0.00000000000E+00  0.00000000000E+00 -0.38222411396E+03  0.38222411397E+03  0.25500000920E-02 0. -1.
    10030    2    1    2    0    0  0.00000000000E+00  0.00000000000E+00  0.13669839281E+04  0.21314321561E+04  0.16353464392E+04 0.  0.
        4    1    3    3  502    0 -0.72083985682E+03  0.80284945470E+02  0.11755520071E+04  0.13812964584E+04  0.12699999809E+01 0.  1.
       -4    1    3    3    0  502  0.72083985682E+03 -0.80284945470E+02  0.19143192102E+03  0.75013569768E+03  0.12699999809E+01 0. -1.
</event>
<event>
 5   0  0.1414751E-03  0.1600667E+04  0.7818609E-02  0.8820138E-01
        2   -1    0    0  501    0  0.00000000000E+00  0.00000000000E+00  0.57792778484E+03  0.57792778484E+03  0.25500000920E-02 0.  1.
       -2   -1    0    0    0  501  0.00000000000E+00  0.00000000000E+00 -0.11083288142E+04  0.11083288142E+04  0.25500000920E-02 0. -1.
    10030    2    1    2    0    0  0.00000000000E+00  0.00000000000E+00 -0.53040102940E+03  0.16862565991E+04  0.16006673814E+04 0.  0.
        2    1    3    3  502    0  0.71391856141E+03  0.13415370290E+03 -0.61910575044E+03  0.95444688619E+03  0.25500000920E-02 0. -1.
       -2    1    3    3    0  502 -0.71391856141E+03 -0.13415370290E+03  0.88704721042E+02  0.73180971288E+03  0.25500000920E-02 0.  1.
</event>
<event>
 5   0  0.1375777E-03  0.1522246E+04  0.7818609E-02  0.8869793E-01
        2   -1    0    0  501    0  0.00000000000E+00  0.00000000000E+00  0.10366741916E+04  0.10366741916E+04  0.25500000920E-02 0.  1.
       -2   -1    0    0    0  501  0.00000000000E+00  0.00000000000E+00 -0.55881381301E+03  0.55881381301E+03  0.25500000920E-02 0. -1.
    10030    2    1    2    0    0  0.00000000000E+00  0.00000000000E+00  0.47786037856E+03  0.15954880046E+04  0.15222455227E+04 0.  0.
        1    1    3    3  502    0  0.21633749616E+03 -0.16430803643E+03  0.98413080401E+03  0.10209370610E+04  0.50400001928E-02 0.  1.
       -1    1    3    3    0  502 -0.21633749616E+03  0.16430803643E+03 -0.50627042545E+03  0.57455094360E+03  0.50400001928E-02 0. -1.
</event>
<event>
 5   0  0.1414796E-03  0.1664622E+04  0.7818609E-02  0.8781803E-01
       -2   -1    0    0    0  501  0.00000000000E+00  0.00000000000E+00  0.68580618493E+03  0.68580618493E+03  0.25500000920E-02 0. -1.
        2   -1    0    0  501    0  0.00000000000E+00  0.00000000000E+00 -0.10101123795E+04  0.10101123795E+04  0.25500000920E-02 0.  1.
    10030    2    1    2    0    0  0.00000000000E+00  0.00000000000E+00 -0.32430619453E+03  0.16959185644E+04  0.16646216595E+04 0.  0.
        4    1    3    3  502    0 -0.88638965051E+02 -0.54988381536E+03 -0.79225560224E+03  0.96845218194E+03  0.12699999809E+01 0.  1.
       -4    1    3    3    0  502  0.88638965051E+02  0.54988381536E+03  0.46794940771E+03  0.72746638245E+03  0.12699999809E+01 0. -1.
</event>
<event>
 5   0  0.1339162E-03  0.1570752E+04  0.7818609E-02  0.8838721E-01
       -2   -1    0    0    0  501  0.00000000000E+00  0.00000000000E+00  0.62200745239E+03  0.62200745240E+03  0.25500000920E-02 0. -1.
        2   -1    0    0  501    0  0.00000000000E+00  0.00000000000E+00 -0.99165230763E+03  0.99165230763E+03  0.25500000920E-02 0.  1.
    10030    2    1    2    0    0  0.00000000000E+00  0.00000000000E+00 -0.36964485524E+03  0.16136597600E+04  0.15707515724E+04 0.  0.
        5    1    3    3  502    0 -0.51526742795E+03 -0.13443873329E+03  0.40819734646E+03  0.67098543872E+03  0.46999998093E+01 0. -1.
       -5    1    3    3    0  502  0.51526742795E+03  0.13443873329E+03 -0.77784220170E+03  0.94267432131E+03  0.46999998093E+01 0.  1.
</event>
<event>
 5   0  0.7499834E-04  0.1823828E+04  0.7818609E-02  0.8693730E-01
       -1   -1    0    0    0  501  0.00000000000E+00  0.00000000000E+00  0.54390214135E+03  0.54390214137E+03  0.50400001928E-02 0. -1.
        1   -1    0    0  501    0  0.00000000000E+00  0.00000000000E+00 -0.15289283568E+04  0.15289283568E+04  0.50400001928E-02 0.  1.
    10030    2    1    2    0    0  0.00000000000E+00  0.00000000000E+00 -0.98502621546E+03  0.20728304982E+04  0.18238282894E+04 0.  0.
        3    1    3    3  502    0  0.75927897092E+03 -0.46018055016E+03 -0.72905471156E+03  0.11488217778E+04  0.10100000352E+00 0.  1.
       -3    1    3    3    0  502 -0.75927897092E+03  0.46018055016E+03 -0.25597150390E+03  0.92400872043E+03  0.10100000352E+00 0. -1.
</event>
<event>
 5   0  0.7499834E-04  0.1554024E+04  0.7818609E-02  0.8849302E-01
       -1   -1    0    0    0  501  0.00000000000E+00  0.00000000000E+00  0.73546501530E+03  0.73546501532E+03  0.50400001928E-02 0.  1.
        1   -1    0    0  501    0  0.00000000000E+00  0.00000000000E+00 -0.82090586857E+03  0.82090586859E+03  0.50400001928E-02 0. -1.
    10030    2    1    2    0    0  0.00000000000E+00  0.00000000000E+00 -0.85440853275E+02  0.15563708839E+04  0.15540238701E+04 0.  0.
        3    1    3    3  502    0  0.55016289731E+03 -0.25503563867E+02 -0.59165212383E+03  0.80832041369E+03  0.10100000352E+00 0. -1.
       -3    1    3    3    0  502 -0.55016289731E+03  0.25503563867E+02  0.50621127056E+03  0.74805047022E+03  0.10100000352E+00 0.  1.
</event>
<event>
 5   0  0.7601145E-04  0.1620794E+04  0.7818609E-02  0.8807875E-01
        1   -1    0    0  501    0  0.00000000000E+00  0.00000000000E+00  0.12255370050E+04  0.12255370050E+04  0.50400001928E-02 0. -1.
       -1   -1    0    0    0  501  0.00000000000E+00  0.00000000000E+00 -0.53588181607E+03  0.53588181609E+03  0.50400001928E-02 0.  1.
    10030    2    1    2    0    0  0.00000000000E+00  0.00000000000E+00  0.68965518890E+03  0.17614188211E+04  0.16207936277E+04 0.  0.
        4    1    3    3  502    0  0.17771913570E+03 -0.18782556977E+03  0.11795005141E+04  0.12075121580E+04  0.12699999809E+01 0. -1.
       -4    1    3    3    0  502 -0.17771913570E+03  0.18782556977E+03 -0.48984532525E+03  0.55390666310E+03  0.12699999809E+01 0.  1.
</event>
<event>
 5   0  0.7633213E-04  0.1649256E+04  0.7818609E-02  0.8790847E-01
       -1   -1    0    0    0  501  0.00000000000E+00  0.00000000000E+00  0.47003045322E+03  0.47003045324E+03  0.50400001928E-02 0.  1.
        1   -1    0    0  501    0  0.00000000000E+00  0.00000000000E+00 -0.14467391343E+04  0.14467391343E+04  0.50400001928E-02 0. -1.
    10030    2    1    2    0    0  0.00000000000E+00  0.00000000000E+00 -0.97670868107E+03  0.19167695875E+04  0.16492561366E+04 0.  0.
        1    1    3    3  502    0 -0.70316228115E+03  0.60703193179E+02  0.73074852207E+01  0.70581546502E+03  0.50400001928E-02 0.  1.
       -1    1    3    3    0  502  0.70316228115E+03 -0.60703193179E+02 -0.98401616629E+03  0.12109541225E+04  0.50400001928E-02 0. -1.
</event>
<event>
 5   0  0.1375777E-03  0.1561784E+04  0.7818609E-02  0.8844376E-01
       -2   -1    0    0    0  501  0.00000000000E+00  0.00000000000E+00  0.30310187073E+03  0.30310187074E+03  0.25500000920E-02 0.  1.
        2   -1    0    0  501    0  0.00000000000E+00  0.00000000000E+00 -0.20118390724E+04  0.20118390724E+04  0.25500000920E-02 0. -1.
    10030    2    1    2    0    0  0.00000000000E+00  0.00000000000E+00 -0.17087372017E+04  0.23149409432E+04  0.15617838345E+04 0.  0.
        1    1    3    3  502    0  0.40886825376E+03  0.60545703970E+03 -0.12631038344E+04  0.14591719475E+04  0.50400001928E-02 0. -1.
       -1    1    3    3    0  502 -0.40886825376E+03 -0.60545703970E+03 -0.44563336729E+03  0.85576899566E+03  0.50400001928E-02 0.  1.
</event>
<event>
 5   0  0.1414796E-03  0.1955230E+04  0.7818609E-02  0.8627843E-01
        2   -1    0    0  501    0  0.00000000000E+00  0.00000000000E+00  0.86089267413E+03  0.86089267414E+03  0.25500000920E-02 0.  1.
       -2   -1    0    0    0  501  0.00000000000E+00  0.00000000000E+00 -0.11101628247E+04  0.11101628247E+04  0.25500000920E-02 0. -1.
    10030    2    1    2    0    0  0.00000000000E+00  0.00000000000E+00 -0.24927015061E+03  0.19710554989E+04  0.19552299537E+04 0.  0.
        4    1    3    3  502    0  0.63604784513E+03 -0.41588819207E+03  0.49533006980E+03  0.90712366331E+03  0.12699999809E+01 0.  1.
       -4    1    3    3    0  502 -0.63604784513E+03  0.41588819207E+03 -0.74460022041E+03  0.10639318356E+04  0.12699999809E+01 0. -1.
</event>
<event>
 5   0  0.1414751E-03  0.1556899E+04  0.7818609E-02  0.8847473E-01
       -2   -1    0    0    0  501  0.00000000000E+00  0.00000000000E+00  0.51226677247E+03  0.51226677248E+03  0.25500000920E-02 0.  1.
        2   -1    0    0  501    0  0.00000000000E+00  0.00000000000E+00 -0.11829450687E+04  0.11829450687E+04  0.25500000920E-02 0. -1.
    10030    2    1    2    0    0  0.00000000000E+00  0.00000000000E+00 -0.67067829627E+03  0.16952118412E+04  0.15568987795E+04 0.  0.
        2    1    3    3  502    0 -0.19263183220E+03  0.22929373379E+03  0.44703592234E+03  0.53807411665E+03  0.25500000920E-02 0.  1.
       -2    1    3    3    0  502  0.19263183220E+03 -0.22929373379E+03 -0.11177142186E+04  0.11571377246E+04  0.25500000920E-02 0. -1.
</event>
<event>
 5   0  0.7302027E-04  0.1568310E+04  0.7818609E-02  0.8840256E-01
       -1   -1    0    0    0  501  0.00000000000E+00  0.00000000000E+00  0.64293507158E+03  0.64293507160E+03  0.50400001928E-02 0.  1.
        1   -1    0    0  501    0  0.00000000000E+00  0.00000000000E+00 -0.95639422528E+03  0.95639422529E+03  0.50400001928E-02 0. -1.
    10030    2    1    2    0    0  0.00000000000E+00  0.00000000000E+00 -0.31345915369E+03  0.15993292969E+04  0.15683104153E+04 0.  0.
        5    1    3    3  502    0  0.56193373748E+03 -0.13261914177E+03  0.38434913194E+03  0.69361639780E+03  0.46999998093E+01 0.  1.
       -5    1    3    3    0  502 -0.56193373748E+03  0.13261914177E+03 -0.69780828563E+03  0.90571289909E+03  0.46999998093E+01 0. -1.
</event>
<event>
 5   0  0.7499834E-04  0.1715318E+04  0.7818609E-02  0.8752676E-01
        1   -1    0    0  501    0  0.00000000000E+00  0.00000000000E+00  0.24715416620E+04  0.24715416620E+04  0.50400001928E-02 0.  1.
       -1   -1    0    0    0  501  0.00000000000E+00  0.00000000000E+00 -0.29761937261E+03  0.29761937265E+03  0.50400001928E-02 0. -1.
    10030    2    1    2    0    0  0.00000000000E+00  0.00000000000E+00  0.21739222894E+04  0.27691610346E+04  0.17153176719E+04 0.  0.
        3    1    3    3  502    0 -0.10923854932E+03  0.26277868497E+01  0.24602583721E+04  0.24626837461E+04  0.10100000352E+00 0.  1.
       -3    1    3    3    0  502  0.10923854932E+03 -0.26277868497E+01 -0.28633608269E+03  0.30647728851E+03  0.10100000352E+00 0. -1.
</event>
<event>
 5   0  0.1375777E-03  0.1575825E+04  0.7818609E-02  0.8835539E-01
        2   -1    0    0  501    0  0.00000000000E+00  0.00000000000E+00  0.17701226672E+04  0.17701226672E+04  0.25500000920E-02 0.  1.
       -2   -1    0    0    0  501  0.00000000000E+00  0.00000000000E+00 -0.35071346904E+03  0.35071346905E+03  0.25500000920E-02 0. -1.
    10030    2    1    2    0    0  0.00000000000E+00  0.00000000000E+00  0.14194091982E+04  0.21208361363E+04  0.15758246873E+04 0.  0.
        1    1    3    3  502    0  0.23191089567E+03  0.75239649950E+03  0.66882273325E+03  0.10330571158E+04  0.50400001928E-02 0.  1.
       -1    1    3    3    0  502 -0.23191089567E+03 -0.75239649950E+03  0.75058646496E+03  0.10877790205E+04  0.50400001928E-02 0. -1.
</event>
<event>
 5   0  0.7601145E-04  0.1563012E+04  0.7818609E-02  0.8843599E-01
        1   -1    0    0  501    0  0.00000000000E+00  0.00000000000E+00  0.14848071308E+04  0.14848071308E+04  0.50400001928E-02 0.  1.
       -1   -1    0    0    0  501  0.00000000000E+00  0.00000000000E+00 -0.41133379161E+03  0.41133379164E+03  0.50400001928E-02 0. -1.
    10030    2    1    2    0    0  0.00000000000E+00  0.00000000000E+00  0.10734733392E+04  0.18961409225E+04  0.15630116403E+04 0.  0.
        4    1    3    3  502    0  0.11687916042E+02 -0.94506511676E+02 -0.40426800469E+03  0.41533398687E+03  0.12699999809E+01 0. -1.
       -4    1    3    3    0  502 -0.11687916042E+02  0.94506511676E+02  0.14777413439E+04  0.14808069356E+04  0.12699999809E+01 0.  1.
</event>
<event>
 5   0  0.7499834E-04  0.1638540E+04  0.7818609E-02  0.8797215E-01
        1   -1    0    0  501    0  0.00000000000E+00  0.00000000000E+00  0.12923580413E+04  0.12923580413E+04  0.50400001928E-02 0. -1.
       -1   -1    0    0    0  501  0.00000000000E+00  0.00000000000E+00 -0.51936355157E+03  0.51936355160E+03  0.50400001928E-02 0.  1.
    10030    2    1    2    0    0  0.00000000000E+00  0.00000000000E+00  0.77299448969E+03  0.18117215929E+04  0.16385404020E+04 0.  0.
        3    1    3    3  502    0 -0.80357445734E+03 -0.14729419801E+03  0.31855190736E+03  0.87687103792E+03  0.10100000352E+00 0. -1.
       -3    1    3    3    0  502  0.80357445734E+03  0.14729419801E+03  0.45444258233E+03  0.93485055495E+03  0.10100000352E+00 0.  1.
</event>
<event>
 5   0  0.7633213E-04  0.1604491E+04  0.7818609E-02  0.8817794E-01
       -1   -1    0    0    0  501  0.00000000000E+00  0.00000000000E+00  0.99666992723E+03  0.99666992724E+03  0.50400001928E-02 0. -1.
        1   -1    0    0  501    0  0.00000000000E+00  0.00000000000E+00 -0.64574830116E+03  0.64574830118E+03  0.50400001928E-02 0.  1.
    10030    2    1    2    0    0  0.00000000000E+00  0.00000000000E+00  0.35092162607E+03  0.16424182284E+04  0.16044910874E+04 0.  0.
        1    1    3    3  502    0 -0.67017367677E+03 -0.18719786033E+03 -0.23325433352E+03  0.73388240208E+03  0.50400001928E-02 0.  1.
       -1    1    3    3    0  502  0.67017367677E+03  0.18719786033E+03  0.58417595959E+03  0.90853582634E+03  0.50400001928E-02 0. -1.
</event>
<event>
 5   0  0.7302027E-04  0.1556997E+04  0.7818609E-02  0.8847411E-01
       -1   -1    0    0    0  501  0.00000000000E+00  0.00000000000E+00  0.33313285964E+03  0.33313285968E+03  0.50400001928E-02 0. -1.
        1   -1    0    0  501    0  0.00000000000E+00  0.00000000000E+00 -0.18192727986E+04  0.18192727986E+04  0.50400001928E-02 0.  1.
    10030    2    1    2    0    0  0.00000000000E+00  0.00000000000E+00 -0.14861399389E+04  0.21524056583E+04  0.15569965317E+04 0.  0.
        5    1    3    3  502    0  0.24579248775E+03 -0.63465117190E+03 -0.12655425859E+04  0.14369468270E+04  0.46999998093E+01 0.  1.
       -5    1    3    3    0  502 -0.24579248775E+03  0.63465117190E+03 -0.22059735308E+03  0.71545883125E+03  0.46999998093E+01 0. -1.
</event>
<event>
 5   0  0.7499834E-04  0.1599086E+04  0.7818609E-02  0.8821110E-01
        1   -1    0    0  501    0  0.00000000000E+00  0.00000000000E+00  0.94676613316E+03  0.94676613318E+03  0.50400001928E-02 0.  1.
       -1   -1    0    0    0  501  0.00000000000E+00  0.00000000000E+00 -0.67521291431E+03  0.67521291433E+03  0.50400001928E-02 0. -1.
    10030    2    1    2    0    0  0.00000000000E+00  0.00000000000E+00  0.27155321885E+03  0.16219790475E+04  0.15990856387E+04 0.  0.
        3    1    3    3  502    0 -0.34743712146E+03  0.17321351698E+03  0.84474922888E+03  0.92968636955E+03  0.10100000352E+00 0.  1.
       -3    1    3    3    0  502  0.34743712146E+03 -0.17321351698E+03 -0.57319601003E+03  0.69229267795E+03  0.10100000352E+00 0. -1.
</event>
<event>
 5   0  0.1414796E-03  0.1593132E+04  0.7818609E-02  0.8824778E-01
       -2   -1    0    0    0  501  0.00000000000E+00  0.00000000000E+00  0.31831567221E+03  0.31831567222E+03  0.25500000920E-02 0.  1.
        2   -1    0    0  501    0  0.00000000000E+00  0.00000000000E+00 -0.19933595513E+04  0.19933595513E+04  0.25500000920E-02 0. -1.
    10030    2    1    2    0    0  0.00000000000E+00  0.00000000000E+00 -0.16750438791E+04  0.23116752235E+04  0.15931322425E+04 0.  0.
        4    1    3    3  502    0  0.68954517283E+03  0.39701659964E+03 -0.78281911474E+03  0.11161998500E+04  0.12699999809E+01 0. -1.
       -4    1    3    3    0  502 -0.68954517283E+03 -0.39701659964E+03 -0.89222476435E+03  0.11954753736E+04  0.12699999809E+01 0.  1.
</event>
<event>
 5   0  0.1375777E-03  0.1598111E+04  0.7818609E-02  0.8821709E-01
       -2   -1    0    0    0  501  0.00000000000E+00  0.00000000000E+00  0.60304376397E+03  0.60304376398E+03  0.25500000920E-02 0.  1.
        2   -1    0    0  501    0  0.00000000000E+00  0.00000000000E+00 -0.10587787294E+04  0.10587787294E+04  0.25500000920E-02 0. -1.
    10030    2    1    2    0    0  0.00000000000E+00  0.00000000000E+00 -0.45573496540E+03  0.16618224934E+04  0.15981112729E+04 0.  0.
        1    1    3    3  502    0 -0.43320972700E+03  0.11433516231E+03  0.46013351017E+03  0.64223519377E+03  0.50400001928E-02 0.  1.
       -1    1    3    3    0  502  0.43320972700E+03 -0.11433516231E+03 -0.91586847557E+03  0.10195872996E+04  0.50400001928E-02 0. -1.
</event>
<event>
 5   0  0.7601145E-04  0.1613264E+04  0.7818609E-02  0.8812440E-01
        1   -1    0    0  501    0  0.00000000000E+00  0.00000000000E+00  0.10057557443E+04  0.10057557443E+04  0.50400001928E-02 0. -1.
       -1   -1    0    0    0  501  0.00000000000E+00  0.00000000000E+00 -0.64693196833E+03  0.64693196835E+03  0.50400001928E-02 0.  1.
    10030    2    1    2    0    0  0.00000000000E+00  0.00000000000E+00  0.35882377595E+03  0.16526877126E+04  0.16132644462E+04 0.  0.
        4    1    3    3  502    0 -0.65935897222E+02 -0.80068388647E+03  0.10545561507E+03  0.81028681851E+03  0.12699999809E+01 0.  1.
       -4    1    3    3    0  502  0.65935897222E+02  0.80068388647E+03  0.25336816088E+03  0.84240089414E+03  0.12699999809E+01 0. -1.
</event>
<event>
 5   0  0.1339162E-03  0.1633047E+04  0.7818609E-02  0.8800499E-01
       -2   -1    0    0    0  501  0.00000000000E+00  0.00000000000E+00  0.48439026596E+03  0.48439026596E+03  0.25500000920E-02 0.  1.
        2   -1    0    0  501    0  0.00000000000E+00  0.00000000000E+00 -0.13763919378E+04  0.13763919378E+04  0.25500000920E-02 0. -1.
    10030    2    1    2    0    0  0.00000000000E+00  0.00000000000E+00 -0.89200167186E+03  0.18607822038E+04  0.16330472826E+04 0.  0.
        5    1    3    3  502    0 -0.11027576517E+03 -0.17320255796E+03 -0.13464787250E+04  0.13620524650E+04  0.46999998093E+01 0. -1.
       -5    1    3    3    0  502  0.11027576517E+03  0.17320255796E+03  0.45447705318E+03  0.49872973877E+03  0.46999998093E+01 0.  1.
</event>
<event>
 5   0  0.7601145E-04  0.1655891E+04  0.7818609E-02  0.8786929E-01
       -1   -1    0    0    0  501  0.00000000000E+00  0.00000000000E+00  0.36661520799E+03  0.36661520803E+03  0.50400001928E-02 0.  1.
        1   -1    0    0  501    0  0.00000000000E+00  0.00000000000E+00 -0.18697898073E+04  0.18697898073E+04  0.50400001928E-02 0. -1.
    10030    2    1    2    0    0  0.00000000000E+00  0.00000000000E+00 -0.15031745993E+04  0.22364050153E+04  0.16558905509E+04 0.  0.
        4    1    3    3  502    0  0.22843274462E+03  0.24325514247E+03  0.27176852716E+03  0.43036534294E+03  0.12699999809E+01 0.  1.
       -4    1    3    3    0  502 -0.22843274462E+03 -0.24325514247E+03 -0.17749431265E+04  0.18060396724E+04  0.12699999809E+01 0. -1.
</event>
<event>
 5   0  0.7633213E-04  0.1787049E+04  0.7818609E-02  0.8713217E-01
       -1   -1    0    0    0  501  0.00000000000E+00  0.00000000000E+00  0.34969286425E+03  0.34969286428E+03  0.50400001928E-02 0. -1.
        1   -1    0    0  501    0  0.00000000000E+00  0.00000000000E+00 -0.22831073176E+04  0.22831073176E+04  0.50400001928E-02 0.  1.
    10030    2    1    2    0    0  0.00000000000E+00  0.00000000000E+00 -0.19334144533E+04  0.26328001819E+04  0.17870493416E+04 0.  0.
        1    1    3    3  502    0 -0.34841596188E+03  0.82476811847E+02  0.23938467607E+03  0.43069842134E+03  0.50400001928E-02 0. -1.
       -1    1    3    3    0  502  0.34841596188E+03 -0.82476811847E+02 -0.21727991294E+04  0.22021017605E+04  0.50400001928E-02 0.  1.
</event>
<event>
 5   0  0.7633213E-04  0.1017201E+04  0.7818609E-02  0.9289877E-01
        1   -1    0    0  501    0  0.00000000000E+00  0.00000000000E+00  0.73967309984E+03  0.73967309986E+03  0.50400001928E-02 0. -1.
       -1   -1    0    0    0  501  0.00000000000E+00  0.00000000000E+00 -0.34971477839E+03  0.34971477843E+03  0.50400001928E-02 0.  1.
    10030    2    1    2    0    0  0.00000000000E+00  0.00000000000E+00  0.38995832145E+03  0.10893878783E+04  0.10172012863E+04 0.  0.
        1    1    3    3  502    0 -0.45761700936E+03 -0.11697090131E+02  0.43234846384E+03  0.62966288074E+03  0.50400001928E-02 0. -1.
       -1    1    3    3    0  502  0.45761700936E+03  0.11697090131E+02 -0.42390142388E+02  0.45972499755E+03  0.50400001928E-02 0.  1.
</event>
<event>
 5   0  0.7499834E-04  0.1608160E+04  0.7818609E-02  0.8815551E-01
        1   -1    0    0  501    0  0.00000000000E+00  0.00000000000E+00  0.61546742774E+03  0.61546742776E+03  0.50400001928E-02 0.  1.
       -1   -1    0    0    0  501  0.00000000000E+00  0.00000000000E+00 -0.10504933798E+04  0.10504933799E+04  0.50400001928E-02 0. -1.
    10030    2    1    2    0    0  0.00000000000E+00  0.00000000000E+00 -0.43502595211E+03  0.16659608076E+04  0.16081597662E+04 0.  0.
        3    1    3    3  502    0 -0.53166868339E+03 -0.43204410962E+03 -0.65360748209E+03  0.94685608854E+03  0.10100000352E+00 0. -1.
       -3    1    3    3    0  502  0.53166868339E+03  0.43204410962E+03  0.21858152998E+03  0.71910471908E+03  0.10100000352E+00 0.  1.
</event>
<event>
 5   0  0.1339162E-03  0.1634066E+04  0.7818609E-02  0.8799889E-01
        2   -1    0    0  501    0  0.00000000000E+00  0.00000000000E+00  0.81705159902E+03  0.81705159903E+03  0.25500000920E-02 0.  1.
       -2   -1    0    0    0  501  0.00000000000E+00  0.00000000000E+00 -0.81701406619E+03  0.81701406619E+03  0.25500000920E-02 0. -1.
    10030    2    1    2    0    0  0.00000000000E+00  0.00000000000E+00  0.37532835098E-01  0.16340656652E+04  0.16340656648E+04 0.  0.
        5    1    3    3  502    0 -0.19489794557E+03 -0.72253205106E+03 -0.32782690653E+03  0.81702530233E+03  0.46999998093E+01 0. -1.
       -5    1    3    3    0  502  0.19489794557E+03  0.72253205106E+03  0.32786443936E+03  0.81704036289E+03  0.46999998093E+01 0.  1.
</event>
<event>
 5   0  0.1375777E-03  0.1615893E+04  0.7818609E-02  0.8810843E-01
       -2   -1    0    0    0  501  0.00000000000E+00  0.00000000000E+00  0.75183213841E+03  0.75183213842E+03  0.25500000920E-02 0.  1.
        2   -1    0    0  501    0  0.00000000000E+00  0.00000000000E+00 -0.86824932973E+03  0.86824932973E+03  0.25500000920E-02 0. -1.
    10030    2    1    2    0    0  0.00000000000E+00  0.00000000000E+00 -0.11641719132E+03  0.16200814681E+04  0.16158932517E+04 0.  0.
        1    1    3    3  502    0 -0.63293332809E+03  0.15556807121E+03 -0.53690997866E+03  0.84443966498E+03  0.50400001928E-02 0. -1.
       -1    1    3    3    0  502  0.63293332809E+03 -0.15556807121E+03  0.42049278734E+03  0.77564180317E+03  0.50400001928E-02 0.  1.
</event>
<event>
 5   0  0.7601145E-04  0.1646218E+04  0.7818609E-02  0.8792647E-01
        1   -1    0    0  501    0  0.00000000000E+00  0.00000000000E+00  0.12227370253E+04  0.12227370253E+04  0.50400001928E-02 0. -1.
       -1   -1    0    0    0  501  0.00000000000E+00  0.00000000000E+00 -0.55409181998E+03  0.55409182000E+03  0.50400001928E-02 0.  1.
    10030    2    1    2    0    0  0.00000000000E+00  0.00000000000E+00  0.66864520532E+03  0.17768288453E+04  0.16462181918E+04 0.  0.
        4    1    3    3  502    0  0.66282755220E+03  0.39888249187E+02  0.85930303275E+03  0.10859718004E+04  0.12699999809E+01 0. -1.
       -4    1    3    3    0  502 -0.66282755220E+03 -0.39888249187E+02 -0.19065782743E+03  0.69085704486E+03  0.12699999809E+01 0.  1.
</event>
<event>
 5   0  0.7499834E-04  0.1601614E+04  0.7818609E-02  0.8819557E-01
        1   -1    0    0  501    0  0.00000000000E+00  0.00000000000E+00  0.62252113669E+03  0.62252113672E+03  0.50400001928E-02 0. -1.
       -1   -1    0    0    0  501  0.00000000000E+00  0.00000000000E+00 -0.10301523373E+04  0.10301523373E+04  0.50400001928E-02 0.  1.
    10030    2    1    2    0    0  0.00000000000E+00  0.00000000000E+00 -0.40763120063E+03  0.16526734741E+04  0.16016136913E+04 0.  0.
        3    1    3    3  502    0  0.57101643016E+03  0.34937499488E+03 -0.65733715828E+03  0.93819763398E+03  0.10100000352E+00 0.  1.
       -3    1    3    3    0  502 -0.57101643016E+03 -0.34937499488E+03  0.24970595764E+03  0.71447584007E+03  0.10100000352E+00 0. -1.
</event>
<event>
 5   0  0.1339162E-03  0.1578239E+04  0.7818609E-02  0.8834029E-01
        2   -1    0    0  501    0  0.00000000000E+00  0.00000000000E+00  0.80765427305E+03  0.80765427305E+03  0.25500000920E-02 0. -1.
       -2   -1    0    0    0  501  0.00000000000E+00  0.00000000000E+00 -0.77100970080E+03  0.77100970080E+03  0.25500000920E-02 0.  1.
    10030    2    1    2    0    0  0.00000000000E+00  0.00000000000E+00  0.36644572247E+02  0.15786639739E+04  0.15782386124E+04 0.  0.
        5    1    3    3  502    0  0.55546747720E+03  0.38725993935E+03  0.42361393060E+03  0.79873977680E+03  0.46999998093E+01 0. -1.
       -5    1    3    3    0  502 -0.55546747720E+03 -0.38725993935E+03 -0.38696935835E+03  0.77992419705E+03  0.46999998093E+01 0.  1.
</event>
<event>
 5   0  0.7499834E-04  0.1266467E+04  0.7818609E-02  0.9056588E-01
        1   -1    0    0  501    0  0.00000000000E+00  0.00000000000E+00  0.69942632033E+03  0.69942632035E+03  0.50400001928E-02 0.  1.
       -1   -1    0    0    0  501  0.00000000000E+00  0.00000000000E+00 -0.57330534813E+03  0.57330534816E+03  0.50400001928E-02 0. -1.
    10030    2    1    2    0    0  0.00000000000E+00  0.00000000000E+00  0.12612097220E+03  0.12727316685E+04  0.12664672915E+04 0.  0.
        3    1    3    3  502    0  0.50247362409E+03 -0.17634654715E+03  0.40740237212E+03  0.67048829267E+03  0.10100000352E+00 0.  1.
       -3    1    3    3    0  502 -0.50247362409E+03  0.17634654715E+03 -0.28128139992E+03  0.60224337584E+03  0.10100000352E+00 0. -1.
</event>
<event>
 5   0  0.7499834E-04  0.1610193E+04  0.7818609E-02  0.8814310E-01
        1   -1    0    0  501    0  0.00000000000E+00  0.00000000000E+00  0.12819452443E+04  0.12819452443E+04  0.50400001928E-02 0. -1.
       -1   -1    0    0    0  501  0.00000000000E+00  0.00000000000E+00 -0.50562264730E+03  0.50562264732E+03  0.50400001928E-02 0.  1.
    10030    2    1    2    0    0  0.00000000000E+00  0.00000000000E+00  0.77632259700E+03  0.17875678916E+04  0.16101932159E+04 0.  0.
        3    1    3    3  502    0  0.47608468381E+03 -0.51978757927E+03 -0.43723861934E+02  0.70622060295E+03  0.10100000352E+00 0.  1.
       -3    1    3    3    0  502 -0.47608468381E+03  0.51978757927E+03  0.82004645894E+03  0.10813472887E+04  0.10100000352E+00 0. -1.
</event>
<event>
 5   0  0.1414796E-03  0.1658681E+04  0.7818609E-02  0.8785287E-01
       -2   -1    0    0    0  501  0.00000000000E+00  0.00000000000E+00  0.58720321413E+03  0.58720321414E+03  0.25500000920E-02 0.  1.
        2   -1    0    0  501    0  0.00000000000E+00  0.00000000000E+00 -0.11713254608E+04  0.11713254608E+04  0.25500000920E-02 0. -1.
    10030    2    1    2    0    0  0.00000000000E+00  0.00000000000E+00 -0.58412224662E+03  0.17585286749E+04  0.16586814949E+04 0.  0.
        4    1    3    3  502    0 -0.51781298970E+03  0.37795636816E+03 -0.84987287706E+03  0.10645500592E+04  0.12699999809E+01 0. -1.
       -4    1    3    3    0  502  0.51781298970E+03 -0.37795636816E+03  0.26575063044E+03  0.69397861567E+03  0.12699999809E+01 0.  1.
</event>
<event>
 5   0  0.1414751E-03  0.1553025E+04  0.7818609E-02  0.8849938E-01
       -2   -1    0    0    0  501  0.00000000000E+00  0.00000000000E+00  0.31235445424E+03  0.31235445425E+03  0.25500000920E-02 0. -1.
        2   -1    0    0  501    0  0.00000000000E+00  0.00000000000E+00 -0.19304077898E+04  0.19304077898E+04  0.25500000920E-02 0.  1.
    10030    2    1    2    0    0  0.00000000000E+00  0.00000000000E+00 -0.16180533356E+04  0.22427622441E+04  0.15530247540E+04 0.  0.
        2    1    3    3  502    0 -0.76418423470E+03  0.12804074010E+03 -0.73539757793E+03  0.10682610043E+04  0.25500000920E-02 0.  1.
       -2    1    3    3    0  502  0.76418423470E+03 -0.12804074010E+03 -0.88265575763E+03  0.11745012397E+04  0.25500000920E-02 0. -1.
</event>
<event>
 5   0  0.7124495E-04  0.1573423E+04  0.7818609E-02  0.8837044E-01
        1   -1    0    0  501    0  0.00000000000E+00  0.00000000000E+00  0.74400468876E+03  0.74400468877E+03  0.50400001928E-02 0. -1.
       -1   -1    0    0    0  501  0.00000000000E+00  0.00000000000E+00 -0.83186982628E+03  0.83186982629E+03  0.50400001928E-02 0.  1.
    10030    2    1    2    0    0  0.00000000000E+00  0.00000000000E+00 -0.87865137520E+02  0.15758745151E+04  0.15734230851E+04 0.  0.
        2    1    3    3  502    0  0.40790573720E+03  0.58334337647E+03 -0.37947463563E+03  0.80664588539E+03  0.25500000920E-02 0.  1.
       -2    1    3    3    0  502 -0.40790573720E+03 -0.58334337647E+03  0.29160949811E+03  0.76922862968E+03  0.25500000920E-02 0. -1.
</event>
<event>
 5   0  0.1414751E-03  0.8306791E+03  0.7818609E-02  0.9516642E-01
       -2   -1    0    0    0  501  0.00000000000E+00  0.00000000000E+00  0.12825506885E+03  0.12825506888E+03  0.25500000920E-02 0.  1.
        2   -1    0    0  501    0  0.00000000000E+00  0.00000000000E+00 -0.13450303663E+04  0.13450303663E+04  0.25500000920E-02 0. -1.
    10030    2    1    2    0    0  0.00000000000E+00  0.00000000000E+00 -0.12167752974E+04  0.14732854351E+04  0.83067914926E+03 0.  0.
        2    1    3    3  502    0  0.14474723038E+03 -0.25846002982E+03 -0.11247239987E+04  0.11630810037E+04  0.25500000920E-02 0. -1.
       -2    1    3    3    0  502 -0.14474723038E+03  0.25846002982E+03 -0.92051298661E+02  0.31020443148E+03  0.25500000920E-02 0.  1.
</event>
<event>
 5   0  0.7124495E-04  0.1267026E+04  0.7818609E-02  0.9056130E-01
       -1   -1    0    0    0  501  0.00000000000E+00  0.00000000000E+00  0.72018051510E+03  0.72018051511E+03  0.50400001928E-02 0.  1.
        1   -1    0    0  501    0  0.00000000000E+00  0.00000000000E+00 -0.55727529307E+03  0.55727529309E+03  0.50400001928E-02 0. -1.
    10030    2    1    2    0    0  0.00000000000E+00  0.00000000000E+00  0.16290522203E+03  0.12774558082E+04  0.12670261365E+04 0.  0.
        2    1    3    3  502    0  0.33486162566E+02 -0.37373793731E+03  0.59608294492E+03  0.70435519881E+03  0.25500000920E-02 0.  1.
       -2    1    3    3    0  502 -0.33486162566E+02  0.37373793731E+03 -0.43317772289E+03  0.57310060939E+03  0.25500000920E-02 0. -1.
</event>
<event>
 5   0  0.5095750E-04  0.1596469E+04  0.7818609E-02  0.8822720E-01
       -3   -1    0    0    0  501  0.00000000000E+00  0.00000000000E+00  0.38511234571E+03  0.38511235895E+03  0.10100000352E+00 0.  1.
        3   -1    0    0  501    0  0.00000000000E+00  0.00000000000E+00 -0.16545258403E+04  0.16545258434E+04  0.10100000352E+00 0. -1.
    10030    2    1    2    0    0  0.00000000000E+00  0.00000000000E+00 -0.12694134946E+04  0.20396382023E+04  0.15964690339E+04 0.  0.
        5    1    3    3  502    0 -0.73813993336E+03  0.20842637217E+03 -0.91712175345E+03  0.11955862639E+04  0.46999998093E+01 0. -1.
       -5    1    3    3    0  502  0.73813993336E+03 -0.20842637217E+03 -0.35229174113E+03  0.84405193839E+03  0.46999998093E+01 0.  1.
</event>
<event>
 5   0  0.7633213E-04  0.1575450E+04  0.7818609E-02  0.8835774E-01
       -1   -1    0    0    0  501  0.00000000000E+00  0.00000000000E+00  0.77905391728E+03  0.77905391729E+03  0.50400001928E-02 0. -1.
        1   -1    0    0  501    0  0.00000000000E+00  0.00000000000E+00 -0.79649231499E+03  0.79649231501E+03  0.50400001928E-02 0.  1.
    10030    2    1    2    0    0  0.00000000000E+00  0.00000000000E+00 -0.17438397713E+02  0.15755462323E+04  0.15754497239E+04 0.  0.
        1    1    3    3  502    0 -0.46152827410E+03  0.51014313049E+03  0.37504392910E+03  0.78352556446E+03  0.50400001928E-02 0. -1.
       -1    1    3    3    0  502  0.46152827410E+03 -0.51014313049E+03 -0.39248232681E+03  0.79202066783E+03  0.50400001928E-02 0.  1.
</event>
<event>
 5   0  0.1414751E-03  0.1584677E+04  0.7818609E-02  0.8830017E-01
        2   -1    0    0  501    0  0.00000000000E+00  0.00000000000E+00  0.28145467639E+04  0.28145467639E+04  0.25500000920E-02 0. -1.
       -2   -1    0    0    0  501  0.00000000000E+00  0.00000000000E+00 -0.22305567322E+03  0.22305567324E+03  0.25500000920E-02 0.  1.
    10030    2    1    2    0    0  0.00000000000E+00  0.00000000000E+00  0.25914910906E+04  0.30376024371E+04  0.15846774098E+04 0.  0.
        2    1    3    3  502    0  0.71264611068E+03 -0.22603159241E+03  0.79279070611E+03  0.10897118259E+04  0.25500000920E-02 0. -1.
       -2    1    3    3    0  502 -0.71264611068E+03  0.22603159241E+03  0.17987003845E+04  0.19478906112E+04  0.25500000920E-02 0.  1.
</event>
<event>
 5   0  0.1414796E-03  0.1471690E+04  0.7818609E-02  0.8903500E-01
       -2   -1    0    0    0  501  0.00000000000E+00  0.00000000000E+00  0.50881326936E+03  0.50881326936E+03  0.25500000920E-02 0.  1.
        2   -1    0    0  501    0  0.00000000000E+00  0.00000000000E+00 -0.10641774000E+04  0.10641774000E+04  0.25500000920E-02 0. -1.
    10030    2    1    2    0    0  0.00000000000E+00  0.00000000000E+00 -0.55536413062E+03  0.15729906693E+04  0.14716896168E+04 0.  0.
        4    1    3    3  502    0 -0.19322832567E+03  0.25815427888E+03  0.42927262380E+03  0.53689609422E+03  0.12699999809E+01 0.  1.
       -4    1    3    3    0  502  0.19322832567E+03 -0.25815427888E+03 -0.98463675442E+03  0.10360945751E+04  0.12699999809E+01 0. -1.
</event>
<event>
 5   0  0.1375777E-03  0.1314640E+04  0.7818609E-02  0.9018036E-01
       -2   -1    0    0    0  501  0.00000000000E+00  0.00000000000E+00  0.50809940446E+03  0.50809940447E+03  0.25500000920E-02 0.  1.
        2   -1    0    0  501    0  0.00000000000E+00  0.00000000000E+00 -0.85036404224E+03  0.85036404224E+03  0.25500000920E-02 0. -1.
    10030    2    1    2    0    0  0.00000000000E+00  0.00000000000E+00 -0.34226463777E+03  0.13584634467E+04  0.13146398190E+04 0.  0.
        1    1    3    3  502    0 -0.47537052362E+03 -0.45381198068E+03 -0.18366147490E+03  0.68238844211E+03  0.50400001928E-02 0.  1.
       -1    1    3    3    0  502  0.47537052362E+03  0.45381198068E+03 -0.15860316288E+03  0.67607500460E+03  0.50400001928E-02 0. -1.
</event>
<event>
 5   0  0.1375777E-03  0.1624414E+04  0.7818609E-02  0.8805688E-01
        2   -1    0    0  501    0  0.00000000000E+00  0.00000000000E+00  0.12647233891E+04  0.12647233891E+04  0.25500000920E-02 0. -1.
       -2   -1    0    0    0  501  0.00000000000E+00  0.00000000000E+00 -0.52160038371E+03  0.52160038372E+03  0.25500000920E-02 0.  1.
    10030    2    1    2    0    0  0.00000000000E+00  0.00000000000E+00  0.74312300544E+03  0.17863237729E+04  0.16244139929E+04 0.  0.
        1    1    3    3  502    0 -0.70669240863E+02  0.11414753307E+03  0.12524373914E+04  0.12596123294E+04  0.50400001928E-02 0. -1.
       -1    1    3    3    0  502  0.70669240863E+02 -0.11414753307E+03 -0.50931438597E+03  0.52671144348E+03  0.50400001928E-02 0.  1.
</event>
<event>
 5   0  0.7124495E-04  0.1588240E+04  0.7818609E-02  0.8827805E-01
        1   -1    0    0  501    0  0.00000000000E+00  0.00000000000E+00  0.46101876018E+03  0.46101876021E+03  0.50400001928E-02 0.  1.
       -1   -1    0    0    0  501  0.00000000000E+00  0.00000000000E+00 -0.13678982036E+04  0.13678982036E+04  0.50400001928E-02 0. -1.
    10030    2    1    2    0    0  0.00000000000E+00  0.00000000000E+00 -0.90687944345E+03  0.18289169639E+04  0.15882402009E+04 0.  0.
        2    1    3    3  502    0  0.25874229710E+03 -0.74617328665E+03 -0.54912531625E+03  0.96190475774E+03  0.25500000920E-02 0. -1.
       -2    1    3    3    0  502 -0.25874229710E+03  0.74617328665E+03 -0.35775412721E+03  0.86701220612E+03  0.25500000920E-02 0.  1.
</event>
<event>
 5   0  0.5095750E-04  0.1184059E+04  0.7818609E-02  0.9126925E-01
        4   -1    0    0  501    0  0.00000000000E+00  0.00000000000E+00  0.51768737307E+03  0.51768893086E+03  0.12699999809E+01 0.  1.
       -4   -1    0    0    0  501  0.00000000000E+00  0.00000000000E+00 -0.67704403698E+03  0.67704522811E+03  0.12699999809E+01 0. -1.
    10030    2    1    2    0    0  0.00000000000E+00  0.00000000000E+00 -0.15935666391E+03  0.11947341590E+04  0.11840587672E+04 0.  0.
        3    1    3    3  502    0  0.62724442657E+02 -0.20584324018E+01  0.51432291729E+03  0.51813769048E+03  0.10100000352E+00 0.  1.
       -3    1    3    3    0  502 -0.62724442657E+02  0.20584324018E+01 -0.67367958120E+03  0.67659646849E+03  0.10100000352E+00 0. -1.
</event>
<event>
 5   0  0.1375777E-03  0.1578637E+04  0.7818609E-02  0.8833781E-01
       -2   -1    0    0    0  501  0.00000000000E+00  0.00000000000E+00  0.69321600219E+03  0.69321600220E+03  0.25500000920E-02 0. -1.
        2   -1    0    0  501    0  0.00000000000E+00  0.00000000000E+00 -0.89874364286E+03  0.89874364287E+03  0.25500000920E-02 0.  1.
    10030    2    1    2    0    0  0.00000000000E+00  0.00000000000E+00 -0.20552764067E+03  0.15919596451E+04  0.15786367221E+04 0.  0.
        1    1    3    3  502    0  0.63827290379E+03 -0.11335380052E+03 -0.55687757055E+03  0.85460751951E+03  0.50400001928E-02 0.  1.
       -1    1    3    3    0  502 -0.63827290379E+03  0.11335380052E+03  0.35134992988E+03  0.73735212555E+03  0.50400001928E-02 0. -1.
</event>
<event>
 5   0  0.1339162E-03  0.1663182E+04  0.7818609E-02  0.8782646E-01
        2   -1    0    0  501    0  0.00000000000E+00  0.00000000000E+00  0.52992053266E+03  0.52992053266E+03  0.25500000920E-02 0. -1.
       -2   -1    0    0    0  501  0.00000000000E+00  0.00000000000E+00 -0.13049943087E+04  0.13049943087E+04  0.25500000920E-02 0.  1.
    10030    2    1    2    0    0  0.00000000000E+00  0.00000000000E+00 -0.77507377607E+03  0.18349148414E+04  0.16631816247E+04 0.  0.
        5    1    3    3  502    0 -0.33737978281E+03 -0.13518815391E+02  0.45087462873E+03  0.56330977006E+03  0.46999998093E+01 0. -1.
       -5    1    3    3    0  502  0.33737978281E+03  0.13518815391E+02 -0.12259484048E+04  0.12716050713E+04  0.46999998093E+01 0.  1.
</event>
<event>
 5   0  0.1414796E-03  0.1656487E+04  0.7818609E-02  0.8786578E-01
        2   -1    0    0  501    0  0.00000000000E+00  0.00000000000E+00  0.16007893311E+04  0.16007893311E+04  0.25500000920E-02 0. -1.
       -2   -1    0    0    0  501  0.00000000000E+00  0.00000000000E+00 -0.42853058105E+03  0.42853058106E+03  0.25500000920E-02 0.  1.
    10030    2    1    2    0    0  0.00000000000E+00  0.00000000000E+00  0.11722587500E+04  0.20293199121E+04  0.16564868634E+04 0.  0.
        4    1    3    3  502    0  0.32477927963E+03 -0.37292696619E+03 -0.22781210361E+03  0.54447779572E+03  0.12699999809E+01 0.  1.
       -4    1    3    3    0  502 -0.32477927963E+03  0.37292696619E+03  0.14000708536E+04  0.14848421164E+04  0.12699999809E+01 0. -1.
</event>
<event>
 5   0  0.7633213E-04  0.1662378E+04  0.7818609E-02  0.8783117E-01
       -1   -1    0    0    0  501  0.00000000000E+00  0.00000000000E+00  0.30080385270E+03  0.30080385274E+03  0.50400001928E-02 0. -1.
        1   -1    0    0  501    0  0.00000000000E+00  0.00000000000E+00 -0.22967641511E+04  0.22967641511E+04  0.50400001928E-02 0.  1.
    10030    2    1    2    0    0  0.00000000000E+00  0.00000000000E+00 -0.19959602984E+04  0.25975680039E+04  0.16623784232E+04 0.  0.
        1    1    3    3  502    0 -0.74089831021E+03  0.32955504695E+03 -0.71267397477E+03  0.10795559408E+04  0.50400001928E-02 0. -1.
       -1    1    3    3    0  502  0.74089831021E+03 -0.32955504695E+03 -0.12832863237E+04  0.15180120631E+04  0.50400001928E-02 0.  1.
</event>
<event>
 5   0  0.1354766E-03  0.1673473E+04  0.7818609E-02  0.8776640E-01
       -2   -1    0    0    0  501  0.00000000000E+00  0.00000000000E+00  0.47013723681E+03  0.47013723682E+03  0.25500000920E-02 0.  1.
        2   -1    0    0  501    0  0.00000000000E+00  0.00000000000E+00 -0.14891993211E+04  0.14891993211E+04  0.25500000920E-02 0. -1.
    10030    2    1    2    0    0  0.00000000000E+00  0.00000000000E+00 -0.10190620843E+04  0.19593365579E+04  0.16734730998E+04 0.  0.
        3    1    3    3  502    0  0.98675378829E+02 -0.40799556804E+03  0.33794471436E+03  0.53889131937E+03  0.10100000352E+00 0.  1.
       -3    1    3    3    0  502 -0.98675378829E+02  0.40799556804E+03 -0.13570067987E+04  0.14204452386E+04  0.10100000352E+00 0. -1.
</event>
<event>
 5   0  0.1375777E-03  0.1449087E+04  0.7818609E-02  0.8919033E-01
       -2   -1    0    0    0  501  0.00000000000E+00  0.00000000000E+00  0.36087037285E+03  0.36087037286E+03  0.25500000920E-02 0.  1.
        2   -1    0    0  501    0  0.00000000000E+00  0.00000000000E+00 -0.14547152357E+04  0.14547152357E+04  0.25500000920E-02 0. -1.
    10030    2    1    2    0    0  0.00000000000E+00  0.00000000000E+00 -0.10938448629E+04  0.18155856086E+04  0.14490874777E+04 0.  0.
        1    1    3    3  502    0 -0.49779265695E+03  0.20499171223E+03 -0.11544829427E+04  0.12738327976E+04  0.50400001928E-02 0.  1.
       -1    1    3    3    0  502  0.49779265695E+03 -0.20499171223E+03  0.60638079829E+02  0.54175281092E+03  0.50400001928E-02 0. -1.
</event>
<event>
 5   0  0.7601145E-04  0.1614110E+04  0.7818609E-02  0.8811926E-01
        1   -1    0    0  501    0  0.00000000000E+00  0.00000000000E+00  0.62784525081E+03  0.62784525083E+03  0.50400001928E-02 0.  1.
       -1   -1    0    0    0  501  0.00000000000E+00  0.00000000000E+00 -0.10374176873E+04  0.10374176873E+04  0.50400001928E-02 0. -1.
    10030    2    1    2    0    0  0.00000000000E+00  0.00000000000E+00 -0.40957243645E+03  0.16652629381E+04  0.16141099939E+04 0.  0.
        4    1    3    3  502    0  0.66355010218E+03  0.12095589363E+03  0.25243699287E+03  0.72017714110E+03  0.12699999809E+01 0.  1.
       -4    1    3    3    0  502 -0.66355010218E+03 -0.12095589363E+03 -0.66200942932E+03  0.94508579701E+03  0.12699999809E+01 0. -1.
</event>
<event>
 5   0  0.1354766E-03  0.1570626E+04  0.7818609E-02  0.8838800E-01
        2   -1    0    0  501    0  0.00000000000E+00  0.00000000000E+00  0.92482406834E+03  0.92482406835E+03  0.25500000920E-02 0.  1.
       -2   -1    0    0    0  501  0.00000000000E+00  0.00000000000E+00 -0.66684698212E+03  0.66684698212E+03  0.25500000920E-02 0. -1.
    10030    2    1    2    0    0  0.00000000000E+00  0.00000000000E+00  0.25797708623E+03  0.15916710505E+04  0.15706255301E+04 0.  0.
        3    1    3    3  502    0  0.24825737799E+03  0.42534159252E+03 -0.49090130984E+03  0.69536415083E+03  0.10100000352E+00 0. -1.
       -3    1    3    3    0  502 -0.24825737799E+03 -0.42534159252E+03  0.74887839606E+03  0.89630689964E+03  0.10100000352E+00 0.  1.
</event>
<event>
 5   0  0.1375777E-03  0.1505993E+04  0.7818609E-02  0.8880477E-01
       -2   -1    0    0    0  501  0.00000000000E+00  0.00000000000E+00  0.63143534096E+03  0.63143534096E+03  0.25500000920E-02 0. -1.
        2   -1    0    0  501    0  0.00000000000E+00  0.00000000000E+00 -0.89796029111E+03  0.89796029112E+03  0.25500000920E-02 0.  1.
    10030    2    1    2    0    0  0.00000000000E+00  0.00000000000E+00 -0.26652495016E+03  0.15293956321E+04  0.15059931774E+04 0.  0.
        1    1    3    3  502    0  0.32924272300E+03 -0.74010481698E+02 -0.81686886270E+03  0.88382863776E+03  0.50400001928E-02 0.  1.
       -1    1    3    3    0  502 -0.32924272300E+03  0.74010481698E+02  0.55034391255E+03  0.64556699432E+03  0.50400001928E-02 0. -1.
</event>
<event>
 5   0  0.7124495E-04  0.1361984E+04  0.7818609E-02  0.8981805E-01
       -1   -1    0    0    0  501  0.00000000000E+00  0.00000000000E+00  0.76833558949E+03  0.76833558951E+03  0.50400001928E-02 0. -1.
        1   -1    0    0  501    0  0.00000000000E+00  0.00000000000E+00 -0.60357786538E+03  0.60357786541E+03  0.50400001928E-02 0.  1.
    10030    2    1    2    0    0  0.00000000000E+00  0.00000000000E+00  0.16475772411E+03  0.13719134549E+04  0.13619843685E+04 0.  0.
        2    1    3    3  502    0 -0.61554846821E+03  0.19365586039E+03 -0.13680304718E+03  0.65963443110E+03  0.25500000920E-02 0. -1.
       -2    1    3    3    0  502  0.61554846821E+03 -0.19365586039E+03  0.30156077128E+03  0.71227902381E+03  0.25500000920E-02 0.  1.
</event>
<event>
 5   0  0.1339162E-03  0.1853240E+04  0.7818609E-02  0.8678489E-01
       -2   -1    0    0    0  501  0.00000000000E+00  0.00000000000E+00  0.67169964588E+03  0.67169964588E+03  0.25500000920E-02 0.  1.
        2   -1    0    0  501    0  0.00000000000E+00  0.00000000000E+00 -0.12782859056E+04  0.12782859056E+04  0.25500000920E-02 0. -1.
    10030    2    1    2    0    0  0.00000000000E+00  0.00000000000E+00 -0.60658625971E+03  0.19499855515E+04  0.18532395313E+04 0.  0.
        5    1    3    3  502    0 -0.62340804524E+02 -0.49767932904E+03 -0.11230881512E+04  0.12300082015E+04  0.46999998093E+01 0. -1.
       -5    1    3    3    0  502  0.62340804524E+02  0.49767932904E+03  0.51650189151E+03  0.71997734992E+03  0.46999998093E+01 0.  1.
</event>
<event>
 5   0  0.7633213E-04  0.1604452E+04  0.7818609E-02  0.8817817E-01
        1   -1    0    0  501    0  0.00000000000E+00  0.00000000000E+00  0.11059559165E+04  0.11059559165E+04  0.50400001928E-02 0.  1.
       -1   -1    0    0    0  501  0.00000000000E+00  0.00000000000E+00 -0.58191000205E+03  0.58191000207E+03  0.50400001928E-02 0. -1.
    10030    2    1    2    0    0  0.00000000000E+00  0.00000000000E+00  0.52404591447E+03  0.16878659186E+04  0.16044523174E+04 0.  0.
        1    1    3    3  502    0 -0.21527100197E+03 -0.78625224429E+02  0.10707850193E+04  0.10950361125E+04  0.50400001928E-02 0.  1.
       -1    1    3    3    0  502  0.21527100197E+03  0.78625224429E+02 -0.54673910482E+03  0.59282980607E+03  0.50400001928E-02 0. -1.
</event>
<event>
 5   0  0.1375777E-03  0.1518070E+04  0.7818609E-02  0.8872525E-01
       -2   -1    0    0    0  501  0.00000000000E+00  0.00000000000E+00  0.57555628391E+03  0.57555628392E+03  0.25500000920E-02 0.  1.
        2   -1    0    0  501    0  0.00000000000E+00  0.00000000000E+00 -0.10010038039E+04  0.10010038039E+04  0.25500000920E-02 0. -1.
    10030    2    1    2    0    0  0.00000000000E+00  0.00000000000E+00 -0.42544751996E+03  0.15765600878E+04  0.15180698660E+04 0.  0.
        1    1    3    3  502    0  0.64277738604E+03 -0.87129991610E+02  0.19664604328E+03  0.67780828396E+03  0.50400001928E-02 0.  1.
       -1    1    3    3    0  502 -0.64277738604E+03  0.87129991610E+02 -0.62209356324E+03  0.89875180383E+03  0.50400001928E-02 0. -1.
</event>
<event>
 5   0  0.1414751E-03  0.1171242E+04  0.7818609E-02  0.9138408E-01
       -2   -1    0    0    0  501  0.00000000000E+00  0.00000000000E+00  0.25645402798E+03  0.25645402799E+03  0.25500000920E-02 0. -1.
        2   -1    0    0  501    0  0.00000000000E+00  0.00000000000E+00 -0.13372842000E+04  0.13372842000E+04  0.25500000920E-02 0.  1.
    10030    2    1    2    0    0  0.00000000000E+00  0.00000000000E+00 -0.10808301720E+04  0.15937382280E+04  0.11712419386E+04 0.  0.
        2    1    3    3  502    0 -0.31490015876E+03 -0.22133100814E+03  0.60160288286E+02  0.38957513453E+03  0.25500000920E-02 0. -1.
       -2    1    3    3    0  502  0.31490015876E+03  0.22133100814E+03 -0.11409904603E+04  0.12041630935E+04  0.25500000920E-02 0.  1.
</event>
<event>
 5   0  0.5095750E-04  0.1578570E+04  0.7818609E-02  0.8833822E-01
        3   -1    0    0  501    0  0.00000000000E+00  0.00000000000E+00  0.89381552087E+03  0.89381552657E+03  0.10100000352E+00 0.  1.
       -3   -1    0    0    0  501  0.00000000000E+00  0.00000000000E+00 -0.69697945738E+03  0.69697946470E+03  0.10100000352E+00 0. -1.
    10030    2    1    2    0    0  0.00000000000E+00  0.00000000000E+00  0.19683606348E+03  0.15907949913E+04  0.15785703242E+04 0.  0.
        2    1    3    3  502    0  0.49532442368E+03 -0.56666937659E+03 -0.14114248437E+03  0.76575561895E+03  0.25500000920E-02 0.  1.
       -2    1    3    3    0  502 -0.49532442368E+03  0.56666937659E+03  0.33797854786E+03  0.82503937232E+03  0.25500000920E-02 0. -1.
</event>
<event>
 5   0  0.7499834E-04  0.1013233E+04  0.7818609E-02  0.9294149E-01
       -1   -1    0    0    0  501  0.00000000000E+00  0.00000000000E+00  0.38482876073E+03  0.38482876077E+03  0.50400001928E-02 0. -1.
        1   -1    0    0  501    0  0.00000000000E+00  0.00000000000E+00 -0.66694699158E+03  0.66694699160E+03  0.50400001928E-02 0.  1.
    10030    2    1    2    0    0  0.00000000000E+00  0.00000000000E+00 -0.28211823085E+03  0.10517757524E+04  0.10132332096E+04 0.  0.
        3    1    3    3  502    0  0.13345343489E+03  0.46067212492E+03 -0.31045918169E+03  0.57132612373E+03  0.10100000352E+00 0.  1.
       -3    1    3    3    0  502 -0.13345343489E+03 -0.46067212492E+03  0.28340950847E+02  0.48044962863E+03  0.10100000352E+00 0. -1.
</event>
<event>
 5   0  0.1354766E-03  0.1593309E+04  0.7818609E-02  0.8824669E-01
        2   -1    0    0  501    0  0.00000000000E+00  0.00000000000E+00  0.11301093411E+04  0.11301093411E+04  0.25500000920E-02 0.  1.
       -2   -1    0    0    0  501  0.00000000000E+00  0.00000000000E+00 -0.56158993920E+03  0.56158993921E+03  0.25500000920E-02 0. -1.
    10030    2    1    2    0    0  0.00000000000E+00  0.00000000000E+00  0.56851940190E+03  0.16916992803E+04  0.15933085529E+04 0.  0.
        3    1    3    3  502    0  0.32648395893E+03 -0.42392371528E+03  0.91092299938E+03  0.10564486797E+04  0.10100000352E+00 0.  1.
       -3    1    3    3    0  502 -0.32648395893E+03  0.42392371528E+03 -0.34240359748E+03  0.63525060062E+03  0.10100000352E+00 0. -1.
</event>
<event>
 5   0  0.1339162E-03  0.1571681E+04  0.7818609E-02  0.8838137E-01
       -2   -1    0    0    0  501  0.00000000000E+00  0.00000000000E+00  0.34599211177E+03  0.34599211177E+03  0.25500000920E-02 0.  1.
        2   -1    0    0  501    0  0.00000000000E+00  0.00000000000E+00 -0.17848547157E+04  0.17848547157E+04  0.25500000920E-02 0. -1.
    10030    2    1    2    0    0  0.00000000000E+00  0.00000000000E+00 -0.14388626039E+04  0.21308468274E+04  0.15716814592E+04 0.  0.
        5    1    3    3  502    0 -0.56215277941E+03  0.21944813917E+03 -0.37016499386E+02  0.60462016540E+03  0.46999998093E+01 0.  1.
       -5    1    3    3    0  502  0.56215277941E+03 -0.21944813917E+03 -0.14018461045E+04  0.15262266620E+04  0.46999998093E+01 0. -1.
</event>
<event>
 5   0  0.5095750E-04  0.1616489E+04  0.7818609E-02  0.8810482E-01
       -3   -1    0    0    0  501  0.00000000000E+00  0.00000000000E+00  0.13079527013E+04  0.13079527052E+04  0.10100000352E+00 0. -1.
        3   -1    0    0  501    0  0.00000000000E+00  0.00000000000E+00 -0.49945136598E+03  0.49945137619E+03  0.10100000352E+00 0.  1.
    10030    2    1    2    0    0  0.00000000000E+00  0.00000000000E+00  0.80850133535E+03  0.18074040814E+04  0.16164885104E+04 0.  0.
        2    1    3    3  502    0  0.52931305817E+03 -0.44134132177E+03  0.87638278542E+03  0.11148996647E+04  0.25500000920E-02 0. -1.
       -2    1    3    3    0  502 -0.52931305817E+03  0.44134132177E+03 -0.67881450074E+02  0.69250441668E+03  0.25500000920E-02 0.  1.
</event>
<event>
 5   0  0.1375777E-03  0.8727935E+03  0.7818609E-02  0.9460245E-01
       -2   -1    0    0    0  501  0.00000000000E+00  0.00000000000E+00  0.12365726182E+03  0.12365726185E+03  0.25500000920E-02 0. -1.
        2   -1    0    0  501    0  0.00000000000E+00  0.00000000000E+00 -0.15400803386E+04  0.15400803386E+04  0.25500000920E-02 0.  1.
    10030    2    1    2    0    0  0.00000000000E+00  0.00000000000E+00 -0.14164230768E+04  0.16637376004E+04  0.87279348687E+03 0.  0.
        1    1    3    3  502    0  0.72734117960E+02 -0.13192708857E+03  0.72518442714E+02  0.16719429767E+03  0.50400001928E-02 0. -1.
       -1    1    3    3    0  502 -0.72734117960E+02  0.13192708857E+03 -0.14889415195E+04  0.14965433028E+04  0.50400001928E-02 0.  1.
</event>
<event>
 5   0  0.7633213E-04  0.1610621E+04  0.7818609E-02  0.8814050E-01
        1   -1    0    0  501    0  0.00000000000E+00  0.00000000000E+00  0.15871098860E+04  0.15871098860E+04  0.50400001928E-02 0. -1.
       -1   -1    0    0    0  501  0.00000000000E+00  0.00000000000E+00 -0.40862003613E+03  0.40862003616E+03  0.50400001928E-02 0.  1.
    10030    2    1    2    0    0  0.00000000000E+00  0.00000000000E+00  0.11784898499E+04  0.19957299222E+04  0.16106208728E+04 0.  0.
        1    1    3    3  502    0 -0.78512304589E+03 -0.11100808538E+01  0.36722192908E+03  0.86675912149E+03  0.50400001928E-02 0.  1.
       -1    1    3    3    0  502  0.78512304589E+03  0.11100808538E+01  0.81126792081E+03  0.11289708007E+04  0.50400001928E-02 0. -1.
</event>
<event>
 5   0  0.1354766E-03  0.1785751E+04  0.7818609E-02  0.8713914E-01
       -2   -1    0    0    0  501  0.00000000000E+00  0.00000000000E+00  0.87512557056E+03  0.87512557057E+03  0.25500000920E-02 0.  1.
        2   -1    0    0  501    0  0.00000000000E+00  0.00000000000E+00 -0.91098570857E+03  0.91098570857E+03  0.25500000920E-02 0. -1.
    10030    2    1    2    0    0  0.00000000000E+00  0.00000000000E+00 -0.35860138004E+02  0.17861112791E+04  0.17857512570E+04 0.  0.
        3    1    3    3  502    0  0.80660780317E+03 -0.16606927268E+03 -0.36300937398E+03  0.89998387055E+03  0.10100000352E+00 0. -1.
       -3    1    3    3    0  502 -0.80660780317E+03  0.16606927268E+03  0.32714923597E+03  0.88612740859E+03  0.10100000352E+00 0.  1.
</event>
<event>
 5   0  0.1414796E-03  0.1560964E+04  0.7818609E-02  0.8844895E-01
        2   -1    0    0  501    0  0.00000000000E+00  0.00000000000E+00  0.77267563035E+03  0.77267563035E+03  0.25500000920E-02 0. -1.
       -2   -1    0    0    0  501  0.00000000000E+00  0.00000000000E+00 -0.78836722016E+03  0.78836722016E+03  0.25500000920E-02 0.  1.
    10030    2    1    2    0    0  0.00000000000E+00  0.00000000000E+00 -0.15691589813E+02  0.15610428505E+04  0.15609639827E+04 0.  0.
        4    1    3    3  502    0 -0.31969786412E+02 -0.18244560867E+03  0.75037590611E+03  0.77289978699E+03  0.12699999809E+01 0. -1.
       -4    1    3    3    0  502  0.31969786412E+02  0.18244560867E+03 -0.76606749592E+03  0.78814306352E+03  0.12699999809E+01 0.  1.
</event>
<event>
 5   0  0.1414751E-03  0.1639890E+04  0.7818609E-02  0.8796410E-01
        2   -1    0    0  501    0  0.00000000000E+00  0.00000000000E+00  0.10165871558E+04  0.10165871558E+04  0.25500000920E-02 0. -1.
       -2   -1    0    0    0  501  0.00000000000E+00  0.00000000000E+00 -0.66133997718E+03  0.66133997719E+03  0.25500000920E-02 0.  1.
    10030    2    1    2    0    0  0.00000000000E+00  0.00000000000E+00  0.35524717859E+03  0.16779271330E+04  0.16398899066E+04 0.  0.
        2    1    3    3  502    0 -0.24219316304E+03  0.10490574952E+03  0.97193334580E+03  0.10071331457E+04  0.25500000920E-02 0. -1.
       -2    1    3    3    0  502  0.24219316304E+03 -0.10490574952E+03 -0.61668616721E+03  0.67079398726E+03  0.25500000920E-02 0.  1.
</event>
<event>
 5   0  0.1414796E-03  0.1616441E+04  0.7818609E-02  0.8810511E-01
        2   -1    0    0  501    0  0.00000000000E+00  0.00000000000E+00  0.66041424066E+03  0.66041424066E+03  0.25500000920E-02 0.  1.
       -2   -1    0    0    0  501  0.00000000000E+00  0.00000000000E+00 -0.98910764695E+03  0.98910764695E+03  0.25500000920E-02 0. -1.
    10030    2    1    2    0    0  0.00000000000E+00  0.00000000000E+00 -0.32869340629E+03  0.16495218876E+04  0.16164414936E+04 0.  0.
        4    1    3    3  502    0  0.28934199290E+03  0.28273744032E+03  0.54965790916E+03  0.68248419690E+03  0.12699999809E+01 0.  1.
       -4    1    3    3    0  502 -0.28934199290E+03 -0.28273744032E+03 -0.87835131545E+03  0.96703769072E+03  0.12699999809E+01 0. -1.
</event>
<event>
 5   0  0.1375777E-03  0.1594911E+04  0.7818609E-02  0.8823680E-01
        2   -1    0    0  501    0  0.00000000000E+00  0.00000000000E+00  0.69156092582E+03  0.69156092583E+03  0.25500000920E-02 0.  1.
       -2   -1    0    0    0  501  0.00000000000E+00  0.00000000000E+00 -0.91956506812E+03  0.91956506813E+03  0.25500000920E-02 0. -1.
    10030    2    1    2    0    0  0.00000000000E+00  0.00000000000E+00 -0.22800414230E+03  0.16111259940E+04  0.15949109942E+04 0.  0.
        1    1    3    3  502    0 -0.64558644644E+03 -0.33944742727E+03  0.21165545718E+03  0.75947643037E+03  0.50400001928E-02 0.  1.
       -1    1    3    3    0  502  0.64558644644E+03  0.33944742727E+03 -0.43965959948E+03  0.85164956358E+03  0.50400001928E-02 0. -1.
</event>
<event>
 5   0  0.5095750E-04  0.1528775E+04  0.7818609E-02  0.8865540E-01
        3   -1    0    0  501    0  0.00000000000E+00  0.00000000000E+00  0.10195331019E+04  0.10195331069E+04  0.10100000352E+00 0.  1.
       -3   -1    0    0    0  501  0.00000000000E+00  0.00000000000E+00 -0.57309373098E+03  0.57309373988E+03  0.10100000352E+00 0. -1.
    10030    2    1    2    0    0  0.00000000000E+00  0.00000000000E+00  0.44643937096E+03  0.15926268468E+04  0.15287747255E+04 0.  0.
        2    1    3    3  502    0  0.97971262238E+01  0.57907387362E+02  0.10171791765E+04  0.10188732631E+04  0.25500000920E-02 0.  1.
       -2    1    3    3    0  502 -0.97971262238E+01 -0.57907387362E+02 -0.57073980553E+03  0.57375358370E+03  0.25500000920E-02 0. -1.
</event>
<event>
 5   0  0.7633213E-04  0.1632332E+04  0.7818609E-02  0.8800928E-01
        1   -1    0    0  501    0  0.00000000000E+00  0.00000000000E+00  0.13629621412E+04  0.13629621412E+04  0.50400001928E-02 0.  1.
       -1   -1    0    0    0  501  0.00000000000E+00  0.00000000000E+00 -0.48873451315E+03  0.48873451318E+03  0.50400001928E-02 0. -1.
    10030    2    1    2    0    0  0.00000000000E+00  0.00000000000E+00  0.87422762802E+03  0.18516966544E+04  0.16323316312E+04 0.  0.
        1    1    3    3  502    0 -0.38869987446E+03  0.15061301263E+03 -0.35886318594E+03  0.55004968705E+03  0.50400001928E-02 0. -1.
       -1    1    3    3    0  502  0.38869987446E+03 -0.15061301263E+03  0.12330908140E+04  0.13016469673E+04  0.50400001928E-02 0.  1.
</event>
<event>
 5   0  0.1375777E-03  0.1575747E+04  0.7818609E-02  0.8835588E-01
        2   -1    0    0  501    0  0.00000000000E+00  0.00000000000E+00  0.10699828031E+04  0.10699828031E+04  0.25500000920E-02 0.  1.
       -2   -1    0    0    0  501  0.00000000000E+00  0.00000000000E+00 -0.58014442035E+03  0.58014442036E+03  0.25500000920E-02 0. -1.
    10030    2    1    2    0    0  0.00000000000E+00  0.00000000000E+00  0.48983838276E+03  0.16501272235E+04  0.15757468745E+04 0.  0.
        1    1    3    3  502    0  0.33313363385E+03  0.28189616647E+03 -0.44201826269E+03  0.62114701259E+03  0.50400001928E-02 0. -1.
       -1    1    3    3    0  502 -0.33313363385E+03 -0.28189616647E+03  0.93185664546E+03  0.10289802109E+04  0.50400001928E-02 0.  1.
</event>
<event>
 5   0  0.7124495E-04  0.1608240E+04  0.7818609E-02  0.8815502E-01
       -1   -1    0    0    0  501  0.00000000000E+00  0.00000000000E+00  0.51097958778E+03  0.51097958781E+03  0.50400001928E-02 0. -1.
        1   -1    0    0  501    0  0.00000000000E+00  0.00000000000E+00 -0.12654301802E+04  0.12654301802E+04  0.50400001928E-02 0.  1.
    10030    2    1    2    0    0  0.00000000000E+00  0.00000000000E+00 -0.75445059237E+03  0.17764097680E+04  0.16082400217E+04 0.  0.
        2    1    3    3  502    0 -0.71888932745E+03 -0.74886522054E+02 -0.76649586848E+03  0.10535301480E+04  0.25500000920E-02 0.  1.
       -2    1    3    3    0  502  0.71888932745E+03  0.74886522054E+02  0.12045276116E+02  0.72287961999E+03  0.25500000920E-02 0. -1.
</event>
<event>
 5   0  0.7499834E-04  0.1628088E+04  0.7818609E-02  0.8803476E-01
        1   -1    0    0  501    0  0.00000000000E+00  0.00000000000E+00  0.72109258322E+03  0.72109258323E+03  0.50400001928E-02 0.  1.
       -1   -1    0    0    0  501  0.00000000000E+00  0.00000000000E+00 -0.91897699954E+03  0.91897699955E+03  0.50400001928E-02 0. -1.
    10030    2    1    2    0    0  0.00000000000E+00  0.00000000000E+00 -0.19788441632E+03  0.16400695828E+04  0.16280878337E+04 0.  0.
        3    1    3    3  502    0 -0.47052659424E+03  0.30067176769E+03 -0.69564319685E+03  0.89203041164E+03  0.10100000352E+00 0. -1.
       -3    1    3    3    0  502  0.47052659424E+03 -0.30067176769E+03  0.49775878053E+03  0.74803917114E+03  0.10100000352E+00 0.  1.
</event>
<event>
 5   0  0.7601145E-04  0.1569060E+04  0.7818609E-02  0.8839784E-01
        1   -1    0    0  501    0  0.00000000000E+00  0.00000000000E+00  0.32293178730E+04  0.32293178730E+04  0.50400001928E-02 0. -1.
       -1   -1    0    0    0  501  0.00000000000E+00  0.00000000000E+00 -0.19059368792E+03  0.19059368798E+03  0.50400001928E-02 0.  1.
    10030    2    1    2    0    0  0.00000000000E+00  0.00000000000E+00  0.30387241851E+04  0.34199115610E+04  0.15690603596E+04 0.  0.
        4    1    3    3  502    0  0.52013147941E+03  0.20586827918E+02  0.27987017369E+04  0.28466987193E+04  0.12699999809E+01 0. -1.
       -4    1    3    3    0  502 -0.52013147941E+03 -0.20586827918E+02  0.24002244818E+03  0.57321284170E+03  0.12699999809E+01 0.  1.
</event>
<event>
 5   0  0.1375777E-03  0.1593845E+04  0.7818609E-02  0.8824338E-01
       -2   -1    0    0    0  501  0.00000000000E+00  0.00000000000E+00  0.12495448607E+04  0.12495448607E+04  0.25500000920E-02 0. -1.
        2   -1    0    0  501    0  0.00000000000E+00  0.00000000000E+00 -0.50825333164E+03  0.50825333165E+03  0.25500000920E-02 0.  1.
    10030    2    1    2    0    0  0.00000000000E+00  0.00000000000E+00  0.74129152907E+03  0.17577981924E+04  0.15938448337E+04 0.  0.
        1    1    3    3  502    0  0.49250578519E+03 -0.62328905458E+03  0.44069424166E+03  0.90843965604E+03  0.50400001928E-02 0.  1.
       -1    1    3    3    0  502 -0.49250578519E+03  0.62328905458E+03  0.30059728741E+03  0.84935853632E+03  0.50400001928E-02 0. -1.
</event>
<event>
 5   0  0.7124495E-04  0.1650584E+04  0.7818609E-02  0.8790061E-01
       -1   -1    0    0    0  501  0.00000000000E+00  0.00000000000E+00  0.97110669240E+03  0.97110669241E+03  0.50400001928E-02 0. -1.
        1   -1    0    0  501    0  0.00000000000E+00  0.00000000000E+00 -0.70137217151E+03  0.70137217153E+03  0.50400001928E-02 0.  1.
    10030    2    1    2    0    0  0.00000000000E+00  0.00000000000E+00  0.26973452089E+03  0.16724788639E+04  0.16505843930E+04 0.  0.
        2    1    3    3  502    0  0.59354040707E+02  0.70261177910E+03 -0.29968154258E+03  0.76615614679E+03  0.25500000920E-02 0.  1.
       -2    1    3    3    0  502 -0.59354040707E+02 -0.70261177910E+03  0.56941606347E+03  0.90632271716E+03  0.25500000920E-02 0. -1.
</event>
<event>
 5   0  0.7302027E-04  0.1572285E+04  0.7818609E-02  0.8837758E-01
       -1   -1    0    0    0  501  0.00000000000E+00  0.00000000000E+00  0.87165580179E+03  0.87165580180E+03  0.50400001928E-02 0. -1.
        1   -1    0    0  501    0  0.00000000000E+00  0.00000000000E+00 -0.70901807645E+03  0.70901807647E+03  0.50400001928E-02 0.  1.
    10030    2    1    2    0    0  0.00000000000E+00  0.00000000000E+00  0.16263772534E+03  0.15806738783E+04  0.15722846052E+04 0.  0.
        5    1    3    3  502    0 -0.39355181148E+02 -0.26884544020E+03  0.82293433628E+03  0.86664278272E+03  0.46999998093E+01 0. -1.
       -5    1    3    3    0  502  0.39355181148E+02  0.26884544020E+03 -0.66029661095E+03  0.71403109556E+03  0.46999998093E+01 0.  1.
</event>
<event>
 5   0  0.7302027E-04  0.1506511E+04  0.7818609E-02  0.8880135E-01
       -1   -1    0    0    0  501  0.00000000000E+00  0.00000000000E+00  0.42676078741E+03  0.42676078744E+03  0.50400001928E-02 0.  1.
        1   -1    0    0  501    0  0.00000000000E+00  0.00000000000E+00 -0.13295352757E+04  0.13295352758E+04  0.50400001928E-02 0. -1.
    10030    2    1    2    0    0  0.00000000000E+00  0.00000000000E+00 -0.90277448833E+03  0.17562960632E+04  0.15065105658E+04 0.  0.
        5    1    3    3  502    0 -0.47762184302E+03  0.51926654772E+03 -0.14380258911E+03  0.72004280924E+03  0.46999998093E+01 0.  1.
       -5    1    3    3    0  502  0.47762184302E+03 -0.51926654772E+03 -0.75897189923E+03  0.10362532540E+04  0.46999998093E+01 0. -1.
</event>
<event>
 5   0  0.1375777E-03  0.1719139E+04  0.7818609E-02  0.8750523E-01
        2   -1    0    0  501    0  0.00000000000E+00  0.00000000000E+00  0.10119199985E+04  0.10119199985E+04  0.25500000920E-02 0.  1.
       -2   -1    0    0    0  501  0.00000000000E+00  0.00000000000E+00 -0.73015632902E+03  0.73015632902E+03  0.25500000920E-02 0. -1.
    10030    2    1    2    0    0  0.00000000000E+00  0.00000000000E+00  0.28176366947E+03  0.17420763275E+04  0.17191390768E+04 0.  0.
        1    1    3    3  502    0 -0.21495244112E+03 -0.51395271303E+03  0.80422087395E+03  0.97832671297E+03  0.50400001928E-02 0.  1.
       -1    1    3    3    0  502  0.21495244112E+03  0.51395271303E+03 -0.52245720448E+03  0.76374961455E+03  0.50400001928E-02 0. -1.
</event>
<event>
 5   0  0.7302027E-04  0.1543893E+04  0.7818609E-02  0.8855778E-01
       -1   -1    0    0    0  501  0.00000000000E+00  0.00000000000E+00  0.28727278901E+03  0.28727278906E+03  0.50400001928E-02 0. -1.
        1   -1    0    0  501    0  0.00000000000E+00  0.00000000000E+00 -0.20743406479E+04  0.20743406479E+04  0.50400001928E-02 0.  1.
    10030    2    1    2    0    0  0.00000000000E+00  0.00000000000E+00 -0.17870678589E+04  0.23616134370E+04  0.15438932908E+04 0.  0.
        5    1    3    3  502    0  0.12906915635E+03 -0.25766354391E+01 -0.20576896436E+04  0.20617405864E+04  0.46999998093E+01 0.  1.
       -5    1    3    3    0  502 -0.12906915635E+03  0.25766354391E+01  0.27062178470E+03  0.29987285059E+03  0.46999998093E+01 0. -1.
</event>
<event>
 5   0  0.1414751E-03  0.1645330E+04  0.7818609E-02  0.8793174E-01
        2   -1    0    0  501    0  0.00000000000E+00  0.00000000000E+00  0.21461282732E+04  0.21461282732E+04  0.25500000920E-02 0. -1.
       -2   -1    0    0    0  501  0.00000000000E+00  0.00000000000E+00 -0.31534812653E+03  0.31534812654E+03  0.25500000920E-02 0.  1.
    10030    2    1    2    0    0  0.00000000000E+00  0.00000000000E+00  0.18307801467E+04  0.24614763998E+04  0.16453297910E+04 0.  0.
        2    1    3    3  502    0 -0.44371322118E+03  0.35207135351E+03  0.18079394552E+04  0.18945924982E+04  0.25500000920E-02 0. -1.
       -2    1    3    3    0  502  0.44371322118E+03 -0.35207135351E+03  0.22840691471E+02  0.56688390152E+03  0.25500000920E-02 0.  1.
</event>
<event>
 5   0  0.7124495E-04  0.1612316E+04  0.7818609E-02  0.8813018E-01
        1   -1    0    0  501    0  0.00000000000E+00  0.00000000000E+00  0.19978571214E+04  0.19978571214E+04  0.50400001928E-02 0. -1.
       -1   -1    0    0    0  501  0.00000000000E+00  0.00000000000E+00 -0.32529372923E+03  0.32529372927E+03  0.50400001928E-02 0.  1.
    10030    2    1    2    0    0  0.00000000000E+00  0.00000000000E+00  0.16725633922E+04  0.23231508507E+04  0.16123155938E+04 0.  0.
        2    1    3    3  502    0 -0.41719502802E+03  0.61759854511E+03  0.12790107830E+04  0.14803203158E+04  0.25500000920E-02 0. -1.
       -2    1    3    3    0  502  0.41719502802E+03 -0.61759854511E+03  0.39355260917E+03  0.84283053488E+03  0.25500000920E-02 0.  1.
</event>
<event>
 5   0  0.1339162E-03  0.1827250E+04  0.7818609E-02  0.8691941E-01
       -2   -1    0    0    0  501  0.00000000000E+00  0.00000000000E+00  0.35814613103E+03  0.35814613104E+03  0.25500000920E-02 0.  1.
        2   -1    0    0  501    0  0.00000000000E+00  0.00000000000E+00 -0.23306415569E+04  0.23306415569E+04  0.25500000920E-02 0. -1.
    10030    2    1    2    0    0  0.00000000000E+00  0.00000000000E+00 -0.19724954258E+04  0.26887876879E+04  0.18272495795E+04 0.  0.
        5    1    3    3  502    0 -0.55494525645E+03 -0.21252906813E+03  0.34883930442E+02  0.59529137493E+03  0.46999998093E+01 0.  1.
       -5    1    3    3    0  502  0.55494525645E+03  0.21252906813E+03 -0.20073793563E+04  0.20934963130E+04  0.46999998093E+01 0. -1.
</event>
<event>
 5   0  0.1414796E-03  0.1575931E+04  0.7818609E-02  0.8835472E-01
        2   -1    0    0  501    0  0.00000000000E+00  0.00000000000E+00  0.18805751047E+04  0.18805751047E+04  0.25500000920E-02 0. -1.
       -2   -1    0    0    0  501  0.00000000000E+00  0.00000000000E+00 -0.33015953986E+03  0.33015953987E+03  0.25500000920E-02 0.  1.
    10030    2    1    2    0    0  0.00000000000E+00  0.00000000000E+00  0.15504155649E+04  0.22107346446E+04  0.15759312311E+04 0.  0.
        4    1    3    3  502    0  0.62099162635E+03 -0.25140497001E+03  0.19333149978E+03  0.69729028435E+03  0.12699999809E+01 0.  1.
       -4    1    3    3    0  502 -0.62099162635E+03  0.25140497001E+03  0.13570840651E+04  0.15134443603E+04  0.12699999809E+01 0. -1.
</event>
<event>
 5   0  0.1414796E-03  0.1612611E+04  0.7818609E-02  0.8812838E-01
        2   -1    0    0  501    0  0.00000000000E+00  0.00000000000E+00  0.18428561865E+04  0.18428561865E+04  0.25500000920E-02 0.  1.
       -2   -1    0    0    0  501  0.00000000000E+00  0.00000000000E+00 -0.35278298591E+03  0.35278298592E+03  0.25500000920E-02 0. -1.
    10030    2    1    2    0    0  0.00000000000E+00  0.00000000000E+00  0.14900732006E+04  0.21956391724E+04  0.16126106884E+04 0.  0.
        4    1    3    3  502    0  0.55668341550E+03 -0.25133315558E+02  0.15384771164E+04  0.16362889596E+04  0.12699999809E+01 0.  1.
       -4    1    3    3    0  502 -0.55668341550E+03  0.25133315558E+02 -0.48403915813E+02  0.55935021284E+03  0.12699999809E+01 0. -1.
</event>
<event>
 5   0  0.5095750E-04  0.1549307E+04  0.7818609E-02  0.8852310E-01
       -3   -1    0    0    0  501  0.00000000000E+00  0.00000000000E+00  0.59034510265E+03  0.59034511129E+03  0.10100000352E+00 0.  1.
        3   -1    0    0  501    0  0.00000000000E+00  0.00000000000E+00 -0.10165039083E+04  0.10165039133E+04  0.10100000352E+00 0. -1.
    10030    2    1    2    0    0  0.00000000000E+00  0.00000000000E+00 -0.42615880564E+03  0.16068490246E+04  0.15493070904E+04 0.  0.
        2    1    3    3  502    0 -0.63072317379E+03 -0.44605651963E+03 -0.27274855712E+03  0.81924960547E+03  0.25500000920E-02 0.  1.
       -2    1    3    3    0  502  0.63072317379E+03  0.44605651963E+03 -0.15341024852E+03  0.78759941913E+03  0.25500000920E-02 0. -1.
</event>
<event>
 5   0  0.5095750E-04  0.1526988E+04  0.7818609E-02  0.8866702E-01
        3   -1    0    0  501    0  0.00000000000E+00  0.00000000000E+00  0.49232963481E+03  0.49232964517E+03  0.10100000352E+00 0. -1.
       -3   -1    0    0    0  501  0.00000000000E+00  0.00000000000E+00 -0.11840100207E+04  0.11840100250E+04  0.10100000352E+00 0.  1.
    10030    2    1    2    0    0  0.00000000000E+00  0.00000000000E+00 -0.69168038588E+03  0.16763396702E+04  0.15269881904E+04 0.  0.
        1    1    3    3  502    0 -0.74763171364E+03  0.12108491435E+03 -0.23992307836E+03  0.79446700326E+03  0.50400001928E-02 0. -1.
       -1    1    3    3    0  502  0.74763171364E+03 -0.12108491435E+03 -0.45175730752E+03  0.88187266691E+03  0.50400001928E-02 0.  1.
</event>
<event>
 5   0  0.7302027E-04  0.1573909E+04  0.7818609E-02  0.8836739E-01
        1   -1    0    0  501    0  0.00000000000E+00  0.00000000000E+00  0.77951125882E+03  0.77951125884E+03  0.50400001928E-02 0.  1.
       -1   -1    0    0    0  501  0.00000000000E+00  0.00000000000E+00 -0.79446921064E+03  0.79446921066E+03  0.50400001928E-02 0. -1.
    10030    2    1    2    0    0  0.00000000000E+00  0.00000000000E+00 -0.14957951820E+02  0.15739804695E+04  0.15739093932E+04 0.  0.
        5    1    3    3  502    0  0.23798099486E+03 -0.13774738486E+03 -0.74484958327E+03  0.79399766224E+03  0.46999998093E+01 0. -1.
       -5    1    3    3    0  502 -0.23798099486E+03  0.13774738486E+03  0.72989163145E+03  0.77998280725E+03  0.46999998093E+01 0.  1.
</event>
<event>
 5   0  0.1375777E-03  0.1627403E+04  0.7818609E-02  0.8803888E-01
       -2   -1    0    0    0  501  0.00000000000E+00  0.00000000000E+00  0.21422795790E+03  0.21422795791E+03  0.25500000920E-02 0. -1.
        2   -1    0    0  501    0  0.00000000000E+00  0.00000000000E+00 -0.30906816510E+04  0.30906816510E+04  0.25500000920E-02 0.  1.
    10030    2    1    2    0    0  0.00000000000E+00  0.00000000000E+00 -0.28764536931E+04  0.33049096089E+04  0.16274033534E+04 0.  0.
        1    1    3    3  502    0  0.38032115919E+03 -0.58095925872E+03 -0.57675039401E+03  0.90266209704E+03  0.50400001928E-02 0. -1.
       -1    1    3    3    0  502 -0.38032115919E+03  0.58095925872E+03 -0.22997032991E+04  0.24022475119E+04  0.50400001928E-02 0.  1.
</event>
<event>
 5   0  0.1339162E-03  0.1185319E+04  0.7818609E-02  0.9125805E-01
        2   -1    0    0  501    0  0.00000000000E+00  0.00000000000E+00  0.63249672468E+03  0.63249672469E+03  0.25500000920E-02 0. -1.
       -2   -1    0    0    0  501  0.00000000000E+00  0.00000000000E+00 -0.55533093499E+03  0.55533093499E+03  0.25500000920E-02 0.  1.
    10030    2    1    2    0    0  0.00000000000E+00  0.00000000000E+00  0.77165789696E+02  0.11878276597E+04  0.11853185184E+04 0.  0.
        5    1    3    3  502    0 -0.22787411707E+03 -0.41032455308E+03  0.40119144501E+03  0.61747025648E+03  0.46999998093E+01 0. -1.
       -5    1    3    3    0  502  0.22787411707E+03  0.41032455308E+03 -0.32402565531E+03  0.57035740320E+03  0.46999998093E+01 0.  1.
</event>
<event>
 5   0  0.7302027E-04  0.1563299E+04  0.7818609E-02  0.8843417E-01
        1   -1    0    0  501    0  0.00000000000E+00  0.00000000000E+00  0.15683565037E+04  0.15683565037E+04  0.50400001928E-02 0.  1.
       -1   -1    0    0    0  501  0.00000000000E+00  0.00000000000E+00 -0.38956457929E+03  0.38956457933E+03  0.50400001928E-02 0. -1.
    10030    2    1    2    0    0  0.00000000000E+00  0.00000000000E+00  0.11787919244E+04  0.19579210830E+04  0.15632992568E+04 0.  0.
        5    1    3    3  502    0 -0.59540092537E+03  0.46684061941E+03  0.83517734739E+03  0.11269364301E+04  0.46999998093E+01 0.  1.
       -5    1    3    3    0  502  0.59540092537E+03 -0.46684061941E+03  0.34361457698E+03  0.83098465292E+03  0.46999998093E+01 0. -1.
</event>
<event>
 5   0  0.1414796E-03  0.1645402E+04  0.7818609E-02  0.8793131E-01
        2   -1    0    0  501    0  0.00000000000E+00  0.00000000000E+00  0.64914177319E+03  0.64914177320E+03  0.25500000920E-02 0.  1.
       -2   -1    0    0    0  501  0.00000000000E+00  0.00000000000E+00 -0.10426643252E+04  0.10426643252E+04  0.25500000920E-02 0. -1.
    10030    2    1    2    0    0  0.00000000000E+00  0.00000000000E+00 -0.39352255199E+03  0.16918060984E+04  0.16454020407E+04 0.  0.
        4    1    3    3  502    0 -0.14644264600E+03  0.51346291400E+03  0.44678635749E+03  0.69621065401E+03  0.12699999809E+01 0.  1.
       -4    1    3    3    0  502  0.14644264600E+03 -0.51346291400E+03 -0.84030890948E+03  0.99559544438E+03  0.12699999809E+01 0. -1.
</event>
<event>
 5   0  0.1375777E-03  0.1554792E+04  0.7818609E-02  0.8848813E-01
       -2   -1    0    0    0  501  0.00000000000E+00  0.00000000000E+00  0.60100465682E+03  0.60100465682E+03  0.25500000920E-02 0.  1.
        2   -1    0    0  501    0  0.00000000000E+00  0.00000000000E+00 -0.10055573391E+04  0.10055573391E+04  0.25500000920E-02 0. -1.
    10030    2    1    2    0    0  0.00000000000E+00  0.00000000000E+00 -0.40455268228E+03  0.16065619959E+04  0.15547921321E+04 0.  0.
        1    1    3    3  502    0  0.26638109750E+03  0.11521866934E+03 -0.94747648361E+03  0.99093184321E+03  0.50400001928E-02 0. -1.
       -1    1    3    3    0  502 -0.26638109750E+03 -0.11521866934E+03  0.54292380132E+03  0.61563015272E+03  0.50400001928E-02 0.  1.
</event>
<event>
 5   0  0.7499834E-04  0.1611702E+04  0.7818609E-02  0.8813391E-01
        1   -1    0    0  501    0  0.00000000000E+00  0.00000000000E+00  0.11698151546E+04  0.11698151546E+04  0.50400001928E-02 0. -1.
       -1   -1    0    0    0  501  0.00000000000E+00  0.00000000000E+00 -0.55512677927E+03  0.55512677929E+03  0.50400001928E-02 0.  1.
    10030    2    1    2    0    0  0.00000000000E+00  0.00000000000E+00  0.61468837529E+03  0.17249419339E+04  0.16117018572E+04 0.  0.
        3    1    3    3  502    0  0.42787717544E+02  0.50862682828E+03  0.97474765549E+03  0.11003022500E+04  0.10100000352E+00 0. -1.
       -3    1    3    3    0  502 -0.42787717544E+02 -0.50862682828E+03 -0.36005928020E+03  0.62463968388E+03  0.10100000352E+00 0.  1.
</event>
<event>
 5   0  0.1354766E-03  0.1605894E+04  0.7818609E-02  0.8816936E-01
        2   -1    0    0  501    0  0.00000000000E+00  0.00000000000E+00  0.16615024422E+04  0.16615024422E+04  0.25500000920E-02 0. -1.
       -2   -1    0    0    0  501  0.00000000000E+00  0.00000000000E+00 -0.38803647894E+03  0.38803647894E+03  0.25500000920E-02 0.  1.
    10030    2    1    2    0    0  0.00000000000E+00  0.00000000000E+00  0.12734659633E+04  0.20495389212E+04  0.16058935923E+04 0.  0.
        3    1    3    3  502    0 -0.47380312241E+03  0.12415390573E+02 -0.19045727609E+03  0.51080086623E+03  0.10100000352E+00 0.  1.
       -3    1    3    3    0  502  0.47380312241E+03 -0.12415390573E+02  0.14639232394E+04  0.15387380550E+04  0.10100000352E+00 0. -1.
</event>
<event>
 5   0  0.7499834E-04  0.1595478E+04  0.7818609E-02  0.8823331E-01
        1   -1    0    0  501    0  0.00000000000E+00  0.00000000000E+00  0.53525398298E+03  0.53525398301E+03  0.50400001928E-02 0.  1.
       -1   -1    0    0    0  501  0.00000000000E+00  0.00000000000E+00 -0.11889454811E+04  0.11889454811E+04  0.50400001928E-02 0. -1.
    10030    2    1    2    0    0  0.00000000000E+00  0.00000000000E+00 -0.65369149808E+03  0.17241994641E+04  0.15954783663E+04 0.  0.
        3    1    3    3  502    0 -0.18791415828E+03  0.90934813428E+02 -0.11589030187E+04  0.11775555563E+04  0.10100000352E+00 0. -1.
       -3    1    3    3    0  502  0.18791415828E+03 -0.90934813428E+02  0.50521152062E+03  0.54664390781E+03  0.10100000352E+00 0.  1.
</event>
<event>
 5   0  0.7302027E-04  0.1294863E+04  0.7818609E-02  0.9033649E-01
       -1   -1    0    0    0  501  0.00000000000E+00  0.00000000000E+00  0.58500517466E+03  0.58500517468E+03  0.50400001928E-02 0.  1.
        1   -1    0    0  501    0  0.00000000000E+00  0.00000000000E+00 -0.71651972282E+03  0.71651972284E+03  0.50400001928E-02 0. -1.
    10030    2    1    2    0    0  0.00000000000E+00  0.00000000000E+00 -0.13151454816E+03  0.13015248975E+04  0.12948633065E+04 0.  0.
        5    1    3    3  502    0 -0.43402495036E+03 -0.46597269083E+03 -0.18313755210E+03  0.66262331616E+03  0.46999998093E+01 0. -1.
       -5    1    3    3    0  502  0.43402495036E+03  0.46597269083E+03  0.51623003941E+02  0.63890158136E+03  0.46999998093E+01 0.  1.
</event>
<event>
 5   0  0.7633213E-04  0.1486079E+04  0.7818609E-02  0.8893763E-01
        1   -1    0    0  501    0  0.00000000000E+00  0.00000000000E+00  0.11408472530E+04  0.11408472530E+04  0.50400001928E-02 0.  1.
       -1   -1    0    0    0  501  0.00000000000E+00  0.00000000000E+00 -0.48394534641E+03  0.48394534643E+03  0.50400001928E-02 0. -1.
    10030    2    1    2    0    0  0.00000000000E+00  0.00000000000E+00  0.65690190656E+03  0.16247925994E+04  0.14860790276E+04 0.  0.
        1    1    3    3  502    0  0.21741373221E+03  0.22396368011E+03 -0.40878855096E+03  0.51433115828E+03  0.50400001928E-02 0. -1.
       -1    1    3    3    0  502 -0.21741373221E+03 -0.22396368011E+03  0.10656904575E+04  0.11104614411E+04  0.50400001928E-02 0.  1.
</event>
<event>
 5   0  0.7633213E-04  0.1597683E+04  0.7818609E-02  0.8821972E-01
        1   -1    0    0  501    0  0.00000000000E+00  0.00000000000E+00  0.91782879444E+03  0.91782879446E+03  0.50400001928E-02 0.  1.
       -1   -1    0    0    0  501  0.00000000000E+00  0.00000000000E+00 -0.69528001379E+03  0.69528001381E+03  0.50400001928E-02 0. -1.
    10030    2    1    2    0    0  0.00000000000E+00  0.00000000000E+00  0.22254878065E+03  0.16131088083E+04  0.15976833440E+04 0.  0.
        1    1    3    3  502    0 -0.29788066892E+03  0.36304535708E+03 -0.54119487640E+03  0.71653800910E+03  0.50400001928E-02 0.  1.
       -1    1    3    3    0  502  0.29788066892E+03 -0.36304535708E+03  0.76374365705E+03  0.89657079917E+03  0.50400001928E-02 0. -1.
</event>
<event>
 5   0  0.1354766E-03  0.1563712E+04  0.7818609E-02  0.8843156E-01
        2   -1    0    0  501    0  0.00000000000E+00  0.00000000000E+00  0.85164791318E+03  0.85164791319E+03  0.25500000920E-02 0.  1.
       -2   -1    0    0    0  501  0.00000000000E+00  0.00000000000E+00 -0.71778388569E+03  0.71778388569E+03  0.25500000920E-02 0. -1.
    10030    2    1    2    0    0  0.00000000000E+00  0.00000000000E+00  0.13386402750E+03  0.15694317989E+04  0.15637124395E+04 0.  0.
        3    1    3    3  502    0 -0.45130663152E+03 -0.71608149024E+02  0.70367639212E+03  0.83902674432E+03  0.10100000352E+00 0.  1.
       -3    1    3    3    0  502  0.45130663152E+03  0.71608149024E+02 -0.56981236462E+03  0.73040505456E+03  0.10100000352E+00 0. -1.
</event>
<event>
 5   0  0.7633213E-04  0.1649624E+04  0.7818609E-02  0.8790629E-01
        1   -1    0    0  501    0  0.00000000000E+00  0.00000000000E+00  0.68601714001E+03  0.68601714002E+03  0.50400001928E-02 0.  1.
       -1   -1    0    0    0  501  0.00000000000E+00  0.00000000000E+00 -0.99168798523E+03  0.99168798524E+03  0.50400001928E-02 0. -1.
    10030    2    1    2    0    0  0.00000000000E+00  0.00000000000E+00 -0.30567084522E+03  0.16777051253E+04  0.16496241456E+04 0.  0.
        1    1    3    3  502    0 -0.44181310032E+03 -0.61553150264E+03  0.17865329269E+03  0.77845670745E+03  0.50400001928E-02 0.  1.
       -1    1    3    3    0  502  0.44181310032E+03  0.61553150264E+03 -0.48432413791E+03  0.89924841782E+03  0.50400001928E-02 0. -1.
</event>
<event>
 5   0  0.7124495E-04  0.1605017E+04  0.7818609E-02  0.8817472E-01
        1   -1    0    0  501    0  0.00000000000E+00  0.00000000000E+00  0.10574995582E+04  0.10574995582E+04  0.50400001928E-02 0. -1.
       -1   -1    0    0    0  501  0.00000000000E+00  0.00000000000E+00 -0.60900287708E+03  0.60900287710E+03  0.50400001928E-02 0.  1.
    10030    2    1    2    0    0  0.00000000000E+00  0.00000000000E+00  0.44849668112E+03  0.16665024353E+04  0.16050174746E+04 0.  0.
        2    1    3    3  502    0  0.50139103294E+03  0.61607898900E+03  0.10552662143E+03  0.80130029105E+03  0.25500000920E-02 0.  1.
       -2    1    3    3    0  502 -0.50139103294E+03 -0.61607898900E+03  0.34297005969E+03  0.86520214427E+03  0.25500000920E-02 0. -1.
</event>
<event>
 5   0  0.7302027E-04  0.1535773E+04  0.7818609E-02  0.8861007E-01
        1   -1    0    0  501    0  0.00000000000E+00  0.00000000000E+00  0.86031088400E+03  0.86031088401E+03  0.50400001928E-02 0.  1.
       -1   -1    0    0    0  501  0.00000000000E+00  0.00000000000E+00 -0.68539110550E+03  0.68539110552E+03  0.50400001928E-02 0. -1.
    10030    2    1    2    0    0  0.00000000000E+00  0.00000000000E+00  0.17491977850E+03  0.15457019895E+04  0.15357726757E+04 0.  0.
        5    1    3    3  502    0  0.64409389909E+03  0.20916435332E+02  0.50769128344E+03  0.82040659273E+03  0.46999998093E+01 0.  1.
       -5    1    3    3    0  502 -0.64409389909E+03 -0.20916435332E+02 -0.33277150495E+03  0.72529539680E+03  0.46999998093E+01 0. -1.
</event>
<event>
 5   0  0.1375777E-03  0.1690696E+04  0.7818609E-02  0.8766688E-01
       -2   -1    0    0    0  501  0.00000000000E+00  0.00000000000E+00  0.53724135188E+03  0.53724135188E+03  0.25500000920E-02 0. -1.
        2   -1    0    0  501    0  0.00000000000E+00  0.00000000000E+00 -0.13301536903E+04  0.13301536903E+04  0.25500000920E-02 0.  1.
    10030    2    1    2    0    0  0.00000000000E+00  0.00000000000E+00 -0.79291233844E+03  0.18673950422E+04  0.16906963853E+04 0.  0.
        1    1    3    3  502    0  0.19046830380E+02 -0.81731763532E+03 -0.63397170340E+03  0.10345487033E+04  0.50400001928E-02 0. -1.
       -1    1    3    3    0  502 -0.19046830380E+02  0.81731763532E+03 -0.15894063503E+03  0.83284633891E+03  0.50400001928E-02 0.  1.
</event>
<event>
 5   0  0.1354766E-03  0.1581973E+04  0.7818609E-02  0.8831700E-01
        2   -1    0    0  501    0  0.00000000000E+00  0.00000000000E+00  0.56380230261E+03  0.56380230261E+03  0.25500000920E-02 0. -1.
       -2   -1    0    0    0  501  0.00000000000E+00  0.00000000000E+00 -0.11097143917E+04  0.11097143917E+04  0.25500000920E-02 0.  1.
    10030    2    1    2    0    0  0.00000000000E+00  0.00000000000E+00 -0.54591208910E+03  0.16735166943E+04  0.15819728560E+04 0.  0.
        3    1    3    3  502    0  0.13603962821E+03  0.58961174727E+03  0.26594456897E+03  0.66096544306E+03  0.10100000352E+00 0. -1.
       -3    1    3    3    0  502 -0.13603962821E+03 -0.58961174727E+03 -0.81185665807E+03  0.10125512513E+04  0.10100000352E+00 0.  1.
</event>
<event>
 5   0  0.7601145E-04  0.1576364E+04  0.7818609E-02  0.8835202E-01
        1   -1    0    0  501    0  0.00000000000E+00  0.00000000000E+00  0.20089602855E+04  0.20089602855E+04  0.50400001928E-02 0.  1.
       -1   -1    0    0    0  501  0.00000000000E+00  0.00000000000E+00 -0.30922993419E+03  0.30922993423E+03  0.50400001928E-02 0. -1.
    10030    2    1    2    0    0  0.00000000000E+00  0.00000000000E+00  0.16997303513E+04  0.23181902197E+04  0.15763637358E+04 0.  0.
        4    1    3    3  502    0 -0.59778155728E+03  0.45597868222E+03  0.50195341907E+03  0.90400121497E+03  0.12699999809E+01 0.  1.
       -4    1    3    3    0  502  0.59778155728E+03 -0.45597868222E+03  0.11977769322E+04  0.14141890047E+04  0.12699999809E+01 0. -1.
</event>
<event>
 5   0  0.7124495E-04  0.1415656E+04  0.7818609E-02  0.8942563E-01
        1   -1    0    0  501    0  0.00000000000E+00  0.00000000000E+00  0.14222424196E+04  0.14222424196E+04  0.50400001928E-02 0. -1.
       -1   -1    0    0    0  501  0.00000000000E+00  0.00000000000E+00 -0.35227521732E+03  0.35227521735E+03  0.50400001928E-02 0.  1.
    10030    2    1    2    0    0  0.00000000000E+00  0.00000000000E+00  0.10699672023E+04  0.17745176370E+04  0.14156563954E+04 0.  0.
        2    1    3    3  502    0  0.32809813846E+03 -0.60340180994E+03  0.74946903415E+03  0.10165854444E+04  0.25500000920E-02 0. -1.
       -2    1    3    3    0  502 -0.32809813846E+03  0.60340180994E+03  0.32049816815E+03  0.75793219254E+03  0.25500000920E-02 0.  1.
</event>
<event>
 5   0  0.7601145E-04  0.1563559E+04  0.7818609E-02  0.8843253E-01
       -1   -1    0    0    0  501  0.00000000000E+00  0.00000000000E+00  0.38357213478E+03  0.38357213481E+03  0.50400001928E-02 0.  1.
        1   -1    0    0  501    0  0.00000000000E+00  0.00000000000E+00 -0.15933884567E+04  0.15933884567E+04  0.50400001928E-02 0. -1.
    10030    2    1    2    0    0  0.00000000000E+00  0.00000000000E+00 -0.12098163220E+04  0.19769605916E+04  0.15635592882E+04 0.  0.
        4    1    3    3  502    0  0.11978544244E+03  0.58444387750E+03 -0.12437163103E+04  0.13794038827E+04  0.12699999809E+01 0.  1.
       -4    1    3    3    0  502 -0.11978544244E+03 -0.58444387750E+03  0.33899988380E+02  0.59755670884E+03  0.12699999809E+01 0. -1.
</event>
<event>
 5   0  0.7499834E-04  0.1618809E+04  0.7818609E-02  0.8809076E-01
       -1   -1    0    0    0  501  0.00000000000E+00  0.00000000000E+00  0.40443680689E+03  0.40443680692E+03  0.50400001928E-02 0. -1.
        1   -1    0    0  501    0  0.00000000000E+00  0.00000000000E+00 -0.16198706957E+04  0.16198706957E+04  0.50400001928E-02 0.  1.
    10030    2    1    2    0    0  0.00000000000E+00  0.00000000000E+00 -0.12154338888E+04  0.20243075026E+04  0.16188086135E+04 0.  0.
        3    1    3    3  502    0 -0.55054333249E+02  0.41160583747E+03 -0.14765030547E+04  0.15337899549E+04  0.10100000352E+00 0.  1.
       -3    1    3    3    0  502  0.55054333249E+02 -0.41160583747E+03  0.26106916588E+03  0.49051754772E+03  0.10100000352E+00 0. -1.
</event>
<event>
 5   0  0.5095750E-04  0.1589712E+04  0.7818609E-02  0.8826893E-01
       -3   -1    0    0    0  501  0.00000000000E+00  0.00000000000E+00  0.66171043345E+03  0.66171044116E+03  0.10100000352E+00 0. -1.
        3   -1    0    0  501    0  0.00000000000E+00  0.00000000000E+00 -0.95479216175E+03  0.95479216709E+03  0.10100000352E+00 0.  1.
    10030    2    1    2    0    0  0.00000000000E+00  0.00000000000E+00 -0.29308172830E+03  0.16165026082E+04  0.15897118553E+04 0.  0.
        5    1    3    3  502    0 -0.15531826380E+03 -0.72688363195E+03 -0.43287159892E+03  0.86016480317E+03  0.46999998093E+01 0.  1.
       -5    1    3    3    0  502  0.15531826380E+03  0.72688363195E+03  0.13978987062E+03  0.75633780508E+03  0.46999998093E+01 0. -1.
</event>
<event>
 5   0  0.7633213E-04  0.1601961E+04  0.7818609E-02  0.8819344E-01
       -1   -1    0    0    0  501  0.00000000000E+00  0.00000000000E+00  0.10975517694E+04  0.10975517694E+04  0.50400001928E-02 0.  1.
        1   -1    0    0  501    0  0.00000000000E+00  0.00000000000E+00 -0.58454626196E+03  0.58454626198E+03  0.50400001928E-02 0. -1.
    10030    2    1    2    0    0  0.00000000000E+00  0.00000000000E+00  0.51300550745E+03  0.16820980314E+04  0.16019610284E+04 0.  0.
        1    1    3    3  502    0 -0.36931371544E+03  0.14911503050E+03  0.98620685344E+03  0.10635938466E+04  0.50400001928E-02 0.  1.
       -1    1    3    3    0  502  0.36931371544E+03 -0.14911503050E+03 -0.47320134600E+03  0.61850418479E+03  0.50400001928E-02 0. -1.
</event>
<event>
 5   0  0.1414796E-03  0.1611542E+04  0.7818609E-02  0.8813489E-01
        2   -1    0    0  501    0  0.00000000000E+00  0.00000000000E+00  0.66029231663E+03  0.66029231664E+03  0.25500000920E-02 0.  1.
       -2   -1    0    0    0  501  0.00000000000E+00  0.00000000000E+00 -0.98330165399E+03  0.98330165400E+03  0.25500000920E-02 0. -1.
    10030    2    1    2    0    0  0.00000000000E+00  0.00000000000E+00 -0.32300933736E+03  0.16435939706E+04  0.16115415317E+04 0.  0.
        4    1    3    3  502    0 -0.39964925689E+03 -0.38208060738E+02  0.55102180201E+03  0.68176683963E+03  0.12699999809E+01 0.  1.
       -4    1    3    3    0  502  0.39964925689E+03  0.38208060738E+02 -0.87403113937E+03  0.96182713100E+03  0.12699999809E+01 0. -1.
</event>
<event>
 5   0  0.1414796E-03  0.1626048E+04  0.7818609E-02  0.8804704E-01
       -2   -1    0    0    0  501  0.00000000000E+00  0.00000000000E+00  0.49331927746E+03  0.49331927747E+03  0.25500000920E-02 0. -1.
        2   -1    0    0  501    0  0.00000000000E+00  0.00000000000E+00 -0.13399185032E+04  0.13399185032E+04  0.25500000920E-02 0.  1.
    10030    2    1    2    0    0  0.00000000000E+00  0.00000000000E+00 -0.84659922578E+03  0.18332377807E+04  0.16260475121E+04 0.  0.
        4    1    3    3  502    0 -0.17707731870E+03  0.70353896800E+03 -0.95465260099E+01  0.72554545367E+03  0.12699999809E+01 0. -1.
       -4    1    3    3    0  502  0.17707731870E+03 -0.70353896800E+03 -0.83705269977E+03  0.11076923270E+04  0.12699999809E+01 0.  1.
</event>
<event>
 5   0  0.7633213E-04  0.1591956E+04  0.7818609E-02  0.8825505E-01
       -1   -1    0    0    0  501  0.00000000000E+00  0.00000000000E+00  0.80684006505E+03  0.80684006507E+03  0.50400001928E-02 0. -1.
        1   -1    0    0  501    0  0.00000000000E+00  0.00000000000E+00 -0.78526235437E+03  0.78526235439E+03  0.50400001928E-02 0.  1.
    10030    2    1    2    0    0  0.00000000000E+00  0.00000000000E+00  0.21577710679E+02  0.15921024195E+04  0.15919561917E+04 0.  0.
        1    1    3    3  502    0  0.68473730665E+03  0.13449054182E+03  0.39374470421E+03  0.80124139750E+03  0.50400001928E-02 0.  1.
       -1    1    3    3    0  502 -0.68473730665E+03 -0.13449054182E+03 -0.37216699353E+03  0.79086102195E+03  0.50400001928E-02 0. -1.
</event>
<event>
 5   0  0.7601145E-04  0.1609938E+04  0.7818609E-02  0.8814466E-01
        1   -1    0    0  501    0  0.00000000000E+00  0.00000000000E+00  0.63755841650E+03  0.63755841652E+03  0.50400001928E-02 0. -1.
       -1   -1    0    0    0  501  0.00000000000E+00  0.00000000000E+00 -0.10163383116E+04  0.10163383116E+04  0.50400001928E-02 0.  1.
    10030    2    1    2    0    0  0.00000000000E+00  0.00000000000E+00 -0.37877989509E+03  0.16538967281E+04  0.16099379424E+04 0.  0.
        4    1    3    3  502    0 -0.32051604631E+03 -0.19383961964E+02  0.56891618447E+03  0.65327904587E+03  0.12699999809E+01 0. -1.
       -4    1    3    3    0  502  0.32051604631E+03  0.19383961964E+02 -0.94769607957E+03  0.10006176823E+04  0.12699999809E+01 0.  1.
</event>
<event>
 5   0  0.1414796E-03  0.1662960E+04  0.7818609E-02  0.8782776E-01
       -2   -1    0    0    0  501  0.00000000000E+00  0.00000000000E+00  0.56665511549E+03  0.56665511550E+03  0.25500000920E-02 0. -1.
        2   -1    0    0  501    0  0.00000000000E+00  0.00000000000E+00 -0.12200700457E+04  0.12200700457E+04  0.25500000920E-02 0.  1.
    10030    2    1    2    0    0  0.00000000000E+00  0.00000000000E+00 -0.65341493023E+03  0.17867251612E+04  0.16629599306E+04 0.  0.
        4    1    3    3  502    0 -0.29555027969E+03 -0.37282415202E+03 -0.10593748900E+04  0.11613029694E+04  0.12699999809E+01 0.  1.
       -4    1    3    3    0  502  0.29555027969E+03  0.37282415202E+03  0.40595995982E+03  0.62542219183E+03  0.12699999809E+01 0. -1.
</event>
<event>
 5   0  0.1414796E-03  0.1595715E+04  0.7818609E-02  0.8823185E-01
       -2   -1    0    0    0  501  0.00000000000E+00  0.00000000000E+00  0.12687710405E+04  0.12687710405E+04  0.25500000920E-02 0.  1.
        2   -1    0    0  501    0  0.00000000000E+00  0.00000000000E+00 -0.50172710740E+03  0.50172710741E+03  0.25500000920E-02 0. -1.
    10030    2    1    2    0    0  0.00000000000E+00  0.00000000000E+00  0.76704393308E+03  0.17704981479E+04  0.15957152930E+04 0.  0.
        4    1    3    3  502    0  0.45066089944E+03  0.43966927030E+03  0.92727320633E+03  0.11208218081E+04  0.12699999809E+01 0.  1.
       -4    1    3    3    0  502 -0.45066089944E+03 -0.43966927030E+03 -0.16022927325E+03  0.64967633976E+03  0.12699999809E+01 0. -1.
</event>
<event>
 5   0  0.1339162E-03  0.1605224E+04  0.7818609E-02  0.8817345E-01
        2   -1    0    0  501    0  0.00000000000E+00  0.00000000000E+00  0.46258641579E+03  0.46258641580E+03  0.25500000920E-02 0. -1.
       -2   -1    0    0    0  501  0.00000000000E+00  0.00000000000E+00 -0.13925740047E+04  0.13925740047E+04  0.25500000920E-02 0.  1.
    10030    2    1    2    0    0  0.00000000000E+00  0.00000000000E+00 -0.92998758891E+03  0.18551604205E+04  0.16052237446E+04 0.  0.
        5    1    3    3  502    0  0.38113129842E+03  0.19597188548E+03  0.31926539948E+03  0.53443290677E+03  0.46999998093E+01 0. -1.
       -5    1    3    3    0  502 -0.38113129842E+03 -0.19597188548E+03 -0.12492529884E+04  0.13207275137E+04  0.46999998093E+01 0.  1.
</event>
<event>
 5   0  0.1375777E-03  0.1511640E+04  0.7818609E-02  0.8876749E-01
       -2   -1    0    0    0  501  0.00000000000E+00  0.00000000000E+00  0.48035040401E+03  0.48035040402E+03  0.25500000920E-02 0.  1.
        2   -1    0    0  501    0  0.00000000000E+00  0.00000000000E+00 -0.11892656518E+04  0.11892656518E+04  0.25500000920E-02 0. -1.
    10030    2    1    2    0    0  0.00000000000E+00  0.00000000000E+00 -0.70891524777E+03  0.16696160558E+04  0.15116404815E+04 0.  0.
        1    1    3    3  502    0 -0.67851521216E+03 -0.70369561719E+02  0.50238338799E+01  0.68217300393E+03  0.50400001928E-02 0.  1.
       -1    1    3    3    0  502  0.67851521216E+03  0.70369561719E+02 -0.71393908165E+03  0.98744305187E+03  0.50400001928E-02 0. -1.
</event>
<event>
 5   0  0.5095750E-04  0.1571314E+04  0.7818609E-02  0.8838367E-01
        3   -1    0    0  501    0  0.00000000000E+00  0.00000000000E+00  0.72522077408E+03  0.72522078112E+03  0.10100000352E+00 0. -1.
       -3   -1    0    0    0  501  0.00000000000E+00  0.00000000000E+00 -0.85112962369E+03  0.85112962968E+03  0.10100000352E+00 0.  1.
    10030    2    1    2    0    0  0.00000000000E+00  0.00000000000E+00 -0.12590884960E+03  0.15763504108E+04  0.15713139658E+04 0.  0.
        2    1    3    3  502    0  0.42273549495E+03 -0.53164982719E+03 -0.45906180231E+03  0.81981374457E+03  0.25500000920E-02 0.  1.
       -2    1    3    3    0  502 -0.42273549495E+03  0.53164982719E+03  0.33315295270E+03  0.75653666623E+03  0.25500000920E-02 0. -1.
</event>
<event>
 5   0  0.1339162E-03  0.1636696E+04  0.7818609E-02  0.8798316E-01
       -2   -1    0    0    0  501  0.00000000000E+00  0.00000000000E+00  0.13147912745E+04  0.13147912745E+04  0.25500000920E-02 0.  1.
        2   -1    0    0  501    0  0.00000000000E+00  0.00000000000E+00 -0.50935318016E+03  0.50935318016E+03  0.25500000920E-02 0. -1.
    10030    2    1    2    0    0  0.00000000000E+00  0.00000000000E+00  0.80543809430E+03  0.18241444546E+04  0.16366955940E+04 0.  0.
        5    1    3    3  502    0 -0.55774014929E+03 -0.57928126276E+03  0.57185654398E+03  0.98675369389E+03  0.46999998093E+01 0. -1.
       -5    1    3    3    0  502  0.55774014929E+03  0.57928126276E+03  0.23358155031E+03  0.83739076073E+03  0.46999998093E+01 0.  1.
</event>
<event>
 5   0  0.7124495E-04  0.1565694E+04  0.7818609E-02  0.8841905E-01
        1   -1    0    0  501    0  0.00000000000E+00  0.00000000000E+00  0.55978943988E+03  0.55978943990E+03  0.50400001928E-02 0.  1.
       -1   -1    0    0    0  501  0.00000000000E+00  0.00000000000E+00 -0.10947852289E+04  0.10947852289E+04  0.50400001928E-02 0. -1.
    10030    2    1    2    0    0  0.00000000000E+00  0.00000000000E+00 -0.53499578899E+03  0.16545746688E+04  0.15656937249E+04 0.  0.
        2    1    3    3  502    0  0.76090997276E+03 -0.87402551470E+01 -0.73245605176E+02  0.76447713987E+03  0.25500000920E-02 0. -1.
       -2    1    3    3    0  502 -0.76090997276E+03  0.87402551470E+01 -0.46175018381E+03  0.89009752890E+03  0.25500000920E-02 0.  1.
</event>
<event>
 5   0  0.1339162E-03  0.1630911E+04  0.7818609E-02  0.8801780E-01
       -2   -1    0    0    0  501  0.00000000000E+00  0.00000000000E+00  0.37344888445E+03  0.37344888446E+03  0.25500000920E-02 0.  1.
        2   -1    0    0  501    0  0.00000000000E+00  0.00000000000E+00 -0.17806112759E+04  0.17806112759E+04  0.25500000920E-02 0. -1.
    10030    2    1    2    0    0  0.00000000000E+00  0.00000000000E+00 -0.14071623915E+04  0.21540601604E+04  0.16309105367E+04 0.  0.
        5    1    3    3  502    0  0.72303825683E+03 -0.33854761720E+02 -0.11995563758E+04  0.14010310684E+04  0.46999998093E+01 0. -1.
       -5    1    3    3    0  502 -0.72303825683E+03  0.33854761720E+02 -0.20760601567E+03  0.75302909205E+03  0.46999998093E+01 0.  1.
</event>
<event>
 5   0  0.7499834E-04  0.1612550E+04  0.7818609E-02  0.8812875E-01
        1   -1    0    0  501    0  0.00000000000E+00  0.00000000000E+00  0.12079543152E+04  0.12079543152E+04  0.50400001928E-02 0.  1.
       -1   -1    0    0    0  501  0.00000000000E+00  0.00000000000E+00 -0.53816577326E+03  0.53816577329E+03  0.50400001928E-02 0. -1.
    10030    2    1    2    0    0  0.00000000000E+00  0.00000000000E+00  0.66978854194E+03  0.17461200885E+04  0.16125503628E+04 0.  0.
        3    1    3    3  502    0  0.78861943915E+02 -0.76373479533E+03  0.68399786534E+02  0.77083628923E+03  0.10100000352E+00 0.  1.
       -3    1    3    3    0  502 -0.78861943915E+02  0.76373479533E+03  0.60138875541E+03  0.97528379927E+03  0.10100000352E+00 0. -1.
</event>
<event>
 5   0  0.7601145E-04  0.1602357E+04  0.7818609E-02  0.8819101E-01
        1   -1    0    0  501    0  0.00000000000E+00  0.00000000000E+00  0.12982345786E+04  0.12982345786E+04  0.50400001928E-02 0.  1.
       -1   -1    0    0    0  501  0.00000000000E+00  0.00000000000E+00 -0.49443083241E+03  0.49443083244E+03  0.50400001928E-02 0. -1.
    10030    2    1    2    0    0  0.00000000000E+00  0.00000000000E+00  0.80380374620E+03  0.17926654111E+04  0.16023572678E+04 0.  0.
        4    1    3    3  502    0  0.79399605018E+03  0.10421063794E+03  0.42921460286E+03  0.90857931573E+03  0.12699999809E+01 0.  1.
       -4    1    3    3    0  502 -0.79399605018E+03 -0.10421063794E+03  0.37458914334E+03  0.88408609534E+03  0.12699999809E+01 0. -1.
</event>
<event>
 5   0  0.7499834E-04  0.1601274E+04  0.7818609E-02  0.8819766E-01
       -1   -1    0    0    0  501  0.00000000000E+00  0.00000000000E+00  0.45141456172E+03  0.45141456175E+03  0.50400001928E-02 0.  1.
        1   -1    0    0  501    0  0.00000000000E+00  0.00000000000E+00 -0.14200244710E+04  0.14200244710E+04  0.50400001928E-02 0. -1.
    10030    2    1    2    0    0  0.00000000000E+00  0.00000000000E+00 -0.96860990929E+03  0.18714390328E+04  0.16012741480E+04 0.  0.
        3    1    3    3  502    0 -0.54879052724E+03  0.16703244378E+03 -0.11370621601E+04  0.12735702754E+04  0.10100000352E+00 0. -1.
       -3    1    3    3    0  502  0.54879052724E+03 -0.16703244378E+03  0.16845225085E+03  0.59786875740E+03  0.10100000352E+00 0.  1.
</event>
<event>
 5   0  0.7499834E-04  0.9130746E+03  0.7818609E-02  0.9409384E-01
        1   -1    0    0  501    0  0.00000000000E+00  0.00000000000E+00  0.17156591581E+04  0.17156591581E+04  0.50400001928E-02 0. -1.
       -1   -1    0    0    0  501  0.00000000000E+00  0.00000000000E+00 -0.12148467024E+03  0.12148467035E+03  0.50400001928E-02 0.  1.
    10030    2    1    2    0    0  0.00000000000E+00  0.00000000000E+00  0.15941744878E+04  0.18371438284E+04  0.91307455812E+03 0.  0.
        3    1    3    3  502    0 -0.17279409506E+03  0.42135207773E+03  0.86168926221E+03  0.97463006701E+03  0.10100000352E+00 0. -1.
       -3    1    3    3    0  502  0.17279409506E+03 -0.42135207773E+03  0.73248522564E+03  0.86251376144E+03  0.10100000352E+00 0.  1.
</event>
<event>
 5   0  0.1414751E-03  0.1557741E+04  0.7818609E-02  0.8846938E-01
       -2   -1    0    0    0  501  0.00000000000E+00  0.00000000000E+00  0.48852656578E+03  0.48852656579E+03  0.25500000920E-02 0. -1.
        2   -1    0    0  501    0  0.00000000000E+00  0.00000000000E+00 -0.12417728977E+04  0.12417728977E+04  0.25500000920E-02 0.  1.
    10030    2    1    2    0    0  0.00000000000E+00  0.00000000000E+00 -0.75324633190E+03  0.17302994635E+04  0.15577407348E+04 0.  0.
        2    1    3    3  502    0 -0.61658146735E+03 -0.99247954579E+01  0.15186280290E+03  0.63508544177E+03  0.25500000920E-02 0. -1.
       -2    1    3    3    0  502  0.61658146735E+03  0.99247954579E+01 -0.90510913479E+03  0.10952140217E+04  0.25500000920E-02 0.  1.
</event>
<event>
 5   0  0.7302027E-04  0.1627144E+04  0.7818609E-02  0.8804044E-01
        1   -1    0    0  501    0  0.00000000000E+00  0.00000000000E+00  0.62341799833E+03  0.62341799836E+03  0.50400001928E-02 0. -1.
       -1   -1    0    0    0  501  0.00000000000E+00  0.00000000000E+00 -0.10617259180E+04  0.10617259180E+04  0.50400001928E-02 0.  1.
    10030    2    1    2    0    0  0.00000000000E+00  0.00000000000E+00 -0.43830791970E+03  0.16851439164E+04  0.16271435667E+04 0.  0.
        5    1    3    3  502    0  0.15618827249E+03  0.37643677445E+03 -0.94836719984E+03  0.10322411818E+04  0.46999998093E+01 0.  1.
       -5    1    3    3    0  502 -0.15618827249E+03 -0.37643677445E+03  0.51005928015E+03  0.65290273462E+03  0.46999998093E+01 0. -1.
</event>
<event>
 5   0  0.7124495E-04  0.1595837E+04  0.7818609E-02  0.8823109E-01
        1   -1    0    0  501    0  0.00000000000E+00  0.00000000000E+00  0.13190418462E+04  0.13190418462E+04  0.50400001928E-02 0. -1.
       -1   -1    0    0    0  501  0.00000000000E+00  0.00000000000E+00 -0.48267932492E+03  0.48267932495E+03  0.50400001928E-02 0.  1.
    10030    2    1    2    0    0  0.00000000000E+00  0.00000000000E+00  0.83636252129E+03  0.18017211712E+04  0.15958373700E+04 0.  0.
        2    1    3    3  502    0 -0.53093985875E+03  0.36098213942E+02  0.10894210560E+04  0.12124514225E+04  0.25500000920E-02 0. -1.
       -2    1    3    3    0  502  0.53093985875E+03 -0.36098213942E+02 -0.25305853473E+03  0.58926974865E+03  0.25500000920E-02 0.  1.
</event>
<event>
 5   0  0.7499834E-04  0.1297405E+04  0.7818609E-02  0.9031625E-01
       -1   -1    0    0    0  501  0.00000000000E+00  0.00000000000E+00  0.79954434882E+03  0.79954434883E+03  0.50400001928E-02 0.  1.
        1   -1    0    0  501    0  0.00000000000E+00  0.00000000000E+00 -0.52631853680E+03  0.52631853683E+03  0.50400001928E-02 0. -1.
    10030    2    1    2    0    0  0.00000000000E+00  0.00000000000E+00  0.27322581202E+03  0.13258628857E+04  0.12974051207E+04 0.  0.
        3    1    3    3  502    0 -0.47218083650E+03  0.27921202946E+03  0.49047515299E+03  0.73585323649E+03  0.10100000352E+00 0.  1.
       -3    1    3    3    0  502  0.47218083650E+03 -0.27921202946E+03 -0.21724934097E+03  0.59000964917E+03  0.10100000352E+00 0. -1.
</event>
<event>
 5   0  0.1375777E-03  0.1330023E+04  0.7818609E-02  0.9006090E-01
        2   -1    0    0  501    0  0.00000000000E+00  0.00000000000E+00  0.97635787891E+03  0.97635787891E+03  0.25500000920E-02 0.  1.
       -2   -1    0    0    0  501  0.00000000000E+00  0.00000000000E+00 -0.45294904885E+03  0.45294904886E+03  0.25500000920E-02 0. -1.
    10030    2    1    2    0    0  0.00000000000E+00  0.00000000000E+00  0.52340883006E+03  0.14293069278E+04  0.13300231165E+04 0.  0.
        1    1    3    3  502    0  0.56357946205E+02  0.20753108046E+03  0.93796046495E+03  0.96229683637E+03  0.50400001928E-02 0.  1.
       -1    1    3    3    0  502 -0.56357946205E+02 -0.20753108046E+03 -0.41455163489E+03  0.46701009140E+03  0.50400001928E-02 0. -1.
</event>
<event>
 5   0  0.1414751E-03  0.1511433E+04  0.7818609E-02  0.8876885E-01
        2   -1    0    0  501    0  0.00000000000E+00  0.00000000000E+00  0.10171002316E+04  0.10171002316E+04  0.25500000920E-02 0.  1.
       -2   -1    0    0    0  501  0.00000000000E+00  0.00000000000E+00 -0.56150571427E+03  0.56150571428E+03  0.25500000920E-02 0. -1.
    10030    2    1    2    0    0  0.00000000000E+00  0.00000000000E+00  0.45559451731E+03  0.15786059459E+04  0.15114332166E+04 0.  0.
        2    1    3    3  502    0 -0.28238265122E+03  0.31748800758E+03  0.88052737958E+03  0.97768454159E+03  0.25500000920E-02 0.  1.
       -2    1    3    3    0  502  0.28238265122E+03 -0.31748800758E+03 -0.42493286227E+03  0.60092140427E+03  0.25500000920E-02 0. -1.
</event>
<event>
 5   0  0.7499834E-04  0.1603368E+04  0.7818609E-02  0.8818481E-01
       -1   -1    0    0    0  501  0.00000000000E+00  0.00000000000E+00  0.32943093410E+03  0.32943093414E+03  0.50400001928E-02 0. -1.
        1   -1    0    0  501    0  0.00000000000E+00  0.00000000000E+00 -0.19509324542E+04  0.19509324542E+04  0.50400001928E-02 0.  1.
    10030    2    1    2    0    0  0.00000000000E+00  0.00000000000E+00 -0.16215015201E+04  0.22803633884E+04  0.16033683305E+04 0.  0.
        3    1    3    3  502    0 -0.34271792838E+03  0.27030628370E+02  0.21927518772E+03  0.40775955103E+03  0.10100000352E+00 0. -1.
       -3    1    3    3    0  502  0.34271792838E+03 -0.27030628370E+02 -0.18407767079E+04  0.18726038374E+04  0.10100000352E+00 0.  1.
</event>
<event>
 5   0  0.1375777E-03  0.1640590E+04  0.7818609E-02  0.8795993E-01
        2   -1    0    0  501    0  0.00000000000E+00  0.00000000000E+00  0.78362320660E+03  0.78362320660E+03  0.25500000920E-02 0. -1.
       -2   -1    0    0    0  501  0.00000000000E+00  0.00000000000E+00 -0.85868330729E+03  0.85868330729E+03  0.25500000920E-02 0.  1.
    10030    2    1    2    0    0  0.00000000000E+00  0.00000000000E+00 -0.75060100688E+02  0.16423065139E+04  0.16405903410E+04 0.  0.
        1    1    3    3  502    0 -0.23588049364E+03 -0.64305010003E+03 -0.48936805824E+03  0.84180409531E+03  0.50400001928E-02 0.  1.
       -1    1    3    3    0  502  0.23588049364E+03  0.64305010003E+03  0.41430795755E+03  0.80050241858E+03  0.50400001928E-02 0. -1.
</event>
<event>
 5   0  0.7633213E-04  0.1581240E+04  0.7818609E-02  0.8832157E-01
        1   -1    0    0  501    0  0.00000000000E+00  0.00000000000E+00  0.22149544834E+04  0.22149544834E+04  0.50400001928E-02 0.  1.
       -1   -1    0    0    0  501  0.00000000000E+00  0.00000000000E+00 -0.28220884178E+03  0.28220884182E+03  0.50400001928E-02 0. -1.
    10030    2    1    2    0    0  0.00000000000E+00  0.00000000000E+00  0.19327456416E+04  0.24971633252E+04  0.15812396901E+04 0.  0.
        1    1    3    3  502    0  0.12151550772E+03  0.14256373221E+03  0.21794021734E+04  0.21874378322E+04  0.50400001928E-02 0.  1.
       -1    1    3    3    0  502 -0.12151550772E+03 -0.14256373221E+03 -0.24665653175E+03  0.30972549304E+03  0.50400001928E-02 0. -1.
</event>
<event>
 5   0  0.7499834E-04  0.1590294E+04  0.7818609E-02  0.8826533E-01
       -1   -1    0    0    0  501  0.00000000000E+00  0.00000000000E+00  0.34374712811E+03  0.34374712814E+03  0.50400001928E-02 0. -1.
        1   -1    0    0  501    0  0.00000000000E+00  0.00000000000E+00 -0.18393132167E+04  0.18393132167E+04  0.50400001928E-02 0.  1.
    10030    2    1    2    0    0  0.00000000000E+00  0.00000000000E+00 -0.14955660886E+04  0.21830603448E+04  0.15902938546E+04 0.  0.
        3    1    3    3  502    0  0.30686882728E+03  0.11838987974E+02 -0.17546203777E+04  0.17812920364E+04  0.10100000352E+00 0.  1.
       -3    1    3    3    0  502 -0.30686882728E+03 -0.11838987974E+02  0.25905428911E+03  0.40176830848E+03  0.10100000352E+00 0. -1.
</event>
<event>
 5   0  0.1414796E-03  0.1606710E+04  0.7818609E-02  0.8816437E-01
       -2   -1    0    0    0  501  0.00000000000E+00  0.00000000000E+00  0.71850460776E+03  0.71850460776E+03  0.25500000920E-02 0.  1.
        2   -1    0    0  501    0  0.00000000000E+00  0.00000000000E+00 -0.89822537173E+03  0.89822537173E+03  0.25500000920E-02 0. -1.
    10030    2    1    2    0    0  0.00000000000E+00  0.00000000000E+00 -0.17972076397E+03  0.16167299795E+04  0.16067097664E+04 0.  0.
        4    1    3    3  502    0  0.25508407224E+03 -0.27072025244E+03 -0.80635453956E+03  0.88801272252E+03  0.12699999809E+01 0. -1.
       -4    1    3    3    0  502 -0.25508407224E+03  0.27072025244E+03  0.62663377559E+03  0.72871725697E+03  0.12699999809E+01 0.  1.
</event>
<event>
 5   0  0.5095750E-04  0.1571049E+04  0.7818609E-02  0.8838534E-01
       -4   -1    0    0    0  501  0.00000000000E+00  0.00000000000E+00  0.36157759110E+03  0.36157982146E+03  0.12699999809E+01 0. -1.
        4   -1    0    0  501    0  0.00000000000E+00  0.00000000000E+00 -0.17065371461E+04  0.17065376187E+04  0.12699999809E+01 0.  1.
    10030    2    1    2    0    0  0.00000000000E+00  0.00000000000E+00 -0.13449595550E+04  0.20681174402E+04  0.15710485485E+04 0.  0.
        4    1    3    3  502    0  0.33787620725E+03 -0.30877275084E+03  0.16789656446E+03  0.48753647283E+03  0.12699999809E+01 0. -1.
       -4    1    3    3    0  502 -0.33787620725E+03  0.30877275084E+03 -0.15128561195E+04  0.15805809673E+04  0.12699999809E+01 0.  1.
</event>
<event>
 5   0  0.1375777E-03  0.1591323E+04  0.7818609E-02  0.8825897E-01
        2   -1    0    0  501    0  0.00000000000E+00  0.00000000000E+00  0.14866546532E+04  0.14866546532E+04  0.25500000920E-02 0. -1.
       -2   -1    0    0    0  501  0.00000000000E+00  0.00000000000E+00 -0.42584002818E+03  0.42584002819E+03  0.25500000920E-02 0.  1.
    10030    2    1    2    0    0  0.00000000000E+00  0.00000000000E+00  0.10608146250E+04  0.19124946814E+04  0.15913227949E+04 0.  0.
        1    1    3    3  502    0 -0.45515199340E+02  0.15628671697E+03 -0.40561447006E+03  0.43705865696E+03  0.50400001928E-02 0.  1.
       -1    1    3    3    0  502  0.45515199340E+02 -0.15628671697E+03  0.14664290951E+04  0.14754360244E+04  0.50400001928E-02 0. -1.
</event>
<event>
 5   0  0.1339162E-03  0.1595081E+04  0.7818609E-02  0.8823576E-01
       -2   -1    0    0    0  501  0.00000000000E+00  0.00000000000E+00  0.12050245830E+04  0.12050245830E+04  0.25500000920E-02 0. -1.
        2   -1    0    0  501    0  0.00000000000E+00  0.00000000000E+00 -0.52784881428E+03  0.52784881429E+03  0.25500000920E-02 0.  1.
    10030    2    1    2    0    0  0.00000000000E+00  0.00000000000E+00  0.67717576875E+03  0.17328733973E+04  0.15950809351E+04 0.  0.
        5    1    3    3  502    0 -0.12951942003E+03 -0.32463249182E+03  0.11173736389E+04  0.11707721699E+04  0.46999998093E+01 0. -1.
       -5    1    3    3    0  502  0.12951942003E+03  0.32463249182E+03 -0.44019787019E+03  0.56210122739E+03  0.46999998093E+01 0.  1.
</event>
<event>
 5   0  0.1414796E-03  0.1542232E+04  0.7818609E-02  0.8856845E-01
        2   -1    0    0  501    0  0.00000000000E+00  0.00000000000E+00  0.41158266244E+03  0.41158266245E+03  0.25500000920E-02 0.  1.
       -2   -1    0    0    0  501  0.00000000000E+00  0.00000000000E+00 -0.14447149500E+04  0.14447149500E+04  0.25500000920E-02 0. -1.
    10030    2    1    2    0    0  0.00000000000E+00  0.00000000000E+00 -0.10331322876E+04  0.18562976124E+04  0.15422316630E+04 0.  0.
        4    1    3    3  502    0 -0.22077708119E+03  0.50207092953E+03 -0.11689813723E+04  0.12912539640E+04  0.12699999809E+01 0. -1.
       -4    1    3    3    0  502  0.22077708119E+03 -0.50207092953E+03  0.13584908479E+03  0.56504364840E+03  0.12699999809E+01 0.  1.
</event>
<event>
 5   0  0.7499834E-04  0.1612075E+04  0.7818609E-02  0.8813164E-01
        1   -1    0    0  501    0  0.00000000000E+00  0.00000000000E+00  0.11705279655E+04  0.11705279655E+04  0.50400001928E-02 0.  1.
       -1   -1    0    0    0  501  0.00000000000E+00  0.00000000000E+00 -0.55504569001E+03  0.55504569003E+03  0.50400001928E-02 0. -1.
    10030    2    1    2    0    0  0.00000000000E+00  0.00000000000E+00  0.61548227546E+03  0.17255736555E+04  0.16120750631E+04 0.  0.
        3    1    3    3  502    0  0.26743345268E+03 -0.17752576461E+02 -0.50595043165E+03  0.57255711948E+03  0.10100000352E+00 0. -1.
       -3    1    3    3    0  502 -0.26743345268E+03  0.17752576461E+02  0.11214327071E+04  0.11530165360E+04  0.10100000352E+00 0.  1.
</event>
<event>
 5   0  0.7499834E-04  0.1302815E+04  0.7818609E-02  0.9027336E-01
        1   -1    0    0  501    0  0.00000000000E+00  0.00000000000E+00  0.11798396148E+04  0.11798396148E+04  0.50400001928E-02 0.  1.
       -1   -1    0    0    0  501  0.00000000000E+00  0.00000000000E+00 -0.35965180933E+03  0.35965180937E+03  0.50400001928E-02 0. -1.
    10030    2    1    2    0    0  0.00000000000E+00  0.00000000000E+00  0.82018780546E+03  0.15394914242E+04  0.13028145719E+04 0.  0.
        3    1    3    3  502    0 -0.52541328101E+03 -0.21344262657E+03  0.78880732317E+03  0.97151112911E+03  0.10100000352E+00 0. -1.
       -3    1    3    3    0  502  0.52541328101E+03  0.21344262657E+03  0.31380482293E+02  0.56798029506E+03  0.10100000352E+00 0.  1.
</event>
<event>
 5   0  0.1354766E-03  0.1392005E+04  0.7818609E-02  0.8959626E-01
       -2   -1    0    0    0  501  0.00000000000E+00  0.00000000000E+00  0.72400806596E+03  0.72400806597E+03  0.25500000920E-02 0. -1.
        2   -1    0    0  501    0  0.00000000000E+00  0.00000000000E+00 -0.66908035995E+03  0.66908035996E+03  0.25500000920E-02 0.  1.
    10030    2    1    2    0    0  0.00000000000E+00  0.00000000000E+00  0.54927706007E+02  0.13930884259E+04  0.13920051399E+04 0.  0.
        3    1    3    3  502    0 -0.68020311490E+02  0.50418694075E+02 -0.66390714780E+03  0.66928433314E+03  0.10100000352E+00 0.  1.
       -3    1    3    3    0  502  0.68020311490E+02 -0.50418694075E+02  0.71883485380E+03  0.72380409278E+03  0.10100000352E+00 0. -1.
</event>
<event>
 5   0  0.1414796E-03  0.1609196E+04  0.7818609E-02  0.8814919E-01
       -2   -1    0    0    0  501  0.00000000000E+00  0.00000000000E+00  0.17033501146E+04  0.17033501146E+04  0.25500000920E-02 0.  1.
        2   -1    0    0  501    0  0.00000000000E+00  0.00000000000E+00 -0.38006143445E+03  0.38006143446E+03  0.25500000920E-02 0. -1.
    10030    2    1    2    0    0  0.00000000000E+00  0.00000000000E+00  0.13232886802E+04  0.20834115491E+04  0.16091956847E+04 0.  0.
        4    1    3    3  502    0  0.40577963101E+02  0.77719987614E+03  0.39729306591E+03  0.87380181488E+03  0.12699999809E+01 0.  1.
       -4    1    3    3    0  502 -0.40577963101E+02 -0.77719987614E+03  0.92599561426E+03  0.12096097342E+04  0.12699999809E+01 0. -1.
</event>
<event>
 5   0  0.7124495E-04  0.1372056E+04  0.7818609E-02  0.8974298E-01
        1   -1    0    0  501    0  0.00000000000E+00  0.00000000000E+00  0.56034450639E+03  0.56034450642E+03  0.50400001928E-02 0. -1.
       -1   -1    0    0    0  501  0.00000000000E+00  0.00000000000E+00 -0.83990203313E+03  0.83990203314E+03  0.50400001928E-02 0.  1.
    10030    2    1    2    0    0  0.00000000000E+00  0.00000000000E+00 -0.27955752673E+03  0.14002465396E+04  0.13720561070E+04 0.  0.
        2    1    3    3  502    0 -0.39110334166E+02 -0.53610628551E+02 -0.83661881496E+03  0.83924654261E+03  0.25500000920E-02 0.  1.
       -2    1    3    3    0  502  0.39110334166E+02  0.53610628551E+02  0.55706128823E+03  0.56099999695E+03  0.25500000920E-02 0. -1.
</event>
<event>
 5   0  0.7633213E-04  0.1789534E+04  0.7818609E-02  0.8711885E-01
        1   -1    0    0  501    0  0.00000000000E+00  0.00000000000E+00  0.10778230576E+04  0.10778230576E+04  0.50400001928E-02 0. -1.
       -1   -1    0    0    0  501  0.00000000000E+00  0.00000000000E+00 -0.74280071424E+03  0.74280071425E+03  0.50400001928E-02 0.  1.
    10030    2    1    2    0    0  0.00000000000E+00  0.00000000000E+00  0.33502234333E+03  0.18206237718E+04  0.17895337236E+04 0.  0.
        1    1    3    3  502    0 -0.15562446984E+02  0.75462272501E+02  0.10744416608E+04  0.10772008294E+04  0.50400001928E-02 0. -1.
       -1    1    3    3    0  502  0.15562446984E+02 -0.75462272501E+02 -0.73941931746E+03  0.74342294247E+03  0.50400001928E-02 0.  1.
</event>
<event>
 5   0  0.7124495E-04  0.1633370E+04  0.7818609E-02  0.8800306E-01
       -1   -1    0    0    0  501  0.00000000000E+00  0.00000000000E+00  0.41868733183E+03  0.41868733186E+03  0.50400001928E-02 0.  1.
        1   -1    0    0  501    0  0.00000000000E+00  0.00000000000E+00 -0.15930139343E+04  0.15930139343E+04  0.50400001928E-02 0. -1.
    10030    2    1    2    0    0  0.00000000000E+00  0.00000000000E+00 -0.11743266024E+04  0.20117012661E+04  0.16333704463E+04 0.  0.
        2    1    3    3  502    0  0.51762241425E+03 -0.58734500133E+03 -0.30078012575E+03  0.83867502548E+03  0.25500000920E-02 0.  1.
       -2    1    3    3    0  502 -0.51762241425E+03  0.58734500133E+03 -0.87354647668E+03  0.11730262406E+04  0.25500000920E-02 0. -1.
</event>
<event>
 5   0  0.1414796E-03  0.1085202E+04  0.7818609E-02  0.9219736E-01
       -2   -1    0    0    0  501  0.00000000000E+00  0.00000000000E+00  0.38210323912E+03  0.38210323913E+03  0.25500000920E-02 0. -1.
        2   -1    0    0  501    0  0.00000000000E+00  0.00000000000E+00 -0.77051454538E+03  0.77051454539E+03  0.25500000920E-02 0.  1.
    10030    2    1    2    0    0  0.00000000000E+00  0.00000000000E+00 -0.38841130626E+03  0.11526177845E+04  0.10852024762E+04 0.  0.
        4    1    3    3  502    0 -0.27982923895E+03 -0.25062601326E+03  0.22164838969E+03  0.43617361571E+03  0.12699999809E+01 0. -1.
       -4    1    3    3    0  502  0.27982923895E+03  0.25062601326E+03 -0.61005969595E+03  0.71644416881E+03  0.12699999809E+01 0.  1.
</event>
<event>
 5   0  0.1414796E-03  0.1418007E+04  0.7818609E-02  0.8940887E-01
        2   -1    0    0  501    0  0.00000000000E+00  0.00000000000E+00  0.20016249893E+04  0.20016249893E+04  0.25500000920E-02 0.  1.
       -2   -1    0    0    0  501  0.00000000000E+00  0.00000000000E+00 -0.25113883248E+03  0.25113883249E+03  0.25500000920E-02 0. -1.
    10030    2    1    2    0    0  0.00000000000E+00  0.00000000000E+00  0.17504861568E+04  0.22527638217E+04  0.14180067177E+04 0.  0.
        4    1    3    3  502    0  0.55373972371E+03  0.98346125552E+01  0.15785110055E+04  0.16728487704E+04  0.12699999809E+01 0.  1.
       -4    1    3    3    0  502 -0.55373972371E+03 -0.98346125552E+01  0.17197515126E+03  0.57991505134E+03  0.12699999809E+01 0. -1.
</event>
<event>
 5   0  0.1339162E-03  0.1598928E+04  0.7818609E-02  0.8821207E-01
       -2   -1    0    0    0  501  0.00000000000E+00  0.00000000000E+00  0.43069700192E+03  0.43069700192E+03  0.25500000920E-02 0. -1.
        2   -1    0    0  501    0  0.00000000000E+00  0.00000000000E+00 -0.14839737256E+04  0.14839737256E+04  0.25500000920E-02 0.  1.
    10030    2    1    2    0    0  0.00000000000E+00  0.00000000000E+00 -0.10532767237E+04  0.19146707276E+04  0.15989284344E+04 0.  0.
        5    1    3    3  502    0 -0.60414346774E+03 -0.17997423928E+03 -0.11154008453E+04  0.12812186355E+04  0.46999998093E+01 0.  1.
       -5    1    3    3    0  502  0.60414346774E+03  0.17997423928E+03  0.62124121550E+02  0.63345209203E+03  0.46999998093E+01 0. -1.
</event>
<event>
 5   0  0.7499834E-04  0.1570746E+04  0.7818609E-02  0.8838724E-01
       -1   -1    0    0    0  501  0.00000000000E+00  0.00000000000E+00  0.29658141457E+03  0.29658141462E+03  0.50400001928E-02 0. -1.
        1   -1    0    0  501    0  0.00000000000E+00  0.00000000000E+00 -0.20797355311E+04  0.20797355311E+04  0.50400001928E-02 0.  1.
    10030    2    1    2    0    0  0.00000000000E+00  0.00000000000E+00 -0.17831541165E+04  0.23763169457E+04  0.15707461995E+04 0.  0.
        3    1    3    3  502    0  0.43327779010E+03  0.62847377176E+03 -0.11709524079E+04  0.13977977239E+04  0.10100000352E+00 0. -1.
       -3    1    3    3    0  502 -0.43327779010E+03 -0.62847377176E+03 -0.61220170855E+03  0.97851922175E+03  0.10100000352E+00 0.  1.
</event>
<event>
 5   0  0.7124495E-04  0.1597837E+04  0.7818609E-02  0.8821878E-01
       -1   -1    0    0    0  501  0.00000000000E+00  0.00000000000E+00  0.22013219254E+04  0.22013219254E+04  0.50400001928E-02 0. -1.
        1   -1    0    0  501    0  0.00000000000E+00  0.00000000000E+00 -0.28994872799E+03  0.28994872803E+03  0.50400001928E-02 0.  1.
    10030    2    1    2    0    0  0.00000000000E+00  0.00000000000E+00  0.19113731974E+04  0.24912706535E+04  0.15978366528E+04 0.  0.
        2    1    3    3  502    0 -0.19459621232E+01  0.79236231586E+03  0.79646465939E+03  0.11234757585E+04  0.25500000920E-02 0. -1.
       -2    1    3    3    0  502  0.19459621232E+01 -0.79236231586E+03  0.11149085381E+04  0.13677948949E+04  0.25500000920E-02 0.  1.
</event>
<event>
 5   0  0.1375777E-03  0.1580388E+04  0.7818609E-02  0.8832688E-01
       -2   -1    0    0    0  501  0.00000000000E+00  0.00000000000E+00  0.33665835494E+03  0.33665835495E+03  0.25500000920E-02 0.  1.
        2   -1    0    0  501    0  0.00000000000E+00  0.00000000000E+00 -0.18547195217E+04  0.18547195217E+04  0.25500000920E-02 0. -1.
    10030    2    1    2    0    0  0.00000000000E+00  0.00000000000E+00 -0.15180611667E+04  0.21913778766E+04  0.15803883359E+04 0.  0.
        1    1    3    3  502    0 -0.25013452195E+03 -0.49818522658E+03 -0.15355937937E+04  0.16336474829E+04  0.50400001928E-02 0. -1.
       -1    1    3    3    0  502  0.25013452195E+03  0.49818522658E+03  0.17532626985E+02  0.55773039373E+03  0.50400001928E-02 0.  1.
</event>
<event>
 5   0  0.7601145E-04  0.1572074E+04  0.7818609E-02  0.8837890E-01
        1   -1    0    0  501    0  0.00000000000E+00  0.00000000000E+00  0.10538561977E+04  0.10538561977E+04  0.50400001928E-02 0.  1.
       -1   -1    0    0    0  501  0.00000000000E+00  0.00000000000E+00 -0.58627905302E+03  0.58627905304E+03  0.50400001928E-02 0. -1.
    10030    2    1    2    0    0  0.00000000000E+00  0.00000000000E+00  0.46757714467E+03  0.16401352507E+04  0.15720735525E+04 0.  0.
        4    1    3    3  502    0  0.70873743594E+03 -0.26229170864E+03  0.82185488458E+01  0.75576110707E+03  0.12699999809E+01 0.  1.
       -4    1    3    3    0  502 -0.70873743594E+03  0.26229170864E+03  0.45935859582E+03  0.88437414366E+03  0.12699999809E+01 0. -1.
</event>
<event>
 5   0  0.1375777E-03  0.1542284E+04  0.7818609E-02  0.8856811E-01
       -2   -1    0    0    0  501  0.00000000000E+00  0.00000000000E+00  0.61609155866E+03  0.61609155867E+03  0.25500000920E-02 0. -1.
        2   -1    0    0  501    0  0.00000000000E+00  0.00000000000E+00 -0.96521374244E+03  0.96521374244E+03  0.25500000920E-02 0.  1.
    10030    2    1    2    0    0  0.00000000000E+00  0.00000000000E+00 -0.34912218378E+03  0.15813053011E+04  0.15422840711E+04 0.  0.
        1    1    3    3  502    0 -0.42412430094E+03 -0.13282099144E+03  0.47157148616E+03  0.64799884645E+03  0.50400001928E-02 0. -1.
       -1    1    3    3    0  502  0.42412430094E+03  0.13282099144E+03 -0.82069366993E+03  0.93330645466E+03  0.50400001928E-02 0.  1.
</event>
<event>
 5   0  0.1414751E-03  0.1599783E+04  0.7818609E-02  0.8820682E-01
       -2   -1    0    0    0  501  0.00000000000E+00  0.00000000000E+00  0.63478186758E+03  0.63478186759E+03  0.25500000920E-02 0.  1.
        2   -1    0    0  501    0  0.00000000000E+00  0.00000000000E+00 -0.10079463556E+04  0.10079463556E+04  0.25500000920E-02 0. -1.
    10030    2    1    2    0    0  0.00000000000E+00  0.00000000000E+00 -0.37316448806E+03  0.16427282232E+04  0.15997825728E+04 0.  0.
        2    1    3    3  502    0  0.90956970903E+02 -0.39210005254E+03  0.52321217183E+03  0.66012619893E+03  0.25500000920E-02 0.  1.
       -2    1    3    3    0  502 -0.90956970903E+02  0.39210005254E+03 -0.89637665989E+03  0.98260202430E+03  0.25500000920E-02 0. -1.
</event>
<event>
 5   0  0.7601145E-04  0.1587190E+04  0.7818609E-02  0.8828456E-01
        1   -1    0    0  501    0  0.00000000000E+00  0.00000000000E+00  0.46689042594E+03  0.46689042597E+03  0.50400001928E-02 0. -1.
       -1   -1    0    0    0  501  0.00000000000E+00  0.00000000000E+00 -0.13489103011E+04  0.13489103011E+04  0.50400001928E-02 0.  1.
    10030    2    1    2    0    0  0.00000000000E+00  0.00000000000E+00 -0.88201987512E+03  0.18158007270E+04  0.15871903541E+04 0.  0.
        4    1    3    3  502    0 -0.27869693749E+01  0.56632545492E+03 -0.10770143836E+04  0.12168376570E+04  0.12699999809E+01 0.  1.
       -4    1    3    3    0  502  0.27869693749E+01 -0.56632545492E+03  0.19499450844E+03  0.59896307007E+03  0.12699999809E+01 0. -1.
</event>
<event>
 5   0  0.1414796E-03  0.1608378E+04  0.7818609E-02  0.8815417E-01
       -2   -1    0    0    0  501  0.00000000000E+00  0.00000000000E+00  0.83781344631E+03  0.83781344631E+03  0.25500000920E-02 0.  1.
        2   -1    0    0  501    0  0.00000000000E+00  0.00000000000E+00 -0.77191425966E+03  0.77191425966E+03  0.25500000920E-02 0. -1.
    10030    2    1    2    0    0  0.00000000000E+00  0.00000000000E+00  0.65899186652E+02  0.16097277060E+04  0.16083782467E+04 0.  0.
        4    1    3    3  502    0  0.29480802494E+03 -0.62199538530E+03  0.44914522585E+03  0.82190210956E+03  0.12699999809E+01 0.  1.
       -4    1    3    3    0  502 -0.29480802494E+03  0.62199538530E+03 -0.38324603920E+03  0.78782559641E+03  0.12699999809E+01 0. -1.
</event>
<event>
 5   0  0.7499834E-04  0.1714759E+04  0.7818609E-02  0.8752992E-01
        1   -1    0    0  501    0  0.00000000000E+00  0.00000000000E+00  0.10949916271E+04  0.10949916272E+04  0.50400001928E-02 0.  1.
       -1   -1    0    0    0  501  0.00000000000E+00  0.00000000000E+00 -0.67132860278E+03  0.67132860280E+03  0.50400001928E-02 0. -1.
    10030    2    1    2    0    0  0.00000000000E+00  0.00000000000E+00  0.42366302436E+03  0.17663202300E+04  0.17147585243E+04 0.  0.
        3    1    3    3  502    0  0.82267956866E+03 -0.23494521108E+03  0.15449573746E+03  0.86940776854E+03  0.10100000352E+00 0. -1.
       -3    1    3    3    0  502 -0.82267956866E+03  0.23494521108E+03  0.26916728690E+03  0.89691246141E+03  0.10100000352E+00 0.  1.
</event>
<event>
 5   0  0.1339162E-03  0.1416385E+04  0.7818609E-02  0.8942043E-01
        2   -1    0    0  501    0  0.00000000000E+00  0.00000000000E+00  0.91709689280E+03  0.91709689280E+03  0.25500000920E-02 0. -1.
       -2   -1    0    0    0  501  0.00000000000E+00  0.00000000000E+00 -0.54687436409E+03  0.54687436410E+03  0.25500000920E-02 0.  1.
    10030    2    1    2    0    0  0.00000000000E+00  0.00000000000E+00  0.37022252870E+03  0.14639712569E+04  0.14163852302E+04 0.  0.
        5    1    3    3  502    0 -0.29130461765E+03 -0.20098133817E+02 -0.48174083509E+03  0.56334593053E+03  0.46999998093E+01 0.  1.
       -5    1    3    3    0  502  0.29130461765E+03  0.20098133817E+02  0.85196336380E+03  0.90062532637E+03  0.46999998093E+01 0. -1.
</event>
<event>
 5   0  0.1339162E-03  0.1597952E+04  0.7818609E-02  0.8821807E-01
       -2   -1    0    0    0  501  0.00000000000E+00  0.00000000000E+00  0.53409234991E+03  0.53409234991E+03  0.25500000920E-02 0. -1.
        2   -1    0    0  501    0  0.00000000000E+00  0.00000000000E+00 -0.11952287848E+04  0.11952287848E+04  0.25500000920E-02 0.  1.
    10030    2    1    2    0    0  0.00000000000E+00  0.00000000000E+00 -0.66113643493E+03  0.17293211348E+04  0.15979518771E+04 0.  0.
        5    1    3    3  502    0  0.38271043721E+03 -0.75764207496E+02  0.42398432981E+03  0.57618772619E+03  0.46999998093E+01 0. -1.
       -5    1    3    3    0  502 -0.38271043721E+03  0.75764207496E+02 -0.10851207647E+04  0.11531334086E+04  0.46999998093E+01 0.  1.
</event>
<event>
 5   0  0.1375777E-03  0.1852804E+04  0.7818609E-02  0.8678712E-01
       -2   -1    0    0    0  501  0.00000000000E+00  0.00000000000E+00  0.69912303373E+03  0.69912303373E+03  0.25500000920E-02 0.  1.
        2   -1    0    0  501    0  0.00000000000E+00  0.00000000000E+00 -0.12275673439E+04  0.12275673439E+04  0.25500000920E-02 0. -1.
    10030    2    1    2    0    0  0.00000000000E+00  0.00000000000E+00 -0.52844431021E+03  0.19266903777E+04  0.18528039352E+04 0.  0.
        1    1    3    3  502    0  0.86765793791E+03 -0.38165444274E+02 -0.59946589215E+03  0.10552943922E+04  0.50400001928E-02 0. -1.
       -1    1    3    3    0  502 -0.86765793791E+03  0.38165444274E+02  0.71021581941E+02  0.87139598546E+03  0.50400001928E-02 0.  1.
</event>
<event>
 5   0  0.7124495E-04  0.1624210E+04  0.7818609E-02  0.8805811E-01
       -1   -1    0    0    0  501  0.00000000000E+00  0.00000000000E+00  0.93469591949E+03  0.93469591950E+03  0.50400001928E-02 0. -1.
        1   -1    0    0  501    0  0.00000000000E+00  0.00000000000E+00 -0.70559296722E+03  0.70559296724E+03  0.50400001928E-02 0.  1.
    10030    2    1    2    0    0  0.00000000000E+00  0.00000000000E+00  0.22910295227E+03  0.16402888867E+04  0.16242104141E+04 0.  0.
        2    1    3    3  502    0 -0.17722926314E+03  0.18733662681E+03 -0.66314284880E+03  0.71152207371E+03  0.25500000920E-02 0.  1.
       -2    1    3    3    0  502  0.17722926314E+03 -0.18733662681E+03  0.89224580107E+03  0.92876681303E+03  0.25500000920E-02 0. -1.
</event>
<event>
 5   0  0.7499834E-04  0.1626328E+04  0.7818609E-02  0.8804535E-01
        1   -1    0    0  501    0  0.00000000000E+00  0.00000000000E+00  0.11448972751E+04  0.11448972751E+04  0.50400001928E-02 0. -1.
       -1   -1    0    0    0  501  0.00000000000E+00  0.00000000000E+00 -0.57755049276E+03  0.57755049278E+03  0.50400001928E-02 0.  1.
    10030    2    1    2    0    0  0.00000000000E+00  0.00000000000E+00  0.56734678233E+03  0.17224477679E+04  0.16263283622E+04 0.  0.
        3    1    3    3  502    0  0.33452703523E+03  0.50463633511E+03  0.85859104506E+03  0.10505925761E+04  0.10100000352E+00 0. -1.
       -3    1    3    3    0  502 -0.33452703523E+03 -0.50463633511E+03 -0.29124426273E+03  0.67185519183E+03  0.10100000352E+00 0.  1.
</event>
<event>
 5   0  0.7499834E-04  0.1603176E+04  0.7818609E-02  0.8818599E-01
       -1   -1    0    0    0  501  0.00000000000E+00  0.00000000000E+00  0.26214111531E+03  0.26214111536E+03  0.50400001928E-02 0.  1.
        1   -1    0    0  501    0  0.00000000000E+00  0.00000000000E+00 -0.24511344471E+04  0.24511344471E+04  0.50400001928E-02 0. -1.
    10030    2    1    2    0    0  0.00000000000E+00  0.00000000000E+00 -0.21889933318E+04  0.27132755625E+04  0.16031757456E+04 0.  0.
        3    1    3    3  502    0  0.63159214306E+03  0.17654579307E+03 -0.31438360877E+03  0.72726481827E+03  0.10100000352E+00 0.  1.
       -3    1    3    3    0  502 -0.63159214306E+03 -0.17654579307E+03 -0.18746097231E+04  0.19860107442E+04  0.10100000352E+00 0. -1.
</event>
<event>
 5   0  0.1414796E-03  0.1591981E+04  0.7818609E-02  0.8825490E-01
       -2   -1    0    0    0  501  0.00000000000E+00  0.00000000000E+00  0.42174827006E+03  0.42174827007E+03  0.25500000920E-02 0. -1.
        2   -1    0    0  501    0  0.00000000000E+00  0.00000000000E+00 -0.15023197384E+04  0.15023197384E+04  0.25500000920E-02 0.  1.
    10030    2    1    2    0    0  0.00000000000E+00  0.00000000000E+00 -0.10805714683E+04  0.19240680084E+04  0.15919808425E+04 0.  0.
        4    1    3    3  502    0  0.19882201422E+03 -0.87411870675E+02  0.38524313746E+03  0.44224983475E+03  0.12699999809E+01 0. -1.
       -4    1    3    3    0  502 -0.19882201422E+03  0.87411870675E+02 -0.14658146058E+04  0.14818181737E+04  0.12699999809E+01 0.  1.
</event>
<event>
 5   0  0.7302027E-04  0.1583796E+04  0.7818609E-02  0.8830565E-01
        1   -1    0    0  501    0  0.00000000000E+00  0.00000000000E+00  0.82789312403E+03  0.82789312405E+03  0.50400001928E-02 0.  1.
       -1   -1    0    0    0  501  0.00000000000E+00  0.00000000000E+00 -0.75746771120E+03  0.75746771121E+03  0.50400001928E-02 0. -1.
    10030    2    1    2    0    0  0.00000000000E+00  0.00000000000E+00  0.70425412834E+02  0.15853608353E+04  0.15837958325E+04 0.  0.
        5    1    3    3  502    0  0.35783294902E+03  0.70539024469E+03 -0.30402760638E+01  0.79098113124E+03  0.46999998093E+01 0.  1.
       -5    1    3    3    0  502 -0.35783294902E+03 -0.70539024469E+03  0.73465688898E+02  0.79437970401E+03  0.46999998093E+01 0. -1.
</event>
<event>
 5   0  0.7601145E-04  0.1607006E+04  0.7818609E-02  0.8816255E-01
        1   -1    0    0  501    0  0.00000000000E+00  0.00000000000E+00  0.65465022900E+03  0.65465022902E+03  0.50400001928E-02 0.  1.
       -1   -1    0    0    0  501  0.00000000000E+00  0.00000000000E+00 -0.98620202700E+03  0.98620202701E+03  0.50400001928E-02 0. -1.
    10030    2    1    2    0    0  0.00000000000E+00  0.00000000000E+00 -0.33155179800E+03  0.16408522560E+04  0.16070063881E+04 0.  0.
        4    1    3    3  502    0 -0.11403629364E+02 -0.48363771446E+03 -0.82083300002E+03  0.95278744137E+03  0.12699999809E+01 0. -1.
       -4    1    3    3    0  502  0.11403629364E+02  0.48363771446E+03  0.48928120202E+03  0.68806481465E+03  0.12699999809E+01 0.  1.
</event>
<event>
 5   0  0.7124495E-04  0.1613452E+04  0.7818609E-02  0.8812327E-01
       -1   -1    0    0    0  501  0.00000000000E+00  0.00000000000E+00  0.63937804912E+03  0.63937804914E+03  0.50400001928E-02 0.  1.
        1   -1    0    0  501    0  0.00000000000E+00  0.00000000000E+00 -0.10178743785E+04  0.10178743785E+04  0.50400001928E-02 0. -1.
    10030    2    1    2    0    0  0.00000000000E+00  0.00000000000E+00 -0.37849632934E+03  0.16572524276E+04  0.16134516223E+04 0.  0.
        2    1    3    3  502    0 -0.65115810685E+03  0.31900837596E+03  0.17395161847E+03  0.74567579391E+03  0.25500000920E-02 0.  1.
       -2    1    3    3    0  502  0.65115810685E+03 -0.31900837596E+03 -0.55244794781E+03  0.91157663370E+03  0.25500000920E-02 0. -1.
</event>
<event>
 5   0  0.1354766E-03  0.1629565E+04  0.7818609E-02  0.8802588E-01
       -2   -1    0    0    0  501  0.00000000000E+00  0.00000000000E+00  0.36622362761E+03  0.36622362762E+03  0.25500000920E-02 0. -1.
        2   -1    0    0  501    0  0.00000000000E+00  0.00000000000E+00 -0.18127456877E+04  0.18127456877E+04  0.25500000920E-02 0.  1.
    10030    2    1    2    0    0  0.00000000000E+00  0.00000000000E+00 -0.14465220601E+04  0.21789693153E+04  0.16295647292E+04 0.  0.
        3    1    3    3  502    0 -0.23814446996E+03  0.75879272371E+03 -0.48635135195E+03  0.93221072396E+03  0.10100000352E+00 0. -1.
       -3    1    3    3    0  502  0.23814446996E+03 -0.75879272371E+03 -0.96017070811E+03  0.12467585913E+04  0.10100000352E+00 0.  1.
</event>
<event>
 5   0  0.1414796E-03  0.1600019E+04  0.7818609E-02  0.8820536E-01
        2   -1    0    0  501    0  0.00000000000E+00  0.00000000000E+00  0.12743982326E+04  0.12743982326E+04  0.25500000920E-02 0. -1.
       -2   -1    0    0    0  501  0.00000000000E+00  0.00000000000E+00 -0.50220973253E+03  0.50220973254E+03  0.25500000920E-02 0.  1.
    10030    2    1    2    0    0  0.00000000000E+00  0.00000000000E+00  0.77218850011E+03  0.17766079652E+04  0.16000189943E+04 0.  0.
        4    1    3    3  502    0  0.56886021907E+03  0.34955476673E+03 -0.10325272284E+03  0.67561321883E+03  0.12699999809E+01 0.  1.
       -4    1    3    3    0  502 -0.56886021907E+03 -0.34955476673E+03  0.87544122295E+03  0.11009947464E+04  0.12699999809E+01 0. -1.
</event>
<event>
 5   0  0.1354766E-03  0.1610214E+04  0.7818609E-02  0.8814297E-01
        2   -1    0    0  501    0  0.00000000000E+00  0.00000000000E+00  0.21159786171E+04  0.21159786171E+04  0.25500000920E-02 0.  1.
       -2   -1    0    0    0  501  0.00000000000E+00  0.00000000000E+00 -0.30633465484E+03  0.30633465485E+03  0.25500000920E-02 0. -1.
    10030    2    1    2    0    0  0.00000000000E+00  0.00000000000E+00  0.18096439622E+04  0.24223132719E+04  0.16102143700E+04 0.  0.
        3    1    3    3  502    0  0.72109266326E+03 -0.30580727843E+03  0.11850694426E+04  0.14205218459E+04  0.10100000352E+00 0.  1.
       -3    1    3    3    0  502 -0.72109266326E+03  0.30580727843E+03  0.62457451960E+03  0.10017914260E+04  0.10100000352E+00 0. -1.
</event>
<event>
 5   0  0.1354766E-03  0.1602210E+04  0.7818609E-02  0.8819192E-01
        2   -1    0    0  501    0  0.00000000000E+00  0.00000000000E+00  0.13169331516E+04  0.13169331516E+04  0.25500000920E-02 0.  1.
       -2   -1    0    0    0  501  0.00000000000E+00  0.00000000000E+00 -0.48732083337E+03  0.48732083337E+03  0.25500000920E-02 0. -1.
    10030    2    1    2    0    0  0.00000000000E+00  0.00000000000E+00  0.82961231822E+03  0.18042539850E+04  0.16022096753E+04 0.  0.
        3    1    3    3  502    0 -0.28939525218E+01 -0.35745371346E+03  0.12221426216E+04  0.12733476076E+04  0.10100000352E+00 0.  1.
       -3    1    3    3    0  502  0.28939525218E+01  0.35745371346E+03 -0.39253030335E+03  0.53090637732E+03  0.10100000352E+00 0. -1.
</event>
<event>
 5   0  0.7302027E-04  0.1604350E+04  0.7818609E-02  0.8817880E-01
        1   -1    0    0  501    0  0.00000000000E+00  0.00000000000E+00  0.62973244463E+03  0.62973244465E+03  0.50400001928E-02 0. -1.
       -1   -1    0    0    0  501  0.00000000000E+00  0.00000000000E+00 -0.10218381668E+04  0.10218381668E+04  0.50400001928E-02 0.  1.
    10030    2    1    2    0    0  0.00000000000E+00  0.00000000000E+00 -0.39210572219E+03  0.16515706115E+04  0.16043498955E+04 0.  0.
        5    1    3    3  502    0 -0.27577201126E+03  0.28508793903E+03 -0.91380995461E+03  0.99619077406E+03  0.46999998093E+01 0.  1.
       -5    1    3    3    0  502  0.27577201126E+03 -0.28508793903E+03  0.52170423242E+03  0.65537983742E+03  0.46999998093E+01 0. -1.
</event>
<event>
 5   0  0.7601145E-04  0.1534894E+04  0.7818609E-02  0.8861575E-01
       -1   -1    0    0    0  501  0.00000000000E+00  0.00000000000E+00  0.46657516813E+03  0.46657516815E+03  0.50400001928E-02 0. -1.
        1   -1    0    0  501    0  0.00000000000E+00  0.00000000000E+00 -0.12623366516E+04  0.12623366517E+04  0.50400001928E-02 0.  1.
    10030    2    1    2    0    0  0.00000000000E+00  0.00000000000E+00 -0.79576148352E+03  0.17289118198E+04  0.15348940491E+04 0.  0.
        4    1    3    3  502    0  0.43948418416E+03  0.11906023663E+03  0.29798908299E+03  0.54416982143E+03  0.12699999809E+01 0. -1.
       -4    1    3    3    0  502 -0.43948418416E+03 -0.11906023663E+03 -0.10937505665E+04  0.11847419984E+04  0.12699999809E+01 0.  1.
</event>
<event>
 5   0  0.7302027E-04  0.1587698E+04  0.7818609E-02  0.8828142E-01
       -1   -1    0    0    0  501  0.00000000000E+00  0.00000000000E+00  0.87776993766E+03  0.87776993767E+03  0.50400001928E-02 0. -1.
        1   -1    0    0  501    0  0.00000000000E+00  0.00000000000E+00 -0.71795112079E+03  0.71795112081E+03  0.50400001928E-02 0.  1.
    10030    2    1    2    0    0  0.00000000000E+00  0.00000000000E+00  0.15981881686E+03  0.15957210585E+04  0.15876975916E+04 0.  0.
        5    1    3    3  502    0  0.27461315691E+03  0.68110562280E+03  0.38285689080E+03  0.82820211554E+03  0.46999998093E+01 0. -1.
       -5    1    3    3    0  502 -0.27461315691E+03 -0.68110562280E+03 -0.22303807393E+03  0.76751894294E+03  0.46999998093E+01 0.  1.
</event>
<event>
 5   0  0.7633213E-04  0.1602022E+04  0.7818609E-02  0.8819307E-01
       -1   -1    0    0    0  501  0.00000000000E+00  0.00000000000E+00  0.55104381912E+03  0.55104381914E+03  0.50400001928E-02 0. -1.
        1   -1    0    0  501    0  0.00000000000E+00  0.00000000000E+00 -0.11643687966E+04  0.11643687966E+04  0.50400001928E-02 0.  1.
    10030    2    1    2    0    0  0.00000000000E+00  0.00000000000E+00 -0.61332497752E+03  0.17154126158E+04  0.16020215087E+04 0.  0.
        1    1    3    3  502    0 -0.59346011824E+03 -0.27919095010E+03 -0.79907663785E+03  0.10337630153E+04  0.50400001928E-02 0.  1.
       -1    1    3    3    0  502  0.59346011824E+03  0.27919095010E+03  0.18575166033E+03  0.68164960053E+03  0.50400001928E-02 0. -1.
</event>
<event>
 5   0  0.1414796E-03  0.1523802E+04  0.7818609E-02  0.8868777E-01
        2   -1    0    0  501    0  0.00000000000E+00  0.00000000000E+00  0.10094767297E+04  0.10094767297E+04  0.25500000920E-02 0. -1.
       -2   -1    0    0    0  501  0.00000000000E+00  0.00000000000E+00 -0.57504394521E+03  0.57504394522E+03  0.25500000920E-02 0.  1.
    10030    2    1    2    0    0  0.00000000000E+00  0.00000000000E+00  0.43443278449E+03  0.15845206749E+04  0.15238024560E+04 0.  0.
        4    1    3    3  502    0  0.63906497207E+02  0.65413570891E+03  0.61794779873E+03  0.90213006873E+03  0.12699999809E+01 0. -1.
       -4    1    3    3    0  502 -0.63906497207E+02 -0.65413570891E+03 -0.18351501424E+03  0.68239060619E+03  0.12699999809E+01 0.  1.
</event>
<event>
 5   0  0.1375777E-03  0.1667760E+04  0.7818609E-02  0.8779969E-01
        2   -1    0    0  501    0  0.00000000000E+00  0.00000000000E+00  0.11616663418E+04  0.11616663418E+04  0.25500000920E-02 0.  1.
       -2   -1    0    0    0  501  0.00000000000E+00  0.00000000000E+00 -0.59858463844E+03  0.59858463845E+03  0.25500000920E-02 0. -1.
    10030    2    1    2    0    0  0.00000000000E+00  0.00000000000E+00  0.56308170337E+03  0.17602509803E+04  0.16677597275E+04 0.  0.
        1    1    3    3  502    0 -0.16954074327E+03  0.80430862073E+03  0.13340319339E+03  0.83273815395E+03  0.50400001928E-02 0. -1.
       -1    1    3    3    0  502  0.16954074327E+03 -0.80430862073E+03  0.42967850998E+03  0.92751282631E+03  0.50400001928E-02 0.  1.
</event>
<event>
 5   0  0.1414751E-03  0.1486060E+04  0.7818609E-02  0.8893776E-01
        2   -1    0    0  501    0  0.00000000000E+00  0.00000000000E+00  0.12428828504E+04  0.12428828505E+04  0.25500000920E-02 0.  1.
       -2   -1    0    0    0  501  0.00000000000E+00  0.00000000000E+00 -0.44420376356E+03  0.44420376357E+03  0.25500000920E-02 0. -1.
    10030    2    1    2    0    0  0.00000000000E+00  0.00000000000E+00  0.79867908689E+03  0.16870866140E+04  0.14860595410E+04 0.  0.
        2    1    3    3  502    0 -0.18708800458E+03  0.17055661042E+03  0.11924101679E+04  0.12189887151E+04  0.25500000920E-02 0.  1.
       -2    1    3    3    0  502  0.18708800458E+03 -0.17055661042E+03 -0.39373108106E+03  0.46809789896E+03  0.25500000920E-02 0. -1.
</event>
<event>
 5   0  0.7499834E-04  0.1532342E+04  0.7818609E-02  0.8863226E-01
        1   -1    0    0  501    0  0.00000000000E+00  0.00000000000E+00  0.60194211235E+03  0.60194211238E+03  0.50400001928E-02 0.  1.
       -1   -1    0    0    0  501  0.00000000000E+00  0.00000000000E+00 -0.97520690411E+03  0.97520690412E+03  0.50400001928E-02 0. -1.
    10030    2    1    2    0    0  0.00000000000E+00  0.00000000000E+00 -0.37326479175E+03  0.15771490165E+04  0.15323421339E+04 0.  0.
        3    1    3    3  502    0 -0.60072499846E+03  0.33369731539E+03 -0.53535167603E+03  0.87110610680E+03  0.10100000352E+00 0. -1.
       -3    1    3    3    0  502  0.60072499846E+03 -0.33369731539E+03  0.16208688428E+03  0.70604290970E+03  0.10100000352E+00 0.  1.
</event>
<event>
 5   0  0.1354766E-03  0.1522251E+04  0.7818609E-02  0.8869789E-01
       -2   -1    0    0    0  501  0.00000000000E+00  0.00000000000E+00  0.72276998911E+03  0.72276998911E+03  0.25500000920E-02 0. -1.
        2   -1    0    0  501    0  0.00000000000E+00  0.00000000000E+00 -0.80151678973E+03  0.80151678973E+03  0.25500000920E-02 0.  1.
    10030    2    1    2    0    0  0.00000000000E+00  0.00000000000E+00 -0.78746800624E+02  0.15242867788E+04  0.15222513346E+04 0.  0.
        3    1    3    3  502    0  0.22518042033E+03  0.36050177111E+03  0.59285386298E+03  0.72948163906E+03  0.10100000352E+00 0. -1.
       -3    1    3    3    0  502 -0.22518042033E+03 -0.36050177111E+03 -0.67160066360E+03  0.79480513979E+03  0.10100000352E+00 0.  1.
</event>
<event>
 5   0  0.1339162E-03  0.1453163E+04  0.7818609E-02  0.8916210E-01
       -2   -1    0    0    0  501  0.00000000000E+00  0.00000000000E+00  0.21379377124E+03  0.21379377126E+03  0.25500000920E-02 0. -1.
        2   -1    0    0  501    0  0.00000000000E+00  0.00000000000E+00 -0.24692997189E+04  0.24692997189E+04  0.25500000920E-02 0.  1.
    10030    2    1    2    0    0  0.00000000000E+00  0.00000000000E+00 -0.22555059476E+04  0.26830934901E+04  0.14531633071E+04 0.  0.
        5    1    3    3  502    0  0.53106405104E+03  0.38398725856E+03 -0.54849644800E+03  0.85460264714E+03  0.46999998093E+01 0. -1.
       -5    1    3    3    0  502 -0.53106405104E+03 -0.38398725856E+03 -0.17070094996E+04  0.18284908430E+04  0.46999998093E+01 0.  1.
</event>
<event>
 5   0  0.1375777E-03  0.1616274E+04  0.7818609E-02  0.8810612E-01
        2   -1    0    0  501    0  0.00000000000E+00  0.00000000000E+00  0.79084091289E+03  0.79084091289E+03  0.25500000920E-02 0.  1.
       -2   -1    0    0    0  501  0.00000000000E+00  0.00000000000E+00 -0.82581168539E+03  0.82581168539E+03  0.25500000920E-02 0. -1.
    10030    2    1    2    0    0  0.00000000000E+00  0.00000000000E+00 -0.34970772504E+02  0.16166525983E+04  0.16162743173E+04 0.  0.
        1    1    3    3  502    0  0.39117220759E+03  0.24137802374E+03 -0.68232630731E+03  0.82270786796E+03  0.50400001928E-02 0. -1.
       -1    1    3    3    0  502 -0.39117220759E+03 -0.24137802374E+03  0.64735553481E+03  0.79394473032E+03  0.50400001928E-02 0.  1.
</event>
<event>
 5   0  0.7499834E-04  0.1637085E+04  0.7818609E-02  0.8798083E-01
        1   -1    0    0  501    0  0.00000000000E+00  0.00000000000E+00  0.54912420585E+03  0.54912420587E+03  0.50400001928E-02 0.  1.
       -1   -1    0    0    0  501  0.00000000000E+00  0.00000000000E+00 -0.12201468883E+04  0.12201468883E+04  0.50400001928E-02 0. -1.
    10030    2    1    2    0    0  0.00000000000E+00  0.00000000000E+00 -0.67102268241E+03  0.17692710941E+04  0.16370854481E+04 0.  0.
        3    1    3    3  502    0 -0.65090558842E+03 -0.45646570733E+03 -0.12490988560E+03  0.80476177639E+03  0.10100000352E+00 0.  1.
       -3    1    3    3    0  502  0.65090558842E+03  0.45646570733E+03 -0.54611279681E+03  0.96450931776E+03  0.10100000352E+00 0. -1.
</event>
<event>
 5   0  0.7601145E-04  0.1601201E+04  0.7818609E-02  0.8819810E-01
        1   -1    0    0  501    0  0.00000000000E+00  0.00000000000E+00  0.62335865673E+03  0.62335865675E+03  0.50400001928E-02 0. -1.
       -1   -1    0    0    0  501  0.00000000000E+00  0.00000000000E+00 -0.10282384350E+04  0.10282384350E+04  0.50400001928E-02 0.  1.
    10030    2    1    2    0    0  0.00000000000E+00  0.00000000000E+00 -0.40487977824E+03  0.16515970917E+04  0.16012012111E+04 0.  0.
        4    1    3    3  502    0  0.69315966238E+02 -0.72867190627E+03  0.13210169266E+03  0.74378755049E+03  0.12699999809E+01 0.  1.
       -4    1    3    3    0  502 -0.69315966238E+02  0.72867190627E+03 -0.53698147090E+03  0.90780954123E+03  0.12699999809E+01 0. -1.
</event>
<event>
 5   0  0.7499834E-04  0.1039421E+04  0.7818609E-02  0.9266335E-01
        1   -1    0    0  501    0  0.00000000000E+00  0.00000000000E+00  0.79228710318E+03  0.79228710319E+03  0.50400001928E-02 0.  1.
       -1   -1    0    0    0  501  0.00000000000E+00  0.00000000000E+00 -0.34091045713E+03  0.34091045717E+03  0.50400001928E-02 0. -1.
    10030    2    1    2    0    0  0.00000000000E+00  0.00000000000E+00  0.45137664604E+03  0.11331975604E+04  0.10394209129E+04 0.  0.
        3    1    3    3  502    0 -0.45860357022E+03  0.20587625352E+03  0.81892128626E+02  0.50932170316E+03  0.10100000352E+00 0. -1.
       -3    1    3    3    0  502  0.45860357022E+03 -0.20587625352E+03  0.36948451742E+03  0.62387585720E+03  0.10100000352E+00 0.  1.
</event>
<event>
 5   0  0.1375777E-03  0.1588617E+04  0.7818609E-02  0.8827572E-01
        2   -1    0    0  501    0  0.00000000000E+00  0.00000000000E+00  0.16267937199E+04  0.16267937199E+04  0.25500000920E-02 0.  1.
       -2   -1    0    0    0  501  0.00000000000E+00  0.00000000000E+00 -0.38783390364E+03  0.38783390365E+03  0.25500000920E-02 0. -1.
    10030    2    1    2    0    0  0.00000000000E+00  0.00000000000E+00  0.12389598162E+04  0.20146276235E+04  0.15886167049E+04 0.  0.
        1    1    3    3  502    0  0.30747952104E+02 -0.78721060288E+03  0.74805823147E+03  0.10863871720E+04  0.50400001928E-02 0. -1.
       -1    1    3    3    0  502 -0.30747952104E+02  0.78721060288E+03  0.49090158476E+03  0.92824045149E+03  0.50400001928E-02 0.  1.
</event>
<event>
 5   0  0.1339162E-03  0.1598307E+04  0.7818609E-02  0.8821589E-01
        2   -1    0    0  501    0  0.00000000000E+00  0.00000000000E+00  0.83024224531E+03  0.83024224531E+03  0.25500000920E-02 0. -1.
       -2   -1    0    0    0  501  0.00000000000E+00  0.00000000000E+00 -0.76922863690E+03  0.76922863690E+03  0.25500000920E-02 0.  1.
    10030    2    1    2    0    0  0.00000000000E+00  0.00000000000E+00  0.61013608412E+02  0.15994708822E+04  0.15983067424E+04 0.  0.
        5    1    3    3  502    0 -0.31637123452E+02 -0.61877405175E+03  0.53559393298E+03  0.81900255540E+03  0.46999998093E+01 0. -1.
       -5    1    3    3    0  502  0.31637123452E+02  0.61877405175E+03 -0.47458032457E+03  0.78046832682E+03  0.46999998093E+01 0.  1.
</event>
<event>
 5   0  0.1414751E-03  0.1584658E+04  0.7818609E-02  0.8830029E-01
        2   -1    0    0  501    0  0.00000000000E+00  0.00000000000E+00  0.41992527540E+03  0.41992527541E+03  0.25500000920E-02 0. -1.
       -2   -1    0    0    0  501  0.00000000000E+00  0.00000000000E+00 -0.14949929908E+04  0.14949929908E+04  0.25500000920E-02 0.  1.
    10030    2    1    2    0    0  0.00000000000E+00  0.00000000000E+00 -0.10750677154E+04  0.19149182662E+04  0.15846581251E+04 0.  0.
        2    1    3    3  502    0 -0.69746088812E+03 -0.53934416667E+02 -0.98712889127E+03  0.12098694391E+04  0.25500000920E-02 0.  1.
       -2    1    3    3    0  502  0.69746088812E+03  0.53934416667E+02 -0.87938824123E+02  0.70504882707E+03  0.25500000920E-02 0. -1.
</event>
<event>
 5   0  0.1354766E-03  0.1603756E+04  0.7818609E-02  0.8818244E-01
       -2   -1    0    0    0  501  0.00000000000E+00  0.00000000000E+00  0.14824452380E+04  0.14824452380E+04  0.25500000920E-02 0. -1.
        2   -1    0    0  501    0  0.00000000000E+00  0.00000000000E+00 -0.43374839142E+03  0.43374839143E+03  0.25500000920E-02 0.  1.
    10030    2    1    2    0    0  0.00000000000E+00  0.00000000000E+00  0.10486968466E+04  0.19161936295E+04  0.16037558884E+04 0.  0.
        3    1    3    3  502    0 -0.43569303361E+02 -0.22786828768E+03  0.14414708899E+04  0.14600207455E+04  0.10100000352E+00 0. -1.
       -3    1    3    3    0  502  0.43569303361E+02  0.22786828768E+03 -0.39277404331E+03  0.45617288392E+03  0.10100000352E+00 0.  1.
</event>
<event>
 5   0  0.1414751E-03  0.1353683E+04  0.7818609E-02  0.8988045E-01
        2   -1    0    0  501    0  0.00000000000E+00  0.00000000000E+00  0.26845160120E+04  0.26845160120E+04  0.25500000920E-02 0.  1.
       -2   -1    0    0    0  501  0.00000000000E+00  0.00000000000E+00 -0.17065070816E+03  0.17065070818E+03  0.25500000920E-02 0. -1.
    10030    2    1    2    0    0  0.00000000000E+00  0.00000000000E+00  0.25138653038E+04  0.28551667201E+04  0.13536832104E+04 0.  0.
        2    1    3    3  502    0  0.48397765889E+03 -0.37675168157E+03  0.65318139218E+03  0.89600342352E+03  0.25500000920E-02 0.  1.
       -2    1    3    3    0  502 -0.48397765889E+03  0.37675168157E+03  0.18606839116E+04  0.19591632966E+04  0.25500000920E-02 0. -1.
</event>
<event>
 5   0  0.1354766E-03  0.1475532E+04  0.7818609E-02  0.8900889E-01
       -2   -1    0    0    0  501  0.00000000000E+00  0.00000000000E+00  0.52770390453E+03  0.52770390454E+03  0.25500000920E-02 0.  1.
        2   -1    0    0  501    0  0.00000000000E+00  0.00000000000E+00 -0.10314474081E+04  0.10314474081E+04  0.25500000920E-02 0. -1.
    10030    2    1    2    0    0  0.00000000000E+00  0.00000000000E+00 -0.50374350353E+03  0.15591513126E+04  0.14755322085E+04 0.  0.
        3    1    3    3  502    0  0.88282813835E+02 -0.24859830226E+03 -0.97990454961E+03  0.10147945150E+04  0.10100000352E+00 0. -1.
       -3    1    3    3    0  502 -0.88282813835E+02  0.24859830226E+03  0.47616104608E+03  0.54435679762E+03  0.10100000352E+00 0.  1.
</event>
<event>
 5   0  0.1354766E-03  0.1541609E+04  0.7818609E-02  0.8857246E-01
        2   -1    0    0  501    0  0.00000000000E+00  0.00000000000E+00  0.14441758040E+04  0.14441758040E+04  0.25500000920E-02 0. -1.
       -2   -1    0    0    0  501  0.00000000000E+00  0.00000000000E+00 -0.41140366265E+03  0.41140366266E+03  0.25500000920E-02 0.  1.
    10030    2    1    2    0    0  0.00000000000E+00  0.00000000000E+00  0.10327721414E+04  0.18555794667E+04  0.15416085305E+04 0.  0.
        3    1    3    3  502    0  0.23335008563E+03  0.47678066134E+02 -0.36600242660E+03  0.43667292901E+03  0.10100000352E+00 0.  1.
       -3    1    3    3    0  502 -0.23335008563E+03 -0.47678066134E+02  0.13987745680E+04  0.14189065377E+04  0.10100000352E+00 0. -1.
</event>
<event>
 5   0  0.1414796E-03  0.1626539E+04  0.7818609E-02  0.8804408E-01
       -2   -1    0    0    0  501  0.00000000000E+00  0.00000000000E+00  0.73350137548E+03  0.73350137548E+03  0.25500000920E-02 0.  1.
        2   -1    0    0  501    0  0.00000000000E+00  0.00000000000E+00 -0.90171197413E+03  0.90171197413E+03  0.25500000920E-02 0. -1.
    10030    2    1    2    0    0  0.00000000000E+00  0.00000000000E+00 -0.16821059866E+03  0.16352133496E+04  0.16265386234E+04 0.  0.
        4    1    3    3  502    0  0.32420352558E+03  0.66033898340E+03 -0.43272532928E+03  0.85346840744E+03  0.12699999809E+01 0. -1.
       -4    1    3    3    0  502 -0.32420352558E+03 -0.66033898340E+03  0.26451473063E+03  0.78174494217E+03  0.12699999809E+01 0.  1.
</event>
<event>
 5   0  0.7302027E-04  0.1612050E+04  0.7818609E-02  0.8813179E-01
        1   -1    0    0  501    0  0.00000000000E+00  0.00000000000E+00  0.62906378559E+03  0.62906378561E+03  0.50400001928E-02 0. -1.
       -1   -1    0    0    0  501  0.00000000000E+00  0.00000000000E+00 -0.10327665107E+04  0.10327665108E+04  0.50400001928E-02 0.  1.
    10030    2    1    2    0    0  0.00000000000E+00  0.00000000000E+00 -0.40370272516E+03  0.16618302964E+04  0.16120496406E+04 0.  0.
        5    1    3    3  502    0 -0.49988248000E+03  0.46787259034E+03 -0.64026850601E+03  0.93741831878E+03  0.46999998093E+01 0. -1.
       -5    1    3    3    0  502  0.49988248000E+03 -0.46787259034E+03  0.23656578085E+03  0.72441197758E+03  0.46999998093E+01 0.  1.
</event>
<event>
 5   0  0.7124495E-04  0.1596543E+04  0.7818609E-02  0.8822674E-01
        1   -1    0    0  501    0  0.00000000000E+00  0.00000000000E+00  0.11037700220E+04  0.11037700220E+04  0.50400001928E-02 0.  1.
       -1   -1    0    0    0  501  0.00000000000E+00  0.00000000000E+00 -0.57732816384E+03  0.57732816387E+03  0.50400001928E-02 0. -1.
    10030    2    1    2    0    0  0.00000000000E+00  0.00000000000E+00  0.52644185816E+03  0.16810981859E+04  0.15965431659E+04 0.  0.
        2    1    3    3  502    0 -0.12141289207E+03 -0.78867659513E+03  0.28642572317E+03  0.84781575649E+03  0.25500000920E-02 0. -1.
       -2    1    3    3    0  502  0.12141289207E+03  0.78867659513E+03  0.24001613500E+03  0.83328242939E+03  0.25500000920E-02 0.  1.
</event>
<event>
 5   0  0.7124495E-04  0.1648937E+04  0.7818609E-02  0.8791036E-01
        1   -1    0    0  501    0  0.00000000000E+00  0.00000000000E+00  0.23398134994E+04  0.23398134994E+04  0.50400001928E-02 0. -1.
       -1   -1    0    0    0  501  0.00000000000E+00  0.00000000000E+00 -0.29051388515E+03  0.29051388520E+03  0.50400001928E-02 0.  1.
    10030    2    1    2    0    0  0.00000000000E+00  0.00000000000E+00  0.20492996143E+04  0.26303273846E+04  0.16489370034E+04 0.  0.
        2    1    3    3  502    0  0.46202255123E+03  0.51879946375E+01  0.21138763570E+04  0.21637848798E+04  0.25500000920E-02 0. -1.
       -2    1    3    3    0  502 -0.46202255123E+03 -0.51879946375E+01 -0.64576742747E+02  0.46654250486E+03  0.25500000920E-02 0.  1.
</event>
<event>
 5   0  0.7499834E-04  0.1556084E+04  0.7818609E-02  0.8847991E-01
        1   -1    0    0  501    0  0.00000000000E+00  0.00000000000E+00  0.12581009972E+04  0.12581009972E+04  0.50400001928E-02 0. -1.
       -1   -1    0    0    0  501  0.00000000000E+00  0.00000000000E+00 -0.48116100756E+03  0.48116100759E+03  0.50400001928E-02 0.  1.
    10030    2    1    2    0    0  0.00000000000E+00  0.00000000000E+00  0.77693998962E+03  0.17392620048E+04  0.15560837297E+04 0.  0.
        3    1    3    3  502    0  0.57404229498E+03 -0.46535661508E+03  0.11636191197E+03  0.74807849881E+03  0.10100000352E+00 0.  1.
       -3    1    3    3    0  502 -0.57404229498E+03  0.46535661508E+03  0.66057807765E+03  0.99118350597E+03  0.10100000352E+00 0. -1.
</event>
<event>
 5   0  0.1375777E-03  0.1580685E+04  0.7818609E-02  0.8832502E-01
       -2   -1    0    0    0  501  0.00000000000E+00  0.00000000000E+00  0.23568211176E+03  0.23568211178E+03  0.25500000920E-02 0. -1.
        2   -1    0    0  501    0  0.00000000000E+00  0.00000000000E+00 -0.26503562434E+04  0.26503562434E+04  0.25500000920E-02 0.  1.
    10030    2    1    2    0    0  0.00000000000E+00  0.00000000000E+00 -0.24146741316E+04  0.28860383552E+04  0.15806853658E+04 0.  0.
        1    1    3    3  502    0 -0.45398320234E+03  0.10427015236E+03 -0.41574066456E+02  0.46765523167E+03  0.50400001928E-02 0. -1.
       -1    1    3    3    0  502  0.45398320234E+03 -0.10427015236E+03 -0.23731000652E+04  0.24183831235E+04  0.50400001928E-02 0.  1.
</event>
<event>
 5   0  0.7499834E-04  0.1414876E+04  0.7818609E-02  0.8943120E-01
        1   -1    0    0  501    0  0.00000000000E+00  0.00000000000E+00  0.10398254483E+04  0.10398254483E+04  0.50400001928E-02 0. -1.
       -1   -1    0    0    0  501  0.00000000000E+00  0.00000000000E+00 -0.48130057233E+03  0.48130057236E+03  0.50400001928E-02 0.  1.
    10030    2    1    2    0    0  0.00000000000E+00  0.00000000000E+00  0.55852487594E+03  0.15211260206E+04  0.14148760842E+04 0.  0.
        3    1    3    3  502    0  0.46726279421E+03 -0.39676049021E+03 -0.10040768890E+03  0.62115627634E+03  0.10100000352E+00 0.  1.
       -3    1    3    3    0  502 -0.46726279421E+03  0.39676049021E+03  0.65893256484E+03  0.89996974430E+03  0.10100000352E+00 0. -1.
</event>
<event>
 5   0  0.1354766E-03  0.1585947E+04  0.7818609E-02  0.8829228E-01
       -2   -1    0    0    0  501  0.00000000000E+00  0.00000000000E+00  0.12902056282E+04  0.12902056282E+04  0.25500000920E-02 0. -1.
        2   -1    0    0  501    0  0.00000000000E+00  0.00000000000E+00 -0.48736983851E+03  0.48736983852E+03  0.25500000920E-02 0.  1.
    10030    2    1    2    0    0  0.00000000000E+00  0.00000000000E+00  0.80283578972E+03  0.17775754667E+04  0.15859474250E+04 0.  0.
        3    1    3    3  502    0  0.38609939630E+03 -0.64964900141E+03  0.67062857014E+03  0.10103758005E+04  0.10100000352E+00 0. -1.
       -3    1    3    3    0  502 -0.38609939630E+03  0.64964900141E+03  0.13220721958E+03  0.76719966629E+03  0.10100000352E+00 0.  1.
</event>
<event>
 5   0  0.7633213E-04  0.1298343E+04  0.7818609E-02  0.9030881E-01
        1   -1    0    0  501    0  0.00000000000E+00  0.00000000000E+00  0.87546227320E+03  0.87546227321E+03  0.50400001928E-02 0. -1.
       -1   -1    0    0    0  501  0.00000000000E+00  0.00000000000E+00 -0.48137237424E+03  0.48137237427E+03  0.50400001928E-02 0.  1.
    10030    2    1    2    0    0  0.00000000000E+00  0.00000000000E+00  0.39408989896E+03  0.13568346475E+04  0.12983425635E+04 0.  0.
        1    1    3    3  502    0 -0.31624445926E+03  0.26998327707E+03 -0.32393366616E+03  0.52710013091E+03  0.50400001928E-02 0.  1.
       -1    1    3    3    0  502  0.31624445926E+03 -0.26998327707E+03  0.71802356511E+03  0.82973451657E+03  0.50400001928E-02 0. -1.
</event>
<event>
 5   0  0.1414796E-03  0.1603388E+04  0.7818609E-02  0.8818470E-01
       -2   -1    0    0    0  501  0.00000000000E+00  0.00000000000E+00  0.91938460007E+03  0.91938460008E+03  0.25500000920E-02 0. -1.
        2   -1    0    0  501    0  0.00000000000E+00  0.00000000000E+00 -0.69906859354E+03  0.69906859355E+03  0.25500000920E-02 0.  1.
    10030    2    1    2    0    0  0.00000000000E+00  0.00000000000E+00  0.22031600653E+03  0.16184531936E+04  0.16033875381E+04 0.  0.
        4    1    3    3  502    0 -0.29290556707E+03  0.58723142369E+03 -0.35468713475E+03  0.74594838471E+03  0.12699999809E+01 0.  1.
       -4    1    3    3    0  502  0.29290556707E+03 -0.58723142369E+03  0.57500314128E+03  0.87250480891E+03  0.12699999809E+01 0. -1.
</event>
<event>
 5   0  0.1414796E-03  0.1392935E+04  0.7818609E-02  0.8958948E-01
       -2   -1    0    0    0  501  0.00000000000E+00  0.00000000000E+00  0.28465041160E+03  0.28465041161E+03  0.25500000920E-02 0. -1.
        2   -1    0    0  501    0  0.00000000000E+00  0.00000000000E+00 -0.17040807198E+04  0.17040807198E+04  0.25500000920E-02 0.  1.
    10030    2    1    2    0    0  0.00000000000E+00  0.00000000000E+00 -0.14194303082E+04  0.19887311314E+04  0.13929354304E+04 0.  0.
        4    1    3    3  502    0  0.60274000392E+03  0.32865342841E+03 -0.54225627797E+03  0.87484402738E+03  0.12699999809E+01 0.  1.
       -4    1    3    3    0  502 -0.60274000392E+03 -0.32865342841E+03 -0.87717403022E+03  0.11138871040E+04  0.12699999809E+01 0. -1.
</event>
<event>
 5   0  0.7302027E-04  0.1579682E+04  0.7818609E-02  0.8833128E-01
        1   -1    0    0  501    0  0.00000000000E+00  0.00000000000E+00  0.58444364885E+03  0.58444364887E+03  0.50400001928E-02 0. -1.
       -1   -1    0    0    0  501  0.00000000000E+00  0.00000000000E+00 -0.10674232196E+04  0.10674232196E+04  0.50400001928E-02 0.  1.
    10030    2    1    2    0    0  0.00000000000E+00  0.00000000000E+00 -0.48297957071E+03  0.16518668684E+04  0.15796818937E+04 0.  0.
        5    1    3    3  502    0  0.72479563934E+03 -0.22995974937E+03 -0.18150032538E+02  0.76063244659E+03  0.46999998093E+01 0. -1.
       -5    1    3    3    0  502 -0.72479563934E+03  0.22995974937E+03 -0.46482953817E+03  0.89123442185E+03  0.46999998093E+01 0.  1.
</event>
<event>
 5   0  0.7499834E-04  0.1351366E+04  0.7818609E-02  0.8989794E-01
        1   -1    0    0  501    0  0.00000000000E+00  0.00000000000E+00  0.47975939143E+03  0.47975939145E+03  0.50400001928E-02 0.  1.
       -1   -1    0    0    0  501  0.00000000000E+00  0.00000000000E+00 -0.95161819015E+03  0.95161819016E+03  0.50400001928E-02 0. -1.
    10030    2    1    2    0    0  0.00000000000E+00  0.00000000000E+00 -0.47185879872E+03  0.14313775816E+04  0.13513663660E+04 0.  0.
        3    1    3    3  502    0 -0.57951064500E+03 -0.19729553718E+03  0.66992203077E+02  0.61582958855E+03  0.10100000352E+00 0.  1.
       -3    1    3    3    0  502  0.57951064500E+03  0.19729553718E+03 -0.53885100180E+03  0.81554799307E+03  0.10100000352E+00 0. -1.
</event>
<event>
 5   0  0.7124495E-04  0.1632860E+04  0.7818609E-02  0.8800612E-01
       -1   -1    0    0    0  501  0.00000000000E+00  0.00000000000E+00  0.61497855182E+03  0.61497855184E+03  0.50400001928E-02 0. -1.
        1   -1    0    0  501    0  0.00000000000E+00  0.00000000000E+00 -0.10838713815E+04  0.10838713815E+04  0.50400001928E-02 0.  1.
    10030    2    1    2    0    0  0.00000000000E+00  0.00000000000E+00 -0.46889282969E+03  0.16988499334E+04  0.16328596420E+04 0.  0.
        2    1    3    3  502    0 -0.13579579218E+03 -0.53443109054E+03 -0.86085904581E+03  0.10223186316E+04  0.25500000920E-02 0.  1.
       -2    1    3    3    0  502  0.13579579218E+03  0.53443109054E+03  0.39196621612E+03  0.67653130178E+03  0.25500000920E-02 0. -1.
</event>
<event>
 5   0  0.1414796E-03  0.1580630E+04  0.7818609E-02  0.8832537E-01
       -2   -1    0    0    0  501  0.00000000000E+00  0.00000000000E+00  0.56059329209E+03  0.56059329210E+03  0.25500000920E-02 0. -1.
        2   -1    0    0  501    0  0.00000000000E+00  0.00000000000E+00 -0.11141726130E+04  0.11141726130E+04  0.25500000920E-02 0.  1.
    10030    2    1    2    0    0  0.00000000000E+00  0.00000000000E+00 -0.55357932095E+03  0.16747659051E+04  0.15806298657E+04 0.  0.
        4    1    3    3  502    0 -0.60309746468E+03 -0.37715867366E+03 -0.64171537526E+03  0.95800597742E+03  0.12699999809E+01 0.  1.
       -4    1    3    3    0  502  0.60309746468E+03  0.37715867366E+03  0.88136054308E+02  0.71675992772E+03  0.12699999809E+01 0. -1.
</event>
<event>
 5   0  0.7499834E-04  0.1572913E+04  0.7818609E-02  0.8837363E-01
        1   -1    0    0  501    0  0.00000000000E+00  0.00000000000E+00  0.98435192979E+03  0.98435192980E+03  0.50400001928E-02 0. -1.
       -1   -1    0    0    0  501  0.00000000000E+00  0.00000000000E+00 -0.62834648895E+03  0.62834648897E+03  0.50400001928E-02 0.  1.
    10030    2    1    2    0    0  0.00000000000E+00  0.00000000000E+00  0.35600544084E+03  0.16126984188E+04  0.15729133212E+04 0.  0.
        3    1    3    3  502    0 -0.38105904067E+03  0.68524080273E+03  0.24081499399E+03  0.82021510699E+03  0.10100000352E+00 0. -1.
       -3    1    3    3    0  502  0.38105904067E+03 -0.68524080273E+03  0.11519044685E+03  0.79248331178E+03  0.10100000352E+00 0.  1.
</event>
<event>
 5   0  0.1414751E-03  0.1600189E+04  0.7818609E-02  0.8820432E-01
       -2   -1    0    0    0  501  0.00000000000E+00  0.00000000000E+00  0.64371888128E+03  0.64371888128E+03  0.25500000920E-02 0. -1.
        2   -1    0    0  501    0  0.00000000000E+00  0.00000000000E+00 -0.99445794729E+03  0.99445794729E+03  0.25500000920E-02 0.  1.
    10030    2    1    2    0    0  0.00000000000E+00  0.00000000000E+00 -0.35073906601E+03  0.16381768286E+04  0.16001891855E+04 0.  0.
        2    1    3    3  502    0 -0.28084603590E+03  0.12530917165E+03 -0.93153435356E+03  0.98098579819E+03  0.25500000920E-02 0.  1.
       -2    1    3    3    0  502  0.28084603590E+03 -0.12530917165E+03  0.58079528755E+03  0.65719103039E+03  0.25500000920E-02 0. -1.
</event>
<event>
 5   0  0.1414796E-03  0.1495425E+04  0.7818609E-02  0.8887501E-01
        2   -1    0    0  501    0  0.00000000000E+00  0.00000000000E+00  0.90739837841E+03  0.90739837842E+03  0.25500000920E-02 0. -1.
       -2   -1    0    0    0  501  0.00000000000E+00  0.00000000000E+00 -0.61612862158E+03  0.61612862158E+03  0.25500000920E-02 0.  1.
    10030    2    1    2    0    0  0.00000000000E+00  0.00000000000E+00  0.29126975684E+03  0.15235270000E+04  0.14954251731E+04 0.  0.
        4    1    3    3  502    0 -0.25133126626E+03  0.63751820219E+03 -0.15911101671E+03  0.70350180672E+03  0.12699999809E+01 0.  1.
       -4    1    3    3    0  502  0.25133126626E+03 -0.63751820219E+03  0.45038077355E+03  0.82002519328E+03  0.12699999809E+01 0. -1.
</event>
<event>
 5   0  0.7302027E-04  0.1624306E+04  0.7818609E-02  0.8805753E-01
        1   -1    0    0  501    0  0.00000000000E+00  0.00000000000E+00  0.16348178988E+04  0.16348178988E+04  0.50400001928E-02 0.  1.
       -1   -1    0    0    0  501  0.00000000000E+00  0.00000000000E+00 -0.40346545131E+03  0.40346545134E+03  0.50400001928E-02 0. -1.
    10030    2    1    2    0    0  0.00000000000E+00  0.00000000000E+00  0.12313524474E+04  0.20382833501E+04  0.16243060566E+04 0.  0.
        5    1    3    3  502    0 -0.51150838221E+03  0.28790874528E+03 -0.88657184717E+02  0.59364505985E+03  0.46999998093E+01 0. -1.
       -5    1    3    3    0  502  0.51150838221E+03 -0.28790874528E+03  0.13200096322E+04  0.14446382903E+04  0.46999998093E+01 0.  1.
</event>
<event>
 5   0  0.7124495E-04  0.1561336E+04  0.7818609E-02  0.8844659E-01
        1   -1    0    0  501    0  0.00000000000E+00  0.00000000000E+00  0.49730854714E+03  0.49730854717E+03  0.50400001928E-02 0. -1.
       -1   -1    0    0    0  501  0.00000000000E+00  0.00000000000E+00 -0.12254812930E+04  0.12254812930E+04  0.50400001928E-02 0.  1.
    10030    2    1    2    0    0  0.00000000000E+00  0.00000000000E+00 -0.72817274589E+03  0.17227898402E+04  0.15613357377E+04 0.  0.
        2    1    3    3  502    0  0.36938881936E+01 -0.66377530614E+03  0.89293381647E+02  0.66976459288E+03  0.25500000920E-02 0. -1.
       -2    1    3    3    0  502 -0.36938881936E+01  0.66377530614E+03 -0.81746612754E+03  0.10530252473E+04  0.25500000920E-02 0.  1.
</event>
<event>
 5   0  0.1414751E-03  0.1582280E+04  0.7818609E-02  0.8831509E-01
       -2   -1    0    0    0  501  0.00000000000E+00  0.00000000000E+00  0.57027643948E+03  0.57027643949E+03  0.25500000920E-02 0.  1.
        2   -1    0    0  501    0  0.00000000000E+00  0.00000000000E+00 -0.10975419056E+04  0.10975419056E+04  0.25500000920E-02 0. -1.
    10030    2    1    2    0    0  0.00000000000E+00  0.00000000000E+00 -0.52726546616E+03  0.16678183451E+04  0.15822797352E+04 0.  0.
        2    1    3    3  502    0  0.63960366588E+03 -0.85593442969E+02  0.21880368426E+03  0.68139132599E+03  0.25500000920E-02 0.  1.
       -2    1    3    3    0  502 -0.63960366588E+03  0.85593442969E+02 -0.74606915042E+03  0.98642701914E+03  0.25500000920E-02 0. -1.
</event>
<event>
 5   0  0.1354766E-03  0.1591718E+04  0.7818609E-02  0.8825652E-01
       -2   -1    0    0    0  501  0.00000000000E+00  0.00000000000E+00  0.14309826609E+04  0.14309826609E+04  0.25500000920E-02 0. -1.
        2   -1    0    0  501    0  0.00000000000E+00  0.00000000000E+00 -0.44262685181E+03  0.44262685182E+03  0.25500000920E-02 0.  1.
    10030    2    1    2    0    0  0.00000000000E+00  0.00000000000E+00  0.98835580904E+03  0.18736095127E+04  0.15917177516E+04 0.  0.
        3    1    3    3  502    0  0.34996311995E+03 -0.42270258330E+03  0.11726605965E+04  0.12947140781E+04  0.10100000352E+00 0. -1.
       -3    1    3    3    0  502 -0.34996311995E+03  0.42270258330E+03 -0.18430478748E+03  0.57889543455E+03  0.10100000352E+00 0.  1.
</event>
<event>
 5   0  0.1339162E-03  0.1632443E+04  0.7818609E-02  0.8800861E-01
       -2   -1    0    0    0  501  0.00000000000E+00  0.00000000000E+00  0.98822551683E+03  0.98822551683E+03  0.25500000920E-02 0. -1.
        2   -1    0    0  501    0  0.00000000000E+00  0.00000000000E+00 -0.67415549931E+03  0.67415549931E+03  0.25500000920E-02 0.  1.
    10030    2    1    2    0    0  0.00000000000E+00  0.00000000000E+00  0.31407001752E+03  0.16623810161E+04  0.16324431589E+04 0.  0.
        5    1    3    3  502    0 -0.55642548178E+03  0.17117844120E+02  0.76488483011E+03  0.94603024829E+03  0.46999998093E+01 0. -1.
       -5    1    3    3    0  502  0.55642548178E+03 -0.17117844120E+02 -0.45081481259E+03  0.71635076785E+03  0.46999998093E+01 0.  1.
</event>
<event>
 5   0  0.7124495E-04  0.1630012E+04  0.7818609E-02  0.8802319E-01
       -1   -1    0    0    0  501  0.00000000000E+00  0.00000000000E+00  0.19338826928E+04  0.19338826928E+04  0.50400001928E-02 0.  1.
        1   -1    0    0  501    0  0.00000000000E+00  0.00000000000E+00 -0.34347230081E+03  0.34347230085E+03  0.50400001928E-02 0. -1.
    10030    2    1    2    0    0  0.00000000000E+00  0.00000000000E+00  0.15904103920E+04  0.22773549937E+04  0.16300124393E+04 0.  0.
        2    1    3    3  502    0 -0.35794811788E+03  0.26873354710E+03 -0.15637979636E+03  0.47412995597E+03  0.25500000920E-02 0. -1.
       -2    1    3    3    0  502  0.35794811788E+03 -0.26873354710E+03  0.17467901884E+04  0.18032250377E+04  0.25500000920E-02 0.  1.
</event>
<event>
 5   0  0.1414751E-03  0.1628580E+04  0.7818609E-02  0.8803180E-01
        2   -1    0    0  501    0  0.00000000000E+00  0.00000000000E+00  0.78855202654E+03  0.78855202655E+03  0.25500000920E-02 0.  1.
       -2   -1    0    0    0  501  0.00000000000E+00  0.00000000000E+00 -0.84086762381E+03  0.84086762381E+03  0.25500000920E-02 0. -1.
    10030    2    1    2    0    0  0.00000000000E+00  0.00000000000E+00 -0.52315597267E+02  0.16294196504E+04  0.16285795882E+04 0.  0.
        2    1    3    3  502    0 -0.10413922292E+03 -0.16984956319E+03 -0.81610544667E+03  0.84007258732E+03  0.25500000920E-02 0. -1.
       -2    1    3    3    0  502  0.10413922292E+03  0.16984956319E+03  0.76378984941E+03  0.78934706304E+03  0.25500000920E-02 0.  1.
</event>
<event>
 5   0  0.7124495E-04  0.1528604E+04  0.7818609E-02  0.8865651E-01
        1   -1    0    0  501    0  0.00000000000E+00  0.00000000000E+00  0.78112932145E+03  0.78112932147E+03  0.50400001928E-02 0. -1.
       -1   -1    0    0    0  501  0.00000000000E+00  0.00000000000E+00 -0.74783759707E+03  0.74783759709E+03  0.50400001928E-02 0.  1.
    10030    2    1    2    0    0  0.00000000000E+00  0.00000000000E+00  0.33291724381E+02  0.15289669186E+04  0.15286044286E+04 0.  0.
        2    1    3    3  502    0  0.67202865548E+03 -0.36147561376E+03  0.59908189983E+02  0.76542545317E+03  0.25500000920E-02 0. -1.
       -2    1    3    3    0  502 -0.67202865548E+03  0.36147561376E+03 -0.26616465602E+02  0.76354146539E+03  0.25500000920E-02 0.  1.
</event>
<event>
 5   0  0.1339162E-03  0.1581461E+04  0.7818609E-02  0.8832019E-01
        2   -1    0    0  501    0  0.00000000000E+00  0.00000000000E+00  0.12696953354E+04  0.12696953354E+04  0.25500000920E-02 0.  1.
       -2   -1    0    0    0  501  0.00000000000E+00  0.00000000000E+00 -0.49244496730E+03  0.49244496730E+03  0.25500000920E-02 0. -1.
    10030    2    1    2    0    0  0.00000000000E+00  0.00000000000E+00  0.77725036807E+03  0.17621403027E+04  0.15814614480E+04 0.  0.
        5    1    3    3  502    0 -0.24664862506E+03  0.42769843602E+03  0.10768224113E+04  0.11846223415E+04  0.46999998093E+01 0.  1.
       -5    1    3    3    0  502  0.24664862506E+03 -0.42769843602E+03 -0.29957204324E+03  0.57751796120E+03  0.46999998093E+01 0. -1.
</event>
<event>
 5   0  0.7633213E-04  0.1602338E+04  0.7818609E-02  0.8819113E-01
        1   -1    0    0  501    0  0.00000000000E+00  0.00000000000E+00  0.87272452978E+03  0.87272452979E+03  0.50400001928E-02 0.  1.
       -1   -1    0    0    0  501  0.00000000000E+00  0.00000000000E+00 -0.73548030079E+03  0.73548030081E+03  0.50400001928E-02 0. -1.
    10030    2    1    2    0    0  0.00000000000E+00  0.00000000000E+00  0.13724422898E+03  0.16082048306E+04  0.16023379165E+04 0.  0.
        1    1    3    3  502    0 -0.17520585521E+03 -0.41557776257E+01 -0.71600582333E+03  0.73714225307E+03  0.50400001928E-02 0. -1.
       -1    1    3    3    0  502  0.17520585521E+03  0.41557776257E+01  0.85325005231E+03  0.87106257754E+03  0.50400001928E-02 0.  1.
</event>
<event>
 5   0  0.7124495E-04  0.1597609E+04  0.7818609E-02  0.8822018E-01
        1   -1    0    0  501    0  0.00000000000E+00  0.00000000000E+00  0.30784862756E+04  0.30784862756E+04  0.50400001928E-02 0. -1.
       -1   -1    0    0    0  501  0.00000000000E+00  0.00000000000E+00 -0.20727353181E+03  0.20727353187E+03  0.50400001928E-02 0.  1.
    10030    2    1    2    0    0  0.00000000000E+00  0.00000000000E+00  0.28712127438E+04  0.32857598075E+04  0.15976091175E+04 0.  0.
        2    1    3    3  502    0  0.15206363808E+03  0.78886513122E+02  0.30402626505E+04  0.30450851246E+04  0.25500000920E-02 0. -1.
       -2    1    3    3    0  502 -0.15206363808E+03 -0.78886513122E+02 -0.16904990676E+03  0.24067468284E+03  0.25500000920E-02 0.  1.
</event>
<event>
 5   0  0.7633213E-04  0.8372050E+03  0.7818609E-02  0.9507673E-01
       -1   -1    0    0    0  501  0.00000000000E+00  0.00000000000E+00  0.37760940107E+03  0.37760940110E+03  0.50400001928E-02 0. -1.
        1   -1    0    0  501    0  0.00000000000E+00  0.00000000000E+00 -0.46404579486E+03  0.46404579488E+03  0.50400001928E-02 0.  1.
    10030    2    1    2    0    0  0.00000000000E+00  0.00000000000E+00 -0.86436393788E+02  0.84165519599E+03  0.83720500402E+03 0.  0.
        1    1    3    3  502    0 -0.73255099601E+02  0.34766160816E+03  0.17930233051E+03  0.39797516148E+03  0.50400001928E-02 0. -1.
       -1    1    3    3    0  502  0.73255099601E+02 -0.34766160816E+03 -0.26573872430E+03  0.44368003451E+03  0.50400001928E-02 0.  1.
</event>
<event>
 5   0  0.1339162E-03  0.1588248E+04  0.7818609E-02  0.8827800E-01
       -2   -1    0    0    0  501  0.00000000000E+00  0.00000000000E+00  0.37278471270E+03  0.37278471271E+03  0.25500000920E-02 0.  1.
        2   -1    0    0  501    0  0.00000000000E+00  0.00000000000E+00 -0.16916810646E+04  0.16916810646E+04  0.25500000920E-02 0. -1.
    10030    2    1    2    0    0  0.00000000000E+00  0.00000000000E+00 -0.13188963519E+04  0.20644657773E+04  0.15882478895E+04 0.  0.
        5    1    3    3  502    0 -0.64457204135E+03 -0.40440165631E+03 -0.95470595381E+03  0.12208600920E+04  0.46999998093E+01 0. -1.
       -5    1    3    3    0  502  0.64457204135E+03  0.40440165631E+03 -0.36419039804E+03  0.84360568522E+03  0.46999998093E+01 0.  1.
</event>
<event>
 5   0  0.7302027E-04  0.1752474E+04  0.7818609E-02  0.8731990E-01
        1   -1    0    0  501    0  0.00000000000E+00  0.00000000000E+00  0.24294931354E+04  0.24294931354E+04  0.50400001928E-02 0. -1.
       -1   -1    0    0    0  501  0.00000000000E+00  0.00000000000E+00 -0.31602943565E+03  0.31602943569E+03  0.50400001928E-02 0.  1.
    10030    2    1    2    0    0  0.00000000000E+00  0.00000000000E+00  0.21134636998E+04  0.27455225711E+04  0.17524740735E+04 0.  0.
        5    1    3    3  502    0 -0.18624315555E+03  0.17167331274E+03  0.23708660919E+04  0.23843628824E+04  0.46999998093E+01 0. -1.
       -5    1    3    3    0  502  0.18624315555E+03 -0.17167331274E+03 -0.25740239211E+03  0.36115968872E+03  0.46999998093E+01 0.  1.
</event>
<event>
 5   0  0.7499834E-04  0.1613445E+04  0.7818609E-02  0.8812331E-01
       -1   -1    0    0    0  501  0.00000000000E+00  0.00000000000E+00  0.49018660864E+03  0.49018660866E+03  0.50400001928E-02 0. -1.
        1   -1    0    0  501    0  0.00000000000E+00  0.00000000000E+00 -0.13276595743E+04  0.13276595743E+04  0.50400001928E-02 0.  1.
    10030    2    1    2    0    0  0.00000000000E+00  0.00000000000E+00 -0.83747296564E+03  0.18178461830E+04  0.16134446928E+04 0.  0.
        3    1    3    3  502    0  0.13913967270E+03  0.71826677319E+03 -0.35772598677E+02  0.73249347779E+03  0.10100000352E+00 0. -1.
       -3    1    3    3    0  502 -0.13913967270E+03 -0.71826677319E+03 -0.80170036697E+03  0.10853527052E+04  0.10100000352E+00 0.  1.
</event>
<event>
 5   0  0.1375777E-03  0.1597514E+04  0.7818609E-02  0.8822077E-01
       -2   -1    0    0    0  501  0.00000000000E+00  0.00000000000E+00  0.99322617169E+03  0.99322617169E+03  0.25500000920E-02 0. -1.
        2   -1    0    0  501    0  0.00000000000E+00  0.00000000000E+00 -0.64236384941E+03  0.64236384942E+03  0.25500000920E-02 0.  1.
    10030    2    1    2    0    0  0.00000000000E+00  0.00000000000E+00  0.35086232228E+03  0.16355900211E+04  0.15975138021E+04 0.  0.
        1    1    3    3  502    0 -0.12104033069E+03  0.22096585437E+02  0.98346543699E+03  0.99113232544E+03  0.50400001928E-02 0. -1.
       -1    1    3    3    0  502  0.12104033069E+03 -0.22096585437E+02 -0.63260311471E+03  0.64445769567E+03  0.50400001928E-02 0.  1.
</event>
<event>
 5   0  0.7499834E-04  0.1564785E+04  0.7818609E-02  0.8842479E-01
        1   -1    0    0  501    0  0.00000000000E+00  0.00000000000E+00  0.20787486039E+03  0.20787486045E+03  0.50400001928E-02 0.  1.
       -1   -1    0    0    0  501  0.00000000000E+00  0.00000000000E+00 -0.29447436662E+04  0.29447436662E+04  0.50400001928E-02 0. -1.
    10030    2    1    2    0    0  0.00000000000E+00  0.00000000000E+00 -0.27368688058E+04  0.31526185267E+04  0.15647851975E+04 0.  0.
        3    1    3    3  502    0  0.29488946569E+03 -0.37556812101E+03 -0.11974597288E+03  0.49229088832E+03  0.10100000352E+00 0.  1.
       -3    1    3    3    0  502 -0.29488946569E+03  0.37556812101E+03 -0.26171228329E+04  0.26603276384E+04  0.10100000352E+00 0. -1.
</event>
<event>
 5   0  0.1354766E-03  0.1631864E+04  0.7818609E-02  0.8801208E-01
       -2   -1    0    0    0  501  0.00000000000E+00  0.00000000000E+00  0.86559977300E+03  0.86559977301E+03  0.25500000920E-02 0. -1.
        2   -1    0    0  501    0  0.00000000000E+00  0.00000000000E+00 -0.76911413478E+03  0.76911413479E+03  0.25500000920E-02 0.  1.
    10030    2    1    2    0    0  0.00000000000E+00  0.00000000000E+00  0.96485638222E+02  0.16347139078E+04  0.16318639900E+04 0.  0.
        3    1    3    3  502    0 -0.48969347032E+03 -0.57792435087E+03 -0.25551728786E+03  0.79942813611E+03  0.10100000352E+00 0. -1.
       -3    1    3    3    0  502  0.48969347032E+03  0.57792435087E+03  0.35200292609E+03  0.83528577169E+03  0.10100000352E+00 0.  1.
</event>
<event>
 5   0  0.7633213E-04  0.1572997E+04  0.7818609E-02  0.8837311E-01
        1   -1    0    0  501    0  0.00000000000E+00  0.00000000000E+00  0.12529492598E+04  0.12529492598E+04  0.50400001928E-02 0. -1.
       -1   -1    0    0    0  501  0.00000000000E+00  0.00000000000E+00 -0.49369882790E+03  0.49369882793E+03  0.50400001928E-02 0.  1.
    10030    2    1    2    0    0  0.00000000000E+00  0.00000000000E+00  0.75925043190E+03  0.17466480877E+04  0.15729966065E+04 0.  0.
        1    1    3    3  502    0 -0.25089724690E+03 -0.20253482324E+02  0.12070150070E+04  0.12329821001E+04  0.50400001928E-02 0. -1.
       -1    1    3    3    0  502  0.25089724690E+03  0.20253482324E+02 -0.44776457513E+03  0.51366598760E+03  0.50400001928E-02 0.  1.
</event>
<event>
 5   0  0.7633213E-04  0.1579769E+04  0.7818609E-02  0.8833074E-01
       -1   -1    0    0    0  501  0.00000000000E+00  0.00000000000E+00  0.37233787467E+03  0.37233787471E+03  0.50400001928E-02 0.  1.
        1   -1    0    0  501    0  0.00000000000E+00  0.00000000000E+00 -0.16756762540E+04  0.16756762540E+04  0.50400001928E-02 0. -1.
    10030    2    1    2    0    0  0.00000000000E+00  0.00000000000E+00 -0.13033383793E+04  0.20480141287E+04  0.15797692681E+04 0.  0.
        1    1    3    3  502    0  0.19504528563E+03  0.47905704116E+03 -0.14255883475E+04  0.15165224854E+04  0.50400001928E-02 0. -1.
       -1    1    3    3    0  502 -0.19504528563E+03 -0.47905704116E+03  0.12224996822E+03  0.53149164329E+03  0.50400001928E-02 0.  1.
</event>
<event>
 5   0  0.1375777E-03  0.1551044E+04  0.7818609E-02  0.8851201E-01
        2   -1    0    0  501    0  0.00000000000E+00  0.00000000000E+00  0.10918775712E+04  0.10918775712E+04  0.25500000920E-02 0.  1.
       -2   -1    0    0    0  501  0.00000000000E+00  0.00000000000E+00 -0.55082565835E+03  0.55082565835E+03  0.25500000920E-02 0. -1.
    10030    2    1    2    0    0  0.00000000000E+00  0.00000000000E+00  0.54105191287E+03  0.16427032296E+04  0.15510437544E+04 0.  0.
        1    1    3    3  502    0 -0.36724883836E+03 -0.34034294725E+03 -0.35669562573E+03  0.61476564678E+03  0.50400001928E-02 0. -1.
       -1    1    3    3    0  502  0.36724883836E+03  0.34034294725E+03  0.89774753860E+03  0.10279375828E+04  0.50400001928E-02 0.  1.
</event>
<event>
 5   0  0.7499834E-04  0.1605196E+04  0.7818609E-02  0.8817362E-01
        1   -1    0    0  501    0  0.00000000000E+00  0.00000000000E+00  0.97566495879E+03  0.97566495880E+03  0.50400001928E-02 0.  1.
       -1   -1    0    0    0  501  0.00000000000E+00  0.00000000000E+00 -0.66023025700E+03  0.66023025702E+03  0.50400001928E-02 0. -1.
    10030    2    1    2    0    0  0.00000000000E+00  0.00000000000E+00  0.31543470180E+03  0.16358952158E+04  0.16051959712E+04 0.  0.
        3    1    3    3  502    0  0.80003690649E+03  0.39359974299E+02  0.20923365691E+03  0.82788102569E+03  0.10100000352E+00 0.  1.
       -3    1    3    3    0  502 -0.80003690649E+03 -0.39359974299E+02  0.10620104489E+03  0.80801419013E+03  0.10100000352E+00 0. -1.
</event>
<event>
 5   0  0.7633213E-04  0.1616986E+04  0.7818609E-02  0.8810180E-01
       -1   -1    0    0    0  501  0.00000000000E+00  0.00000000000E+00  0.59675143171E+03  0.59675143173E+03  0.50400001928E-02 0.  1.
        1   -1    0    0  501    0  0.00000000000E+00  0.00000000000E+00 -0.10953652570E+04  0.10953652570E+04  0.50400001928E-02 0. -1.
    10030    2    1    2    0    0  0.00000000000E+00  0.00000000000E+00 -0.49861382528E+03  0.16921166887E+04  0.16169858198E+04 0.  0.
        1    1    3    3  502    0 -0.66191848679E+03  0.44073240109E+03 -0.96653553100E+02  0.80107617732E+03  0.50400001928E-02 0.  1.
       -1    1    3    3    0  502  0.66191848679E+03 -0.44073240109E+03 -0.40196027218E+03  0.89104051140E+03  0.50400001928E-02 0. -1.
</event>
<event>
 5   0  0.1354766E-03  0.1585145E+04  0.7818609E-02  0.8829726E-01
       -2   -1    0    0    0  501  0.00000000000E+00  0.00000000000E+00  0.40351619093E+03  0.40351619093E+03  0.25500000920E-02 0. -1.
        2   -1    0    0  501    0  0.00000000000E+00  0.00000000000E+00 -0.15567432976E+04  0.15567432976E+04  0.25500000920E-02 0.  1.
    10030    2    1    2    0    0  0.00000000000E+00  0.00000000000E+00 -0.11532271067E+04  0.19602594885E+04  0.15851449469E+04 0.  0.
        3    1    3    3  502    0 -0.21223475357E+03  0.32940318206E+03  0.27534426052E+03  0.47892015929E+03  0.10100000352E+00 0. -1.
       -3    1    3    3    0  502  0.21223475357E+03 -0.32940318206E+03 -0.14285713672E+04  0.14813393292E+04  0.10100000352E+00 0.  1.
</event>
<event>
 5   0  0.1339162E-03  0.1513300E+04  0.7818609E-02  0.8875657E-01
       -2   -1    0    0    0  501  0.00000000000E+00  0.00000000000E+00  0.69992126431E+03  0.69992126431E+03  0.25500000920E-02 0. -1.
        2   -1    0    0  501    0  0.00000000000E+00  0.00000000000E+00 -0.81797633281E+03  0.81797633282E+03  0.25500000920E-02 0.  1.
    10030    2    1    2    0    0  0.00000000000E+00  0.00000000000E+00 -0.11805506851E+03  0.15178975971E+04  0.15132997443E+04 0.  0.
        5    1    3    3  502    0 -0.31198605551E+03 -0.23963617819E+03 -0.70731636708E+03  0.80936971149E+03  0.46999998093E+01 0.  1.
       -5    1    3    3    0  502  0.31198605551E+03  0.23963617819E+03  0.58926129857E+03  0.70852788564E+03  0.46999998093E+01 0. -1.
</event>
<event>
 5   0  0.1414751E-03  0.1610697E+04  0.7818609E-02  0.8814003E-01
       -2   -1    0    0    0  501  0.00000000000E+00  0.00000000000E+00  0.77881978531E+03  0.77881978531E+03  0.25500000920E-02 0.  1.
        2   -1    0    0  501    0  0.00000000000E+00  0.00000000000E+00 -0.83278052890E+03  0.83278052891E+03  0.25500000920E-02 0. -1.
    10030    2    1    2    0    0  0.00000000000E+00  0.00000000000E+00 -0.53960743594E+02  0.16116003142E+04  0.16106966850E+04 0.  0.
        2    1    3    3  502    0 -0.19674584558E+03  0.54296049700E+03 -0.58860706590E+03  0.82460494002E+03  0.25500000920E-02 0. -1.
       -2    1    3    3    0  502  0.19674584558E+03 -0.54296049700E+03  0.53464632231E+03  0.78699537421E+03  0.25500000920E-02 0.  1.
</event>
<event>
 5   0  0.1414751E-03  0.1632128E+04  0.7818609E-02  0.8801050E-01
       -2   -1    0    0    0  501  0.00000000000E+00  0.00000000000E+00  0.50392909621E+03  0.50392909622E+03  0.25500000920E-02 0.  1.
        2   -1    0    0  501    0  0.00000000000E+00  0.00000000000E+00 -0.13215363453E+04  0.13215363453E+04  0.25500000920E-02 0. -1.
    10030    2    1    2    0    0  0.00000000000E+00  0.00000000000E+00 -0.81760724906E+03  0.18254654415E+04  0.16321282010E+04 0.  0.
        2    1    3    3  502    0  0.46845300003E+03  0.16944378714E+03  0.31413959905E+03  0.58893386550E+03  0.25500000920E-02 0.  1.
       -2    1    3    3    0  502 -0.46845300003E+03 -0.16944378714E+03 -0.11317468481E+04  0.12365315760E+04  0.25500000920E-02 0. -1.
</event>
<event>
 5   0  0.1354766E-03  0.1811025E+04  0.7818609E-02  0.8700458E-01
       -2   -1    0    0    0  501  0.00000000000E+00  0.00000000000E+00  0.16343213609E+04  0.16343213609E+04  0.25500000920E-02 0.  1.
        2   -1    0    0  501    0  0.00000000000E+00  0.00000000000E+00 -0.50170838864E+03  0.50170838865E+03  0.25500000920E-02 0. -1.
    10030    2    1    2    0    0  0.00000000000E+00  0.00000000000E+00  0.11326129723E+04  0.21360297496E+04  0.18110248331E+04 0.  0.
        3    1    3    3  502    0  0.67619899094E+03 -0.33610497963E+03  0.11557305958E+04  0.13805523724E+04  0.10100000352E+00 0.  1.
       -3    1    3    3    0  502 -0.67619899094E+03  0.33610497963E+03 -0.23117623538E+02  0.75547737716E+03  0.10100000352E+00 0. -1.
</event>
<event>
 5   0  0.7124495E-04  0.1563251E+04  0.7818609E-02  0.8843448E-01
       -1   -1    0    0    0  501  0.00000000000E+00  0.00000000000E+00  0.38813705643E+03  0.38813705646E+03  0.50400001928E-02 0.  1.
        1   -1    0    0  501    0  0.00000000000E+00  0.00000000000E+00 -0.15740280461E+04  0.15740280461E+04  0.50400001928E-02 0. -1.
    10030    2    1    2    0    0  0.00000000000E+00  0.00000000000E+00 -0.11858909897E+04  0.19621651026E+04  0.15632512435E+04 0.  0.
        2    1    3    3  502    0  0.56303909758E+03 -0.12293411295E+03  0.69824916545E+02  0.58051816553E+03  0.25500000920E-02 0.  1.
       -2    1    3    3    0  502 -0.56303909758E+03  0.12293411295E+03 -0.12557159062E+04  0.13816469371E+04  0.25500000920E-02 0. -1.
</event>
<event>
 5   0  0.1375777E-03  0.1581859E+04  0.7818609E-02  0.8831771E-01
        2   -1    0    0  501    0  0.00000000000E+00  0.00000000000E+00  0.10872344083E+04  0.10872344083E+04  0.25500000920E-02 0. -1.
       -2   -1    0    0    0  501  0.00000000000E+00  0.00000000000E+00 -0.57537647010E+03  0.57537647011E+03  0.25500000920E-02 0.  1.
    10030    2    1    2    0    0  0.00000000000E+00  0.00000000000E+00  0.51185793823E+03  0.16626108784E+04  0.15818585222E+04 0.  0.
        1    1    3    3  502    0 -0.10795075574E+03 -0.77098114049E+03  0.40271432265E+03  0.87649535672E+03  0.50400001928E-02 0. -1.
       -1    1    3    3    0  502  0.10795075574E+03  0.77098114049E+03  0.10914361559E+03  0.78611552173E+03  0.50400001928E-02 0.  1.
</event>
<event>
 5   0  0.7499834E-04  0.8727092E+03  0.7818609E-02  0.9460354E-01
        1   -1    0    0  501    0  0.00000000000E+00  0.00000000000E+00  0.64505641996E+03  0.64505641998E+03  0.50400001928E-02 0. -1.
       -1   -1    0    0    0  501  0.00000000000E+00  0.00000000000E+00 -0.29517625312E+03  0.29517625316E+03  0.50400001928E-02 0.  1.
    10030    2    1    2    0    0  0.00000000000E+00  0.00000000000E+00  0.34988016685E+03  0.94023267314E+03  0.87270920041E+03 0.  0.
        3    1    3    3  502    0  0.27508059854E+03 -0.33687043599E+03  0.21309641346E+03  0.48431510194E+03  0.10100000352E+00 0.  1.
       -3    1    3    3    0  502 -0.27508059854E+03  0.33687043599E+03  0.13678375339E+03  0.45591757120E+03  0.10100000352E+00 0. -1.
</event>
<event>
 5   0  0.7499834E-04  0.1625436E+04  0.7818609E-02  0.8805072E-01
        1   -1    0    0  501    0  0.00000000000E+00  0.00000000000E+00  0.10156884276E+04  0.10156884276E+04  0.50400001928E-02 0.  1.
       -1   -1    0    0    0  501  0.00000000000E+00  0.00000000000E+00 -0.65030861343E+03  0.65030861345E+03  0.50400001928E-02 0. -1.
    10030    2    1    2    0    0  0.00000000000E+00  0.00000000000E+00  0.36537981421E+03  0.16659970411E+04  0.16254364744E+04 0.  0.
        3    1    3    3  502    0  0.69909988574E+03 -0.17115619259E+03  0.56956861003E+03  0.91784721182E+03  0.10100000352E+00 0.  1.
       -3    1    3    3    0  502 -0.69909988574E+03  0.17115619259E+03 -0.20418879582E+03  0.74814982928E+03  0.10100000352E+00 0. -1.
</event>
<event>
 5   0  0.7601145E-04  0.1633405E+04  0.7818609E-02  0.8800285E-01
       -1   -1    0    0    0  501  0.00000000000E+00  0.00000000000E+00  0.12326025251E+04  0.12326025251E+04  0.50400001928E-02 0. -1.
        1   -1    0    0  501    0  0.00000000000E+00  0.00000000000E+00 -0.54113411884E+03  0.54113411886E+03  0.50400001928E-02 0.  1.
    10030    2    1    2    0    0  0.00000000000E+00  0.00000000000E+00  0.69146840625E+03  0.17737366440E+04  0.16334053769E+04 0.  0.
        4    1    3    3  502    0  0.57336356963E+03  0.49989418671E+03  0.22938936191E+02  0.76103074089E+03  0.12699999809E+01 0.  1.
       -4    1    3    3    0  502 -0.57336356963E+03 -0.49989418671E+03  0.66852947005E+03  0.10127059031E+04  0.12699999809E+01 0. -1.
</event>
<event>
 5   0  0.1414796E-03  0.1844034E+04  0.7818609E-02  0.8683227E-01
        2   -1    0    0  501    0  0.00000000000E+00  0.00000000000E+00  0.14900943787E+04  0.14900943787E+04  0.25500000920E-02 0.  1.
       -2   -1    0    0    0  501  0.00000000000E+00  0.00000000000E+00 -0.57051125391E+03  0.57051125391E+03  0.25500000920E-02 0. -1.
    10030    2    1    2    0    0  0.00000000000E+00  0.00000000000E+00  0.91958312479E+03  0.20606056326E+04  0.18440342865E+04 0.  0.
        4    1    3    3  502    0  0.53832972590E+03 -0.38358581869E+03  0.11780718920E+04  0.13508486110E+04  0.12699999809E+01 0.  1.
       -4    1    3    3    0  502 -0.53832972590E+03  0.38358581869E+03 -0.25848876723E+03  0.70975702164E+03  0.12699999809E+01 0. -1.
</event>
<event>
 5   0  0.7499834E-04  0.1609855E+04  0.7818609E-02  0.8814517E-01
       -1   -1    0    0    0  501  0.00000000000E+00  0.00000000000E+00  0.42226599120E+03  0.42226599123E+03  0.50400001928E-02 0. -1.
        1   -1    0    0  501    0  0.00000000000E+00  0.00000000000E+00 -0.15343597072E+04  0.15343597073E+04  0.50400001928E-02 0.  1.
    10030    2    1    2    0    0  0.00000000000E+00  0.00000000000E+00 -0.11120937160E+04  0.19566256985E+04  0.16098545558E+04 0.  0.
        3    1    3    3  502    0 -0.28788879352E+02  0.50421372066E+03 -0.13178332050E+04  0.14112918345E+04  0.10100000352E+00 0.  1.
       -3    1    3    3    0  502  0.28788879352E+02 -0.50421372066E+03  0.20573948898E+03  0.54533386398E+03  0.10100000352E+00 0. -1.
</event>
<event>
 5   0  0.1339162E-03  0.1583559E+04  0.7818609E-02  0.8830713E-01
        2   -1    0    0  501    0  0.00000000000E+00  0.00000000000E+00  0.84326067689E+03  0.84326067689E+03  0.25500000920E-02 0.  1.
       -2   -1    0    0    0  501  0.00000000000E+00  0.00000000000E+00 -0.74344094139E+03  0.74344094140E+03  0.25500000920E-02 0. -1.
    10030    2    1    2    0    0  0.00000000000E+00  0.00000000000E+00  0.99819735493E+02  0.15867016183E+04  0.15835586651E+04 0.  0.
        5    1    3    3  502    0 -0.39642639725E+03 -0.66670290890E+03 -0.10929464329E+03  0.78333521957E+03  0.46999998093E+01 0. -1.
       -5    1    3    3    0  502  0.39642639725E+03  0.66670290890E+03  0.20911437879E+03  0.80336639872E+03  0.46999998093E+01 0.  1.
</event>
<event>
 5   0  0.7499834E-04  0.1540440E+04  0.7818609E-02  0.8857998E-01
       -1   -1    0    0    0  501  0.00000000000E+00  0.00000000000E+00  0.10633991828E+04  0.10633991828E+04  0.50400001928E-02 0. -1.
        1   -1    0    0  501    0  0.00000000000E+00  0.00000000000E+00 -0.55787007868E+03  0.55787007870E+03  0.50400001928E-02 0.  1.
    10030    2    1    2    0    0  0.00000000000E+00  0.00000000000E+00  0.50552910407E+03  0.16212692615E+04  0.15404396590E+04 0.  0.
        3    1    3    3  502    0 -0.13629862621E+03  0.43150413605E+03 -0.40320948675E+03  0.60609490621E+03  0.10100000352E+00 0.  1.
       -3    1    3    3    0  502  0.13629862621E+03 -0.43150413605E+03  0.90873859082E+03  0.10151743553E+04  0.10100000352E+00 0. -1.
</event>
<event>
 5   0  0.1375777E-03  0.1601164E+04  0.7818609E-02  0.8819833E-01
        2   -1    0    0  501    0  0.00000000000E+00  0.00000000000E+00  0.16425240269E+04  0.16425240269E+04  0.25500000920E-02 0.  1.
       -2   -1    0    0    0  501  0.00000000000E+00  0.00000000000E+00 -0.39021154886E+03  0.39021154887E+03  0.25500000920E-02 0. -1.
    10030    2    1    2    0    0  0.00000000000E+00  0.00000000000E+00  0.12523124780E+04  0.20327355757E+04  0.16011643820E+04 0.  0.
        1    1    3    3  502    0  0.54498086972E+02 -0.47162505044E+02  0.16383971424E+04  0.16399815669E+04  0.50400001928E-02 0.  1.
       -1    1    3    3    0  502 -0.54498086972E+02  0.47162505044E+02 -0.38608466441E+03  0.39275400887E+03  0.50400001928E-02 0. -1.
</event>
<event>
 5   0  0.7499834E-04  0.1523526E+04  0.7818609E-02  0.8868957E-01
        1   -1    0    0  501    0  0.00000000000E+00  0.00000000000E+00  0.62088997160E+03  0.62088997162E+03  0.50400001928E-02 0. -1.
       -1   -1    0    0    0  501  0.00000000000E+00  0.00000000000E+00 -0.93459873146E+03  0.93459873147E+03  0.50400001928E-02 0.  1.
    10030    2    1    2    0    0  0.00000000000E+00  0.00000000000E+00 -0.31370875986E+03  0.15554887031E+04  0.15235261466E+04 0.  0.
        3    1    3    3  502    0  0.62412073293E+03 -0.40406644073E+03 -0.32612336740E+03  0.81188228134E+03  0.10100000352E+00 0.  1.
       -3    1    3    3    0  502 -0.62412073293E+03  0.40406644073E+03  0.12414607543E+02  0.74360642175E+03  0.10100000352E+00 0. -1.
</event>
<event>
 5   0  0.1339162E-03  0.1175259E+04  0.7818609E-02  0.9134792E-01
        2   -1    0    0  501    0  0.00000000000E+00  0.00000000000E+00  0.13182377578E+04  0.13182377578E+04  0.25500000920E-02 0. -1.
       -2   -1    0    0    0  501  0.00000000000E+00  0.00000000000E+00 -0.26194689397E+03  0.26194689398E+03  0.25500000920E-02 0.  1.
    10030    2    1    2    0    0  0.00000000000E+00  0.00000000000E+00  0.10562908638E+04  0.15801846517E+04  0.11752587565E+04 0.  0.
        5    1    3    3  502    0  0.45564702845E+03  0.41808688639E+02  0.10238494521E+04  0.11214508333E+04  0.46999998093E+01 0. -1.
       -5    1    3    3    0  502 -0.45564702845E+03 -0.41808688639E+02  0.32441411700E+02  0.45873381844E+03  0.46999998093E+01 0.  1.
</event>
<event>
 5   0  0.1354766E-03  0.1105976E+04  0.7818609E-02  0.9199387E-01
        2   -1    0    0  501    0  0.00000000000E+00  0.00000000000E+00  0.13873088469E+04  0.13873088469E+04  0.25500000920E-02 0. -1.
       -2   -1    0    0    0  501  0.00000000000E+00  0.00000000000E+00 -0.22042353901E+03  0.22042353902E+03  0.25500000920E-02 0.  1.
    10030    2    1    2    0    0  0.00000000000E+00  0.00000000000E+00  0.11668853079E+04  0.16077323859E+04  0.11059756340E+04 0.  0.
        3    1    3    3  502    0  0.53286981512E+03 -0.76240083022E+02  0.76750793510E+03  0.93745998888E+03  0.10100000352E+00 0.  1.
       -3    1    3    3    0  502 -0.53286981512E+03  0.76240083022E+02  0.39937737277E+03  0.67027239702E+03  0.10100000352E+00 0. -1.
</event>
<event>
 5   0  0.1354766E-03  0.1558443E+04  0.7818609E-02  0.8846493E-01
        2   -1    0    0  501    0  0.00000000000E+00  0.00000000000E+00  0.11515740480E+04  0.11515740480E+04  0.25500000920E-02 0.  1.
       -2   -1    0    0    0  501  0.00000000000E+00  0.00000000000E+00 -0.52726639498E+03  0.52726639499E+03  0.25500000920E-02 0. -1.
    10030    2    1    2    0    0  0.00000000000E+00  0.00000000000E+00  0.62430765303E+03  0.16788404430E+04  0.15584431935E+04 0.  0.
        3    1    3    3  502    0  0.35540345648E+03 -0.53732570102E+03  0.78437466801E+03  0.10150242144E+04  0.10100000352E+00 0.  1.
       -3    1    3    3    0  502 -0.35540345648E+03  0.53732570102E+03 -0.16006701497E+03  0.66381622859E+03  0.10100000352E+00 0. -1.
</event>
<event>
 5   0  0.7633213E-04  0.1586501E+04  0.7818609E-02  0.8828884E-01
       -1   -1    0    0    0  501  0.00000000000E+00  0.00000000000E+00  0.50585888210E+03  0.50585888213E+03  0.50400001928E-02 0.  1.
        1   -1    0    0  501    0  0.00000000000E+00  0.00000000000E+00 -0.12439166423E+04  0.12439166423E+04  0.50400001928E-02 0. -1.
    10030    2    1    2    0    0  0.00000000000E+00  0.00000000000E+00 -0.73805776017E+03  0.17497755244E+04  0.15865009072E+04 0.  0.
        1    1    3    3  502    0  0.22918947235E+03  0.37521337007E+02  0.46752363074E+03  0.52202874470E+03  0.50400001928E-02 0.  1.
       -1    1    3    3    0  502 -0.22918947235E+03 -0.37521337007E+02 -0.12055813909E+04  0.12277467797E+04  0.50400001928E-02 0. -1.
</event>
<event>
 5   0  0.7601145E-04  0.1508904E+04  0.7818609E-02  0.8878553E-01
       -1   -1    0    0    0  501  0.00000000000E+00  0.00000000000E+00  0.34915311853E+03  0.34915311856E+03  0.50400001928E-02 0. -1.
        1   -1    0    0  501    0  0.00000000000E+00  0.00000000000E+00 -0.16302238324E+04  0.16302238324E+04  0.50400001928E-02 0.  1.
    10030    2    1    2    0    0  0.00000000000E+00  0.00000000000E+00 -0.12810707139E+04  0.19793769510E+04  0.15089038870E+04 0.  0.
        4    1    3    3  502    0  0.57575868283E+03 -0.23681081172E+03 -0.11995809313E+04  0.13515078413E+04  0.12699999809E+01 0.  1.
       -4    1    3    3    0  502 -0.57575868283E+03  0.23681081172E+03 -0.81489782632E+02  0.62786910975E+03  0.12699999809E+01 0. -1.
</event>
<event>
 5   0  0.7633213E-04  0.1614611E+04  0.7818609E-02  0.8811622E-01
        1   -1    0    0  501    0  0.00000000000E+00  0.00000000000E+00  0.95483118844E+03  0.95483118845E+03  0.50400001928E-02 0. -1.
       -1   -1    0    0    0  501  0.00000000000E+00  0.00000000000E+00 -0.68257358695E+03  0.68257358697E+03  0.50400001928E-02 0.  1.
    10030    2    1    2    0    0  0.00000000000E+00  0.00000000000E+00  0.27225760149E+03  0.16374047754E+04  0.16146114694E+04 0.  0.
        1    1    3    3  502    0  0.12165687576E+03 -0.62919771295E+03 -0.36177305166E+03  0.73591432812E+03  0.50400001928E-02 0.  1.
       -1    1    3    3    0  502 -0.12165687576E+03  0.62919771295E+03  0.63403065315E+03  0.90149044730E+03  0.50400001928E-02 0. -1.
</event>
<event>
 5   0  0.5095750E-04  0.1683424E+04  0.7818609E-02  0.8770875E-01
        3   -1    0    0  501    0  0.00000000000E+00  0.00000000000E+00  0.78517025919E+03  0.78517026569E+03  0.10100000352E+00 0.  1.
       -3   -1    0    0    0  501  0.00000000000E+00  0.00000000000E+00 -0.90232564205E+03  0.90232564770E+03  0.10100000352E+00 0. -1.
    10030    2    1    2    0    0  0.00000000000E+00  0.00000000000E+00 -0.11715538286E+03  0.16874959134E+04  0.16834242109E+04 0.  0.
        1    1    3    3  502    0  0.29356172342E+02 -0.70620103504E+03  0.39958093397E+03  0.81194002831E+03  0.50400001928E-02 0.  1.
       -1    1    3    3    0  502 -0.29356172342E+02  0.70620103504E+03 -0.51673631683E+03  0.87555588508E+03  0.50400001928E-02 0. -1.
</event>
<event>
 5   0  0.7302027E-04  0.1634798E+04  0.7818609E-02  0.8799451E-01
       -1   -1    0    0    0  501  0.00000000000E+00  0.00000000000E+00  0.56362435248E+03  0.56362435251E+03  0.50400001928E-02 0.  1.
        1   -1    0    0  501    0  0.00000000000E+00  0.00000000000E+00 -0.11854371817E+04  0.11854371817E+04  0.50400001928E-02 0. -1.
    10030    2    1    2    0    0  0.00000000000E+00  0.00000000000E+00 -0.62181282922E+03  0.17490615342E+04  0.16347981698E+04 0.  0.
        5    1    3    3  502    0 -0.58086366039E+03  0.55901512404E+03 -0.45531709618E+03  0.92587053573E+03  0.46999998093E+01 0. -1.
       -5    1    3    3    0  502  0.58086366039E+03 -0.55901512404E+03 -0.16649573304E+03  0.82319099848E+03  0.46999998093E+01 0.  1.
</event>
<event>
 5   0  0.7601145E-04  0.1568353E+04  0.7818609E-02  0.8840230E-01
       -1   -1    0    0    0  501  0.00000000000E+00  0.00000000000E+00  0.15058781061E+04  0.15058781061E+04  0.50400001928E-02 0. -1.
        1   -1    0    0  501    0  0.00000000000E+00  0.00000000000E+00 -0.40835481002E+03  0.40835481005E+03  0.50400001928E-02 0.  1.
    10030    2    1    2    0    0  0.00000000000E+00  0.00000000000E+00  0.10975232961E+04  0.19142329162E+04  0.15683527256E+04 0.  0.
        4    1    3    3  502    0  0.54604702065E+03  0.41725092828E+03  0.10097714579E+04  0.12214359157E+04  0.12699999809E+01 0. -1.
       -4    1    3    3    0  502 -0.54604702065E+03 -0.41725092828E+03  0.87751838162E+02  0.69279700051E+03  0.12699999809E+01 0.  1.
</event>
<event>
 5   0  0.7124495E-04  0.1651518E+04  0.7818609E-02  0.8789509E-01
        1   -1    0    0  501    0  0.00000000000E+00  0.00000000000E+00  0.88433496110E+03  0.88433496112E+03  0.50400001928E-02 0. -1.
       -1   -1    0    0    0  501  0.00000000000E+00  0.00000000000E+00 -0.77106273988E+03  0.77106273990E+03  0.50400001928E-02 0.  1.
    10030    2    1    2    0    0  0.00000000000E+00  0.00000000000E+00  0.11327222122E+03  0.16553977010E+04  0.16515177724E+04 0.  0.
        2    1    3    3  502    0  0.23607003166E+01 -0.27453260631E+03  0.83724939109E+03  0.88111308453E+03  0.25500000920E-02 0. -1.
       -2    1    3    3    0  502 -0.23607003166E+01  0.27453260631E+03 -0.72397716987E+03  0.77428461649E+03  0.25500000920E-02 0.  1.
</event>
<event>
 5   0  0.1414751E-03  0.1599484E+04  0.7818609E-02  0.8820865E-01
        2   -1    0    0  501    0  0.00000000000E+00  0.00000000000E+00  0.48884552435E+03  0.48884552436E+03  0.25500000920E-02 0.  1.
       -2   -1    0    0    0  501  0.00000000000E+00  0.00000000000E+00 -0.13083620294E+04  0.13083620294E+04  0.25500000920E-02 0. -1.
    10030    2    1    2    0    0  0.00000000000E+00  0.00000000000E+00 -0.81951650506E+03  0.17972075538E+04  0.15994835695E+04 0.  0.
        2    1    3    3  502    0  0.60856632287E+03  0.44808404141E+03 -0.70373969245E+03  0.10326576549E+04  0.25500000920E-02 0. -1.
       -2    1    3    3    0  502 -0.60856632287E+03 -0.44808404141E+03 -0.11577681261E+03  0.76454989886E+03  0.25500000920E-02 0.  1.
</event>
<event>
 5   0  0.7302027E-04  0.1194815E+04  0.7818609E-02  0.9117407E-01
        1   -1    0    0  501    0  0.00000000000E+00  0.00000000000E+00  0.94721826794E+03  0.94721826796E+03  0.50400001928E-02 0.  1.
       -1   -1    0    0    0  501  0.00000000000E+00  0.00000000000E+00 -0.37678319994E+03  0.37678319997E+03  0.50400001928E-02 0. -1.
    10030    2    1    2    0    0  0.00000000000E+00  0.00000000000E+00  0.57043506800E+03  0.13240014679E+04  0.11948153499E+04 0.  0.
        5    1    3    3  502    0  0.25126260917E+03  0.23052637853E+03  0.82876084820E+03  0.89618186964E+03  0.46999998093E+01 0.  1.
       -5    1    3    3    0  502 -0.25126260917E+03 -0.23052637853E+03 -0.25832578020E+03  0.42781959829E+03  0.46999998093E+01 0. -1.
</event>
<event>
 5   0  0.7499834E-04  0.1522676E+04  0.7818609E-02  0.8869512E-01
        1   -1    0    0  501    0  0.00000000000E+00  0.00000000000E+00  0.12789567836E+04  0.12789567836E+04  0.50400001928E-02 0.  1.
       -1   -1    0    0    0  501  0.00000000000E+00  0.00000000000E+00 -0.45320992482E+03  0.45320992485E+03  0.50400001928E-02 0. -1.
    10030    2    1    2    0    0  0.00000000000E+00  0.00000000000E+00  0.82574685880E+03  0.17321667085E+04  0.15226764696E+04 0.  0.
        3    1    3    3  502    0 -0.47514714481E+03  0.19526127926E+03  0.10520924472E+04  0.11708075436E+04  0.10100000352E+00 0.  1.
       -3    1    3    3    0  502  0.47514714481E+03 -0.19526127926E+03 -0.22634558844E+03  0.56135916489E+03  0.10100000352E+00 0. -1.
</event>
<event>
 5   0  0.1414751E-03  0.1601732E+04  0.7818609E-02  0.8819485E-01
       -2   -1    0    0    0  501  0.00000000000E+00  0.00000000000E+00  0.36335515519E+03  0.36335515520E+03  0.25500000920E-02 0. -1.
        2   -1    0    0  501    0  0.00000000000E+00  0.00000000000E+00 -0.17651771499E+04  0.17651771499E+04  0.25500000920E-02 0.  1.
    10030    2    1    2    0    0  0.00000000000E+00  0.00000000000E+00 -0.14018219947E+04  0.21285323051E+04  0.16017318343E+04 0.  0.
        2    1    3    3  502    0 -0.57984128464E+03  0.55174494476E+03 -0.66457071165E+03  0.10403329420E+04  0.25500000920E-02 0. -1.
       -2    1    3    3    0  502  0.57984128464E+03 -0.55174494476E+03 -0.73725128303E+03  0.10881993631E+04  0.25500000920E-02 0.  1.
</event>
<event>
 5   0  0.7124495E-04  0.1625797E+04  0.7818609E-02  0.8804855E-01
       -1   -1    0    0    0  501  0.00000000000E+00  0.00000000000E+00  0.29895145156E+03  0.29895145160E+03  0.50400001928E-02 0. -1.
        1   -1    0    0  501    0  0.00000000000E+00  0.00000000000E+00 -0.22104069673E+04  0.22104069673E+04  0.50400001928E-02 0.  1.
    10030    2    1    2    0    0  0.00000000000E+00  0.00000000000E+00 -0.19114555157E+04  0.25093584189E+04  0.16257974922E+04 0.  0.
        2    1    3    3  502    0  0.42730521540E+03 -0.57343339501E+03 -0.15522892517E+04  0.17090984543E+04  0.25500000920E-02 0.  1.
       -2    1    3    3    0  502 -0.42730521540E+03  0.57343339501E+03 -0.35916626398E+03  0.80025996452E+03  0.25500000920E-02 0. -1.
</event>
<event>
 5   0  0.7302027E-04  0.1617462E+04  0.7818609E-02  0.8809892E-01
        1   -1    0    0  501    0  0.00000000000E+00  0.00000000000E+00  0.16177830373E+04  0.16177830373E+04  0.50400001928E-02 0.  1.
       -1   -1    0    0    0  501  0.00000000000E+00  0.00000000000E+00 -0.40428501688E+03  0.40428501691E+03  0.50400001928E-02 0. -1.
    10030    2    1    2    0    0  0.00000000000E+00  0.00000000000E+00  0.12134980205E+04  0.20220680543E+04  0.16174615205E+04 0.  0.
        5    1    3    3  502    0 -0.45947758266E+03 -0.66490767834E+03  0.57135669753E+03  0.98979413794E+03  0.46999998093E+01 0.  1.
       -5    1    3    3    0  502  0.45947758266E+03  0.66490767834E+03  0.64214132294E+03  0.10322739163E+04  0.46999998093E+01 0. -1.
</event>
<event>
 5   0  0.1375777E-03  0.1582263E+04  0.7818609E-02  0.8831519E-01
        2   -1    0    0  501    0  0.00000000000E+00  0.00000000000E+00  0.11636099047E+04  0.11636099047E+04  0.25500000920E-02 0.  1.
       -2   -1    0    0    0  501  0.00000000000E+00  0.00000000000E+00 -0.53788552031E+03  0.53788552032E+03  0.25500000920E-02 0. -1.
    10030    2    1    2    0    0  0.00000000000E+00  0.00000000000E+00  0.62572438435E+03  0.17014954250E+04  0.15822628341E+04 0.  0.
        1    1    3    3  502    0 -0.77058884384E+03 -0.12811926836E+03  0.17826130169E+03  0.80124827918E+03  0.50400001928E-02 0. -1.
       -1    1    3    3    0  502  0.77058884384E+03  0.12811926836E+03  0.44746308266E+03  0.90024714581E+03  0.50400001928E-02 0.  1.
</event>
<event>
 5   0  0.1414751E-03  0.1522877E+04  0.7818609E-02  0.8869381E-01
        2   -1    0    0  501    0  0.00000000000E+00  0.00000000000E+00  0.10549558094E+04  0.10549558094E+04  0.25500000920E-02 0.  1.
       -2   -1    0    0    0  501  0.00000000000E+00  0.00000000000E+00 -0.54958598668E+03  0.54958598669E+03  0.25500000920E-02 0. -1.
    10030    2    1    2    0    0  0.00000000000E+00  0.00000000000E+00  0.50536982275E+03  0.16045417961E+04  0.15228774467E+04 0.  0.
        2    1    3    3  502    0 -0.21605896457E+03  0.57179205710E+02  0.10196182683E+04  0.10438258239E+04  0.25500000920E-02 0.  1.
       -2    1    3    3    0  502  0.21605896457E+03 -0.57179205710E+02 -0.51424844552E+03  0.56071597218E+03  0.25500000920E-02 0. -1.
</event>
<event>
 5   0  0.1375777E-03  0.1609591E+04  0.7818609E-02  0.8814678E-01
       -2   -1    0    0    0  501  0.00000000000E+00  0.00000000000E+00  0.62747912108E+03  0.62747912108E+03  0.25500000920E-02 0.  1.
        2   -1    0    0  501    0  0.00000000000E+00  0.00000000000E+00 -0.10322183342E+04  0.10322183342E+04  0.25500000920E-02 0. -1.
    10030    2    1    2    0    0  0.00000000000E+00  0.00000000000E+00 -0.40473921309E+03  0.16596974553E+04  0.16095905729E+04 0.  0.
        1    1    3    3  502    0 -0.59075678605E+03 -0.13348312975E+03 -0.74885317347E+03  0.96311598555E+03  0.50400001928E-02 0. -1.
       -1    1    3    3    0  502  0.59075678605E+03  0.13348312975E+03  0.34411396037E+03  0.69658146971E+03  0.50400001928E-02 0.  1.
</event>
<event>
 5   0  0.1339162E-03  0.1572457E+04  0.7818609E-02  0.8837650E-01
        2   -1    0    0  501    0  0.00000000000E+00  0.00000000000E+00  0.14899336911E+04  0.14899336911E+04  0.25500000920E-02 0. -1.
       -2   -1    0    0    0  501  0.00000000000E+00  0.00000000000E+00 -0.41488769066E+03  0.41488769067E+03  0.25500000920E-02 0.  1.
    10030    2    1    2    0    0  0.00000000000E+00  0.00000000000E+00  0.10750460005E+04  0.19048213818E+04  0.15724568654E+04 0.  0.
        5    1    3    3  502    0  0.21787815087E+02 -0.15948522212E+03  0.14697422852E+04  0.14785380346E+04  0.46999998093E+01 0. -1.
       -5    1    3    3    0  502 -0.21787815087E+02  0.15948522212E+03 -0.39469628469E+03  0.42628334721E+03  0.46999998093E+01 0.  1.
</event>
<event>
 5   0  0.1414796E-03  0.1563814E+04  0.7818609E-02  0.8843092E-01
        2   -1    0    0  501    0  0.00000000000E+00  0.00000000000E+00  0.12645502969E+04  0.12645502970E+04  0.25500000920E-02 0.  1.
       -2   -1    0    0    0  501  0.00000000000E+00  0.00000000000E+00 -0.48347536088E+03  0.48347536088E+03  0.25500000920E-02 0. -1.
    10030    2    1    2    0    0  0.00000000000E+00  0.00000000000E+00  0.78107493607E+03  0.17480256578E+04  0.15638144534E+04 0.  0.
        4    1    3    3  502    0  0.12706735997E+03  0.28101990936E+03  0.11936869730E+04  0.12328862502E+04  0.12699999809E+01 0.  1.
       -4    1    3    3    0  502 -0.12706735997E+03 -0.28101990936E+03 -0.41261203693E+03  0.51513940768E+03  0.12699999809E+01 0. -1.
</event>
<event>
 5   0  0.1375777E-03  0.1587665E+04  0.7818609E-02  0.8828162E-01
        2   -1    0    0  501    0  0.00000000000E+00  0.00000000000E+00  0.91364984183E+03  0.91364984183E+03  0.25500000920E-02 0.  1.
       -2   -1    0    0    0  501  0.00000000000E+00  0.00000000000E+00 -0.68972787051E+03  0.68972787051E+03  0.25500000920E-02 0. -1.
    10030    2    1    2    0    0  0.00000000000E+00  0.00000000000E+00  0.22392197132E+03  0.16033777123E+04  0.15876646495E+04 0.  0.
        1    1    3    3  502    0 -0.12472118401E+03 -0.28013920262E+03  0.85142104226E+03  0.90495919124E+03  0.50400001928E-02 0.  1.
       -1    1    3    3    0  502  0.12472118401E+03  0.28013920262E+03 -0.62749907093E+03  0.69841852111E+03  0.50400001928E-02 0. -1.
</event>
<event>
 5   0  0.7124495E-04  0.1587559E+04  0.7818609E-02  0.8828228E-01
        1   -1    0    0  501    0  0.00000000000E+00  0.00000000000E+00  0.72550224183E+03  0.72550224185E+03  0.50400001928E-02 0. -1.
       -1   -1    0    0    0  501  0.00000000000E+00  0.00000000000E+00 -0.86848210969E+03  0.86848210971E+03  0.50400001928E-02 0.  1.
    10030    2    1    2    0    0  0.00000000000E+00  0.00000000000E+00 -0.14297986786E+03  0.15939843516E+04  0.15875587770E+04 0.  0.
        2    1    3    3  502    0  0.35765862032E+03 -0.65250741388E+03 -0.34901436071E+03  0.82188602485E+03  0.25500000920E-02 0.  1.
       -2    1    3    3    0  502 -0.35765862032E+03  0.65250741388E+03  0.20603449284E+03  0.77209832671E+03  0.25500000920E-02 0. -1.
</event>
<event>
 5   0  0.1414751E-03  0.1576540E+04  0.7818609E-02  0.8835091E-01
        2   -1    0    0  501    0  0.00000000000E+00  0.00000000000E+00  0.13285125880E+04  0.13285125880E+04  0.25500000920E-02 0. -1.
       -2   -1    0    0    0  501  0.00000000000E+00  0.00000000000E+00 -0.46771823340E+03  0.46771823341E+03  0.25500000920E-02 0.  1.
    10030    2    1    2    0    0  0.00000000000E+00  0.00000000000E+00  0.86079435461E+03  0.17962308214E+04  0.15765399592E+04 0.  0.
        2    1    3    3  502    0 -0.57003145977E+03  0.32053272487E+03  0.93183088794E+03  0.11384137633E+04  0.25500000920E-02 0. -1.
       -2    1    3    3    0  502  0.57003145977E+03 -0.32053272487E+03 -0.71036533329E+02  0.65781705809E+03  0.25500000920E-02 0.  1.
</event>
<event>
 5   0  0.1354766E-03  0.1610213E+04  0.7818609E-02  0.8814298E-01
        2   -1    0    0  501    0  0.00000000000E+00  0.00000000000E+00  0.16027120102E+04  0.16027120102E+04  0.25500000920E-02 0.  1.
       -2   -1    0    0    0  501  0.00000000000E+00  0.00000000000E+00 -0.40443725866E+03  0.40443725867E+03  0.25500000920E-02 0. -1.
    10030    2    1    2    0    0  0.00000000000E+00  0.00000000000E+00  0.11982747515E+04  0.20071492689E+04  0.16102129696E+04 0.  0.
        3    1    3    3  502    0 -0.63746675128E+03 -0.33678280983E+03  0.15245826625E+03  0.73690572880E+03  0.10100000352E+00 0. -1.
       -3    1    3    3    0  502  0.63746675128E+03  0.33678280983E+03  0.10458164853E+04  0.12702435401E+04  0.10100000352E+00 0.  1.
</event>
<event>
 5   0  0.5095750E-04  0.1626728E+04  0.7818609E-02  0.8804294E-01
       -4   -1    0    0    0  501  0.00000000000E+00  0.00000000000E+00  0.51894320422E+03  0.51894475824E+03  0.12699999809E+01 0. -1.
        4   -1    0    0  501    0  0.00000000000E+00  0.00000000000E+00 -0.12748195609E+04  0.12748201935E+04  0.12699999809E+01 0.  1.
    10030    2    1    2    0    0  0.00000000000E+00  0.00000000000E+00 -0.75587635666E+03  0.17937649517E+04  0.16267278922E+04 0.  0.
        2    1    3    3  502    0 -0.29970114666E+03  0.36807941890E+03  0.35038169427E+03  0.58997505677E+03  0.25500000920E-02 0. -1.
       -2    1    3    3    0  502  0.29970114666E+03 -0.36807941890E+03 -0.11062580509E+04  0.12037898949E+04  0.25500000920E-02 0.  1.
</event>
<event>
 5   0  0.1375777E-03  0.1240407E+04  0.7818609E-02  0.9078206E-01
        2   -1    0    0  501    0  0.00000000000E+00  0.00000000000E+00  0.19661757246E+04  0.19661757246E+04  0.25500000920E-02 0. -1.
       -2   -1    0    0    0  501  0.00000000000E+00  0.00000000000E+00 -0.19563474657E+03  0.19563474659E+03  0.25500000920E-02 0.  1.
    10030    2    1    2    0    0  0.00000000000E+00  0.00000000000E+00  0.17705409780E+04  0.21618104712E+04  0.12404068520E+04 0.  0.
        1    1    3    3  502    0 -0.25764784094E+03  0.56130954092E+03  0.78665871234E+03  0.10001413602E+04  0.50400001928E-02 0.  1.
       -1    1    3    3    0  502  0.25764784094E+03 -0.56130954092E+03  0.98388226570E+03  0.11616691110E+04  0.50400001928E-02 0. -1.
</event>
<event>
 5   0  0.7633213E-04  0.1576234E+04  0.7818609E-02  0.8835283E-01
       -1   -1    0    0    0  501  0.00000000000E+00  0.00000000000E+00  0.77232147051E+03  0.77232147052E+03  0.50400001928E-02 0. -1.
        1   -1    0    0  501    0  0.00000000000E+00  0.00000000000E+00 -0.80423515895E+03  0.80423515897E+03  0.50400001928E-02 0.  1.
    10030    2    1    2    0    0  0.00000000000E+00  0.00000000000E+00 -0.31913688444E+02  0.15765566295E+04  0.15762335875E+04 0.  0.
        1    1    3    3  502    0  0.17932315105E+03 -0.65131363082E+01 -0.78353113281E+03  0.80381605455E+03  0.50400001928E-02 0.  1.
       -1    1    3    3    0  502 -0.17932315105E+03  0.65131363082E+01  0.75161744437E+03  0.77274057494E+03  0.50400001928E-02 0. -1.
</event>
<event>
 5   0  0.1414751E-03  0.1612481E+04  0.7818609E-02  0.8812917E-01
        2   -1    0    0  501    0  0.00000000000E+00  0.00000000000E+00  0.14210517121E+04  0.14210517121E+04  0.25500000920E-02 0.  1.
       -2   -1    0    0    0  501  0.00000000000E+00  0.00000000000E+00 -0.45742464499E+03  0.45742464500E+03  0.25500000920E-02 0. -1.
    10030    2    1    2    0    0  0.00000000000E+00  0.00000000000E+00  0.96362706713E+03  0.18784763571E+04  0.16124814107E+04 0.  0.
        2    1    3    3  502    0  0.26062766620E+03 -0.61298796717E+01  0.13705945899E+04  0.13951680493E+04  0.25500000920E-02 0.  1.
       -2    1    3    3    0  502 -0.26062766620E+03  0.61298796717E+01 -0.40696752279E+03  0.48330830784E+03  0.25500000920E-02 0. -1.
</event>
<event>
 5   0  0.7302027E-04  0.1608426E+04  0.7818609E-02  0.8815388E-01
       -1   -1    0    0    0  501  0.00000000000E+00  0.00000000000E+00  0.45488057574E+03  0.45488057577E+03  0.50400001928E-02 0.  1.
        1   -1    0    0  501    0  0.00000000000E+00  0.00000000000E+00 -0.14218214011E+04  0.14218214011E+04  0.50400001928E-02 0. -1.
    10030    2    1    2    0    0  0.00000000000E+00  0.00000000000E+00 -0.96694082535E+03  0.18767019769E+04  0.16084264827E+04 0.  0.
        5    1    3    3  502    0  0.17085068356E+03 -0.78333718478E+03 -0.41032680785E+03  0.90066491015E+03  0.46999998093E+01 0. -1.
       -5    1    3    3    0  502 -0.17085068356E+03  0.78333718478E+03 -0.55661401750E+03  0.97603706672E+03  0.46999998093E+01 0.  1.
</event>
<event>
 5   0  0.1339162E-03  0.1623805E+04  0.7818609E-02  0.8806056E-01
        2   -1    0    0  501    0  0.00000000000E+00  0.00000000000E+00  0.16891974198E+04  0.16891974198E+04  0.25500000920E-02 0.  1.
       -2   -1    0    0    0  501  0.00000000000E+00  0.00000000000E+00 -0.39023581762E+03  0.39023581763E+03  0.25500000920E-02 0. -1.
    10030    2    1    2    0    0  0.00000000000E+00  0.00000000000E+00  0.12989616021E+04  0.20794332374E+04  0.16238045895E+04 0.  0.
        5    1    3    3  502    0  0.35397133153E+03 -0.29735819448E+02 -0.28542537169E+03  0.45570786180E+03  0.46999998093E+01 0. -1.
       -5    1    3    3    0  502 -0.35397133153E+03  0.29735819448E+02  0.15843869738E+04  0.16237253756E+04  0.46999998093E+01 0.  1.
</event>
<event>
 5   0  0.7601145E-04  0.1646839E+04  0.7818609E-02  0.8792279E-01
       -1   -1    0    0    0  501  0.00000000000E+00  0.00000000000E+00  0.84554206602E+03  0.84554206603E+03  0.50400001928E-02 0.  1.
        1   -1    0    0  501    0  0.00000000000E+00  0.00000000000E+00 -0.80187597455E+03  0.80187597456E+03  0.50400001928E-02 0. -1.
    10030    2    1    2    0    0  0.00000000000E+00  0.00000000000E+00  0.43666091468E+02  0.16474180406E+04  0.16468392371E+04 0.  0.
        4    1    3    3  502    0 -0.51344141481E+02  0.47220677387E+02  0.84257996275E+03  0.84546355319E+03  0.12699999809E+01 0.  1.
       -4    1    3    3    0  502  0.51344141481E+02 -0.47220677387E+02 -0.79891387128E+03  0.80195448740E+03  0.12699999809E+01 0. -1.
</event>
<event>
 5   0  0.1414796E-03  0.1704150E+04  0.7818609E-02  0.8759001E-01
       -2   -1    0    0    0  501  0.00000000000E+00  0.00000000000E+00  0.11861956084E+04  0.11861956084E+04  0.25500000920E-02 0.  1.
        2   -1    0    0  501    0  0.00000000000E+00  0.00000000000E+00 -0.61206771666E+03  0.61206771666E+03  0.25500000920E-02 0. -1.
    10030    2    1    2    0    0  0.00000000000E+00  0.00000000000E+00  0.57412789174E+03  0.17982633251E+04  0.17041502722E+04 0.  0.
        4    1    3    3  502    0  0.82458510517E+03  0.11396794101E+03  0.95079140727E+02  0.83783706241E+03  0.12699999809E+01 0. -1.
       -4    1    3    3    0  502 -0.82458510517E+03 -0.11396794101E+03  0.47904875101E+03  0.96042626265E+03  0.12699999809E+01 0.  1.
</event>
<event>
 5   0  0.7633213E-04  0.1595243E+04  0.7818609E-02  0.8823476E-01
        1   -1    0    0  501    0  0.00000000000E+00  0.00000000000E+00  0.14618709824E+04  0.14618709824E+04  0.50400001928E-02 0. -1.
       -1   -1    0    0    0  501  0.00000000000E+00  0.00000000000E+00 -0.43519585601E+03  0.43519585604E+03  0.50400001928E-02 0.  1.
    10030    2    1    2    0    0  0.00000000000E+00  0.00000000000E+00  0.10266751264E+04  0.18970668384E+04  0.15952431709E+04 0.  0.
        1    1    3    3  502    0 -0.24003104029E+03 -0.61313826867E+03 -0.21997348983E+02  0.65881508802E+03  0.50400001928E-02 0.  1.
       -1    1    3    3    0  502  0.24003104029E+03  0.61313826867E+03  0.10486724753E+04  0.12382517504E+04  0.50400001928E-02 0. -1.
</event>
<event>
 5   0  0.1375777E-03  0.1653924E+04  0.7818609E-02  0.8788088E-01
        2   -1    0    0  501    0  0.00000000000E+00  0.00000000000E+00  0.16400400732E+04  0.16400400732E+04  0.25500000920E-02 0.  1.
       -2   -1    0    0    0  501  0.00000000000E+00  0.00000000000E+00 -0.41698142141E+03  0.41698142142E+03  0.25500000920E-02 0. -1.
    10030    2    1    2    0    0  0.00000000000E+00  0.00000000000E+00  0.12230586518E+04  0.20570214946E+04  0.16539241106E+04 0.  0.
        1    1    3    3  502    0  0.22330142124E+03 -0.74995182023E+03  0.27879019362E+03  0.83067155331E+03  0.50400001928E-02 0. -1.
       -1    1    3    3    0  502 -0.22330142124E+03  0.74995182023E+03  0.94426845813E+03  0.12263499413E+04  0.50400001928E-02 0.  1.
</event>
<event>
 5   0  0.7601145E-04  0.1607941E+04  0.7818609E-02  0.8815684E-01
        1   -1    0    0  501    0  0.00000000000E+00  0.00000000000E+00  0.12430018407E+04  0.12430018407E+04  0.50400001928E-02 0. -1.
       -1   -1    0    0    0  501  0.00000000000E+00  0.00000000000E+00 -0.52000613839E+03  0.52000613841E+03  0.50400001928E-02 0.  1.
    10030    2    1    2    0    0  0.00000000000E+00  0.00000000000E+00  0.72299570228E+03  0.17630079791E+04  0.16079410278E+04 0.  0.
        4    1    3    3  502    0  0.31183562779E+03 -0.11310614335E+03 -0.44147567124E+03  0.55221086518E+03  0.12699999809E+01 0.  1.
       -4    1    3    3    0  502 -0.31183562779E+03  0.11310614335E+03  0.11644713735E+04  0.12107971139E+04  0.12699999809E+01 0. -1.
</event>
<event>
 5   0  0.1354766E-03  0.1560563E+04  0.7818609E-02  0.8845149E-01
       -2   -1    0    0    0  501  0.00000000000E+00  0.00000000000E+00  0.31608918121E+03  0.31608918122E+03  0.25500000920E-02 0. -1.
        2   -1    0    0  501    0  0.00000000000E+00  0.00000000000E+00 -0.19261616159E+04  0.19261616159E+04  0.25500000920E-02 0.  1.
    10030    2    1    2    0    0  0.00000000000E+00  0.00000000000E+00 -0.16100724347E+04  0.22422507971E+04  0.15605625243E+04 0.  0.
        3    1    3    3  502    0 -0.64742106676E+03  0.40820241904E+03 -0.10232042369E+04  0.12777833044E+04  0.10100000352E+00 0.  1.
       -3    1    3    3    0  502  0.64742106676E+03 -0.40820241904E+03 -0.58686819782E+03  0.96446749267E+03  0.10100000352E+00 0. -1.
</event>
<event>
 5   0  0.7499834E-04  0.1616514E+04  0.7818609E-02  0.8810467E-01
        1   -1    0    0  501    0  0.00000000000E+00  0.00000000000E+00  0.10646485082E+04  0.10646485082E+04  0.50400001928E-02 0.  1.
       -1   -1    0    0    0  501  0.00000000000E+00  0.00000000000E+00 -0.61361007207E+03  0.61361007209E+03  0.50400001928E-02 0. -1.
    10030    2    1    2    0    0  0.00000000000E+00  0.00000000000E+00  0.45103843615E+03  0.16782585803E+04  0.16165135915E+04 0.  0.
        3    1    3    3  502    0 -0.72589680252E+03 -0.53933565388E+02 -0.13924697412E+03  0.74109697570E+03  0.10100000352E+00 0.  1.
       -3    1    3    3    0  502  0.72589680252E+03  0.53933565388E+02  0.59028541028E+03  0.93716160462E+03  0.10100000352E+00 0. -1.
</event>
<event>
 5   0  0.1375777E-03  0.1354031E+04  0.7818609E-02  0.8987782E-01
       -2   -1    0    0    0  501  0.00000000000E+00  0.00000000000E+00  0.66007195765E+03  0.66007195766E+03  0.25500000920E-02 0. -1.
        2   -1    0    0  501    0  0.00000000000E+00  0.00000000000E+00 -0.69439414436E+03  0.69439414436E+03  0.25500000920E-02 0.  1.
    10030    2    1    2    0    0  0.00000000000E+00  0.00000000000E+00 -0.34322186705E+02  0.13544661020E+04  0.13540311699E+04 0.  0.
        1    1    3    3  502    0 -0.33187059819E+03 -0.57668675838E+03 -0.14227880982E+03  0.68040353540E+03  0.50400001928E-02 0.  1.
       -1    1    3    3    0  502  0.33187059819E+03  0.57668675838E+03  0.10795662312E+03  0.67406256663E+03  0.50400001928E-02 0. -1.
</event>
<event>
 5   0  0.7601145E-04  0.1505675E+04  0.7818609E-02  0.8880688E-01
        1   -1    0    0  501    0  0.00000000000E+00  0.00000000000E+00  0.64498516123E+03  0.64498516125E+03  0.50400001928E-02 0.  1.
       -1   -1    0    0    0  501  0.00000000000E+00  0.00000000000E+00 -0.87872480260E+03  0.87872480261E+03  0.50400001928E-02 0. -1.
    10030    2    1    2    0    0  0.00000000000E+00  0.00000000000E+00 -0.23373964137E+03  0.15237099639E+04  0.15056752087E+04 0.  0.
        4    1    3    3  502    0 -0.55669837836E+03  0.28620881157E+03 -0.54013102705E+03  0.82678395459E+03  0.12699999809E+01 0. -1.
       -4    1    3    3    0  502  0.55669837836E+03 -0.28620881157E+03  0.30639138568E+03  0.69692600928E+03  0.12699999809E+01 0.  1.
</event>
<event>
 5   0  0.1354766E-03  0.1600070E+04  0.7818609E-02  0.8820505E-01
        2   -1    0    0  501    0  0.00000000000E+00  0.00000000000E+00  0.70585734369E+03  0.70585734370E+03  0.25500000920E-02 0. -1.
       -2   -1    0    0    0  501  0.00000000000E+00  0.00000000000E+00 -0.90677811394E+03  0.90677811394E+03  0.25500000920E-02 0.  1.
    10030    2    1    2    0    0  0.00000000000E+00  0.00000000000E+00 -0.20092077024E+03  0.16126354576E+04  0.16000699870E+04 0.  0.
        3    1    3    3  502    0  0.99089715109E+02  0.62790514053E+03 -0.59004501867E+03  0.86731584293E+03  0.10100000352E+00 0.  1.
       -3    1    3    3    0  502 -0.99089715109E+02 -0.62790514053E+03  0.38912424843E+03  0.74531961470E+03  0.10100000352E+00 0. -1.
</event>
<event>
 5   0  0.7601145E-04  0.1603802E+04  0.7818609E-02  0.8818216E-01
        1   -1    0    0  501    0  0.00000000000E+00  0.00000000000E+00  0.12599812995E+04  0.12599812995E+04  0.50400001928E-02 0.  1.
       -1   -1    0    0    0  501  0.00000000000E+00  0.00000000000E+00 -0.51036098213E+03  0.51036098216E+03  0.50400001928E-02 0. -1.
    10030    2    1    2    0    0  0.00000000000E+00  0.00000000000E+00  0.74962031733E+03  0.17703422816E+04  0.16038020994E+04 0.  0.
        4    1    3    3  502    0  0.68819134803E+03 -0.31780997937E+03  0.86048331678E+02  0.76290002148E+03  0.12699999809E+01 0. -1.
       -4    1    3    3    0  502 -0.68819134803E+03  0.31780997937E+03  0.66357198565E+03  0.10074422602E+04  0.12699999809E+01 0.  1.
</event>
<event>
 5   0  0.5095750E-04  0.1619780E+04  0.7818609E-02  0.8808488E-01
        3   -1    0    0  501    0  0.00000000000E+00  0.00000000000E+00  0.62326565355E+03  0.62326566173E+03  0.10100000352E+00 0.  1.
       -3   -1    0    0    0  501  0.00000000000E+00  0.00000000000E+00 -0.10523948777E+04  0.10523948825E+04  0.10100000352E+00 0. -1.
    10030    2    1    2    0    0  0.00000000000E+00  0.00000000000E+00 -0.42912922412E+03  0.16756605442E+04  0.16197797284E+04 0.  0.
        1    1    3    3  502    0  0.25238957942E+03  0.75340506056E+03 -0.52303491532E+02  0.79627591972E+03  0.50400001928E-02 0.  1.
       -1    1    3    3    0  502 -0.25238957942E+03 -0.75340506056E+03 -0.37682573258E+03  0.87938462452E+03  0.50400001928E-02 0. -1.
</event>
<event>
 5   0  0.7601145E-04  0.1608966E+04  0.7818609E-02  0.8815059E-01
        1   -1    0    0  501    0  0.00000000000E+00  0.00000000000E+00  0.76478719951E+03  0.76478719953E+03  0.50400001928E-02 0. -1.
       -1   -1    0    0    0  501  0.00000000000E+00  0.00000000000E+00 -0.84623905434E+03  0.84623905436E+03  0.50400001928E-02 0.  1.
    10030    2    1    2    0    0  0.00000000000E+00  0.00000000000E+00 -0.81451854834E+02  0.16110262539E+04  0.16089658747E+04 0.  0.
        4    1    3    3  502    0 -0.49972893891E+03 -0.12888276201E+03  0.57719594178E+03  0.77427162342E+03  0.12699999809E+01 0. -1.
       -4    1    3    3    0  502  0.49972893891E+03  0.12888276201E+03 -0.65864779661E+03  0.83675463047E+03  0.12699999809E+01 0.  1.
</event>
<event>
 5   0  0.7302027E-04  0.1729775E+04  0.7818609E-02  0.8744562E-01
        1   -1    0    0  501    0  0.00000000000E+00  0.00000000000E+00  0.87734713046E+03  0.87734713048E+03  0.50400001928E-02 0. -1.
       -1   -1    0    0    0  501  0.00000000000E+00  0.00000000000E+00 -0.85260483752E+03  0.85260483754E+03  0.50400001928E-02 0.  1.
    10030    2    1    2    0    0  0.00000000000E+00  0.00000000000E+00  0.24742292942E+02  0.17299519680E+04  0.17297750231E+04 0.  0.
        5    1    3    3  502    0  0.52623478952E+03  0.28747588742E+03  0.63568675882E+03  0.87389083122E+03  0.46999998093E+01 0.  1.
       -5    1    3    3    0  502 -0.52623478952E+03 -0.28747588742E+03 -0.61094446588E+03  0.85606113680E+03  0.46999998093E+01 0. -1.
</event>
<event>
 5   0  0.1414751E-03  0.1596516E+04  0.7818609E-02  0.8822691E-01
        2   -1    0    0  501    0  0.00000000000E+00  0.00000000000E+00  0.89079543754E+03  0.89079543755E+03  0.25500000920E-02 0.  1.
       -2   -1    0    0    0  501  0.00000000000E+00  0.00000000000E+00 -0.71533374482E+03  0.71533374482E+03  0.25500000920E-02 0. -1.
    10030    2    1    2    0    0  0.00000000000E+00  0.00000000000E+00  0.17546169272E+03  0.16061291824E+04  0.15965162526E+04 0.  0.
        2    1    3    3  502    0 -0.51799780365E+03  0.60713168702E+03  0.10472713407E+03  0.80492135180E+03  0.25500000920E-02 0. -1.
       -2    1    3    3    0  502  0.51799780365E+03 -0.60713168702E+03  0.70734558655E+02  0.80120783057E+03  0.25500000920E-02 0.  1.
</event>
<event>
 5   0  0.1414796E-03  0.1591065E+04  0.7818609E-02  0.8826056E-01
        2   -1    0    0  501    0  0.00000000000E+00  0.00000000000E+00  0.24777625269E+04  0.24777625269E+04  0.25500000920E-02 0.  1.
       -2   -1    0    0    0  501  0.00000000000E+00  0.00000000000E+00 -0.25542062749E+03  0.25542062751E+03  0.25500000920E-02 0. -1.
    10030    2    1    2    0    0  0.00000000000E+00  0.00000000000E+00  0.22223418994E+04  0.27331831544E+04  0.15910646240E+04 0.  0.
        4    1    3    3  502    0  0.58177513270E+03  0.15071396941E+03  0.20065773059E+04  0.20946434310E+04  0.12699999809E+01 0.  1.
       -4    1    3    3    0  502 -0.58177513270E+03 -0.15071396941E+03  0.21576459345E+03  0.63853972335E+03  0.12699999809E+01 0. -1.
</event>
<event>
 5   0  0.1339162E-03  0.1548876E+04  0.7818609E-02  0.8852586E-01
        2   -1    0    0  501    0  0.00000000000E+00  0.00000000000E+00  0.12752896140E+04  0.12752896140E+04  0.25500000920E-02 0. -1.
       -2   -1    0    0    0  501  0.00000000000E+00  0.00000000000E+00 -0.47028836129E+03  0.47028836130E+03  0.25500000920E-02 0.  1.
    10030    2    1    2    0    0  0.00000000000E+00  0.00000000000E+00  0.80500125271E+03  0.17455779753E+04  0.15488755441E+04 0.  0.
        5    1    3    3  502    0  0.28447718574E+03  0.62774485871E+03  0.44602203773E+01  0.68922627664E+03  0.46999998093E+01 0.  1.
       -5    1    3    3    0  502 -0.28447718574E+03 -0.62774485871E+03  0.80054103234E+03  0.10563516987E+04  0.46999998093E+01 0. -1.
</event>
<event>
 5   0  0.1339162E-03  0.1617214E+04  0.7818609E-02  0.8810042E-01
       -2   -1    0    0    0  501  0.00000000000E+00  0.00000000000E+00  0.42062581625E+03  0.42062581626E+03  0.25500000920E-02 0.  1.
        2   -1    0    0  501    0  0.00000000000E+00  0.00000000000E+00 -0.15544581784E+04  0.15544581784E+04  0.25500000920E-02 0. -1.
    10030    2    1    2    0    0  0.00000000000E+00  0.00000000000E+00 -0.11338323622E+04  0.19750839947E+04  0.16172139501E+04 0.  0.
        5    1    3    3  502    0 -0.22836744933E+03  0.26557445143E+03  0.32315200391E+03  0.47658240504E+03  0.46999998093E+01 0.  1.
       -5    1    3    3    0  502  0.22836744933E+03 -0.26557445143E+03 -0.14569843661E+04  0.14985015897E+04  0.46999998093E+01 0. -1.
</event>
<event>
 5   0  0.7601145E-04  0.1604111E+04  0.7818609E-02  0.8818027E-01
        1   -1    0    0  501    0  0.00000000000E+00  0.00000000000E+00  0.75535628560E+03  0.75535628562E+03  0.50400001928E-02 0. -1.
       -1   -1    0    0    0  501  0.00000000000E+00  0.00000000000E+00 -0.85164148580E+03  0.85164148581E+03  0.50400001928E-02 0.  1.
    10030    2    1    2    0    0  0.00000000000E+00  0.00000000000E+00 -0.96285200195E+02  0.16069977714E+04  0.16041106563E+04 0.  0.
        4    1    3    3  502    0  0.43367765190E+03 -0.44428898444E+03 -0.55681836382E+03  0.83397680461E+03  0.12699999809E+01 0.  1.
       -4    1    3    3    0  502 -0.43367765190E+03  0.44428898444E+03  0.46053316362E+03  0.77302096682E+03  0.12699999809E+01 0. -1.
</event>
<event>
 5   0  0.7633213E-04  0.1629660E+04  0.7818609E-02  0.8802531E-01
        1   -1    0    0  501    0  0.00000000000E+00  0.00000000000E+00  0.20818305158E+04  0.20818305158E+04  0.50400001928E-02 0.  1.
       -1   -1    0    0    0  501  0.00000000000E+00  0.00000000000E+00 -0.31892518689E+03  0.31892518693E+03  0.50400001928E-02 0. -1.
    10030    2    1    2    0    0  0.00000000000E+00  0.00000000000E+00  0.17629053289E+04  0.24007557028E+04  0.16296603160E+04 0.  0.
        1    1    3    3  502    0  0.43754111538E+03 -0.68501620328E+03  0.96554899866E+03  0.12621308550E+04  0.50400001928E-02 0. -1.
       -1    1    3    3    0  502 -0.43754111538E+03  0.68501620328E+03  0.79735633028E+03  0.11386248477E+04  0.50400001928E-02 0.  1.
</event>
<event>
 5   0  0.1354766E-03  0.1598299E+04  0.7818609E-02  0.8821594E-01
        2   -1    0    0  501    0  0.00000000000E+00  0.00000000000E+00  0.13222302413E+04  0.13222302413E+04  0.25500000920E-02 0.  1.
       -2   -1    0    0    0  501  0.00000000000E+00  0.00000000000E+00 -0.48300199067E+03  0.48300199068E+03  0.25500000920E-02 0. -1.
    10030    2    1    2    0    0  0.00000000000E+00  0.00000000000E+00  0.83922825065E+03  0.18052322320E+04  0.15982988941E+04 0.  0.
        3    1    3    3  502    0 -0.88543109545E+02 -0.37802386799E+03 -0.36931784445E+03  0.53585222538E+03  0.10100000352E+00 0. -1.
       -3    1    3    3    0  502  0.88543109545E+02  0.37802386799E+03  0.12085460951E+04  0.12693800066E+04  0.10100000352E+00 0.  1.
</event>
<event>
 5   0  0.1375777E-03  0.1673272E+04  0.7818609E-02  0.8776757E-01
       -2   -1    0    0    0  501  0.00000000000E+00  0.00000000000E+00  0.29340971351E+03  0.29340971352E+03  0.25500000920E-02 0.  1.
        2   -1    0    0  501    0  0.00000000000E+00  0.00000000000E+00 -0.23856056130E+04  0.23856056130E+04  0.25500000920E-02 0. -1.
    10030    2    1    2    0    0  0.00000000000E+00  0.00000000000E+00 -0.20921958995E+04  0.26790153266E+04  0.16732720753E+04 0.  0.
        1    1    3    3  502    0  0.34191965842E+03 -0.84055088510E+02 -0.22612046861E+04  0.22884538324E+04  0.50400001928E-02 0. -1.
       -1    1    3    3    0  502 -0.34191965842E+03  0.84055088510E+02  0.16900878658E+03  0.39056149412E+03  0.50400001928E-02 0.  1.
</event>
<event>
 5   0  0.1339162E-03  0.1563441E+04  0.7818609E-02  0.8843328E-01
       -2   -1    0    0    0  501  0.00000000000E+00  0.00000000000E+00  0.39060053650E+03  0.39060053651E+03  0.25500000920E-02 0.  1.
        2   -1    0    0  501    0  0.00000000000E+00  0.00000000000E+00 -0.15644802244E+04  0.15644802244E+04  0.25500000920E-02 0. -1.
    10030    2    1    2    0    0  0.00000000000E+00  0.00000000000E+00 -0.11738796879E+04  0.19550807609E+04  0.15634408400E+04 0.  0.
        5    1    3    3  502    0 -0.74065847858E+03  0.20651863708E+03 -0.41080233615E+03  0.87178298833E+03  0.46999998093E+01 0.  1.
       -5    1    3    3    0  502  0.74065847858E+03 -0.20651863708E+03 -0.76307735177E+03  0.10832977726E+04  0.46999998093E+01 0. -1.
</event>
<event>
 5   0  0.7499834E-04  0.1649538E+04  0.7818609E-02  0.8790680E-01
        1   -1    0    0  501    0  0.00000000000E+00  0.00000000000E+00  0.46686045980E+03  0.46686045982E+03  0.50400001928E-02 0.  1.
       -1   -1    0    0    0  501  0.00000000000E+00  0.00000000000E+00 -0.14570603747E+04  0.14570603747E+04  0.50400001928E-02 0. -1.
    10030    2    1    2    0    0  0.00000000000E+00  0.00000000000E+00 -0.99019991494E+03  0.19239208346E+04  0.16495379675E+04 0.  0.
        3    1    3    3  502    0  0.52269004616E+03 -0.69775410013E+02 -0.12347561867E+04  0.13426452782E+04  0.10100000352E+00 0. -1.
       -3    1    3    3    0  502 -0.52269004616E+03  0.69775410013E+02  0.24455627177E+03  0.58127555639E+03  0.10100000352E+00 0.  1.
</event>
<event>
 5   0  0.1414751E-03  0.1590136E+04  0.7818609E-02  0.8826631E-01
       -2   -1    0    0    0  501  0.00000000000E+00  0.00000000000E+00  0.42656160285E+03  0.42656160285E+03  0.25500000920E-02 0.  1.
        2   -1    0    0  501    0  0.00000000000E+00  0.00000000000E+00 -0.14819270346E+04  0.14819270347E+04  0.25500000920E-02 0. -1.
    10030    2    1    2    0    0  0.00000000000E+00  0.00000000000E+00 -0.10553654318E+04  0.19084886375E+04  0.15901360586E+04 0.  0.
        2    1    3    3  502    0  0.86549038112E+02 -0.46957696260E+03  0.23531135595E+03  0.53232010486E+03  0.25500000920E-02 0.  1.
       -2    1    3    3    0  502 -0.86549038112E+02  0.46957696260E+03 -0.12906767877E+04  0.13761685326E+04  0.25500000920E-02 0. -1.
</event>
<event>
 5   0  0.7633213E-04  0.1066047E+04  0.7818609E-02  0.9238931E-01
        1   -1    0    0  501    0  0.00000000000E+00  0.00000000000E+00  0.15666037005E+04  0.15666037005E+04  0.50400001928E-02 0.  1.
       -1   -1    0    0    0  501  0.00000000000E+00  0.00000000000E+00 -0.18135676636E+03  0.18135676643E+03  0.50400001928E-02 0. -1.
    10030    2    1    2    0    0  0.00000000000E+00  0.00000000000E+00  0.13852469342E+04  0.17479604670E+04  0.10660472435E+04 0.  0.
        1    1    3    3  502    0 -0.46496316261E+03  0.18216511123E+03  0.38701473792E+03  0.63178736750E+03  0.50400001928E-02 0. -1.
       -1    1    3    3    0  502  0.46496316261E+03 -0.18216511123E+03  0.99823219626E+03  0.11161730995E+04  0.50400001928E-02 0.  1.
</event>
<event>
 5   0  0.1354766E-03  0.1604987E+04  0.7818609E-02  0.8817490E-01
       -2   -1    0    0    0  501  0.00000000000E+00  0.00000000000E+00  0.11374807982E+04  0.11374807983E+04  0.25500000920E-02 0. -1.
        2   -1    0    0  501    0  0.00000000000E+00  0.00000000000E+00 -0.56615956240E+03  0.56615956241E+03  0.25500000920E-02 0.  1.
    10030    2    1    2    0    0  0.00000000000E+00  0.00000000000E+00  0.57132123585E+03  0.17036403607E+04  0.16049867675E+04 0.  0.
        3    1    3    3  502    0  0.37709884798E+03  0.68824430819E+03  0.46363241759E+03  0.91150359174E+03  0.10100000352E+00 0. -1.
       -3    1    3    3    0  502 -0.37709884798E+03 -0.68824430819E+03  0.10768881825E+03  0.79213676892E+03  0.10100000352E+00 0.  1.
</event>
<event>
 5   0  0.1414751E-03  0.1547433E+04  0.7818609E-02  0.8853509E-01
       -2   -1    0    0    0  501  0.00000000000E+00  0.00000000000E+00  0.62259916899E+03  0.62259916899E+03  0.25500000920E-02 0.  1.
        2   -1    0    0  501    0  0.00000000000E+00  0.00000000000E+00 -0.96151353169E+03  0.96151353169E+03  0.25500000920E-02 0. -1.
    10030    2    1    2    0    0  0.00000000000E+00  0.00000000000E+00 -0.33891436270E+03  0.15841127007E+04  0.15474333922E+04 0.  0.
        2    1    3    3  502    0 -0.38960105394E+03  0.60389925638E+03 -0.46287675628E+03  0.85483225524E+03  0.25500000920E-02 0. -1.
       -2    1    3    3    0  502  0.38960105394E+03 -0.60389925638E+03  0.12396239358E+03  0.72928044545E+03  0.25500000920E-02 0.  1.
</event>
<event>
 5   0  0.7633213E-04  0.1716632E+04  0.7818609E-02  0.8751935E-01
        1   -1    0    0  501    0  0.00000000000E+00  0.00000000000E+00  0.72445308132E+03  0.72445308134E+03  0.50400001928E-02 0. -1.
       -1   -1    0    0    0  501  0.00000000000E+00  0.00000000000E+00 -0.10169137752E+04  0.10169137752E+04  0.50400001928E-02 0.  1.
    10030    2    1    2    0    0  0.00000000000E+00  0.00000000000E+00 -0.29246069387E+03  0.17413668565E+04  0.17166319558E+04 0.  0.
        1    1    3    3  502    0 -0.59192458778E+03 -0.12692439872E+03  0.47099545674E+03  0.76702101725E+03  0.50400001928E-02 0. -1.
       -1    1    3    3    0  502  0.59192458778E+03  0.12692439872E+03 -0.76345615061E+03  0.97434583929E+03  0.50400001928E-02 0.  1.
</event>
<event>
 5   0  0.1339162E-03  0.1600166E+04  0.7818609E-02  0.8820446E-01
       -2   -1    0    0    0  501  0.00000000000E+00  0.00000000000E+00  0.15581729647E+04  0.15581729647E+04  0.25500000920E-02 0. -1.
        2   -1    0    0  501    0  0.00000000000E+00  0.00000000000E+00 -0.41082278382E+03  0.41082278383E+03  0.25500000920E-02 0.  1.
    10030    2    1    2    0    0  0.00000000000E+00  0.00000000000E+00  0.11473501809E+04  0.19689957485E+04  0.16001661852E+04 0.  0.
        5    1    3    3  502    0  0.75362856132E+03  0.26734881311E+03  0.60574992516E+03  0.10031881469E+04  0.46999998093E+01 0. -1.
       -5    1    3    3    0  502 -0.75362856132E+03 -0.26734881311E+03  0.54160025572E+03  0.96580760159E+03  0.46999998093E+01 0.  1.
</event>
<event>
 5   0  0.1414751E-03  0.1534923E+04  0.7818609E-02  0.8861556E-01
        2   -1    0    0  501    0  0.00000000000E+00  0.00000000000E+00  0.18865201090E+04  0.18865201090E+04  0.25500000920E-02 0. -1.
       -2   -1    0    0    0  501  0.00000000000E+00  0.00000000000E+00 -0.31221343906E+03  0.31221343907E+03  0.25500000920E-02 0.  1.
    10030    2    1    2    0    0  0.00000000000E+00  0.00000000000E+00  0.15743066699E+04  0.21987335480E+04  0.15349227096E+04 0.  0.
        2    1    3    3  502    0 -0.63653245771E+03  0.42816170673E+03  0.81921364989E+03  0.11223221556E+04  0.25500000920E-02 0.  1.
       -2    1    3    3    0  502  0.63653245771E+03 -0.42816170673E+03  0.75509302002E+03  0.10764113924E+04  0.25500000920E-02 0. -1.
</event>
<event>
 5   0  0.1339162E-03  0.1631219E+04  0.7818609E-02  0.8801595E-01
       -2   -1    0    0    0  501  0.00000000000E+00  0.00000000000E+00  0.39403282478E+03  0.39403282479E+03  0.25500000920E-02 0.  1.
        2   -1    0    0  501    0  0.00000000000E+00  0.00000000000E+00 -0.16882330208E+04  0.16882330208E+04  0.25500000920E-02 0. -1.
    10030    2    1    2    0    0  0.00000000000E+00  0.00000000000E+00 -0.12942001960E+04  0.20822658456E+04  0.16312194532E+04 0.  0.
        5    1    3    3  502    0  0.72509431176E+03  0.86568792490E+02 -0.11107754713E+04  0.13293231941E+04  0.46999998093E+01 0.  1.
       -5    1    3    3    0  502 -0.72509431176E+03 -0.86568792490E+02 -0.18342472473E+03  0.75294265149E+03  0.46999998093E+01 0. -1.
</event>
<event>
 5   0  0.7633213E-04  0.1230575E+04  0.7818609E-02  0.9086507E-01
       -1   -1    0    0    0  501  0.00000000000E+00  0.00000000000E+00  0.30790019614E+03  0.30790019618E+03  0.50400001928E-02 0.  1.
        1   -1    0    0  501    0  0.00000000000E+00  0.00000000000E+00 -0.12295508154E+04  0.12295508154E+04  0.50400001928E-02 0. -1.
    10030    2    1    2    0    0  0.00000000000E+00  0.00000000000E+00 -0.92165061926E+03  0.15374510116E+04  0.12305753732E+04 0.  0.
        1    1    3    3  502    0  0.31930485622E+03 -0.12140242225E+02 -0.11177593326E+04  0.11625355489E+04  0.50400001928E-02 0. -1.
       -1    1    3    3    0  502 -0.31930485622E+03  0.12140242225E+02  0.19610871338E+03  0.37491546270E+03  0.50400001928E-02 0.  1.
</event>
<event>
 5   0  0.1414796E-03  0.1598291E+04  0.7818609E-02  0.8821599E-01
       -2   -1    0    0    0  501  0.00000000000E+00  0.00000000000E+00  0.41952128526E+03  0.41952128526E+03  0.25500000920E-02 0.  1.
        2   -1    0    0  501    0  0.00000000000E+00  0.00000000000E+00 -0.15222908090E+04  0.15222908090E+04  0.25500000920E-02 0. -1.
    10030    2    1    2    0    0  0.00000000000E+00  0.00000000000E+00 -0.11027695237E+04  0.19418120943E+04  0.15982908330E+04 0.  0.
        4    1    3    3  502    0 -0.44709920407E+03  0.64024053356E+03 -0.75765884933E+03  0.10880506348E+04  0.12699999809E+01 0. -1.
       -4    1    3    3    0  502  0.44709920407E+03 -0.64024053356E+03 -0.34511067440E+03  0.85376145942E+03  0.12699999809E+01 0.  1.
</event>
<event>
 5   0  0.1354766E-03  0.1511155E+04  0.7818609E-02  0.8877069E-01
       -2   -1    0    0    0  501  0.00000000000E+00  0.00000000000E+00  0.47438190604E+03  0.47438190604E+03  0.25500000920E-02 0.  1.
        2   -1    0    0  501    0  0.00000000000E+00  0.00000000000E+00 -0.12034554579E+04  0.12034554579E+04  0.25500000920E-02 0. -1.
    10030    2    1    2    0    0  0.00000000000E+00  0.00000000000E+00 -0.72907355187E+03  0.16778373640E+04  0.15111551793E+04 0.  0.
        3    1    3    3  502    0 -0.26244288230E+03  0.55068054062E+02  0.41977035668E+03  0.49811235640E+03  0.10100000352E+00 0.  1.
       -3    1    3    3    0  502  0.26244288230E+03 -0.55068054062E+02 -0.11488439085E+04  0.11797250076E+04  0.10100000352E+00 0. -1.
</event>
<event>
 5   0  0.1339162E-03  0.1619570E+04  0.7818609E-02  0.8808615E-01
       -2   -1    0    0    0  501  0.00000000000E+00  0.00000000000E+00  0.66992302294E+03  0.66992302294E+03  0.25500000920E-02 0. -1.
        2   -1    0    0  501    0  0.00000000000E+00  0.00000000000E+00 -0.97884688355E+03  0.97884688355E+03  0.25500000920E-02 0.  1.
    10030    2    1    2    0    0  0.00000000000E+00  0.00000000000E+00 -0.30892386061E+03  0.16487699065E+04  0.16195703915E+04 0.  0.
        5    1    3    3  502    0  0.61197644484E+03 -0.18145035385E+03 -0.66173328557E+03  0.91943049285E+03  0.46999998093E+01 0.  1.
       -5    1    3    3    0  502 -0.61197644484E+03  0.18145035385E+03  0.35280942496E+03  0.72933941364E+03  0.46999998093E+01 0. -1.
</event>
<event>
 5   0  0.1354766E-03  0.1616079E+04  0.7818609E-02  0.8810731E-01
       -2   -1    0    0    0  501  0.00000000000E+00  0.00000000000E+00  0.27296844312E+03  0.27296844313E+03  0.25500000920E-02 0.  1.
        2   -1    0    0  501    0  0.00000000000E+00  0.00000000000E+00 -0.23919524361E+04  0.23919524361E+04  0.25500000920E-02 0. -1.
    10030    2    1    2    0    0  0.00000000000E+00  0.00000000000E+00 -0.21189839930E+04  0.26649208793E+04  0.16160786274E+04 0.  0.
        3    1    3    3  502    0 -0.29799770441E+02  0.51391610195E+02  0.26936252757E+03  0.27583564921E+03  0.10100000352E+00 0.  1.
       -3    1    3    3    0  502  0.29799770441E+02 -0.51391610195E+02 -0.23883465206E+04  0.23890852300E+04  0.10100000352E+00 0. -1.
</event>
<event>
 5   0  0.7499834E-04  0.8422755E+03  0.7818609E-02  0.9500764E-01
        1   -1    0    0  501    0  0.00000000000E+00  0.00000000000E+00  0.11677384842E+04  0.11677384843E+04  0.50400001928E-02 0. -1.
       -1   -1    0    0    0  501  0.00000000000E+00  0.00000000000E+00 -0.15188074120E+03  0.15188074128E+03  0.50400001928E-02 0.  1.
    10030    2    1    2    0    0  0.00000000000E+00  0.00000000000E+00  0.10158577430E+04  0.13196192255E+04  0.84227545749E+03 0.  0.
        3    1    3    3  502    0  0.12729106505E+03 -0.50687364776E+02  0.11318435481E+04  0.11401061581E+04  0.10100000352E+00 0. -1.
       -3    1    3    3    0  502 -0.12729106505E+03  0.50687364776E+02 -0.11598580507E+03  0.17951306740E+03  0.10100000352E+00 0.  1.
</event>
<event>
 5   0  0.7499834E-04  0.1613943E+04  0.7818609E-02  0.8812027E-01
       -1   -1    0    0    0  501  0.00000000000E+00  0.00000000000E+00  0.34647317650E+03  0.34647317653E+03  0.50400001928E-02 0.  1.
        1   -1    0    0  501    0  0.00000000000E+00  0.00000000000E+00 -0.18795203895E+04  0.18795203895E+04  0.50400001928E-02 0. -1.
    10030    2    1    2    0    0  0.00000000000E+00  0.00000000000E+00 -0.15330472130E+04  0.22259935660E+04  0.16139434930E+04 0.  0.
        3    1    3    3  502    0  0.13034212481E+03 -0.28874731763E+03 -0.17901654751E+04  0.18179814414E+04  0.10100000352E+00 0. -1.
       -3    1    3    3    0  502 -0.13034212481E+03  0.28874731763E+03  0.25711826209E+03  0.40801212462E+03  0.10100000352E+00 0.  1.
</event>
<event>
 5   0  0.1414796E-03  0.9987551E+03  0.7818609E-02  0.9309911E-01
        2   -1    0    0  501    0  0.00000000000E+00  0.00000000000E+00  0.75857232040E+03  0.75857232040E+03  0.25500000920E-02 0. -1.
       -2   -1    0    0    0  501  0.00000000000E+00  0.00000000000E+00 -0.32874639798E+03  0.32874639799E+03  0.25500000920E-02 0.  1.
    10030    2    1    2    0    0  0.00000000000E+00  0.00000000000E+00  0.42982592242E+03  0.10873187184E+04  0.99875506095E+03 0.  0.
        4    1    3    3  502    0  0.97828878733E+02  0.92303338504E+02 -0.30865427197E+03  0.33668897862E+03  0.12699999809E+01 0.  1.
       -4    1    3    3    0  502 -0.97828878733E+02 -0.92303338504E+02  0.73848019440E+03  0.75062973977E+03  0.12699999809E+01 0. -1.
</event>
<event>
 5   0  0.7302027E-04  0.1572318E+04  0.7818609E-02  0.8837737E-01
       -1   -1    0    0    0  501  0.00000000000E+00  0.00000000000E+00  0.74007300914E+03  0.74007300916E+03  0.50400001928E-02 0. -1.
        1   -1    0    0  501    0  0.00000000000E+00  0.00000000000E+00 -0.83511490680E+03  0.83511490681E+03  0.50400001928E-02 0.  1.
    10030    2    1    2    0    0  0.00000000000E+00  0.00000000000E+00 -0.95041897653E+02  0.15751879160E+04  0.15723180366E+04 0.  0.
        5    1    3    3  502    0 -0.62551020862E+02 -0.65605078497E+03 -0.47691574529E+03  0.81350229304E+03  0.46999998093E+01 0.  1.
       -5    1    3    3    0  502  0.62551020862E+02  0.65605078497E+03  0.38187384764E+03  0.76168562293E+03  0.46999998093E+01 0. -1.
</event>
<event>
 5   0  0.7302027E-04  0.1605415E+04  0.7818609E-02  0.8817228E-01
        1   -1    0    0  501    0  0.00000000000E+00  0.00000000000E+00  0.81905867262E+03  0.81905867264E+03  0.50400001928E-02 0. -1.
       -1   -1    0    0    0  501  0.00000000000E+00  0.00000000000E+00 -0.78668322306E+03  0.78668322307E+03  0.50400001928E-02 0.  1.
    10030    2    1    2    0    0  0.00000000000E+00  0.00000000000E+00  0.32375449563E+02  0.16057418957E+04  0.16054154808E+04 0.  0.
        5    1    3    3  502    0 -0.47151267672E+02 -0.20595898862E+03 -0.75835675914E+03  0.78725434973E+03  0.46999998093E+01 0.  1.
       -5    1    3    3    0  502  0.47151267672E+02  0.20595898862E+03  0.79073220871E+03  0.81848754598E+03  0.46999998093E+01 0. -1.
</event>
<event>
 5   0  0.5095750E-04  0.1535805E+04  0.7818609E-02  0.8860986E-01
       -3   -1    0    0    0  501  0.00000000000E+00  0.00000000000E+00  0.37581588891E+03  0.37581590249E+03  0.10100000352E+00 0. -1.
        3   -1    0    0  501    0  0.00000000000E+00  0.00000000000E+00 -0.15690513916E+04  0.15690513949E+04  0.10100000352E+00 0.  1.
    10030    2    1    2    0    0  0.00000000000E+00  0.00000000000E+00 -0.11932355027E+04  0.19448672973E+04  0.15358052739E+04 0.  0.
        3    1    3    3  502    0 -0.56689998154E+03  0.34796148296E+02 -0.12510746941E+04  0.13739629768E+04  0.10100000352E+00 0.  1.
       -3    1    3    3    0  502  0.56689998154E+03 -0.34796148296E+02  0.57839191426E+02  0.57090432060E+03  0.10100000352E+00 0. -1.
</event>
<event>
 5   0  0.7499834E-04  0.1539037E+04  0.7818609E-02  0.8858901E-01
        1   -1    0    0  501    0  0.00000000000E+00  0.00000000000E+00  0.84619639304E+03  0.84619639305E+03  0.50400001928E-02 0.  1.
       -1   -1    0    0    0  501  0.00000000000E+00  0.00000000000E+00 -0.69978853949E+03  0.69978853951E+03  0.50400001928E-02 0. -1.
    10030    2    1    2    0    0  0.00000000000E+00  0.00000000000E+00  0.14640785354E+03  0.15459849326E+04  0.15390367611E+04 0.  0.
        3    1    3    3  502    0  0.21842470947E+03 -0.10443567881E+02 -0.66792101671E+03  0.70280645742E+03  0.10100000352E+00 0. -1.
       -3    1    3    3    0  502 -0.21842470947E+03  0.10443567881E+02  0.81432887026E+03  0.84317847515E+03  0.10100000352E+00 0.  1.
</event>
<event>
 5   0  0.1375777E-03  0.1575382E+04  0.7818609E-02  0.8835816E-01
       -2   -1    0    0    0  501  0.00000000000E+00  0.00000000000E+00  0.66138345984E+03  0.66138345984E+03  0.25500000920E-02 0.  1.
        2   -1    0    0  501    0  0.00000000000E+00  0.00000000000E+00 -0.93812019671E+03  0.93812019671E+03  0.25500000920E-02 0. -1.
    10030    2    1    2    0    0  0.00000000000E+00  0.00000000000E+00 -0.27673673687E+03  0.15995036566E+04  0.15753820888E+04 0.  0.
        1    1    3    3  502    0 -0.71524387061E+03  0.16162707077E+03 -0.43045371973E+03  0.85028672182E+03  0.50400001928E-02 0. -1.
       -1    1    3    3    0  502  0.71524387061E+03 -0.16162707077E+03  0.15371698286E+03  0.74921693473E+03  0.50400001928E-02 0.  1.
</event>
<event>
 5   0  0.7124495E-04  0.1365077E+04  0.7818609E-02  0.8979493E-01
        1   -1    0    0  501    0  0.00000000000E+00  0.00000000000E+00  0.37823019615E+03  0.37823019618E+03  0.50400001928E-02 0. -1.
       -1   -1    0    0    0  501  0.00000000000E+00  0.00000000000E+00 -0.12316806612E+04  0.12316806612E+04  0.50400001928E-02 0.  1.
    10030    2    1    2    0    0  0.00000000000E+00  0.00000000000E+00 -0.85345046505E+03  0.16099108574E+04  0.13650770207E+04 0.  0.
        2    1    3    3  502    0  0.48109375354E+03 -0.23218775582E+03 -0.92777287506E+03  0.10705722121E+04  0.25500000920E-02 0. -1.
       -2    1    3    3    0  502 -0.48109375354E+03  0.23218775582E+03  0.74322410006E+02  0.53933864528E+03  0.25500000920E-02 0.  1.
</event>
<event>
 5   0  0.7499834E-04  0.1572707E+04  0.7818609E-02  0.8837493E-01
       -1   -1    0    0    0  501  0.00000000000E+00  0.00000000000E+00  0.72130268225E+03  0.72130268227E+03  0.50400001928E-02 0. -1.
        1   -1    0    0  501    0  0.00000000000E+00  0.00000000000E+00 -0.85727090384E+03  0.85727090386E+03  0.50400001928E-02 0.  1.
    10030    2    1    2    0    0  0.00000000000E+00  0.00000000000E+00 -0.13596822159E+03  0.15785735861E+04  0.15727069687E+04 0.  0.
        3    1    3    3  502    0  0.20828911215E+03 -0.11426696946E+03 -0.82038724029E+03  0.85409398123E+03  0.10100000352E+00 0.  1.
       -3    1    3    3    0  502 -0.20828911215E+03  0.11426696946E+03  0.68441901870E+03  0.72447960489E+03  0.10100000352E+00 0. -1.
</event>
<event>
 5   0  0.7124495E-04  0.1589573E+04  0.7818609E-02  0.8826979E-01
       -1   -1    0    0    0  501  0.00000000000E+00  0.00000000000E+00  0.37852119585E+03  0.37852119589E+03  0.50400001928E-02 0. -1.
        1   -1    0    0  501    0  0.00000000000E+00  0.00000000000E+00 -0.16688247462E+04  0.16688247462E+04  0.50400001928E-02 0.  1.
    10030    2    1    2    0    0  0.00000000000E+00  0.00000000000E+00 -0.12903035504E+04  0.20473459421E+04  0.15895729472E+04 0.  0.
        2    1    3    3  502    0  0.90640912647E+02  0.82614959622E+02  0.36626047971E+03  0.38624829527E+03  0.25500000920E-02 0. -1.
       -2    1    3    3    0  502 -0.90640912647E+02 -0.82614959622E+02 -0.16565640301E+04  0.16610976468E+04  0.25500000920E-02 0.  1.
</event>
<event>
 5   0  0.7499834E-04  0.1485746E+04  0.7818609E-02  0.8893988E-01
        1   -1    0    0  501    0  0.00000000000E+00  0.00000000000E+00  0.75842560871E+03  0.75842560872E+03  0.50400001928E-02 0.  1.
       -1   -1    0    0    0  501  0.00000000000E+00  0.00000000000E+00 -0.72763896141E+03  0.72763896143E+03  0.50400001928E-02 0. -1.
    10030    2    1    2    0    0  0.00000000000E+00  0.00000000000E+00  0.30786647296E+02  0.14860645702E+04  0.14857456340E+04 0.  0.
        3    1    3    3  502    0  0.62349237224E+03 -0.17643752992E+03 -0.34798491410E+03  0.73550421539E+03  0.10100000352E+00 0. -1.
       -3    1    3    3    0  502 -0.62349237224E+03  0.17643752992E+03  0.37877156140E+03  0.75056035476E+03  0.10100000352E+00 0.  1.
</event>
<event>
 5   0  0.1339162E-03  0.1575734E+04  0.7818609E-02  0.8835596E-01
       -2   -1    0    0    0  501  0.00000000000E+00  0.00000000000E+00  0.81958145701E+03  0.81958145702E+03  0.25500000920E-02 0.  1.
        2   -1    0    0  501    0  0.00000000000E+00  0.00000000000E+00 -0.75737962189E+03  0.75737962189E+03  0.25500000920E-02 0. -1.
    10030    2    1    2    0    0  0.00000000000E+00  0.00000000000E+00  0.62201835127E+02  0.15769610789E+04  0.15757338532E+04 0.  0.
        5    1    3    3  502    0 -0.48319808478E+03  0.24381423290E+03  0.60407317875E+03  0.81108092357E+03  0.46999998093E+01 0.  1.
       -5    1    3    3    0  502  0.48319808478E+03 -0.24381423290E+03 -0.54187134363E+03  0.76588015534E+03  0.46999998093E+01 0. -1.
</event>
<event>
 5   0  0.1375777E-03  0.1581483E+04  0.7818609E-02  0.8832005E-01
       -2   -1    0    0    0  501  0.00000000000E+00  0.00000000000E+00  0.30333915118E+03  0.30333915119E+03  0.25500000920E-02 0.  1.
        2   -1    0    0  501    0  0.00000000000E+00  0.00000000000E+00 -0.20612963552E+04  0.20612963552E+04  0.25500000920E-02 0. -1.
    10030    2    1    2    0    0  0.00000000000E+00  0.00000000000E+00 -0.17579572040E+04  0.23646355064E+04  0.15814827052E+04 0.  0.
        1    1    3    3  502    0  0.56946871663E+03 -0.25442657226E+03 -0.16057210187E+04  0.17226048560E+04  0.50400001928E-02 0. -1.
       -1    1    3    3    0  502 -0.56946871663E+03  0.25442657226E+03 -0.15223618527E+03  0.64203065037E+03  0.50400001928E-02 0.  1.
</event>
<event>
 5   0  0.7633213E-04  0.1570933E+04  0.7818609E-02  0.8838607E-01
       -1   -1    0    0    0  501  0.00000000000E+00  0.00000000000E+00  0.48128452394E+03  0.48128452397E+03  0.50400001928E-02 0.  1.
        1   -1    0    0  501    0  0.00000000000E+00  0.00000000000E+00 -0.12818972652E+04  0.12818972652E+04  0.50400001928E-02 0. -1.
    10030    2    1    2    0    0  0.00000000000E+00  0.00000000000E+00 -0.80061274124E+03  0.17631817892E+04  0.15709326084E+04 0.  0.
        1    1    3    3  502    0 -0.33214293469E+03 -0.36932589144E+03  0.28262853775E+03  0.57148878688E+03  0.50400001928E-02 0.  1.
       -1    1    3    3    0  502  0.33214293469E+03  0.36932589144E+03 -0.10832412790E+04  0.11916930023E+04  0.50400001928E-02 0. -1.
</event>
<event>
 5   0  0.1414751E-03  0.1387110E+04  0.7818609E-02  0.8963202E-01
        2   -1    0    0  501    0  0.00000000000E+00  0.00000000000E+00  0.74818979048E+03  0.74818979048E+03  0.25500000920E-02 0. -1.
       -2   -1    0    0    0  501  0.00000000000E+00  0.00000000000E+00 -0.64290986723E+03  0.64290986724E+03  0.25500000920E-02 0.  1.
    10030    2    1    2    0    0  0.00000000000E+00  0.00000000000E+00  0.10527992325E+03  0.13910996577E+04  0.13871100877E+04 0.  0.
        2    1    3    3  502    0  0.13357838137E+03  0.17937351075E+02 -0.62965029231E+03  0.64391336618E+03  0.25500000920E-02 0.  1.
       -2    1    3    3    0  502 -0.13357838137E+03 -0.17937351075E+02  0.73493021555E+03  0.74718629155E+03  0.25500000920E-02 0. -1.
</event>
<event>
 5   0  0.1339162E-03  0.1621076E+04  0.7818609E-02  0.8807704E-01
       -2   -1    0    0    0  501  0.00000000000E+00  0.00000000000E+00  0.33671127444E+03  0.33671127445E+03  0.25500000920E-02 0. -1.
        2   -1    0    0  501    0  0.00000000000E+00  0.00000000000E+00 -0.19511437826E+04  0.19511437826E+04  0.25500000920E-02 0.  1.
    10030    2    1    2    0    0  0.00000000000E+00  0.00000000000E+00 -0.16144325082E+04  0.22878550571E+04  0.16210763211E+04 0.  0.
        5    1    3    3  502    0 -0.14052938757E+03 -0.60750751865E+03 -0.15380232732E+04  0.16596239251E+04  0.46999998093E+01 0.  1.
       -5    1    3    3    0  502  0.14052938757E+03  0.60750751865E+03 -0.76409235017E+02  0.62823113198E+03  0.46999998093E+01 0. -1.
</event>
<event>
 5   0  0.7124495E-04  0.1316036E+04  0.7818609E-02  0.9016944E-01
        1   -1    0    0  501    0  0.00000000000E+00  0.00000000000E+00  0.56607741119E+03  0.56607741122E+03  0.50400001928E-02 0.  1.
       -1   -1    0    0    0  501  0.00000000000E+00  0.00000000000E+00 -0.76489145174E+03  0.76489145176E+03  0.50400001928E-02 0. -1.
    10030    2    1    2    0    0  0.00000000000E+00  0.00000000000E+00 -0.19881404054E+03  0.13309688630E+04  0.13160361285E+04 0.  0.
        2    1    3    3  502    0  0.65353805701E+02  0.27077665480E+03  0.50350890081E+03  0.57542360909E+03  0.25500000920E-02 0.  1.
       -2    1    3    3    0  502 -0.65353805701E+02 -0.27077665480E+03 -0.70232294135E+03  0.75554525388E+03  0.25500000920E-02 0. -1.
</event>
<event>
 5   0  0.1414751E-03  0.1621132E+04  0.7818609E-02  0.8807670E-01
        2   -1    0    0  501    0  0.00000000000E+00  0.00000000000E+00  0.63959545837E+03  0.63959545837E+03  0.25500000920E-02 0.  1.
       -2   -1    0    0    0  501  0.00000000000E+00  0.00000000000E+00 -0.10272382715E+04  0.10272382715E+04  0.25500000920E-02 0. -1.
    10030    2    1    2    0    0  0.00000000000E+00  0.00000000000E+00 -0.38764281314E+03  0.16668337299E+04  0.16211316210E+04 0.  0.
        2    1    3    3  502    0  0.48293653566E+03  0.22752374898E+03  0.43330981055E+03  0.68756973883E+03  0.25500000920E-02 0.  1.
       -2    1    3    3    0  502 -0.48293653566E+03 -0.22752374898E+03 -0.82095262369E+03  0.97926399106E+03  0.25500000920E-02 0. -1.
</event>
<event>
 5   0  0.1354766E-03  0.1654368E+04  0.7818609E-02  0.8787826E-01
       -2   -1    0    0    0  501  0.00000000000E+00  0.00000000000E+00  0.43337339031E+03  0.43337339032E+03  0.25500000920E-02 0.  1.
        2   -1    0    0  501    0  0.00000000000E+00  0.00000000000E+00 -0.15788549947E+04  0.15788549947E+04  0.25500000920E-02 0. -1.
    10030    2    1    2    0    0  0.00000000000E+00  0.00000000000E+00 -0.11454816044E+04  0.20122283850E+04  0.16543684497E+04 0.  0.
        3    1    3    3  502    0  0.30377605983E+03 -0.25404780068E+03  0.31058450753E+03  0.50327221866E+03  0.10100000352E+00 0.  1.
       -3    1    3    3    0  502 -0.30377605983E+03  0.25404780068E+03 -0.14560661119E+04  0.15089561663E+04  0.10100000352E+00 0. -1.
</event>
<event>
 5   0  0.5095750E-04  0.1634843E+04  0.7818609E-02  0.8799424E-01
       -3   -1    0    0    0  501  0.00000000000E+00  0.00000000000E+00  0.69303194440E+03  0.69303195176E+03  0.10100000352E+00 0. -1.
        3   -1    0    0  501    0  0.00000000000E+00  0.00000000000E+00 -0.96413689206E+03  0.96413689735E+03  0.10100000352E+00 0.  1.
    10030    2    1    2    0    0  0.00000000000E+00  0.00000000000E+00 -0.27110494766E+03  0.16571688491E+04  0.16348427147E+04 0.  0.
        1    1    3    3  502    0 -0.51039341629E+02 -0.81574446717E+03 -0.14726997932E+03  0.83050135276E+03  0.50400001928E-02 0.  1.
       -1    1    3    3    0  502  0.51039341629E+02  0.81574446717E+03 -0.12383496834E+03  0.82666749635E+03  0.50400001928E-02 0. -1.
</event>
<event>
 5   0  0.7302027E-04  0.1597662E+04  0.7818609E-02  0.8821986E-01
       -1   -1    0    0    0  501  0.00000000000E+00  0.00000000000E+00  0.46069841283E+03  0.46069841286E+03  0.50400001928E-02 0. -1.
        1   -1    0    0  501    0  0.00000000000E+00  0.00000000000E+00 -0.13851382471E+04  0.13851382471E+04  0.50400001928E-02 0.  1.
    10030    2    1    2    0    0  0.00000000000E+00  0.00000000000E+00 -0.92443983423E+03  0.18458366599E+04  0.15976620318E+04 0.  0.
        5    1    3    3  502    0  0.26596863808E+02  0.62901888170E+03 -0.10302609351E+04  0.12074070694E+04  0.46999998093E+01 0.  1.
       -5    1    3    3    0  502 -0.26596863808E+02 -0.62901888170E+03  0.10582110090E+03  0.63842959056E+03  0.46999998093E+01 0. -1.
</event>
<event>
 5   0  0.1375777E-03  0.1610096E+04  0.7818609E-02  0.8814370E-01
       -2   -1    0    0    0  501  0.00000000000E+00  0.00000000000E+00  0.79461902040E+03  0.79461902040E+03  0.25500000920E-02 0.  1.
        2   -1    0    0  501    0  0.00000000000E+00  0.00000000000E+00 -0.81561335387E+03  0.81561335388E+03  0.25500000920E-02 0. -1.
    10030    2    1    2    0    0  0.00000000000E+00  0.00000000000E+00 -0.20994333479E+02  0.16102323743E+04  0.16100955056E+04 0.  0.
        1    1    3    3  502    0 -0.56403565935E+03  0.35511446703E+03 -0.46204343767E+03  0.81100348213E+03  0.50400001928E-02 0. -1.
       -1    1    3    3    0  502  0.56403565935E+03 -0.35511446703E+03  0.44104910419E+03  0.79922889215E+03  0.50400001928E-02 0.  1.
</event>
<event>
 5   0  0.7601145E-04  0.1588580E+04  0.7818609E-02  0.8827595E-01
       -1   -1    0    0    0  501  0.00000000000E+00  0.00000000000E+00  0.71753835510E+03  0.71753835512E+03  0.50400001928E-02 0.  1.
        1   -1    0    0  501    0  0.00000000000E+00  0.00000000000E+00 -0.87925139357E+03  0.87925139358E+03  0.50400001928E-02 0. -1.
    10030    2    1    2    0    0  0.00000000000E+00  0.00000000000E+00 -0.16171303847E+03  0.15967897487E+04  0.15885799932E+04 0.  0.
        4    1    3    3  502    0  0.61083313308E+03 -0.37888480023E+03 -0.42057382164E+03  0.83279935198E+03  0.12699999809E+01 0. -1.
       -4    1    3    3    0  502 -0.61083313308E+03  0.37888480023E+03  0.25886078318E+03  0.76399039672E+03  0.12699999809E+01 0.  1.
</event>
<event>
 5   0  0.7124495E-04  0.1594927E+04  0.7818609E-02  0.8823671E-01
        1   -1    0    0  501    0  0.00000000000E+00  0.00000000000E+00  0.10181000449E+04  0.10181000449E+04  0.50400001928E-02 0.  1.
       -1   -1    0    0    0  501  0.00000000000E+00  0.00000000000E+00 -0.62464206338E+03  0.62464206340E+03  0.50400001928E-02 0. -1.
    10030    2    1    2    0    0  0.00000000000E+00  0.00000000000E+00  0.39345798151E+03  0.16427421083E+04  0.15949270990E+04 0.  0.
        2    1    3    3  502    0 -0.56616510256E+03 -0.29156087938E+03  0.69111637499E+03  0.93978322688E+03  0.25500000920E-02 0.  1.
       -2    1    3    3    0  502  0.56616510256E+03  0.29156087938E+03 -0.29765839348E+03  0.70295888141E+03  0.25500000920E-02 0. -1.
</event>
<event>
 5   0  0.1414796E-03  0.1666324E+04  0.7818609E-02  0.8780808E-01
        2   -1    0    0  501    0  0.00000000000E+00  0.00000000000E+00  0.16494711264E+04  0.16494711264E+04  0.25500000920E-02 0. -1.
       -2   -1    0    0    0  501  0.00000000000E+00  0.00000000000E+00 -0.42083714460E+03  0.42083714461E+03  0.25500000920E-02 0.  1.
    10030    2    1    2    0    0  0.00000000000E+00  0.00000000000E+00  0.12286339817E+04  0.20703082710E+04  0.16663237608E+04 0.  0.
        4    1    3    3  502    0 -0.53996472065E+03 -0.47639325420E+03  0.11350236389E+04  0.13441698948E+04  0.12699999809E+01 0. -1.
       -4    1    3    3    0  502  0.53996472065E+03  0.47639325420E+03  0.93610342808E+02  0.72613837618E+03  0.12699999809E+01 0.  1.
</event>
<event>
 5   0  0.1414751E-03  0.1598516E+04  0.7818609E-02  0.8821460E-01
       -2   -1    0    0    0  501  0.00000000000E+00  0.00000000000E+00  0.52878064844E+03  0.52878064845E+03  0.25500000920E-02 0. -1.
        2   -1    0    0  501    0  0.00000000000E+00  0.00000000000E+00 -0.12080875252E+04  0.12080875252E+04  0.25500000920E-02 0.  1.
    10030    2    1    2    0    0  0.00000000000E+00  0.00000000000E+00 -0.67930687674E+03  0.17368681736E+04  0.15985159429E+04 0.  0.
        2    1    3    3  502    0  0.52468672074E+03  0.48663195500E+03 -0.72642035301E+03  0.10197025762E+04  0.25500000920E-02 0.  1.
       -2    1    3    3    0  502 -0.52468672074E+03 -0.48663195500E+03  0.47113476271E+02  0.71716559748E+03  0.25500000920E-02 0. -1.
</event>
<event>
 5   0  0.1339162E-03  0.1657391E+04  0.7818609E-02  0.8786046E-01
        2   -1    0    0  501    0  0.00000000000E+00  0.00000000000E+00  0.11220512556E+04  0.11220512556E+04  0.25500000920E-02 0. -1.
       -2   -1    0    0    0  501  0.00000000000E+00  0.00000000000E+00 -0.61203636938E+03  0.61203636938E+03  0.25500000920E-02 0.  1.
    10030    2    1    2    0    0  0.00000000000E+00  0.00000000000E+00  0.51001488619E+03  0.17340876250E+04  0.16573909336E+04 0.  0.
        5    1    3    3  502    0 -0.37571488688E+03 -0.26124175363E+03 -0.46783582933E+03  0.65444738770E+03  0.46999998093E+01 0.  1.
       -5    1    3    3    0  502  0.37571488688E+03  0.26124175363E+03  0.97785071552E+03  0.10796402373E+04  0.46999998093E+01 0. -1.
</event>
<event>
 5   0  0.5095750E-04  0.1617457E+04  0.7818609E-02  0.8809895E-01
        4   -1    0    0  501    0  0.00000000000E+00  0.00000000000E+00  0.80594827159E+03  0.80594927221E+03  0.12699999809E+01 0. -1.
       -4   -1    0    0    0  501  0.00000000000E+00  0.00000000000E+00 -0.81151663099E+03  0.81151762475E+03  0.12699999809E+01 0.  1.
    10030    2    1    2    0    0  0.00000000000E+00  0.00000000000E+00 -0.55683594029E+01  0.16174668970E+04  0.16174573120E+04 0.  0.
        5    1    3    3  502    0 -0.95649493369E+01  0.42943701851E+03  0.68242956253E+03  0.80637450290E+03  0.46999998093E+01 0. -1.
       -5    1    3    3    0  502  0.95649493369E+01 -0.42943701851E+03 -0.68799792193E+03  0.81109239406E+03  0.46999998093E+01 0.  1.
</event>
<event>
 5   0  0.1414796E-03  0.1590732E+04  0.7818609E-02  0.8826262E-01
       -2   -1    0    0    0  501  0.00000000000E+00  0.00000000000E+00  0.41935167800E+03  0.41935167801E+03  0.25500000920E-02 0.  1.
        2   -1    0    0  501    0  0.00000000000E+00  0.00000000000E+00 -0.15085356940E+04  0.15085356940E+04  0.25500000920E-02 0. -1.
    10030    2    1    2    0    0  0.00000000000E+00  0.00000000000E+00 -0.10891840160E+04  0.19278873720E+04  0.15907318751E+04 0.  0.
        4    1    3    3  502    0  0.59470507954E+03  0.32601491878E+03 -0.10481648614E+04  0.12484434502E+04  0.12699999809E+01 0. -1.
       -4    1    3    3    0  502 -0.59470507954E+03 -0.32601491878E+03 -0.41019154624E+02  0.67944392178E+03  0.12699999809E+01 0.  1.
</event>
<event>
 5   0  0.1354766E-03  0.1600072E+04  0.7818609E-02  0.8820504E-01
       -2   -1    0    0    0  501  0.00000000000E+00  0.00000000000E+00  0.56007511168E+03  0.56007511169E+03  0.25500000920E-02 0. -1.
        2   -1    0    0  501    0  0.00000000000E+00  0.00000000000E+00 -0.11428063963E+04  0.11428063963E+04  0.25500000920E-02 0.  1.
    10030    2    1    2    0    0  0.00000000000E+00  0.00000000000E+00 -0.58273128460E+03  0.17028815080E+04  0.16000717734E+04 0.  0.
        3    1    3    3  502    0  0.29809437000E+03  0.27484101856E+03 -0.10253606149E+04  0.11026160890E+04  0.10100000352E+00 0.  1.
       -3    1    3    3    0  502 -0.29809437000E+03 -0.27484101856E+03  0.44262933034E+03  0.60026541895E+03  0.10100000352E+00 0. -1.
</event>
<event>
 5   0  0.7499834E-04  0.1600722E+04  0.7818609E-02  0.8820104E-01
        1   -1    0    0  501    0  0.00000000000E+00  0.00000000000E+00  0.26262717074E+04  0.26262717074E+04  0.50400001928E-02 0. -1.
       -1   -1    0    0    0  501  0.00000000000E+00  0.00000000000E+00 -0.24391154843E+03  0.24391154848E+03  0.50400001928E-02 0.  1.
    10030    2    1    2    0    0  0.00000000000E+00  0.00000000000E+00  0.23823601590E+04  0.28701832559E+04  0.16007223355E+04 0.  0.
        3    1    3    3  502    0  0.15857380028E+03 -0.72288350399E+03  0.17376112963E+04  0.18886501100E+04  0.10100000352E+00 0. -1.
       -3    1    3    3    0  502 -0.15857380028E+03  0.72288350399E+03  0.64474886263E+03  0.98153314592E+03  0.10100000352E+00 0.  1.
</event>
<event>
 5   0  0.1354766E-03  0.1551537E+04  0.7818609E-02  0.8850887E-01
        2   -1    0    0  501    0  0.00000000000E+00  0.00000000000E+00  0.53222122748E+03  0.53222122749E+03  0.25500000920E-02 0. -1.
       -2   -1    0    0    0  501  0.00000000000E+00  0.00000000000E+00 -0.11307643331E+04  0.11307643331E+04  0.25500000920E-02 0.  1.
    10030    2    1    2    0    0  0.00000000000E+00  0.00000000000E+00 -0.59854310560E+03  0.16629855606E+04  0.15515370203E+04 0.  0.
        3    1    3    3  502    0  0.52821027042E+03  0.17191260117E+03  0.28115909546E+03  0.62258371274E+03  0.10100000352E+00 0. -1.
       -3    1    3    3    0  502 -0.52821027042E+03 -0.17191260117E+03 -0.87970220106E+03  0.10404018478E+04  0.10100000352E+00 0.  1.
</event>
<event>
 5   0  0.7124495E-04  0.1589583E+04  0.7818609E-02  0.8826973E-01
       -1   -1    0    0    0  501  0.00000000000E+00  0.00000000000E+00  0.10754557024E+04  0.10754557024E+04  0.50400001928E-02 0.  1.
        1   -1    0    0  501    0  0.00000000000E+00  0.00000000000E+00 -0.58737304533E+03  0.58737304535E+03  0.50400001928E-02 0. -1.
    10030    2    1    2    0    0  0.00000000000E+00  0.00000000000E+00  0.48808265709E+03  0.16628287478E+04  0.15895832046E+04 0.  0.
        2    1    3    3  502    0  0.40364513487E+03  0.70941560901E+02  0.95639817081E+03  0.10405092797E+04  0.25500000920E-02 0.  1.
       -2    1    3    3    0  502 -0.40364513487E+03 -0.70941560901E+02 -0.46831551372E+03  0.62231946809E+03  0.25500000920E-02 0. -1.
</event>
<event>
 5   0  0.7633213E-04  0.1523024E+04  0.7818609E-02  0.8869285E-01
       -1   -1    0    0    0  501  0.00000000000E+00  0.00000000000E+00  0.46490260941E+03  0.46490260943E+03  0.50400001928E-02 0. -1.
        1   -1    0    0  501    0  0.00000000000E+00  0.00000000000E+00 -0.12473584427E+04  0.12473584427E+04  0.50400001928E-02 0.  1.
    10030    2    1    2    0    0  0.00000000000E+00  0.00000000000E+00 -0.78245583328E+03  0.17122610521E+04  0.15230235650E+04 0.  0.
        1    1    3    3  502    0 -0.36980608884E+02  0.63131279610E+03 -0.86817653758E+03  0.10740828238E+04  0.50400001928E-02 0.  1.
       -1    1    3    3    0  502  0.36980608884E+02 -0.63131279610E+03  0.85720704295E+02  0.63817822834E+03  0.50400001928E-02 0. -1.
</event>
<event>
 5   0  0.1414796E-03  0.1624584E+04  0.7818609E-02  0.8805586E-01
        2   -1    0    0  501    0  0.00000000000E+00  0.00000000000E+00  0.17018851286E+04  0.17018851287E+04  0.25500000920E-02 0. -1.
       -2   -1    0    0    0  501  0.00000000000E+00  0.00000000000E+00 -0.38769868726E+03  0.38769868727E+03  0.25500000920E-02 0.  1.
    10030    2    1    2    0    0  0.00000000000E+00  0.00000000000E+00  0.13141864414E+04  0.20895838159E+04  0.16245844149E+04 0.  0.
        4    1    3    3  502    0 -0.21872597888E+03 -0.24927419276E+03 -0.29665781671E+03  0.44495634632E+03  0.12699999809E+01 0.  1.
       -4    1    3    3    0  502  0.21872597888E+03  0.24927419276E+03  0.16108442581E+04  0.16446274696E+04  0.12699999809E+01 0. -1.
</event>
<event>
 5   0  0.1414796E-03  0.1591661E+04  0.7818609E-02  0.8825688E-01
        2   -1    0    0  501    0  0.00000000000E+00  0.00000000000E+00  0.12776600953E+04  0.12776600954E+04  0.25500000920E-02 0. -1.
       -2   -1    0    0    0  501  0.00000000000E+00  0.00000000000E+00 -0.49570773089E+03  0.49570773090E+03  0.25500000920E-02 0.  1.
    10030    2    1    2    0    0  0.00000000000E+00  0.00000000000E+00  0.78195236446E+03  0.17733678263E+04  0.15916607512E+04 0.  0.
        4    1    3    3  502    0 -0.11463554072E+03  0.62288029105E+03 -0.14593336854E+03  0.64993793944E+03  0.12699999809E+01 0.  1.
       -4    1    3    3    0  502  0.11463554072E+03 -0.62288029105E+03  0.92788573300E+03  0.11234298868E+04  0.12699999809E+01 0. -1.
</event>
<event>
 5   0  0.1414796E-03  0.1606325E+04  0.7818609E-02  0.8816672E-01
       -2   -1    0    0    0  501  0.00000000000E+00  0.00000000000E+00  0.46534583620E+03  0.46534583621E+03  0.25500000920E-02 0.  1.
        2   -1    0    0  501    0  0.00000000000E+00  0.00000000000E+00 -0.13862155958E+04  0.13862155958E+04  0.25500000920E-02 0. -1.
    10030    2    1    2    0    0  0.00000000000E+00  0.00000000000E+00 -0.92086975957E+03  0.18515614320E+04  0.16063245694E+04 0.  0.
        4    1    3    3  502    0 -0.79988796135E+03 -0.48826258294E+02 -0.39875587244E+03  0.89510480554E+03  0.12699999809E+01 0.  1.
       -4    1    3    3    0  502  0.79988796135E+03  0.48826258294E+02 -0.52211388713E+03  0.95645662643E+03  0.12699999809E+01 0. -1.
</event>
<event>
 5   0  0.7633213E-04  0.1593921E+04  0.7818609E-02  0.8824291E-01
        1   -1    0    0  501    0  0.00000000000E+00  0.00000000000E+00  0.18957078399E+04  0.18957078399E+04  0.50400001928E-02 0.  1.
       -1   -1    0    0    0  501  0.00000000000E+00  0.00000000000E+00 -0.33504428300E+03  0.33504428303E+03  0.50400001928E-02 0. -1.
    10030    2    1    2    0    0  0.00000000000E+00  0.00000000000E+00  0.15606635569E+04  0.22307521230E+04  0.15939210445E+04 0.  0.
        1    1    3    3  502    0 -0.27503760408E+02  0.76477526196E+03  0.46892789407E+03  0.89751380379E+03  0.50400001928E-02 0. -1.
       -1    1    3    3    0  502  0.27503760408E+02 -0.76477526196E+03  0.10917356629E+04  0.13332383192E+04  0.50400001928E-02 0.  1.
</event>
<event>
 5   0  0.1354766E-03  0.1627052E+04  0.7818609E-02  0.8804099E-01
       -2   -1    0    0    0  501  0.00000000000E+00  0.00000000000E+00  0.89264367186E+03  0.89264367186E+03  0.25500000920E-02 0. -1.
        2   -1    0    0  501    0  0.00000000000E+00  0.00000000000E+00 -0.74142041837E+03  0.74142041838E+03  0.25500000920E-02 0.  1.
    10030    2    1    2    0    0  0.00000000000E+00  0.00000000000E+00  0.15122325349E+03  0.16340640902E+04  0.16270516214E+04 0.  0.
        3    1    3    3  502    0  0.75122472934E+03 -0.30351138925E+03  0.14918359818E+03  0.82384070884E+03  0.10100000352E+00 0. -1.
       -3    1    3    3    0  502 -0.75122472934E+03  0.30351138925E+03  0.20396553055E+01  0.81022338140E+03  0.10100000352E+00 0.  1.
</event>
<event>
 5   0  0.1354766E-03  0.1591043E+04  0.7818609E-02  0.8826070E-01
       -2   -1    0    0    0  501  0.00000000000E+00  0.00000000000E+00  0.79761581957E+03  0.79761581958E+03  0.25500000920E-02 0. -1.
        2   -1    0    0  501    0  0.00000000000E+00  0.00000000000E+00 -0.79343277987E+03  0.79343277987E+03  0.25500000920E-02 0.  1.
    10030    2    1    2    0    0  0.00000000000E+00  0.00000000000E+00  0.41830397058E+01  0.15910485995E+04  0.15910431006E+04 0.  0.
        3    1    3    3  502    0 -0.30010889360E+03 -0.70113288686E+03 -0.22418752836E+03  0.79492938751E+03  0.10100000352E+00 0.  1.
       -3    1    3    3    0  502  0.30010889360E+03  0.70113288686E+03  0.22837056807E+03  0.79611921194E+03  0.10100000352E+00 0. -1.
</event>
<event>
 5   0  0.7124495E-04  0.1637385E+04  0.7818609E-02  0.8797905E-01
        1   -1    0    0  501    0  0.00000000000E+00  0.00000000000E+00  0.84497170831E+03  0.84497170832E+03  0.50400001928E-02 0. -1.
       -1   -1    0    0    0  501  0.00000000000E+00  0.00000000000E+00 -0.79323011691E+03  0.79323011692E+03  0.50400001928E-02 0.  1.
    10030    2    1    2    0    0  0.00000000000E+00  0.00000000000E+00  0.51741591400E+02  0.16382018252E+04  0.16373845083E+04 0.  0.
        2    1    3    3  502    0 -0.71268980183E+03 -0.27888945953E+03 -0.26505076189E+03  0.80991233517E+03  0.25500000920E-02 0.  1.
       -2    1    3    3    0  502  0.71268980183E+03  0.27888945953E+03  0.31679235329E+03  0.82828949008E+03  0.25500000920E-02 0. -1.
</event>
<event>
 5   0  0.7633213E-04  0.1621761E+04  0.7818609E-02  0.8807290E-01
        1   -1    0    0  501    0  0.00000000000E+00  0.00000000000E+00  0.81457045340E+03  0.81457045341E+03  0.50400001928E-02 0. -1.
       -1   -1    0    0    0  501  0.00000000000E+00  0.00000000000E+00 -0.80720749490E+03  0.80720749492E+03  0.50400001928E-02 0.  1.
    10030    2    1    2    0    0  0.00000000000E+00  0.00000000000E+00  0.73629584925E+01  0.16217779483E+04  0.16217612341E+04 0.  0.
        1    1    3    3  502    0  0.58623570176E+03  0.19076670247E+03  0.53043461073E+03  0.81328046151E+03  0.50400001928E-02 0. -1.
       -1    1    3    3    0  502 -0.58623570176E+03 -0.19076670247E+03 -0.52307165224E+03  0.80849748682E+03  0.50400001928E-02 0.  1.
</event>
<event>
 5   0  0.7124495E-04  0.1381223E+04  0.7818609E-02  0.8967524E-01
       -1   -1    0    0    0  501  0.00000000000E+00  0.00000000000E+00  0.18326057322E+03  0.18326057329E+03  0.50400001928E-02 0. -1.
        1   -1    0    0  501    0  0.00000000000E+00  0.00000000000E+00 -0.26025469242E+04  0.26025469242E+04  0.50400001928E-02 0.  1.
    10030    2    1    2    0    0  0.00000000000E+00  0.00000000000E+00 -0.24192863510E+04  0.27858074975E+04  0.13812229961E+04 0.  0.
        2    1    3    3  502    0  0.24156583170E+03 -0.17240320401E+02 -0.25140936077E+04  0.25257311710E+04  0.25500000920E-02 0.  1.
       -2    1    3    3    0  502 -0.24156583170E+03  0.17240320401E+02  0.94807256712E+02  0.26007632654E+03  0.25500000920E-02 0. -1.
</event>
<event>
 5   0  0.1354766E-03  0.1584386E+04  0.7818609E-02  0.8830198E-01
        2   -1    0    0  501    0  0.00000000000E+00  0.00000000000E+00  0.84250544044E+03  0.84250544044E+03  0.25500000920E-02 0.  1.
       -2   -1    0    0    0  501  0.00000000000E+00  0.00000000000E+00 -0.74488522150E+03  0.74488522151E+03  0.25500000920E-02 0. -1.
    10030    2    1    2    0    0  0.00000000000E+00  0.00000000000E+00  0.97620218932E+02  0.15873906619E+04  0.15843861292E+04 0.  0.
        3    1    3    3  502    0 -0.33278411086E+03  0.30937369421E+03 -0.60135229525E+03  0.75371210705E+03  0.10100000352E+00 0. -1.
       -3    1    3    3    0  502  0.33278411086E+03 -0.30937369421E+03  0.69897251418E+03  0.83367855490E+03  0.10100000352E+00 0.  1.
</event>
<event>
 5   0  0.7124495E-04  0.1547242E+04  0.7818609E-02  0.8853631E-01
       -1   -1    0    0    0  501  0.00000000000E+00  0.00000000000E+00  0.40770471805E+03  0.40770471808E+03  0.50400001928E-02 0.  1.
        1   -1    0    0  501    0  0.00000000000E+00  0.00000000000E+00 -0.14679488362E+04  0.14679488362E+04  0.50400001928E-02 0. -1.
    10030    2    1    2    0    0  0.00000000000E+00  0.00000000000E+00 -0.10602441181E+04  0.18756535543E+04  0.15472422776E+04 0.  0.
        2    1    3    3  502    0  0.56823578908E+03 -0.41280440509E+03 -0.92329362396E+03  0.11600734912E+04  0.25500000920E-02 0. -1.
       -2    1    3    3    0  502 -0.56823578908E+03  0.41280440509E+03 -0.13695049416E+03  0.71558006310E+03  0.25500000920E-02 0.  1.
</event>
<event>
 5   0  0.1414796E-03  0.1608340E+04  0.7818609E-02  0.8815441E-01
       -2   -1    0    0    0  501  0.00000000000E+00  0.00000000000E+00  0.69100843361E+03  0.69100843362E+03  0.25500000920E-02 0. -1.
        2   -1    0    0  501    0  0.00000000000E+00  0.00000000000E+00 -0.93586343372E+03  0.93586343372E+03  0.25500000920E-02 0.  1.
    10030    2    1    2    0    0  0.00000000000E+00  0.00000000000E+00 -0.24485500011E+03  0.16268718673E+04  0.16083401698E+04 0.  0.
        4    1    3    3  502    0 -0.77741800212E+03 -0.18524214201E+03 -0.21286975902E+03  0.82704809316E+03  0.12699999809E+01 0.  1.
       -4    1    3    3    0  502  0.77741800212E+03  0.18524214201E+03 -0.31985241086E+02  0.79982377418E+03  0.12699999809E+01 0. -1.
</event>
<event>
 5   0  0.7499834E-04  0.1681326E+04  0.7818609E-02  0.8772087E-01
       -1   -1    0    0    0  501  0.00000000000E+00  0.00000000000E+00  0.66012002707E+03  0.66012002709E+03  0.50400001928E-02 0.  1.
        1   -1    0    0  501    0  0.00000000000E+00  0.00000000000E+00 -0.10705846486E+04  0.10705846486E+04  0.50400001928E-02 0. -1.
    10030    2    1    2    0    0  0.00000000000E+00  0.00000000000E+00 -0.41046462155E+03  0.17307046757E+04  0.16813261043E+04 0.  0.
        3    1    3    3  502    0 -0.83782820096E+03 -0.57134730333E+02 -0.16544636909E+03  0.85591645794E+03  0.10100000352E+00 0.  1.
       -3    1    3    3    0  502  0.83782820096E+03  0.57134730333E+02 -0.24501825245E+03  0.87478821778E+03  0.10100000352E+00 0. -1.
</event>
<event>
 5   0  0.7633213E-04  0.1584407E+04  0.7818609E-02  0.8830185E-01
       -1   -1    0    0    0  501  0.00000000000E+00  0.00000000000E+00  0.47610014496E+03  0.47610014498E+03  0.50400001928E-02 0.  1.
        1   -1    0    0  501    0  0.00000000000E+00  0.00000000000E+00 -0.13181807184E+04  0.13181807184E+04  0.50400001928E-02 0. -1.
    10030    2    1    2    0    0  0.00000000000E+00  0.00000000000E+00 -0.84208057342E+03  0.17942808634E+04  0.15844065528E+04 0.  0.
        1    1    3    3  502    0  0.54358891968E+02  0.75277791082E+03 -0.14840937777E+03  0.76919101372E+03  0.50400001928E-02 0.  1.
       -1    1    3    3    0  502 -0.54358891968E+02 -0.75277791082E+03 -0.69367119564E+03  0.10250898496E+04  0.50400001928E-02 0. -1.
</event>
<event>
 5   0  0.1414796E-03  0.1706423E+04  0.7818609E-02  0.8757709E-01
        2   -1    0    0  501    0  0.00000000000E+00  0.00000000000E+00  0.58614594457E+03  0.58614594458E+03  0.25500000920E-02 0. -1.
       -2   -1    0    0    0  501  0.00000000000E+00  0.00000000000E+00 -0.12419607255E+04  0.12419607255E+04  0.25500000920E-02 0.  1.
    10030    2    1    2    0    0  0.00000000000E+00  0.00000000000E+00 -0.65581478097E+03  0.18281066701E+04  0.17064234440E+04 0.  0.
        4    1    3    3  502    0  0.79762562443E+03 -0.29942995163E+03 -0.27877065282E+03  0.89642602732E+03  0.12699999809E+01 0. -1.
       -4    1    3    3    0  502 -0.79762562443E+03  0.29942995163E+03 -0.37704412815E+03  0.93168064279E+03  0.12699999809E+01 0.  1.
</event>
<event>
 5   0  0.1339162E-03  0.1631307E+04  0.7818609E-02  0.8801542E-01
        2   -1    0    0  501    0  0.00000000000E+00  0.00000000000E+00  0.18015307380E+04  0.18015307380E+04  0.25500000920E-02 0. -1.
       -2   -1    0    0    0  501  0.00000000000E+00  0.00000000000E+00 -0.36929189786E+03  0.36929189787E+03  0.25500000920E-02 0.  1.
    10030    2    1    2    0    0  0.00000000000E+00  0.00000000000E+00  0.14322388402E+04  0.21708226359E+04  0.16313070898E+04 0.  0.
        5    1    3    3  502    0 -0.60244296613E+03  0.10771723979E+03  0.14336362809E+04  0.15588058273E+04  0.46999998093E+01 0. -1.
       -5    1    3    3    0  502  0.60244296613E+03 -0.10771723979E+03 -0.13974407594E+01  0.61201680862E+03  0.46999998093E+01 0.  1.
</event>
<event>
 5   0  0.7124495E-04  0.1334209E+04  0.7818609E-02  0.9002869E-01
        1   -1    0    0  501    0  0.00000000000E+00  0.00000000000E+00  0.98987771454E+03  0.98987771455E+03  0.50400001928E-02 0. -1.
       -1   -1    0    0    0  501  0.00000000000E+00  0.00000000000E+00 -0.44957892124E+03  0.44957892127E+03  0.50400001928E-02 0.  1.
    10030    2    1    2    0    0  0.00000000000E+00  0.00000000000E+00  0.54029879330E+03  0.14394566358E+04  0.13342086120E+04 0.  0.
        2    1    3    3  502    0 -0.10834846467E+03 -0.22595513745E+03  0.93716955544E+03  0.97009375298E+03  0.25500000920E-02 0. -1.
       -2    1    3    3    0  502  0.10834846467E+03  0.22595513745E+03 -0.39687076214E+03  0.46936288284E+03  0.25500000920E-02 0.  1.
</event>
<event>
 5   0  0.7124495E-04  0.1560556E+04  0.7818609E-02  0.8845153E-01
       -1   -1    0    0    0  501  0.00000000000E+00  0.00000000000E+00  0.28195903931E+03  0.28195903935E+03  0.50400001928E-02 0.  1.
        1   -1    0    0  501    0  0.00000000000E+00  0.00000000000E+00 -0.21592983541E+04  0.21592983541E+04  0.50400001928E-02 0. -1.
    10030    2    1    2    0    0  0.00000000000E+00  0.00000000000E+00 -0.18773393148E+04  0.24412573934E+04  0.15605559132E+04 0.  0.
        2    1    3    3  502    0 -0.62683709820E+03 -0.46163577800E+03 -0.85587201875E+03  0.11569568928E+04  0.25500000920E-02 0. -1.
       -2    1    3    3    0  502  0.62683709820E+03  0.46163577800E+03 -0.10214672960E+04  0.12843005007E+04  0.25500000920E-02 0.  1.
</event>
<event>
 5   0  0.7633213E-04  0.1509210E+04  0.7818609E-02  0.8878352E-01
        1   -1    0    0  501    0  0.00000000000E+00  0.00000000000E+00  0.19304250779E+04  0.19304250779E+04  0.50400001928E-02 0. -1.
       -1   -1    0    0    0  501  0.00000000000E+00  0.00000000000E+00 -0.29497563593E+03  0.29497563597E+03  0.50400001928E-02 0.  1.
    10030    2    1    2    0    0  0.00000000000E+00  0.00000000000E+00  0.16354494420E+04  0.22254007139E+04  0.15092095481E+04 0.  0.
        1    1    3    3  502    0  0.60547621998E+02 -0.37738771761E+03 -0.14168424618E+03  0.40762964756E+03  0.50400001928E-02 0.  1.
       -1    1    3    3    0  502 -0.60547621998E+02  0.37738771761E+03  0.17771336882E+04  0.18177710663E+04  0.50400001928E-02 0. -1.
</event>
<event>
 5   0  0.7302027E-04  0.1613924E+04  0.7818609E-02  0.8812039E-01
       -1   -1    0    0    0  501  0.00000000000E+00  0.00000000000E+00  0.38257277729E+03  0.38257277733E+03  0.50400001928E-02 0. -1.
        1   -1    0    0  501    0  0.00000000000E+00  0.00000000000E+00 -0.17021285974E+04  0.17021285974E+04  0.50400001928E-02 0.  1.
    10030    2    1    2    0    0  0.00000000000E+00  0.00000000000E+00 -0.13195558201E+04  0.20847013747E+04  0.16139244900E+04 0.  0.
        5    1    3    3  502    0 -0.33595231214E+03 -0.29187853150E+03  0.20970681622E+03  0.49199194297E+03  0.46999998093E+01 0. -1.
       -5    1    3    3    0  502  0.33595231214E+03  0.29187853150E+03 -0.15292626363E+04  0.15927094317E+04  0.46999998093E+01 0.  1.
</event>
<event>
 5   0  0.7499834E-04  0.1586244E+04  0.7818609E-02  0.8829043E-01
        1   -1    0    0  501    0  0.00000000000E+00  0.00000000000E+00  0.55047785140E+03  0.55047785142E+03  0.50400001928E-02 0.  1.
       -1   -1    0    0    0  501  0.00000000000E+00  0.00000000000E+00 -0.11427212659E+04  0.11427212659E+04  0.50400001928E-02 0. -1.
    10030    2    1    2    0    0  0.00000000000E+00  0.00000000000E+00 -0.59224341451E+03  0.16931991173E+04  0.15862443030E+04 0.  0.
        3    1    3    3  502    0  0.27934174858E+03 -0.65873838424E+03 -0.66135421159E+03  0.97434977024E+03  0.10100000352E+00 0. -1.
       -3    1    3    3    0  502 -0.27934174858E+03  0.65873838424E+03  0.69110797080E+02  0.71884934711E+03  0.10100000352E+00 0.  1.
</event>
<event>
 5   0  0.1375777E-03  0.1619488E+04  0.7818609E-02  0.8808664E-01
        2   -1    0    0  501    0  0.00000000000E+00  0.00000000000E+00  0.61797192345E+03  0.61797192345E+03  0.25500000920E-02 0.  1.
       -2   -1    0    0    0  501  0.00000000000E+00  0.00000000000E+00 -0.10610283490E+04  0.10610283490E+04  0.25500000920E-02 0. -1.
    10030    2    1    2    0    0  0.00000000000E+00  0.00000000000E+00 -0.44305642551E+03  0.16790002724E+04  0.16194884744E+04 0.  0.
        1    1    3    3  502    0  0.27845434225E+03  0.23862881405E+03  0.52694674460E+03  0.64199174705E+03  0.50400001928E-02 0.  1.
       -1    1    3    3    0  502 -0.27845434225E+03 -0.23862881405E+03 -0.97000317011E+03  0.10370085254E+04  0.50400001928E-02 0. -1.
</event>
<event>
 5   0  0.7302027E-04  0.1603630E+04  0.7818609E-02  0.8818321E-01
       -1   -1    0    0    0  501  0.00000000000E+00  0.00000000000E+00  0.46411228225E+03  0.46411228228E+03  0.50400001928E-02 0. -1.
        1   -1    0    0  501    0  0.00000000000E+00  0.00000000000E+00 -0.13852414732E+04  0.13852414732E+04  0.50400001928E-02 0.  1.
    10030    2    1    2    0    0  0.00000000000E+00  0.00000000000E+00 -0.92112919093E+03  0.18493537555E+04  0.16036303584E+04 0.  0.
        5    1    3    3  502    0  0.10168258727E+01  0.43341236836E+03 -0.12384930220E+04  0.13121487608E+04  0.46999998093E+01 0.  1.
       -5    1    3    3    0  502 -0.10168258727E+01 -0.43341236836E+03  0.31736383109E+03  0.53720499464E+03  0.46999998093E+01 0. -1.
</event>
<event>
 5   0  0.7633213E-04  0.1514801E+04  0.7818609E-02  0.8874669E-01
       -1   -1    0    0    0  501  0.00000000000E+00  0.00000000000E+00  0.78121284935E+03  0.78121284937E+03  0.50400001928E-02 0.  1.
        1   -1    0    0  501    0  0.00000000000E+00  0.00000000000E+00 -0.73431446528E+03  0.73431446530E+03  0.50400001928E-02 0. -1.
    10030    2    1    2    0    0  0.00000000000E+00  0.00000000000E+00  0.46898384073E+02  0.15155273147E+04  0.15148014996E+04 0.  0.
        1    1    3    3  502    0  0.27219237381E+03 -0.69848587523E+03  0.13159672819E+03  0.76111031076E+03  0.50400001928E-02 0.  1.
       -1    1    3    3    0  502 -0.27219237381E+03  0.69848587523E+03 -0.84698344113E+02  0.75441700390E+03  0.50400001928E-02 0. -1.
</event>
<event>
 5   0  0.7499834E-04  0.1607432E+04  0.7818609E-02  0.8815995E-01
        1   -1    0    0  501    0  0.00000000000E+00  0.00000000000E+00  0.11231123976E+04  0.11231123976E+04  0.50400001928E-02 0.  1.
       -1   -1    0    0    0  501  0.00000000000E+00  0.00000000000E+00 -0.57515150175E+03  0.57515150177E+03  0.50400001928E-02 0. -1.
    10030    2    1    2    0    0  0.00000000000E+00  0.00000000000E+00  0.54796089580E+03  0.16982638993E+04  0.16074324647E+04 0.  0.
        3    1    3    3  502    0 -0.48521943433E+03 -0.36247177372E+03 -0.28420747335E+03  0.66902734197E+03  0.10100000352E+00 0. -1.
       -3    1    3    3    0  502  0.48521943433E+03  0.36247177372E+03  0.83216836916E+03  0.10292365574E+04  0.10100000352E+00 0.  1.
</event>
<event>
 5   0  0.7601145E-04  0.1445998E+04  0.7818609E-02  0.8921180E-01
       -1   -1    0    0    0  501  0.00000000000E+00  0.00000000000E+00  0.46163033138E+03  0.46163033141E+03  0.50400001928E-02 0. -1.
        1   -1    0    0  501    0  0.00000000000E+00  0.00000000000E+00 -0.11323513436E+04  0.11323513436E+04  0.50400001928E-02 0.  1.
    10030    2    1    2    0    0  0.00000000000E+00  0.00000000000E+00 -0.67072101220E+03  0.15939816750E+04  0.14459982379E+04 0.  0.
        4    1    3    3  502    0  0.40095590773E+03 -0.80805497845E+02  0.32183287147E+03  0.52045478045E+03  0.12699999809E+01 0. -1.
       -4    1    3    3    0  502 -0.40095590773E+03  0.80805497845E+02 -0.99255388367E+03  0.10735268945E+04  0.12699999809E+01 0.  1.
</event>
<event>
 5   0  0.7499834E-04  0.1483543E+04  0.7818609E-02  0.8895471E-01
        1   -1    0    0  501    0  0.00000000000E+00  0.00000000000E+00  0.89684338445E+03  0.89684338446E+03  0.50400001928E-02 0.  1.
       -1   -1    0    0    0  501  0.00000000000E+00  0.00000000000E+00 -0.61351285220E+03  0.61351285222E+03  0.50400001928E-02 0. -1.
    10030    2    1    2    0    0  0.00000000000E+00  0.00000000000E+00  0.28333053225E+03  0.15103562367E+04  0.14835429792E+04 0.  0.
        3    1    3    3  502    0 -0.37953984679E+03 -0.21340595436E+02 -0.50680779975E+03  0.63352985123E+03  0.10100000352E+00 0. -1.
       -3    1    3    3    0  502  0.37953984679E+03  0.21340595436E+02  0.79013833200E+03  0.87682638545E+03  0.10100000352E+00 0.  1.
</event>
<event>
 5   0  0.1375777E-03  0.1597863E+04  0.7818609E-02  0.8821862E-01
        2   -1    0    0  501    0  0.00000000000E+00  0.00000000000E+00  0.17986422180E+04  0.17986422180E+04  0.25500000920E-02 0. -1.
       -2   -1    0    0    0  501  0.00000000000E+00  0.00000000000E+00 -0.35487430228E+03  0.35487430229E+03  0.25500000920E-02 0.  1.
    10030    2    1    2    0    0  0.00000000000E+00  0.00000000000E+00  0.14437679157E+04  0.21535165203E+04  0.15978634512E+04 0.  0.
        1    1    3    3  502    0  0.68556611192E+03 -0.41021710332E+03  0.71703646908E+03  0.10735083901E+04  0.50400001928E-02 0. -1.
       -1    1    3    3    0  502 -0.68556611192E+03  0.41021710332E+03  0.72673144665E+03  0.10800081302E+04  0.50400001928E-02 0.  1.
</event>
<event>
 5   0  0.1354766E-03  0.1604196E+04  0.7818609E-02  0.8817975E-01
        2   -1    0    0  501    0  0.00000000000E+00  0.00000000000E+00  0.98452187641E+03  0.98452187642E+03  0.25500000920E-02 0. -1.
       -2   -1    0    0    0  501  0.00000000000E+00  0.00000000000E+00 -0.65347555012E+03  0.65347555013E+03  0.25500000920E-02 0.  1.
    10030    2    1    2    0    0  0.00000000000E+00  0.00000000000E+00  0.33104632629E+03  0.16379974265E+04  0.16041957172E+04 0.  0.
        3    1    3    3  502    0  0.35680916706E+03  0.51907032979E+03  0.67258961832E+03  0.92147902518E+03  0.10100000352E+00 0. -1.
       -3    1    3    3    0  502 -0.35680916706E+03 -0.51907032979E+03 -0.34154329203E+03  0.71651840137E+03  0.10100000352E+00 0.  1.
</event>
<event>
 5   0  0.7499834E-04  0.1624030E+04  0.7818609E-02  0.8805920E-01
       -1   -1    0    0    0  501  0.00000000000E+00  0.00000000000E+00  0.10018548529E+04  0.10018548529E+04  0.50400001928E-02 0.  1.
        1   -1    0    0  501    0  0.00000000000E+00  0.00000000000E+00 -0.65814776663E+03  0.65814776665E+03  0.50400001928E-02 0. -1.
    10030    2    1    2    0    0  0.00000000000E+00  0.00000000000E+00  0.34370708622E+03  0.16600026195E+04  0.16240302139E+04 0.  0.
        3    1    3    3  502    0  0.14321226508E+03  0.60157942708E+02  0.98652690562E+03  0.99868116867E+03  0.10100000352E+00 0.  1.
       -3    1    3    3    0  502 -0.14321226508E+03 -0.60157942708E+02 -0.64281981940E+03  0.66132145085E+03  0.10100000352E+00 0. -1.
</event>
<event>
 5   0  0.5095750E-04  0.1606965E+04  0.7818609E-02  0.8816280E-01
        4   -1    0    0  501    0  0.00000000000E+00  0.00000000000E+00  0.11892849977E+04  0.11892856758E+04  0.12699999809E+01 0. -1.
       -4   -1    0    0    0  501  0.00000000000E+00  0.00000000000E+00 -0.54283237998E+03  0.54283386561E+03  0.12699999809E+01 0.  1.
    10030    2    1    2    0    0  0.00000000000E+00  0.00000000000E+00  0.64645261769E+03  0.17321195414E+04  0.16069651890E+04 0.  0.
        4    1    3    3  502    0 -0.31582651123E+03 -0.71943510528E+03  0.50439205624E+03  0.93367350568E+03  0.12699999809E+01 0. -1.
       -4    1    3    3    0  502  0.31582651123E+03  0.71943510528E+03  0.14206056145E+03  0.79844603570E+03  0.12699999809E+01 0.  1.
</event>
<event>
 5   0  0.7601145E-04  0.1600388E+04  0.7818609E-02  0.8820310E-01
        1   -1    0    0  501    0  0.00000000000E+00  0.00000000000E+00  0.12445602326E+04  0.12445602326E+04  0.50400001928E-02 0. -1.
       -1   -1    0    0    0  501  0.00000000000E+00  0.00000000000E+00 -0.51448735554E+03  0.51448735556E+03  0.50400001928E-02 0.  1.
    10030    2    1    2    0    0  0.00000000000E+00  0.00000000000E+00  0.73007287710E+03  0.17590475882E+04  0.16003880816E+04 0.  0.
        4    1    3    3  502    0  0.42888192626E+03  0.67050076488E+03  0.27441313067E+03  0.84191161149E+03  0.12699999809E+01 0. -1.
       -4    1    3    3    0  502 -0.42888192626E+03 -0.67050076488E+03  0.45565974643E+03  0.91713597672E+03  0.12699999809E+01 0.  1.
</event>
<event>
 5   0  0.7124495E-04  0.1616228E+04  0.7818609E-02  0.8810640E-01
        1   -1    0    0  501    0  0.00000000000E+00  0.00000000000E+00  0.12429789953E+04  0.12429789953E+04  0.50400001928E-02 0. -1.
       -1   -1    0    0    0  501  0.00000000000E+00  0.00000000000E+00 -0.52538934877E+03  0.52538934879E+03  0.50400001928E-02 0.  1.
    10030    2    1    2    0    0  0.00000000000E+00  0.00000000000E+00  0.71758964653E+03  0.17683683441E+04  0.16162276138E+04 0.  0.
        2    1    3    3  502    0  0.42946960366E+02 -0.34410660049E+03  0.11574327404E+04  0.12082650133E+04  0.25500000920E-02 0. -1.
       -2    1    3    3    0  502 -0.42946960366E+02  0.34410660049E+03 -0.43984309387E+03  0.56010333077E+03  0.25500000920E-02 0.  1.
</event>
<event>
 5   0  0.7633213E-04  0.1598342E+04  0.7818609E-02  0.8821567E-01
        1   -1    0    0  501    0  0.00000000000E+00  0.00000000000E+00  0.12668687839E+04  0.12668687840E+04  0.50400001928E-02 0.  1.
       -1   -1    0    0    0  501  0.00000000000E+00  0.00000000000E+00 -0.50413599542E+03  0.50413599545E+03  0.50400001928E-02 0. -1.
    10030    2    1    2    0    0  0.00000000000E+00  0.00000000000E+00  0.76273278852E+03  0.17710047794E+04  0.15983418351E+04 0.  0.
        1    1    3    3  502    0 -0.20746176667E+03  0.29522025487E+03 -0.40874164311E+03  0.54522024389E+03  0.50400001928E-02 0. -1.
       -1    1    3    3    0  502  0.20746176667E+03 -0.29522025487E+03  0.11714744316E+04  0.12257845355E+04  0.50400001928E-02 0.  1.
</event>
<event>
 5   0  0.7302027E-04  0.1628229E+04  0.7818609E-02  0.8803391E-01
        1   -1    0    0  501    0  0.00000000000E+00  0.00000000000E+00  0.26737665838E+04  0.26737665838E+04  0.50400001928E-02 0. -1.
       -1   -1    0    0    0  501  0.00000000000E+00  0.00000000000E+00 -0.24788349917E+03  0.24788349922E+03  0.50400001928E-02 0.  1.
    10030    2    1    2    0    0  0.00000000000E+00  0.00000000000E+00  0.24258830846E+04  0.29216500830E+04  0.16282292429E+04 0.  0.
        5    1    3    3  502    0 -0.18166214737E+03 -0.78382507825E+03  0.14354556050E+04  0.16455812873E+04  0.46999998093E+01 0. -1.
       -5    1    3    3    0  502  0.18166214737E+03  0.78382507825E+03  0.99042747957E+03  0.12760687957E+04  0.46999998093E+01 0.  1.
</event>
<event>
 5   0  0.1339162E-03  0.1586017E+04  0.7818609E-02  0.8829184E-01
       -2   -1    0    0    0  501  0.00000000000E+00  0.00000000000E+00  0.30254557293E+03  0.30254557294E+03  0.25500000920E-02 0.  1.
        2   -1    0    0  501    0  0.00000000000E+00  0.00000000000E+00 -0.20785722576E+04  0.20785722576E+04  0.25500000920E-02 0. -1.
    10030    2    1    2    0    0  0.00000000000E+00  0.00000000000E+00 -0.17760266846E+04  0.23811178305E+04  0.15860174457E+04 0.  0.
        5    1    3    3  502    0  0.22578980715E+03 -0.37838915178E+03 -0.18778383781E+04  0.19288489966E+04  0.46999998093E+01 0. -1.
       -5    1    3    3    0  502 -0.22578980715E+03  0.37838915178E+03  0.10181169352E+03  0.45226883391E+03  0.46999998093E+01 0.  1.
</event>
<event>
 5   0  0.1414796E-03  0.1637727E+04  0.7818609E-02  0.8797700E-01
       -2   -1    0    0    0  501  0.00000000000E+00  0.00000000000E+00  0.59397835190E+03  0.59397835190E+03  0.25500000920E-02 0. -1.
        2   -1    0    0  501    0  0.00000000000E+00  0.00000000000E+00 -0.11288917244E+04  0.11288917244E+04  0.25500000920E-02 0.  1.
    10030    2    1    2    0    0  0.00000000000E+00  0.00000000000E+00 -0.53491337246E+03  0.17228700763E+04  0.16377267732E+04 0.  0.
        4    1    3    3  502    0 -0.38588232711E+03  0.50807662010E+01  0.49231272693E+03  0.62554329871E+03  0.12699999809E+01 0. -1.
       -4    1    3    3    0  502  0.38588232711E+03 -0.50807662010E+01 -0.10272260994E+04  0.10973267775E+04  0.12699999809E+01 0.  1.
</event>
<event>
 5   0  0.7302027E-04  0.1587561E+04  0.7818609E-02  0.8828226E-01
        1   -1    0    0  501    0  0.00000000000E+00  0.00000000000E+00  0.49764739427E+03  0.49764739430E+03  0.50400001928E-02 0.  1.
       -1   -1    0    0    0  501  0.00000000000E+00  0.00000000000E+00 -0.12661321535E+04  0.12661321535E+04  0.50400001928E-02 0. -1.
    10030    2    1    2    0    0  0.00000000000E+00  0.00000000000E+00 -0.76848475923E+03  0.17637795478E+04  0.15875608549E+04 0.  0.
        5    1    3    3  502    0 -0.49688451559E+03  0.50096644344E+03  0.19715132645E+02  0.70588410929E+03  0.46999998093E+01 0.  1.
       -5    1    3    3    0  502  0.49688451559E+03 -0.50096644344E+03 -0.78819989187E+03  0.10578954385E+04  0.46999998093E+01 0. -1.
</event>
<event>
 5   0  0.5095750E-04  0.1356802E+04  0.7818609E-02  0.8985695E-01
       -3   -1    0    0    0  501  0.00000000000E+00  0.00000000000E+00  0.91967708695E+03  0.91967709250E+03  0.10100000352E+00 0.  1.
        3   -1    0    0  501    0  0.00000000000E+00  0.00000000000E+00 -0.50042373432E+03  0.50042374452E+03  0.10100000352E+00 0. -1.
    10030    2    1    2    0    0  0.00000000000E+00  0.00000000000E+00  0.41925335263E+03  0.14201008370E+04  0.13568024962E+04 0.  0.
        1    1    3    3  502    0  0.12838889676E+03 -0.49476641322E+03  0.67647449067E+03  0.84787690677E+03  0.50400001928E-02 0.  1.
       -1    1    3    3    0  502 -0.12838889676E+03  0.49476641322E+03 -0.25722113804E+03  0.57222393025E+03  0.50400001928E-02 0. -1.
</event>
<event>
 5   0  0.1354766E-03  0.1633969E+04  0.7818609E-02  0.8799947E-01
        2   -1    0    0  501    0  0.00000000000E+00  0.00000000000E+00  0.11874994249E+04  0.11874994250E+04  0.25500000920E-02 0. -1.
       -2   -1    0    0    0  501  0.00000000000E+00  0.00000000000E+00 -0.56207502195E+03  0.56207502195E+03  0.25500000920E-02 0.  1.
    10030    2    1    2    0    0  0.00000000000E+00  0.00000000000E+00  0.62542440300E+03  0.17495744469E+04  0.16339691127E+04 0.  0.
        3    1    3    3  502    0 -0.34261426071E+03 -0.44620844752E+02 -0.47999684029E+03  0.59141569840E+03  0.10100000352E+00 0.  1.
       -3    1    3    3    0  502  0.34261426071E+03  0.44620844752E+02  0.11054212433E+04  0.11581587485E+04  0.10100000352E+00 0. -1.
</event>
<event>
 5   0  0.1414796E-03  0.1696561E+04  0.7818609E-02  0.8763328E-01
        2   -1    0    0  501    0  0.00000000000E+00  0.00000000000E+00  0.91218258222E+03  0.91218258223E+03  0.25500000920E-02 0.  1.
       -2   -1    0    0    0  501  0.00000000000E+00  0.00000000000E+00 -0.78885509880E+03  0.78885509880E+03  0.25500000920E-02 0. -1.
    10030    2    1    2    0    0  0.00000000000E+00  0.00000000000E+00  0.12332748342E+03  0.17010376810E+04  0.16965610876E+04 0.  0.
        4    1    3    3  502    0 -0.15139647777E+03  0.75299915736E+03 -0.29935528918E+03  0.82434448292E+03  0.12699999809E+01 0. -1.
       -4    1    3    3    0  502  0.15139647777E+03 -0.75299915736E+03  0.42268277260E+03  0.87669319811E+03  0.12699999809E+01 0.  1.
</event>
<event>
 5   0  0.1414796E-03  0.1681789E+04  0.7818609E-02  0.8771820E-01
        2   -1    0    0  501    0  0.00000000000E+00  0.00000000000E+00  0.82100051263E+03  0.82100051263E+03  0.25500000920E-02 0. -1.
       -2   -1    0    0    0  501  0.00000000000E+00  0.00000000000E+00 -0.86127007481E+03  0.86127007481E+03  0.25500000920E-02 0.  1.
    10030    2    1    2    0    0  0.00000000000E+00  0.00000000000E+00 -0.40269562185E+02  0.16822705874E+04  0.16817885395E+04 0.  0.
        4    1    3    3  502    0  0.33143717265E+03 -0.27985112342E+03  0.70044265008E+03  0.82388638151E+03  0.12699999809E+01 0. -1.
       -4    1    3    3    0  502 -0.33143717265E+03  0.27985112342E+03 -0.74071221227E+03  0.85838420593E+03  0.12699999809E+01 0.  1.
</event>
<event>
 5   0  0.7601145E-04  0.1593833E+04  0.7818609E-02  0.8824346E-01
       -1   -1    0    0    0  501  0.00000000000E+00  0.00000000000E+00  0.42701895788E+03  0.42701895791E+03  0.50400001928E-02 0.  1.
        1   -1    0    0  501    0  0.00000000000E+00  0.00000000000E+00 -0.14872314415E+04  0.14872314415E+04  0.50400001928E-02 0. -1.
    10030    2    1    2    0    0  0.00000000000E+00  0.00000000000E+00 -0.10602124836E+04  0.19142503994E+04  0.15938331409E+04 0.  0.
        4    1    3    3  502    0  0.24326617772E+03 -0.63386801437E+03 -0.10312523959E+04  0.12346862799E+04  0.12699999809E+01 0. -1.
       -4    1    3    3    0  502 -0.24326617772E+03  0.63386801437E+03 -0.28960087681E+02  0.67956411945E+03  0.12699999809E+01 0.  1.
</event>
<event>
 5   0  0.7499834E-04  0.1152939E+04  0.7818609E-02  0.9155077E-01
       -1   -1    0    0    0  501  0.00000000000E+00  0.00000000000E+00  0.45314579703E+03  0.45314579706E+03  0.50400001928E-02 0.  1.
        1   -1    0    0  501    0  0.00000000000E+00  0.00000000000E+00 -0.73335567220E+03  0.73335567222E+03  0.50400001928E-02 0. -1.
    10030    2    1    2    0    0  0.00000000000E+00  0.00000000000E+00 -0.28020987517E+03  0.11865014693E+04  0.11529389240E+04 0.  0.
        3    1    3    3  502    0 -0.34954379643E+02 -0.44605430869E+02 -0.73048216888E+03  0.73267705190E+03  0.10100000352E+00 0. -1.
       -3    1    3    3    0  502  0.34954379643E+02  0.44605430869E+02  0.45027229372E+03  0.45382441738E+03  0.10100000352E+00 0.  1.
</event>
<event>
 5   0  0.7499834E-04  0.1785224E+04  0.7818609E-02  0.8714197E-01
        1   -1    0    0  501    0  0.00000000000E+00  0.00000000000E+00  0.11260898237E+04  0.11260898237E+04  0.50400001928E-02 0.  1.
       -1   -1    0    0    0  501  0.00000000000E+00  0.00000000000E+00 -0.70754220579E+03  0.70754220580E+03  0.50400001928E-02 0. -1.
    10030    2    1    2    0    0  0.00000000000E+00  0.00000000000E+00  0.41854761792E+03  0.18336320295E+04  0.17852238827E+04 0.  0.
        3    1    3    3  502    0 -0.70241629783E+02  0.47607731025E+03 -0.56289105941E+03  0.74056049506E+03  0.10100000352E+00 0. -1.
       -3    1    3    3    0  502  0.70241629783E+02 -0.47607731025E+03  0.98143867733E+03  0.10930715345E+04  0.10100000352E+00 0.  1.
</event>
<event>
 5   0  0.1375777E-03  0.1593147E+04  0.7818609E-02  0.8824769E-01
       -2   -1    0    0    0  501  0.00000000000E+00  0.00000000000E+00  0.88959009136E+03  0.88959009137E+03  0.25500000920E-02 0.  1.
        2   -1    0    0  501    0  0.00000000000E+00  0.00000000000E+00 -0.71328246016E+03  0.71328246017E+03  0.25500000920E-02 0. -1.
    10030    2    1    2    0    0  0.00000000000E+00  0.00000000000E+00  0.17630763120E+03  0.16028725515E+04  0.15931465832E+04 0.  0.
        1    1    3    3  502    0  0.62072067199E+03  0.17831184508E+03 -0.38099726134E+03  0.74983210114E+03  0.50400001928E-02 0. -1.
       -1    1    3    3    0  502 -0.62072067199E+03 -0.17831184508E+03  0.55730489254E+03  0.85304045039E+03  0.50400001928E-02 0.  1.
</event>
<event>
 5   0  0.7601145E-04  0.1608031E+04  0.7818609E-02  0.8815629E-01
        1   -1    0    0  501    0  0.00000000000E+00  0.00000000000E+00  0.12799004655E+04  0.12799004655E+04  0.50400001928E-02 0.  1.
       -1   -1    0    0    0  501  0.00000000000E+00  0.00000000000E+00 -0.50507122088E+03  0.50507122091E+03  0.50400001928E-02 0. -1.
    10030    2    1    2    0    0  0.00000000000E+00  0.00000000000E+00  0.77482924463E+03  0.17849716864E+04  0.16080309584E+04 0.  0.
        4    1    3    3  502    0 -0.53372740014E+03 -0.64877607918E+02 -0.27616505573E+03  0.60443592926E+03  0.12699999809E+01 0. -1.
       -4    1    3    3    0  502  0.53372740014E+03  0.64877607918E+02  0.10509943004E+04  0.11805357572E+04  0.12699999809E+01 0.  1.
</event>
<event>
 5   0  0.1354766E-03  0.1544298E+04  0.7818609E-02  0.8855518E-01
        2   -1    0    0  501    0  0.00000000000E+00  0.00000000000E+00  0.15867748971E+04  0.15867748971E+04  0.25500000920E-02 0. -1.
       -2   -1    0    0    0  501  0.00000000000E+00  0.00000000000E+00 -0.37573956533E+03  0.37573956534E+03  0.25500000920E-02 0.  1.
    10030    2    1    2    0    0  0.00000000000E+00  0.00000000000E+00  0.12110353318E+04  0.19625144624E+04  0.15442980413E+04 0.  0.
        3    1    3    3  502    0  0.16262517215E+03 -0.57430467900E+03  0.12280103318E+04  0.13653871965E+04  0.10100000352E+00 0. -1.
       -3    1    3    3    0  502 -0.16262517215E+03  0.57430467900E+03 -0.16975000084E+02  0.59712726597E+03  0.10100000352E+00 0.  1.
</event>
<event>
 5   0  0.7302027E-04  0.1483972E+04  0.7818609E-02  0.8895182E-01
        1   -1    0    0  501    0  0.00000000000E+00  0.00000000000E+00  0.12736455418E+04  0.12736455418E+04  0.50400001928E-02 0. -1.
       -1   -1    0    0    0  501  0.00000000000E+00  0.00000000000E+00 -0.43225760829E+03  0.43225760832E+03  0.50400001928E-02 0.  1.
    10030    2    1    2    0    0  0.00000000000E+00  0.00000000000E+00  0.84138793346E+03  0.17059031501E+04  0.14839716651E+04 0.  0.
        5    1    3    3  502    0 -0.22539598924E+03 -0.55576186727E+03 -0.81498984636E+02  0.60525926641E+03  0.46999998093E+01 0.  1.
       -5    1    3    3    0  502  0.22539598924E+03  0.55576186727E+03  0.92288691810E+03  0.11006438837E+04  0.46999998093E+01 0. -1.
</event>
<event>
 5   0  0.1354766E-03  0.1572330E+04  0.7818609E-02  0.8837730E-01
       -2   -1    0    0    0  501  0.00000000000E+00  0.00000000000E+00  0.76738462342E+03  0.76738462342E+03  0.25500000920E-02 0.  1.
        2   -1    0    0  501    0  0.00000000000E+00  0.00000000000E+00 -0.80540459054E+03  0.80540459054E+03  0.25500000920E-02 0. -1.
    10030    2    1    2    0    0  0.00000000000E+00  0.00000000000E+00 -0.38019967123E+02  0.15727892140E+04  0.15723296072E+04 0.  0.
        3    1    3    3  502    0  0.29531137952E+03 -0.50820482530E+03  0.50322895423E+03  0.77377021519E+03  0.10100000352E+00 0.  1.
       -3    1    3    3    0  502 -0.29531137952E+03  0.50820482530E+03 -0.54124892135E+03  0.79901899878E+03  0.10100000352E+00 0. -1.
</event>
<event>
 5   0  0.1375777E-03  0.1613464E+04  0.7818609E-02  0.8812319E-01
        2   -1    0    0  501    0  0.00000000000E+00  0.00000000000E+00  0.11230092969E+04  0.11230092969E+04  0.25500000920E-02 0. -1.
       -2   -1    0    0    0  501  0.00000000000E+00  0.00000000000E+00 -0.57952909539E+03  0.57952909539E+03  0.25500000920E-02 0.  1.
    10030    2    1    2    0    0  0.00000000000E+00  0.00000000000E+00  0.54348020153E+03  0.17025383923E+04  0.16134640522E+04 0.  0.
        1    1    3    3  502    0 -0.27903207923E+03 -0.57372220535E+03 -0.24928051629E+03  0.68495025073E+03  0.50400001928E-02 0. -1.
       -1    1    3    3    0  502  0.27903207923E+03  0.57372220535E+03  0.79276071781E+03  0.10175881416E+04  0.50400001928E-02 0.  1.
</event>
<event>
 5   0  0.7302027E-04  0.1581214E+04  0.7818609E-02  0.8832173E-01
        1   -1    0    0  501    0  0.00000000000E+00  0.00000000000E+00  0.14812131037E+04  0.14812131038E+04  0.50400001928E-02 0.  1.
       -1   -1    0    0    0  501  0.00000000000E+00  0.00000000000E+00 -0.42199166473E+03  0.42199166476E+03  0.50400001928E-02 0. -1.
    10030    2    1    2    0    0  0.00000000000E+00  0.00000000000E+00  0.10592214390E+04  0.19032047685E+04  0.15812141961E+04 0.  0.
        5    1    3    3  502    0 -0.24057620774E+03 -0.46906378155E+03  0.12387752175E+04  0.13462852121E+04  0.46999998093E+01 0.  1.
       -5    1    3    3    0  502  0.24057620774E+03  0.46906378155E+03 -0.17955377851E+03  0.55691955637E+03  0.46999998093E+01 0. -1.
</event>
<event>
 5   0  0.7124495E-04  0.1609404E+04  0.7818609E-02  0.8814791E-01
        1   -1    0    0  501    0  0.00000000000E+00  0.00000000000E+00  0.13443968005E+04  0.13443968005E+04  0.50400001928E-02 0. -1.
       -1   -1    0    0    0  501  0.00000000000E+00  0.00000000000E+00 -0.48166241375E+03  0.48166241378E+03  0.50400001928E-02 0.  1.
    10030    2    1    2    0    0  0.00000000000E+00  0.00000000000E+00  0.86273438676E+03  0.18260592143E+04  0.16094041233E+04 0.  0.
        2    1    3    3  502    0  0.76770159555E+03 -0.20112234962E+03  0.58244393415E+03  0.98440686495E+03  0.25500000920E-02 0. -1.
       -2    1    3    3    0  502 -0.76770159555E+03  0.20112234962E+03  0.28029045260E+03  0.84165234934E+03  0.25500000920E-02 0.  1.
</event>
<event>
 5   0  0.1414751E-03  0.1710935E+04  0.7818609E-02  0.8755152E-01
       -2   -1    0    0    0  501  0.00000000000E+00  0.00000000000E+00  0.45672867131E+03  0.45672867132E+03  0.25500000920E-02 0.  1.
        2   -1    0    0  501    0  0.00000000000E+00  0.00000000000E+00 -0.16023186568E+04  0.16023186568E+04  0.25500000920E-02 0. -1.
    10030    2    1    2    0    0  0.00000000000E+00  0.00000000000E+00 -0.11455899854E+04  0.20590473281E+04  0.17109352660E+04 0.  0.
        2    1    3    3  502    0  0.76210756618E+03  0.36676416930E+03 -0.72738717417E+03  0.11155339526E+04  0.25500000920E-02 0. -1.
       -2    1    3    3    0  502 -0.76210756618E+03 -0.36676416930E+03 -0.41820281127E+03  0.94351337546E+03  0.25500000920E-02 0.  1.
</event>
<event>
 5   0  0.1414751E-03  0.1664612E+04  0.7818609E-02  0.8781809E-01
       -2   -1    0    0    0  501  0.00000000000E+00  0.00000000000E+00  0.45337559543E+03  0.45337559543E+03  0.25500000920E-02 0. -1.
        2   -1    0    0  501    0  0.00000000000E+00  0.00000000000E+00 -0.15279461805E+04  0.15279461805E+04  0.25500000920E-02 0.  1.
    10030    2    1    2    0    0  0.00000000000E+00  0.00000000000E+00 -0.10745705851E+04  0.19813217759E+04  0.16646122784E+04 0.  0.
        2    1    3    3  502    0  0.80924680569E+03 -0.10131655108E+03 -0.33958714278E+03  0.88343922462E+03  0.25500000920E-02 0. -1.
       -2    1    3    3    0  502 -0.80924680569E+03  0.10131655108E+03 -0.73498344229E+03  0.10978825513E+04  0.25500000920E-02 0.  1.
</event>
<event>
 5   0  0.7499834E-04  0.1600683E+04  0.7818609E-02  0.8820129E-01
       -1   -1    0    0    0  501  0.00000000000E+00  0.00000000000E+00  0.43222286052E+03  0.43222286055E+03  0.50400001928E-02 0.  1.
        1   -1    0    0  501    0  0.00000000000E+00  0.00000000000E+00 -0.14819814178E+04  0.14819814178E+04  0.50400001928E-02 0. -1.
    10030    2    1    2    0    0  0.00000000000E+00  0.00000000000E+00 -0.10497585573E+04  0.19142042784E+04  0.16006826640E+04 0.  0.
        3    1    3    3  502    0  0.30002629664E+03  0.27878470477E+03  0.29741290092E+03  0.50615327137E+03  0.10100000352E+00 0.  1.
       -3    1    3    3    0  502 -0.30002629664E+03 -0.27878470477E+03 -0.13471714582E+04  0.14080510070E+04  0.10100000352E+00 0. -1.
</event>
<event>
 5   0  0.7124495E-04  0.1550468E+04  0.7818609E-02  0.8851569E-01
       -1   -1    0    0    0  501  0.00000000000E+00  0.00000000000E+00  0.52139863296E+03  0.52139863299E+03  0.50400001928E-02 0.  1.
        1   -1    0    0  501    0  0.00000000000E+00  0.00000000000E+00 -0.11526449308E+04  0.11526449308E+04  0.50400001928E-02 0. -1.
    10030    2    1    2    0    0  0.00000000000E+00  0.00000000000E+00 -0.63124629782E+03  0.16740435638E+04  0.15504676601E+04 0.  0.
        2    1    3    3  502    0  0.61926520710E+03  0.38825491703E+03 -0.59458826052E+03  0.94221360469E+03  0.25500000920E-02 0.  1.
       -2    1    3    3    0  502 -0.61926520710E+03 -0.38825491703E+03 -0.36658037303E+02  0.73182995909E+03  0.25500000920E-02 0. -1.
</event>
<event>
 5   0  0.1375777E-03  0.1613059E+04  0.7818609E-02  0.8812565E-01
       -2   -1    0    0    0  501  0.00000000000E+00  0.00000000000E+00  0.47331659253E+03  0.47331659253E+03  0.25500000920E-02 0.  1.
        2   -1    0    0  501    0  0.00000000000E+00  0.00000000000E+00 -0.13743224488E+04  0.13743224488E+04  0.25500000920E-02 0. -1.
    10030    2    1    2    0    0  0.00000000000E+00  0.00000000000E+00 -0.90100585631E+03  0.18476390414E+04  0.16130587324E+04 0.  0.
        1    1    3    3  502    0 -0.33966671986E+03  0.64932208324E+02  0.38408729067E+03  0.51682948749E+03  0.50400001928E-02 0.  1.
       -1    1    3    3    0  502  0.33966671986E+03 -0.64932208324E+02 -0.12850931470E+04  0.13308095539E+04  0.50400001928E-02 0. -1.
</event>
<event>
 5   0  0.7601145E-04  0.1586415E+04  0.7818609E-02  0.8828938E-01
        1   -1    0    0  501    0  0.00000000000E+00  0.00000000000E+00  0.89263234535E+03  0.89263234537E+03  0.50400001928E-02 0. -1.
       -1   -1    0    0    0  501  0.00000000000E+00  0.00000000000E+00 -0.70485694004E+03  0.70485694006E+03  0.50400001928E-02 0.  1.
    10030    2    1    2    0    0  0.00000000000E+00  0.00000000000E+00  0.18777540532E+03  0.15974892854E+04  0.15864149565E+04 0.  0.
        4    1    3    3  502    0 -0.67842929709E+03 -0.16997155548E+03 -0.28291669438E+03  0.75445351724E+03  0.12699999809E+01 0.  1.
       -4    1    3    3    0  502  0.67842929709E+03  0.16997155548E+03  0.47069209970E+03  0.84303576818E+03  0.12699999809E+01 0. -1.
</event>
<event>
 5   0  0.1375777E-03  0.1569205E+04  0.7818609E-02  0.8839693E-01
        2   -1    0    0  501    0  0.00000000000E+00  0.00000000000E+00  0.14918275696E+04  0.14918275696E+04  0.25500000920E-02 0. -1.
       -2   -1    0    0    0  501  0.00000000000E+00  0.00000000000E+00 -0.41264879819E+03  0.41264879820E+03  0.25500000920E-02 0.  1.
    10030    2    1    2    0    0  0.00000000000E+00  0.00000000000E+00  0.10791787714E+04  0.19044763678E+04  0.15692047077E+04 0.  0.
        1    1    3    3  502    0 -0.45110768455E+03  0.56628145121E+03  0.90656369637E+03  0.11601855716E+04  0.50400001928E-02 0. -1.
       -1    1    3    3    0  502  0.45110768455E+03 -0.56628145121E+03  0.17261507500E+03  0.74429079612E+03  0.50400001928E-02 0.  1.
</event>
<event>
 5   0  0.7633213E-04  0.1619776E+04  0.7818609E-02  0.8808490E-01
       -1   -1    0    0    0  501  0.00000000000E+00  0.00000000000E+00  0.30950596354E+03  0.30950596358E+03  0.50400001928E-02 0.  1.
        1   -1    0    0  501    0  0.00000000000E+00  0.00000000000E+00 -0.21192433156E+04  0.21192433156E+04  0.50400001928E-02 0. -1.
    10030    2    1    2    0    0  0.00000000000E+00  0.00000000000E+00 -0.18097373521E+04  0.24287492792E+04  0.16197758418E+04 0.  0.
        1    1    3    3  502    0 -0.73872039123E+03 -0.27833497980E+03 -0.63355675543E+03  0.10122116082E+04  0.50400001928E-02 0.  1.
       -1    1    3    3    0  502  0.73872039123E+03  0.27833497980E+03 -0.11761805967E+04  0.14165376710E+04  0.50400001928E-02 0. -1.
</event>
<event>
 5   0  0.1414796E-03  0.1495643E+04  0.7818609E-02  0.8887356E-01
       -2   -1    0    0    0  501  0.00000000000E+00  0.00000000000E+00  0.98659721094E+03  0.98659721095E+03  0.25500000920E-02 0.  1.
        2   -1    0    0  501    0  0.00000000000E+00  0.00000000000E+00 -0.56683383862E+03  0.56683383863E+03  0.25500000920E-02 0. -1.
    10030    2    1    2    0    0  0.00000000000E+00  0.00000000000E+00  0.41976337232E+03  0.15534310496E+04  0.14956425833E+04 0.  0.
        4    1    3    3  502    0 -0.33745614931E+03 -0.66560362224E+03  0.15974401242E+03  0.76316747641E+03  0.12699999809E+01 0.  1.
       -4    1    3    3    0  502  0.33745614931E+03  0.66560362224E+03  0.26001935990E+03  0.79026357316E+03  0.12699999809E+01 0. -1.
</event>
<event>
 5   0  0.5095750E-04  0.1471580E+04  0.7818609E-02  0.8903575E-01
       -3   -1    0    0    0  501  0.00000000000E+00  0.00000000000E+00  0.18857668446E+04  0.18857668473E+04  0.10100000352E+00 0.  1.
        3   -1    0    0  501    0  0.00000000000E+00  0.00000000000E+00 -0.28709097130E+03  0.28709098907E+03  0.10100000352E+00 0. -1.
    10030    2    1    2    0    0  0.00000000000E+00  0.00000000000E+00  0.15986758733E+04  0.21728578363E+04  0.14715796374E+04 0.  0.
        1    1    3    3  502    0  0.22283511156E+03  0.11540694464E+03 -0.22195131219E+03  0.33501736496E+03  0.50400001928E-02 0. -1.
       -1    1    3    3    0  502 -0.22283511156E+03 -0.11540694464E+03  0.18206271854E+04  0.18378404714E+04  0.50400001928E-02 0.  1.
</event>
<event>
 5   0  0.1354766E-03  0.8514563E+03  0.7818609E-02  0.9488384E-01
        2   -1    0    0  501    0  0.00000000000E+00  0.00000000000E+00  0.94607267518E+03  0.94607267518E+03  0.25500000920E-02 0.  1.
       -2   -1    0    0    0  501  0.00000000000E+00  0.00000000000E+00 -0.19157562999E+03  0.19157563000E+03  0.25500000920E-02 0. -1.
    10030    2    1    2    0    0  0.00000000000E+00  0.00000000000E+00  0.75449704519E+03  0.11376483052E+04  0.85145632600E+03 0.  0.
        3    1    3    3  502    0  0.20317632529E+03 -0.36920379825E+03  0.45799703007E+03  0.62237717949E+03  0.10100000352E+00 0. -1.
       -3    1    3    3    0  502 -0.20317632529E+03  0.36920379825E+03  0.29650001512E+03  0.51527112569E+03  0.10100000352E+00 0.  1.
</event>
<event>
 5   0  0.1414751E-03  0.1624612E+04  0.7818609E-02  0.8805569E-01
        2   -1    0    0  501    0  0.00000000000E+00  0.00000000000E+00  0.15553656011E+04  0.15553656011E+04  0.25500000920E-02 0. -1.
       -2   -1    0    0    0  501  0.00000000000E+00  0.00000000000E+00 -0.42423522671E+03  0.42423522672E+03  0.25500000920E-02 0.  1.
    10030    2    1    2    0    0  0.00000000000E+00  0.00000000000E+00  0.11311303744E+04  0.19796008278E+04  0.16246118040E+04 0.  0.
        2    1    3    3  502    0 -0.13420102406E+03 -0.76055016721E+03  0.25876650260E+03  0.81449774375E+03  0.25500000920E-02 0.  1.
       -2    1    3    3    0  502  0.13420102406E+03  0.76055016721E+03  0.87236387177E+03  0.11651030841E+04  0.25500000920E-02 0. -1.
</event>
<event>
 5   0  0.1375777E-03  0.1684172E+04  0.7818609E-02  0.8770443E-01
       -2   -1    0    0    0  501  0.00000000000E+00  0.00000000000E+00  0.10444752773E+04  0.10444752773E+04  0.25500000920E-02 0.  1.
        2   -1    0    0  501    0  0.00000000000E+00  0.00000000000E+00 -0.67891403730E+03  0.67891403731E+03  0.25500000920E-02 0. -1.
    10030    2    1    2    0    0  0.00000000000E+00  0.00000000000E+00  0.36556124001E+03  0.17233893146E+04  0.16841721140E+04 0.  0.
        1    1    3    3  502    0 -0.66095863886E+03  0.25106254389E+03 -0.28526518312E+03  0.76241389543E+03  0.50400001928E-02 0. -1.
       -1    1    3    3    0  502  0.66095863886E+03 -0.25106254389E+03  0.65082642313E+03  0.96097541920E+03  0.50400001928E-02 0.  1.
</event>
<event>
 5   0  0.7124495E-04  0.1594880E+04  0.7818609E-02  0.8823700E-01
       -1   -1    0    0    0  501  0.00000000000E+00  0.00000000000E+00  0.11493635547E+04  0.11493635547E+04  0.50400001928E-02 0.  1.
        1   -1    0    0  501    0  0.00000000000E+00  0.00000000000E+00 -0.55327196451E+03  0.55327196453E+03  0.50400001928E-02 0. -1.
    10030    2    1    2    0    0  0.00000000000E+00  0.00000000000E+00  0.59609159021E+03  0.17026355193E+04  0.15948800982E+04 0.  0.
        2    1    3    3  502    0 -0.10855982030E+03  0.78385328688E+03  0.19290613311E+03  0.81450843220E+03  0.25500000920E-02 0.  1.
       -2    1    3    3    0  502  0.10855982030E+03 -0.78385328688E+03  0.40318545710E+03  0.88812708705E+03  0.25500000920E-02 0. -1.
</event>
<event>
 5   0  0.1414751E-03  0.1383555E+04  0.7818609E-02  0.8965809E-01
       -2   -1    0    0    0  501  0.00000000000E+00  0.00000000000E+00  0.33259779181E+03  0.33259779182E+03  0.25500000920E-02 0. -1.
        2   -1    0    0  501    0  0.00000000000E+00  0.00000000000E+00 -0.14388436734E+04  0.14388436734E+04  0.25500000920E-02 0.  1.
    10030    2    1    2    0    0  0.00000000000E+00  0.00000000000E+00 -0.11062458815E+04  0.17714414652E+04  0.13835551721E+04 0.  0.
        2    1    3    3  502    0 -0.52521793853E+03 -0.76511473133E+02  0.14939666133E+02  0.53097182798E+03  0.25500000920E-02 0. -1.
       -2    1    3    3    0  502  0.52521793853E+03  0.76511473133E+02 -0.11211855477E+04  0.12404696372E+04  0.25500000920E-02 0.  1.
</event>
<event>
 5   0  0.7302027E-04  0.1597144E+04  0.7818609E-02  0.8822304E-01
       -1   -1    0    0    0  501  0.00000000000E+00  0.00000000000E+00  0.31100082862E+03  0.31100082866E+03  0.50400001928E-02 0. -1.
        1   -1    0    0  501    0  0.00000000000E+00  0.00000000000E+00 -0.20505328199E+04  0.20505328199E+04  0.50400001928E-02 0.  1.
    10030    2    1    2    0    0  0.00000000000E+00  0.00000000000E+00 -0.17395319913E+04  0.23615336485E+04  0.15971442091E+04 0.  0.
        5    1    3    3  502    0 -0.71378476395E+03 -0.24734810773E+03 -0.48696754675E+03  0.89879322273E+03  0.46999998093E+01 0.  1.
       -5    1    3    3    0  502  0.71378476395E+03  0.24734810773E+03 -0.12525644445E+04  0.14627404258E+04  0.46999998093E+01 0. -1.
</event>
<event>
 5   0  0.7601145E-04  0.1585957E+04  0.7818609E-02  0.8829222E-01
       -1   -1    0    0    0  501  0.00000000000E+00  0.00000000000E+00  0.85874083488E+03  0.85874083489E+03  0.50400001928E-02 0.  1.
        1   -1    0    0  501    0  0.00000000000E+00  0.00000000000E+00 -0.73225204641E+03  0.73225204642E+03  0.50400001928E-02 0. -1.
    10030    2    1    2    0    0  0.00000000000E+00  0.00000000000E+00  0.12648878847E+03  0.15909928813E+04  0.15859567884E+04 0.  0.
        4    1    3    3  502    0  0.19704159823E+03  0.43775079978E+03 -0.56991903144E+03  0.74515801642E+03  0.12699999809E+01 0. -1.
       -4    1    3    3    0  502 -0.19704159823E+03 -0.43775079978E+03  0.69640781991E+03  0.84583486489E+03  0.12699999809E+01 0.  1.
</event>
<event>
 5   0  0.7124495E-04  0.1597154E+04  0.7818609E-02  0.8822298E-01
        1   -1    0    0  501    0  0.00000000000E+00  0.00000000000E+00  0.81771561218E+03  0.81771561219E+03  0.50400001928E-02 0. -1.
       -1   -1    0    0    0  501  0.00000000000E+00  0.00000000000E+00 -0.77988621046E+03  0.77988621047E+03  0.50400001928E-02 0.  1.
    10030    2    1    2    0    0  0.00000000000E+00  0.00000000000E+00  0.37829401720E+02  0.15976018227E+04  0.15971538812E+04 0.  0.
        2    1    3    3  502    0  0.17201760031E+03 -0.37727411904E+03  0.70160103387E+03  0.81496615049E+03  0.25500000920E-02 0. -1.
       -2    1    3    3    0  502 -0.17201760031E+03  0.37727411904E+03 -0.66377163215E+03  0.78263567218E+03  0.25500000920E-02 0.  1.
</event>
<event>
 5   0  0.7302027E-04  0.1632058E+04  0.7818609E-02  0.8801092E-01
        1   -1    0    0  501    0  0.00000000000E+00  0.00000000000E+00  0.98293265202E+03  0.98293265203E+03  0.50400001928E-02 0. -1.
       -1   -1    0    0    0  501  0.00000000000E+00  0.00000000000E+00 -0.67746617445E+03  0.67746617447E+03  0.50400001928E-02 0.  1.
    10030    2    1    2    0    0  0.00000000000E+00  0.00000000000E+00  0.30546647757E+03  0.16603988265E+04  0.16320583611E+04 0.  0.
        5    1    3    3  502    0  0.48438817160E+03  0.47512177582E+03  0.61393619568E+03  0.91504772827E+03  0.46999998093E+01 0. -1.
       -5    1    3    3    0  502 -0.48438817160E+03 -0.47512177582E+03 -0.30846971812E+03  0.74535109823E+03  0.46999998093E+01 0.  1.
</event>
<event>
 5   0  0.1354766E-03  0.1606171E+04  0.7818609E-02  0.8816766E-01
        2   -1    0    0  501    0  0.00000000000E+00  0.00000000000E+00  0.13257680942E+04  0.13257680942E+04  0.25500000920E-02 0. -1.
       -2   -1    0    0    0  501  0.00000000000E+00  0.00000000000E+00 -0.48646985713E+03  0.48646985714E+03  0.25500000920E-02 0.  1.
    10030    2    1    2    0    0  0.00000000000E+00  0.00000000000E+00  0.83929823704E+03  0.18122379513E+04  0.16061708693E+04 0.  0.
        3    1    3    3  502    0 -0.64171420942E+03 -0.42108751732E+03  0.68625782655E+03  0.10295929480E+04  0.10100000352E+00 0.  1.
       -3    1    3    3    0  502  0.64171420942E+03  0.42108751732E+03  0.15304041050E+03  0.78264500335E+03  0.10100000352E+00 0. -1.
</event>
<event>
 5   0  0.1414796E-03  0.1077913E+04  0.7818609E-02  0.9226990E-01
       -2   -1    0    0    0  501  0.00000000000E+00  0.00000000000E+00  0.60765660552E+03  0.60765660552E+03  0.25500000920E-02 0. -1.
        2   -1    0    0  501    0  0.00000000000E+00  0.00000000000E+00 -0.47802376577E+03  0.47802376578E+03  0.25500000920E-02 0.  1.
    10030    2    1    2    0    0  0.00000000000E+00  0.00000000000E+00  0.12963283975E+03  0.10856803713E+04  0.10779133525E+04 0.  0.
        4    1    3    3  502    0  0.34617046660E+03 -0.29562837747E+03 -0.22578038772E+03  0.50814222998E+03  0.12699999809E+01 0.  1.
       -4    1    3    3    0  502 -0.34617046660E+03  0.29562837747E+03  0.35541322747E+03  0.57753814131E+03  0.12699999809E+01 0. -1.
</event>
<event>
 5   0  0.1339162E-03  0.1607186E+04  0.7818609E-02  0.8816145E-01
       -2   -1    0    0    0  501  0.00000000000E+00  0.00000000000E+00  0.48780746602E+03  0.48780746603E+03  0.25500000920E-02 0. -1.
        2   -1    0    0  501    0  0.00000000000E+00  0.00000000000E+00 -0.13238047256E+04  0.13238047256E+04  0.25500000920E-02 0.  1.
    10030    2    1    2    0    0  0.00000000000E+00  0.00000000000E+00 -0.83599725958E+03  0.18116121916E+04  0.16071861482E+04 0.  0.
        5    1    3    3  502    0  0.59977680605E+03  0.23584509232E+03 -0.95903416432E+03  0.11554755484E+04  0.46999998093E+01 0.  1.
       -5    1    3    3    0  502 -0.59977680605E+03 -0.23584509232E+03  0.12303690474E+03  0.65613664322E+03  0.46999998093E+01 0. -1.
</event>
<event>
 5   0  0.7124495E-04  0.1623198E+04  0.7818609E-02  0.8806422E-01
       -1   -1    0    0    0  501  0.00000000000E+00  0.00000000000E+00  0.10607286149E+04  0.10607286149E+04  0.50400001928E-02 0.  1.
        1   -1    0    0  501    0  0.00000000000E+00  0.00000000000E+00 -0.62098181691E+03  0.62098181693E+03  0.50400001928E-02 0. -1.
    10030    2    1    2    0    0  0.00000000000E+00  0.00000000000E+00  0.43974679801E+03  0.16817104319E+04  0.16231983028E+04 0.  0.
        2    1    3    3  502    0 -0.50679444799E+03 -0.67034335429E+02 -0.43321376448E+03  0.67008087600E+03  0.25500000920E-02 0. -1.
       -2    1    3    3    0  502  0.50679444799E+03  0.67034335429E+02  0.87296056249E+03  0.10116295559E+04  0.25500000920E-02 0.  1.
</event>
<event>
 5   0  0.5095750E-04  0.1613887E+04  0.7818609E-02  0.8812062E-01
       -4   -1    0    0    0  501  0.00000000000E+00  0.00000000000E+00  0.59751142700E+03  0.59751277668E+03  0.12699999809E+01 0.  1.
        4   -1    0    0  501    0  0.00000000000E+00  0.00000000000E+00 -0.10897795400E+04  0.10897802800E+04  0.12699999809E+01 0. -1.
    10030    2    1    2    0    0  0.00000000000E+00  0.00000000000E+00 -0.49226811302E+03  0.16872930567E+04  0.16138866020E+04 0.  0.
        5    1    3    3  502    0  0.71869907184E+03  0.35037652482E+03 -0.35991106970E+03  0.87684099648E+03  0.46999998093E+01 0. -1.
       -5    1    3    3    0  502 -0.71869907184E+03 -0.35037652482E+03 -0.13235704332E+03  0.81045206023E+03  0.46999998093E+01 0.  1.
</event>
<event>
 5   0  0.5095750E-04  0.1471003E+04  0.7818609E-02  0.8903968E-01
        3   -1    0    0  501    0  0.00000000000E+00  0.00000000000E+00  0.17439819925E+04  0.17439819954E+04  0.10100000352E+00 0. -1.
       -3   -1    0    0    0  501  0.00000000000E+00  0.00000000000E+00 -0.31018823039E+03  0.31018824683E+03  0.10100000352E+00 0.  1.
    10030    2    1    2    0    0  0.00000000000E+00  0.00000000000E+00  0.14337937621E+04  0.20541702423E+04  0.14710033419E+04 0.  0.
        3    1    3    3  502    0 -0.24601744316E+02  0.68105296589E+03  0.11031949029E+04  0.12967179308E+04  0.10100000352E+00 0. -1.
       -3    1    3    3    0  502  0.24601744316E+02 -0.68105296589E+03  0.33059885922E+03  0.75745231143E+03  0.10100000352E+00 0.  1.
</event>
<event>
 5   0  0.5095750E-04  0.1594333E+04  0.7818609E-02  0.8824037E-01
       -3   -1    0    0    0  501  0.00000000000E+00  0.00000000000E+00  0.86640309004E+03  0.86640309593E+03  0.10100000352E+00 0. -1.
        3   -1    0    0  501    0  0.00000000000E+00  0.00000000000E+00 -0.73346258278E+03  0.73346258973E+03  0.10100000352E+00 0.  1.
    10030    2    1    2    0    0  0.00000000000E+00  0.00000000000E+00  0.13294050726E+03  0.15998656857E+04  0.15943327864E+04 0.  0.
        1    1    3    3  502    0  0.67106461449E+03  0.42854829830E+03  0.27698132892E+02  0.79671108150E+03  0.50400001928E-02 0. -1.
       -1    1    3    3    0  502 -0.67106461449E+03 -0.42854829830E+03  0.10524237437E+03  0.80315460416E+03  0.50400001928E-02 0.  1.
</event>
<event>
 5   0  0.7601145E-04  0.9901287E+03  0.7818609E-02  0.9319438E-01
       -1   -1    0    0    0  501  0.00000000000E+00  0.00000000000E+00  0.18187143644E+03  0.18187143650E+03  0.50400001928E-02 0. -1.
        1   -1    0    0  501    0  0.00000000000E+00  0.00000000000E+00 -0.13475930638E+04  0.13475930638E+04  0.50400001928E-02 0.  1.
    10030    2    1    2    0    0  0.00000000000E+00  0.00000000000E+00 -0.11657216274E+04  0.15294645003E+04  0.99012865084E+03 0.  0.
        4    1    3    3  502    0  0.28061184471E+03  0.36324732035E+03 -0.29637819807E+03  0.54638198390E+03  0.12699999809E+01 0. -1.
       -4    1    3    3    0  502 -0.28061184471E+03 -0.36324732035E+03 -0.86934342929E+03  0.98308251641E+03  0.12699999809E+01 0.  1.
</event>
<event>
 5   0  0.7499834E-04  0.1560279E+04  0.7818609E-02  0.8845329E-01
        1   -1    0    0  501    0  0.00000000000E+00  0.00000000000E+00  0.68520151608E+03  0.68520151609E+03  0.50400001928E-02 0. -1.
       -1   -1    0    0    0  501  0.00000000000E+00  0.00000000000E+00 -0.88823141415E+03  0.88823141417E+03  0.50400001928E-02 0.  1.
    10030    2    1    2    0    0  0.00000000000E+00  0.00000000000E+00 -0.20302989807E+03  0.15734329303E+04  0.15602788361E+04 0.  0.
        3    1    3    3  502    0  0.45783663974E+03 -0.28350644477E+03  0.46771461367E+03  0.71326521222E+03  0.10100000352E+00 0. -1.
       -3    1    3    3    0  502 -0.45783663974E+03  0.28350644477E+03 -0.67074451175E+03  0.86016771804E+03  0.10100000352E+00 0.  1.
</event>
<event>
 5   0  0.1414796E-03  0.1676223E+04  0.7818609E-02  0.8775043E-01
       -2   -1    0    0    0  501  0.00000000000E+00  0.00000000000E+00  0.12698872527E+04  0.12698872527E+04  0.25500000920E-02 0.  1.
        2   -1    0    0  501    0  0.00000000000E+00  0.00000000000E+00 -0.55314431789E+03  0.55314431789E+03  0.25500000920E-02 0. -1.
    10030    2    1    2    0    0  0.00000000000E+00  0.00000000000E+00  0.71674293480E+03  0.18230315706E+04  0.16762230379E+04 0.  0.
        4    1    3    3  502    0  0.52080213632E+03 -0.11781966735E+03 -0.34420455444E+03  0.63529105724E+03  0.12699999809E+01 0. -1.
       -4    1    3    3    0  502 -0.52080213632E+03  0.11781966735E+03  0.10609474892E+04  0.11877405133E+04  0.12699999809E+01 0.  1.
</event>
<event>
 5   0  0.1339162E-03  0.1555022E+04  0.7818609E-02  0.8848666E-01
       -2   -1    0    0    0  501  0.00000000000E+00  0.00000000000E+00  0.13980629705E+04  0.13980629705E+04  0.25500000920E-02 0. -1.
        2   -1    0    0  501    0  0.00000000000E+00  0.00000000000E+00 -0.43240089051E+03  0.43240089052E+03  0.25500000920E-02 0.  1.
    10030    2    1    2    0    0  0.00000000000E+00  0.00000000000E+00  0.96566207996E+03  0.18304638610E+04  0.15550224094E+04 0.  0.
        5    1    3    3  502    0 -0.34080079537E+03 -0.23219843757E+03 -0.29304001984E+03  0.50592078408E+03  0.46999998093E+01 0.  1.
       -5    1    3    3    0  502  0.34080079537E+03  0.23219843757E+03  0.12587020998E+04  0.13245430769E+04  0.46999998093E+01 0. -1.
</event>
<event>
 5   0  0.7302027E-04  0.1604748E+04  0.7818609E-02  0.8817637E-01
        1   -1    0    0  501    0  0.00000000000E+00  0.00000000000E+00  0.11677973450E+04  0.11677973451E+04  0.50400001928E-02 0. -1.
       -1   -1    0    0    0  501  0.00000000000E+00  0.00000000000E+00 -0.55129745689E+03  0.55129745691E+03  0.50400001928E-02 0.  1.
    10030    2    1    2    0    0  0.00000000000E+00  0.00000000000E+00  0.61649988816E+03  0.17190948020E+04  0.16047475895E+04 0.  0.
        5    1    3    3  502    0  0.86018119816E+02  0.37888033844E+03  0.10602928656E+04  0.11292442068E+04  0.46999998093E+01 0. -1.
       -5    1    3    3    0  502 -0.86018119816E+02 -0.37888033844E+03 -0.44379297743E+03  0.58985059516E+03  0.46999998093E+01 0.  1.
</event>
<event>
 5   0  0.1375777E-03  0.1612576E+04  0.7818609E-02  0.8812859E-01
       -2   -1    0    0    0  501  0.00000000000E+00  0.00000000000E+00  0.63449213725E+03  0.63449213726E+03  0.25500000920E-02 0.  1.
        2   -1    0    0  501    0  0.00000000000E+00  0.00000000000E+00 -0.10245992870E+04  0.10245992870E+04  0.25500000920E-02 0. -1.
    10030    2    1    2    0    0  0.00000000000E+00  0.00000000000E+00 -0.39010714976E+03  0.16590914243E+04  0.16125758171E+04 0.  0.
        1    1    3    3  502    0 -0.31599681823E+02 -0.80452373148E+03 -0.15088245482E+03  0.81915962401E+03  0.50400001928E-02 0. -1.
       -1    1    3    3    0  502  0.31599681823E+02  0.80452373148E+03 -0.23922469494E+03  0.83993180027E+03  0.50400001928E-02 0.  1.
</event>
<event>
 5   0  0.1414751E-03  0.1577908E+04  0.7818609E-02  0.8834236E-01
        2   -1    0    0  501    0  0.00000000000E+00  0.00000000000E+00  0.15759137519E+04  0.15759137519E+04  0.25500000920E-02 0. -1.
       -2   -1    0    0    0  501  0.00000000000E+00  0.00000000000E+00 -0.39497596301E+03  0.39497596302E+03  0.25500000920E-02 0.  1.
    10030    2    1    2    0    0  0.00000000000E+00  0.00000000000E+00  0.11809377889E+04  0.19708897149E+04  0.15779075408E+04 0.  0.
        2    1    3    3  502    0 -0.19939152906E+02 -0.30932125304E+03 -0.31573658608E+03  0.44245542058E+03  0.25500000920E-02 0.  1.
       -2    1    3    3    0  502  0.19939152906E+02  0.30932125304E+03  0.14966743750E+04  0.15284342944E+04  0.25500000920E-02 0. -1.
</event>
<event>
 5   0  0.1414751E-03  0.1680138E+04  0.7818609E-02  0.8772774E-01
       -2   -1    0    0    0  501  0.00000000000E+00  0.00000000000E+00  0.73617057529E+03  0.73617057530E+03  0.25500000920E-02 0.  1.
        2   -1    0    0  501    0  0.00000000000E+00  0.00000000000E+00 -0.95863115793E+03  0.95863115793E+03  0.25500000920E-02 0. -1.
    10030    2    1    2    0    0  0.00000000000E+00  0.00000000000E+00 -0.22246058264E+03  0.16948017332E+04  0.16801381503E+04 0.  0.
        2    1    3    3  502    0  0.13301017421E+03  0.26818943375E+03 -0.90300035590E+03  0.95132902908E+03  0.25500000920E-02 0. -1.
       -2    1    3    3    0  502 -0.13301017421E+03 -0.26818943375E+03  0.68053977326E+03  0.74347270415E+03  0.25500000920E-02 0.  1.
</event>
<event>
 5   0  0.7601145E-04  0.1603577E+04  0.7818609E-02  0.8818354E-01
        1   -1    0    0  501    0  0.00000000000E+00  0.00000000000E+00  0.38007571633E+03  0.38007571636E+03  0.50400001928E-02 0. -1.
       -1   -1    0    0    0  501  0.00000000000E+00  0.00000000000E+00 -0.16914122841E+04  0.16914122841E+04  0.50400001928E-02 0.  1.
    10030    2    1    2    0    0  0.00000000000E+00  0.00000000000E+00 -0.13113365678E+04  0.20714880005E+04  0.16035769212E+04 0.  0.
        4    1    3    3  502    0 -0.25769314350E+03 -0.48695618496E+03  0.96828102972E+02  0.55938303219E+03  0.12699999809E+01 0.  1.
       -4    1    3    3    0  502  0.25769314350E+03  0.48695618496E+03 -0.14081646708E+04  0.15121049683E+04  0.12699999809E+01 0. -1.
</event>
<event>
 5   0  0.7633213E-04  0.1595044E+04  0.7818609E-02  0.8823598E-01
       -1   -1    0    0    0  501  0.00000000000E+00  0.00000000000E+00  0.84520063790E+03  0.84520063792E+03  0.50400001928E-02 0.  1.
        1   -1    0    0  501    0  0.00000000000E+00  0.00000000000E+00 -0.75253290616E+03  0.75253290617E+03  0.50400001928E-02 0. -1.
    10030    2    1    2    0    0  0.00000000000E+00  0.00000000000E+00  0.92667731749E+02  0.15977335441E+04  0.15950439396E+04 0.  0.
        1    1    3    3  502    0  0.51929481553E+03 -0.40935866602E+03 -0.40028753645E+03  0.77296295820E+03  0.50400001928E-02 0. -1.
       -1    1    3    3    0  502 -0.51929481553E+03  0.40935866602E+03  0.49295526820E+03  0.82477058589E+03  0.50400001928E-02 0.  1.
</event>
<event>
 5   0  0.1339162E-03  0.1330330E+04  0.7818609E-02  0.9005853E-01
        2   -1    0    0  501    0  0.00000000000E+00  0.00000000000E+00  0.10234273396E+04  0.10234273396E+04  0.25500000920E-02 0. -1.
       -2   -1    0    0    0  501  0.00000000000E+00  0.00000000000E+00 -0.43231646549E+03  0.43231646550E+03  0.25500000920E-02 0.  1.
    10030    2    1    2    0    0  0.00000000000E+00  0.00000000000E+00  0.59111087408E+03  0.14557438051E+04  0.13303300194E+04 0.  0.
        5    1    3    3  502    0  0.29965691490E+03 -0.15661787139E+03  0.92235400678E+03  0.98238608913E+03  0.46999998093E+01 0. -1.
       -5    1    3    3    0  502 -0.29965691490E+03  0.15661787139E+03 -0.33124313270E+03  0.47335771595E+03  0.46999998093E+01 0.  1.
</event>
<event>
 5   0  0.7302027E-04  0.1575012E+04  0.7818609E-02  0.8836048E-01
        1   -1    0    0  501    0  0.00000000000E+00  0.00000000000E+00  0.12062541938E+04  0.12062541938E+04  0.50400001928E-02 0. -1.
       -1   -1    0    0    0  501  0.00000000000E+00  0.00000000000E+00 -0.51412538218E+03  0.51412538221E+03  0.50400001928E-02 0.  1.
    10030    2    1    2    0    0  0.00000000000E+00  0.00000000000E+00  0.69212881161E+03  0.17203795760E+04  0.15750122519E+04 0.  0.
        5    1    3    3  502    0 -0.72102703474E+03 -0.31560764335E+03  0.37403313615E+03  0.87144193513E+03  0.46999998093E+01 0. -1.
       -5    1    3    3    0  502  0.72102703474E+03  0.31560764335E+03  0.31809567545E+03  0.84893764088E+03  0.46999998093E+01 0.  1.
</event>
<event>
 5   0  0.1414751E-03  0.1655407E+04  0.7818609E-02  0.8787214E-01
       -2   -1    0    0    0  501  0.00000000000E+00  0.00000000000E+00  0.69464093553E+03  0.69464093553E+03  0.25500000920E-02 0.  1.
        2   -1    0    0  501    0  0.00000000000E+00  0.00000000000E+00 -0.98625554427E+03  0.98625554427E+03  0.25500000920E-02 0. -1.
    10030    2    1    2    0    0  0.00000000000E+00  0.00000000000E+00 -0.29161460874E+03  0.16808964798E+04  0.16554074712E+04 0.  0.
        2    1    3    3  502    0  0.48003167915E+03  0.60036402251E+03  0.16588183377E+03  0.78637405558E+03  0.25500000920E-02 0. -1.
       -2    1    3    3    0  502 -0.48003167915E+03 -0.60036402251E+03 -0.45749644252E+03  0.89452242422E+03  0.25500000920E-02 0.  1.
</event>
<event>
 5   0  0.1414796E-03  0.1568554E+04  0.7818609E-02  0.8840103E-01
       -2   -1    0    0    0  501  0.00000000000E+00  0.00000000000E+00  0.44753284096E+03  0.44753284097E+03  0.25500000920E-02 0. -1.
        2   -1    0    0  501    0  0.00000000000E+00  0.00000000000E+00 -0.13744033853E+04  0.13744033853E+04  0.25500000920E-02 0.  1.
    10030    2    1    2    0    0  0.00000000000E+00  0.00000000000E+00 -0.92687054430E+03  0.18219362262E+04  0.15685543046E+04 0.  0.
        4    1    3    3  502    0 -0.43803051597E+03 -0.37041829322E+03 -0.10846234097E+04  0.12269841069E+04  0.12699999809E+01 0.  1.
       -4    1    3    3    0  502  0.43803051597E+03  0.37041829322E+03  0.15775286538E+03  0.59495211934E+03  0.12699999809E+01 0. -1.
</event>
<event>
 5   0  0.7601145E-04  0.1589888E+04  0.7818609E-02  0.8826784E-01
        1   -1    0    0  501    0  0.00000000000E+00  0.00000000000E+00  0.89925383468E+03  0.89925383470E+03  0.50400001928E-02 0.  1.
       -1   -1    0    0    0  501  0.00000000000E+00  0.00000000000E+00 -0.70273409530E+03  0.70273409532E+03  0.50400001928E-02 0. -1.
    10030    2    1    2    0    0  0.00000000000E+00  0.00000000000E+00  0.19651973938E+03  0.16019879300E+04  0.15898884615E+04 0.  0.
        4    1    3    3  502    0  0.23563187330E+03  0.69055772701E+03  0.41616428168E+03  0.83999206919E+03  0.12699999809E+01 0. -1.
       -4    1    3    3    0  502 -0.23563187330E+03 -0.69055772701E+03 -0.21964454230E+03  0.76199586082E+03  0.12699999809E+01 0.  1.
</event>
<event>
 5   0  0.1339162E-03  0.1639473E+04  0.7818609E-02  0.8796659E-01
       -2   -1    0    0    0  501  0.00000000000E+00  0.00000000000E+00  0.38432600964E+03  0.38432600965E+03  0.25500000920E-02 0. -1.
        2   -1    0    0  501    0  0.00000000000E+00  0.00000000000E+00 -0.17484323430E+04  0.17484323430E+04  0.25500000920E-02 0.  1.
    10030    2    1    2    0    0  0.00000000000E+00  0.00000000000E+00 -0.13641063334E+04  0.21327583527E+04  0.16394731172E+04 0.  0.
        5    1    3    3  502    0 -0.52334553515E+03  0.34845983041E+03 -0.13662607437E+04  0.15039964470E+04  0.46999998093E+01 0.  1.
       -5    1    3    3    0  502  0.52334553515E+03 -0.34845983041E+03  0.21544103847E+01  0.62876190570E+03  0.46999998093E+01 0. -1.
</event>
<event>
 5   0  0.1354766E-03  0.1628651E+04  0.7818609E-02  0.8803138E-01
       -2   -1    0    0    0  501  0.00000000000E+00  0.00000000000E+00  0.10224291070E+04  0.10224291071E+04  0.25500000920E-02 0.  1.
        2   -1    0    0  501    0  0.00000000000E+00  0.00000000000E+00 -0.64857879679E+03  0.64857879679E+03  0.25500000920E-02 0. -1.
    10030    2    1    2    0    0  0.00000000000E+00  0.00000000000E+00  0.37385031026E+03  0.16710079038E+04  0.16286507791E+04 0.  0.
        3    1    3    3  502    0 -0.58515406433E+03  0.56241738016E+03  0.11881153707E+03  0.82026506694E+03  0.10100000352E+00 0.  1.
       -3    1    3    3    0  502  0.58515406433E+03 -0.56241738016E+03  0.25503877319E+03  0.85074283690E+03  0.10100000352E+00 0. -1.
</event>
<event>
 5   0  0.1414796E-03  0.1605743E+04  0.7818609E-02  0.8817028E-01
       -2   -1    0    0    0  501  0.00000000000E+00  0.00000000000E+00  0.99788718988E+03  0.99788718988E+03  0.25500000920E-02 0. -1.
        2   -1    0    0  501    0  0.00000000000E+00  0.00000000000E+00 -0.64596746644E+03  0.64596746645E+03  0.25500000920E-02 0.  1.
    10030    2    1    2    0    0  0.00000000000E+00  0.00000000000E+00  0.35191972343E+03  0.16438546563E+04  0.16057430179E+04 0.  0.
        4    1    3    3  502    0 -0.46124255184E+03 -0.40578857441E+03  0.70513458293E+03  0.93521412078E+03  0.12699999809E+01 0. -1.
       -4    1    3    3    0  502  0.46124255184E+03  0.40578857441E+03 -0.35321485950E+03  0.70864053555E+03  0.12699999809E+01 0.  1.
</event>
<event>
 5   0  0.7124495E-04  0.1609722E+04  0.7818609E-02  0.8814597E-01
        1   -1    0    0  501    0  0.00000000000E+00  0.00000000000E+00  0.85770994110E+03  0.85770994111E+03  0.50400001928E-02 0. -1.
       -1   -1    0    0    0  501  0.00000000000E+00  0.00000000000E+00 -0.75526859996E+03  0.75526859998E+03  0.50400001928E-02 0.  1.
    10030    2    1    2    0    0  0.00000000000E+00  0.00000000000E+00  0.10244134114E+03  0.16129785411E+04  0.16097221952E+04 0.  0.
        2    1    3    3  502    0  0.66185919426E+03 -0.42161906382E+03 -0.12797386115E+03  0.79510850652E+03  0.25500000920E-02 0.  1.
       -2    1    3    3    0  502 -0.66185919426E+03  0.42161906382E+03  0.23041520229E+03  0.81787003457E+03  0.25500000920E-02 0. -1.
</event>
<event>
 5   0  0.1339162E-03  0.1413375E+04  0.7818609E-02  0.8944194E-01
        2   -1    0    0  501    0  0.00000000000E+00  0.00000000000E+00  0.12969971808E+04  0.12969971808E+04  0.25500000920E-02 0. -1.
       -2   -1    0    0    0  501  0.00000000000E+00  0.00000000000E+00 -0.38504855717E+03  0.38504855718E+03  0.25500000920E-02 0.  1.
    10030    2    1    2    0    0  0.00000000000E+00  0.00000000000E+00  0.91194862365E+03  0.16820457380E+04  0.14133745337E+04 0.  0.
        5    1    3    3  502    0  0.39418482799E+03  0.38278767770E+03  0.98483159515E+03  0.11277514999E+04  0.46999998093E+01 0. -1.
       -5    1    3    3    0  502 -0.39418482799E+03 -0.38278767770E+03 -0.72882971492E+02  0.55429423807E+03  0.46999998093E+01 0.  1.
</event>
<event>
 5   0  0.7302027E-04  0.1473686E+04  0.7818609E-02  0.8902143E-01
        1   -1    0    0  501    0  0.00000000000E+00  0.00000000000E+00  0.19356267124E+04  0.19356267124E+04  0.50400001928E-02 0.  1.
       -1   -1    0    0    0  501  0.00000000000E+00  0.00000000000E+00 -0.28049696110E+03  0.28049696115E+03  0.50400001928E-02 0. -1.
    10030    2    1    2    0    0  0.00000000000E+00  0.00000000000E+00  0.16551297513E+04  0.22161236736E+04  0.14736857341E+04 0.  0.
        5    1    3    3  502    0 -0.26563958610E+03 -0.44888176594E+03  0.44931405381E+02  0.52354574841E+03  0.46999998093E+01 0. -1.
       -5    1    3    3    0  502  0.26563958610E+03  0.44888176594E+03  0.16101983459E+04  0.16925779251E+04  0.46999998093E+01 0.  1.
</event>
<event>
 5   0  0.1414796E-03  0.1419533E+04  0.7818609E-02  0.8939800E-01
        2   -1    0    0  501    0  0.00000000000E+00  0.00000000000E+00  0.16959233584E+04  0.16959233584E+04  0.25500000920E-02 0. -1.
       -2   -1    0    0    0  501  0.00000000000E+00  0.00000000000E+00 -0.29704680623E+03  0.29704680624E+03  0.25500000920E-02 0.  1.
    10030    2    1    2    0    0  0.00000000000E+00  0.00000000000E+00  0.13988765522E+04  0.19929701646E+04  0.14195331870E+04 0.  0.
        4    1    3    3  502    0  0.97938682301E+02  0.59686462194E+03  0.12208501328E+04  0.13624668884E+04  0.12699999809E+01 0. -1.
       -4    1    3    3    0  502 -0.97938682301E+02 -0.59686462194E+03  0.17802641938E+03  0.63050327621E+03  0.12699999809E+01 0.  1.
</event>
<event>
 5   0  0.7633213E-04  0.1448590E+04  0.7818609E-02  0.8919379E-01
       -1   -1    0    0    0  501  0.00000000000E+00  0.00000000000E+00  0.70812729598E+03  0.70812729600E+03  0.50400001928E-02 0.  1.
        1   -1    0    0  501    0  0.00000000000E+00  0.00000000000E+00 -0.74083147803E+03  0.74083147805E+03  0.50400001928E-02 0. -1.
    10030    2    1    2    0    0  0.00000000000E+00  0.00000000000E+00 -0.32704182048E+02  0.14489587741E+04  0.14485896470E+04 0.  0.
        1    1    3    3  502    0 -0.61745911104E+03  0.99006834620E+02  0.34917896406E+03  0.71622905280E+03  0.50400001928E-02 0. -1.
       -1    1    3    3    0  502  0.61745911104E+03 -0.99006834620E+02 -0.38188314610E+03  0.73272972125E+03  0.50400001928E-02 0.  1.
</event>
<event>
 5   0  0.1339162E-03  0.1262041E+04  0.7818609E-02  0.9060220E-01
        2   -1    0    0  501    0  0.00000000000E+00  0.00000000000E+00  0.11935437564E+04  0.11935437564E+04  0.25500000920E-02 0. -1.
       -2   -1    0    0    0  501  0.00000000000E+00  0.00000000000E+00 -0.33361753631E+03  0.33361753632E+03  0.25500000920E-02 0.  1.
    10030    2    1    2    0    0  0.00000000000E+00  0.00000000000E+00  0.85992622012E+03  0.15271612928E+04  0.12620414058E+04 0.  0.
        5    1    3    3  502    0  0.39526802907E+03 -0.41983187430E+03  0.11986944463E+03  0.58897062001E+03  0.46999998093E+01 0.  1.
       -5    1    3    3    0  502 -0.39526802907E+03  0.41983187430E+03  0.74005677550E+03  0.93819067275E+03  0.46999998093E+01 0. -1.
</event>
<event>
 5   0  0.7302027E-04  0.1561495E+04  0.7818609E-02  0.8844559E-01
        1   -1    0    0  501    0  0.00000000000E+00  0.00000000000E+00  0.85544245974E+03  0.85544245975E+03  0.50400001928E-02 0.  1.
       -1   -1    0    0    0  501  0.00000000000E+00  0.00000000000E+00 -0.71257447640E+03  0.71257447642E+03  0.50400001928E-02 0. -1.
    10030    2    1    2    0    0  0.00000000000E+00  0.00000000000E+00  0.14286798333E+03  0.15680169362E+04  0.15614947491E+04 0.  0.
        5    1    3    3  502    0 -0.48214964933E+03 -0.59294512215E+03 -0.88895578944E+02  0.76940023147E+03  0.46999998093E+01 0. -1.
       -5    1    3    3    0  502  0.48214964933E+03  0.59294512215E+03  0.23176356228E+03  0.79861670470E+03  0.46999998093E+01 0.  1.
</event>
<event>
 5   0  0.7302027E-04  0.1611576E+04  0.7818609E-02  0.8813468E-01
        1   -1    0    0  501    0  0.00000000000E+00  0.00000000000E+00  0.21115476089E+04  0.21115476089E+04  0.50400001928E-02 0.  1.
       -1   -1    0    0    0  501  0.00000000000E+00  0.00000000000E+00 -0.30749703656E+03  0.30749703660E+03  0.50400001928E-02 0. -1.
    10030    2    1    2    0    0  0.00000000000E+00  0.00000000000E+00  0.18040505724E+04  0.24190446455E+04  0.16115764113E+04 0.  0.
        5    1    3    3  502    0 -0.23768505864E+03  0.76659861930E+03  0.79477780080E+03  0.11295403812E+04  0.46999998093E+01 0. -1.
       -5    1    3    3    0  502  0.23768505864E+03 -0.76659861930E+03  0.10092727716E+04  0.12895042643E+04  0.46999998093E+01 0.  1.
</event>
<event>
 5   0  0.1339162E-03  0.1625526E+04  0.7818609E-02  0.8805018E-01
        2   -1    0    0  501    0  0.00000000000E+00  0.00000000000E+00  0.12930361774E+04  0.12930361774E+04  0.25500000920E-02 0. -1.
       -2   -1    0    0    0  501  0.00000000000E+00  0.00000000000E+00 -0.51087765913E+03  0.51087765914E+03  0.25500000920E-02 0.  1.
    10030    2    1    2    0    0  0.00000000000E+00  0.00000000000E+00  0.78215851828E+03  0.18039138365E+04  0.16255255095E+04 0.  0.
        5    1    3    3  502    0 -0.59444512227E+03  0.53604867217E+03  0.54742304691E+03  0.96974597943E+03  0.46999998093E+01 0.  1.
       -5    1    3    3    0  502  0.59444512227E+03 -0.53604867217E+03  0.23473547136E+03  0.83416785711E+03  0.46999998093E+01 0. -1.
</event>
<event>
 5   0  0.7601145E-04  0.1548737E+04  0.7818609E-02  0.8852675E-01
        1   -1    0    0  501    0  0.00000000000E+00  0.00000000000E+00  0.81021575321E+03  0.81021575323E+03  0.50400001928E-02 0.  1.
       -1   -1    0    0    0  501  0.00000000000E+00  0.00000000000E+00 -0.74010775138E+03  0.74010775140E+03  0.50400001928E-02 0. -1.
    10030    2    1    2    0    0  0.00000000000E+00  0.00000000000E+00  0.70108001834E+02  0.15503235046E+04  0.15487374978E+04 0.  0.
        4    1    3    3  502    0 -0.42025126281E+03  0.24068970195E+03  0.63991005819E+03  0.80251426903E+03  0.12699999809E+01 0.  1.
       -4    1    3    3    0  502  0.42025126281E+03 -0.24068970195E+03 -0.56980205636E+03  0.74780923560E+03  0.12699999809E+01 0. -1.
</event>
<event>
 5   0  0.7601145E-04  0.1195113E+04  0.7818609E-02  0.9117145E-01
        1   -1    0    0  501    0  0.00000000000E+00  0.00000000000E+00  0.14779956990E+04  0.14779956990E+04  0.50400001928E-02 0. -1.
       -1   -1    0    0    0  501  0.00000000000E+00  0.00000000000E+00 -0.24159321425E+03  0.24159321430E+03  0.50400001928E-02 0.  1.
    10030    2    1    2    0    0  0.00000000000E+00  0.00000000000E+00  0.12364024848E+04  0.17195889133E+04  0.11951129346E+04 0.  0.
        4    1    3    3  502    0 -0.40910530119E+03 -0.19505760178E+03  0.11785361006E+04  0.12626811034E+04  0.12699999809E+01 0. -1.
       -4    1    3    3    0  502  0.40910530119E+03  0.19505760178E+03  0.57866384156E+02  0.45690780995E+03  0.12699999809E+01 0.  1.
</event>
<event>
 5   0  0.7302027E-04  0.1543392E+04  0.7818609E-02  0.8856100E-01
        1   -1    0    0  501    0  0.00000000000E+00  0.00000000000E+00  0.67132413027E+03  0.67132413029E+03  0.50400001928E-02 0. -1.
       -1   -1    0    0    0  501  0.00000000000E+00  0.00000000000E+00 -0.88707458065E+03  0.88707458066E+03  0.50400001928E-02 0.  1.
    10030    2    1    2    0    0  0.00000000000E+00  0.00000000000E+00 -0.21575045037E+03  0.15583987110E+04  0.15433918120E+04 0.  0.
        5    1    3    3  502    0 -0.59802633330E+03 -0.48407632167E+03 -0.16784208768E+03  0.78750138852E+03  0.46999998093E+01 0.  1.
       -5    1    3    3    0  502  0.59802633330E+03  0.48407632167E+03 -0.47908362691E+02  0.77089732243E+03  0.46999998093E+01 0. -1.
</event>
<event>
 5   0  0.7601145E-04  0.1009653E+04  0.7818609E-02  0.9298021E-01
       -1   -1    0    0    0  501  0.00000000000E+00  0.00000000000E+00  0.39843615839E+03  0.39843615843E+03  0.50400001928E-02 0.  1.
        1   -1    0    0  501    0  0.00000000000E+00  0.00000000000E+00 -0.63962469569E+03  0.63962469571E+03  0.50400001928E-02 0. -1.
    10030    2    1    2    0    0  0.00000000000E+00  0.00000000000E+00 -0.24118853729E+03  0.10380608541E+04  0.10096526266E+04 0.  0.
        4    1    3    3  502    0 -0.43039849265E+03 -0.98903691044E+02 -0.37206394466E+03  0.57745821874E+03  0.12699999809E+01 0. -1.
       -4    1    3    3    0  502  0.43039849265E+03  0.98903691044E+02  0.13087540737E+03  0.46060263539E+03  0.12699999809E+01 0.  1.
</event>
<event>
 5   0  0.7601145E-04  0.1609294E+04  0.7818609E-02  0.8814859E-01
       -1   -1    0    0    0  501  0.00000000000E+00  0.00000000000E+00  0.10304403372E+04  0.10304403372E+04  0.50400001928E-02 0.  1.
        1   -1    0    0  501    0  0.00000000000E+00  0.00000000000E+00 -0.62833004126E+03  0.62833004128E+03  0.50400001928E-02 0. -1.
    10030    2    1    2    0    0  0.00000000000E+00  0.00000000000E+00  0.40211029591E+03  0.16587703785E+04  0.16092937825E+04 0.  0.
        4    1    3    3  502    0  0.57003065263E+03  0.32071482098E+03  0.68414561698E+03  0.94649341227E+03  0.12699999809E+01 0.  1.
       -4    1    3    3    0  502 -0.57003065263E+03 -0.32071482098E+03 -0.28203532107E+03  0.71227696619E+03  0.12699999809E+01 0. -1.
</event>
<event>
 5   0  0.7601145E-04  0.1599363E+04  0.7818609E-02  0.8820940E-01
        1   -1    0    0  501    0  0.00000000000E+00  0.00000000000E+00  0.10354092203E+04  0.10354092203E+04  0.50400001928E-02 0.  1.
       -1   -1    0    0    0  501  0.00000000000E+00  0.00000000000E+00 -0.61762071816E+03  0.61762071818E+03  0.50400001928E-02 0. -1.
    10030    2    1    2    0    0  0.00000000000E+00  0.00000000000E+00  0.41778850214E+03  0.16530299385E+04  0.15993626059E+04 0.  0.
        4    1    3    3  502    0 -0.27924049190E+03 -0.21036834887E+02 -0.56528691990E+03  0.63084761666E+03  0.12699999809E+01 0. -1.
       -4    1    3    3    0  502  0.27924049190E+03  0.21036834887E+02  0.98307542204E+03  0.10221823218E+04  0.12699999809E+01 0.  1.
</event>
<event>
 5   0  0.7633213E-04  0.1597578E+04  0.7818609E-02  0.8822037E-01
       -1   -1    0    0    0  501  0.00000000000E+00  0.00000000000E+00  0.17725808467E+04  0.17725808468E+04  0.50400001928E-02 0. -1.
        1   -1    0    0  501    0  0.00000000000E+00  0.00000000000E+00 -0.35996309746E+03  0.35996309749E+03  0.50400001928E-02 0.  1.
    10030    2    1    2    0    0  0.00000000000E+00  0.00000000000E+00  0.14126177493E+04  0.21325439442E+04  0.15975777817E+04 0.  0.
        1    1    3    3  502    0 -0.45619876366E+03  0.16506270568E+03 -0.14077645524E+03  0.50515445078E+03  0.50400001928E-02 0.  1.
       -1    1    3    3    0  502  0.45619876366E+03 -0.16506270568E+03  0.15533942045E+04  0.16273894935E+04  0.50400001928E-02 0. -1.
</event>
<event>
 5   0  0.1414751E-03  0.1346646E+04  0.7818609E-02  0.8993371E-01
        2   -1    0    0  501    0  0.00000000000E+00  0.00000000000E+00  0.21990194995E+04  0.21990194995E+04  0.25500000920E-02 0. -1.
       -2   -1    0    0    0  501  0.00000000000E+00  0.00000000000E+00 -0.20616639864E+03  0.20616639865E+03  0.25500000920E-02 0.  1.
    10030    2    1    2    0    0  0.00000000000E+00  0.00000000000E+00  0.19928531009E+04  0.24051858982E+04  0.13466461016E+04 0.  0.
        2    1    3    3  502    0 -0.94239507181E+02  0.57273078353E+03  0.16059463867E+04  0.17076198148E+04  0.25500000920E-02 0. -1.
       -2    1    3    3    0  502  0.94239507181E+02 -0.57273078353E+03  0.38690671419E+03  0.69756608332E+03  0.25500000920E-02 0.  1.
</event>
<event>
 5   0  0.7633213E-04  0.1599716E+04  0.7818609E-02  0.8820722E-01
       -1   -1    0    0    0  501  0.00000000000E+00  0.00000000000E+00  0.83013308185E+03  0.83013308187E+03  0.50400001928E-02 0. -1.
        1   -1    0    0  501    0  0.00000000000E+00  0.00000000000E+00 -0.77068751258E+03  0.77068751260E+03  0.50400001928E-02 0.  1.
    10030    2    1    2    0    0  0.00000000000E+00  0.00000000000E+00  0.59445569275E+02  0.16008205945E+04  0.15997164749E+04 0.  0.
        1    1    3    3  502    0 -0.17008696309E+03 -0.25421510574E+03  0.76929871833E+03  0.82787403212E+03  0.50400001928E-02 0. -1.
       -1    1    3    3    0  502  0.17008696309E+03  0.25421510574E+03 -0.70985314906E+03  0.77294656235E+03  0.50400001928E-02 0.  1.
</event>
<event>
 5   0  0.7633213E-04  0.1612066E+04  0.7818609E-02  0.8813170E-01
       -1   -1    0    0    0  501  0.00000000000E+00  0.00000000000E+00  0.14903651235E+04  0.14903651235E+04  0.50400001928E-02 0. -1.
        1   -1    0    0  501    0  0.00000000000E+00  0.00000000000E+00 -0.43592610344E+03  0.43592610347E+03  0.50400001928E-02 0.  1.
    10030    2    1    2    0    0  0.00000000000E+00  0.00000000000E+00  0.10544390201E+04  0.19262912270E+04  0.16120658312E+04 0.  0.
        1    1    3    3  502    0 -0.13493505413E+03 -0.71860336488E+03  0.12184216781E+03  0.74124474955E+03  0.50400001928E-02 0. -1.
       -1    1    3    3    0  502  0.13493505413E+03  0.71860336488E+03  0.93259685225E+03  0.11850464774E+04  0.50400001928E-02 0.  1.
</event>
<event>
 5   0  0.1339162E-03  0.1609758E+04  0.7818609E-02  0.8814575E-01
        2   -1    0    0  501    0  0.00000000000E+00  0.00000000000E+00  0.74914059898E+03  0.74914059898E+03  0.25500000920E-02 0. -1.
       -2   -1    0    0    0  501  0.00000000000E+00  0.00000000000E+00 -0.86476490000E+03  0.86476490000E+03  0.25500000920E-02 0.  1.
    10030    2    1    2    0    0  0.00000000000E+00  0.00000000000E+00 -0.11562430102E+03  0.16139054990E+04  0.16097583610E+04 0.  0.
        5    1    3    3  502    0 -0.27823099830E+03  0.26308857544E+03  0.65195258161E+03  0.75610339611E+03  0.46999998093E+01 0. -1.
       -5    1    3    3    0  502  0.27823099830E+03 -0.26308857544E+03 -0.76757688264E+03  0.85780210288E+03  0.46999998093E+01 0.  1.
</event>
<event>
 5   0  0.5095750E-04  0.1596679E+04  0.7818609E-02  0.8822591E-01
        4   -1    0    0  501    0  0.00000000000E+00  0.00000000000E+00  0.28991420262E+03  0.28991698429E+03  0.12699999809E+01 0. -1.
       -4   -1    0    0    0  501  0.00000000000E+00  0.00000000000E+00 -0.21983815057E+04  0.21983818725E+04  0.12699999809E+01 0.  1.
    10030    2    1    2    0    0  0.00000000000E+00  0.00000000000E+00 -0.19084673031E+04  0.24882988568E+04  0.15966789765E+04 0.  0.
        4    1    3    3  502    0  0.75256787837E+03 -0.43693266388E+01 -0.53907641271E+03  0.92573348984E+03  0.12699999809E+01 0. -1.
       -4    1    3    3    0  502 -0.75256787837E+03  0.43693266388E+01 -0.13693908904E+04  0.15625653670E+04  0.12699999809E+01 0.  1.
</event>
<event>
 5   0  0.7499834E-04  0.1594710E+04  0.7818609E-02  0.8823805E-01
        1   -1    0    0  501    0  0.00000000000E+00  0.00000000000E+00  0.12914097945E+04  0.12914097946E+04  0.50400001928E-02 0.  1.
       -1   -1    0    0    0  501  0.00000000000E+00  0.00000000000E+00 -0.49231058525E+03  0.49231058527E+03  0.50400001928E-02 0. -1.
    10030    2    1    2    0    0  0.00000000000E+00  0.00000000000E+00  0.79909920930E+03  0.17837203798E+04  0.15947096435E+04 0.  0.
        3    1    3    3  502    0 -0.53984843850E+03 -0.53223845404E+03  0.12315748088E+03  0.76803768384E+03  0.10100000352E+00 0. -1.
       -3    1    3    3    0  502  0.53984843850E+03  0.53223845404E+03  0.67594172842E+03  0.10156826960E+04  0.10100000352E+00 0.  1.
</event>
<event>
 5   0  0.7601145E-04  0.1566259E+04  0.7818609E-02  0.8841549E-01
       -1   -1    0    0    0  501  0.00000000000E+00  0.00000000000E+00  0.12861261116E+04  0.12861261116E+04  0.50400001928E-02 0.  1.
        1   -1    0    0  501    0  0.00000000000E+00  0.00000000000E+00 -0.47685217111E+03  0.47685217113E+03  0.50400001928E-02 0. -1.
    10030    2    1    2    0    0  0.00000000000E+00  0.00000000000E+00  0.80927394044E+03  0.17629782827E+04  0.15662592744E+04 0.  0.
        4    1    3    3  502    0  0.50672533004E+03 -0.53113228432E+03  0.97576909456E+02  0.74053691989E+03  0.12699999809E+01 0.  1.
       -4    1    3    3    0  502 -0.50672533004E+03  0.53113228432E+03  0.71169703099E+03  0.10224413628E+04  0.12699999809E+01 0. -1.
</event>
<event>
 5   0  0.7601145E-04  0.1644106E+04  0.7818609E-02  0.8793901E-01
       -1   -1    0    0    0  501  0.00000000000E+00  0.00000000000E+00  0.46980438905E+03  0.46980438908E+03  0.50400001928E-02 0.  1.
        1   -1    0    0  501    0  0.00000000000E+00  0.00000000000E+00 -0.14384093699E+04  0.14384093699E+04  0.50400001928E-02 0. -1.
    10030    2    1    2    0    0  0.00000000000E+00  0.00000000000E+00 -0.96860498088E+03  0.19082137590E+04  0.16441058789E+04 0.  0.
        4    1    3    3  502    0  0.69181725620E+03  0.40719777975E+03 -0.27880616444E+03  0.84979741000E+03  0.12699999809E+01 0.  1.
       -4    1    3    3    0  502 -0.69181725620E+03 -0.40719777975E+03 -0.68979881645E+03  0.10584163490E+04  0.12699999809E+01 0. -1.
</event>
<event>
 5   0  0.1414796E-03  0.1576260E+04  0.7818609E-02  0.8835266E-01
       -2   -1    0    0    0  501  0.00000000000E+00  0.00000000000E+00  0.59134474615E+03  0.59134474615E+03  0.25500000920E-02 0. -1.
        2   -1    0    0  501    0  0.00000000000E+00  0.00000000000E+00 -0.10504012489E+04  0.10504012489E+04  0.25500000920E-02 0.  1.
    10030    2    1    2    0    0  0.00000000000E+00  0.00000000000E+00 -0.45905650275E+03  0.16417459950E+04  0.15762604606E+04 0.  0.
        4    1    3    3  502    0 -0.32761886998E+03  0.33272191348E+03 -0.89081463740E+03  0.10057784680E+04  0.12699999809E+01 0.  1.
       -4    1    3    3    0  502  0.32761886998E+03 -0.33272191348E+03  0.43175813465E+03  0.63596752701E+03  0.12699999809E+01 0. -1.
</event>
<event>
 5   0  0.5095750E-04  0.1605467E+04  0.7818609E-02  0.8817196E-01
       -3   -1    0    0    0  501  0.00000000000E+00  0.00000000000E+00  0.15103267397E+04  0.15103267431E+04  0.10100000352E+00 0. -1.
        3   -1    0    0  501    0  0.00000000000E+00  0.00000000000E+00 -0.42665023131E+03  0.42665024326E+03  0.10100000352E+00 0.  1.
    10030    2    1    2    0    0  0.00000000000E+00  0.00000000000E+00  0.10836765084E+04  0.19369769863E+04  0.16054672437E+04 0.  0.
        3    1    3    3  502    0  0.67711564966E+02 -0.30605774194E+03  0.14334362107E+04  0.14673089578E+04  0.10100000352E+00 0. -1.
       -3    1    3    3    0  502 -0.67711564966E+02  0.30605774194E+03 -0.34975970230E+03  0.46966802850E+03  0.10100000352E+00 0.  1.
</event>
<event>
 5   0  0.7499834E-04  0.1148980E+04  0.7818609E-02  0.9158725E-01
        1   -1    0    0  501    0  0.00000000000E+00  0.00000000000E+00  0.70314796502E+03  0.70314796504E+03  0.50400001928E-02 0.  1.
       -1   -1    0    0    0  501  0.00000000000E+00  0.00000000000E+00 -0.46937274835E+03  0.46937274838E+03  0.50400001928E-02 0. -1.
    10030    2    1    2    0    0  0.00000000000E+00  0.00000000000E+00  0.23377521667E+03  0.11725207134E+04  0.11489795348E+04 0.  0.
        3    1    3    3  502    0  0.98811974376E+02  0.19694132595E+03 -0.42453798708E+03  0.47831182801E+03  0.10100000352E+00 0. -1.
       -3    1    3    3    0  502 -0.98811974376E+02 -0.19694132595E+03  0.65831320374E+03  0.69420888540E+03  0.10100000352E+00 0.  1.
</event>
<event>
 5   0  0.1414751E-03  0.1664218E+04  0.7818609E-02  0.8782040E-01
        2   -1    0    0  501    0  0.00000000000E+00  0.00000000000E+00  0.98819540943E+03  0.98819540943E+03  0.25500000920E-02 0. -1.
       -2   -1    0    0    0  501  0.00000000000E+00  0.00000000000E+00 -0.70067623307E+03  0.70067623308E+03  0.25500000920E-02 0.  1.
    10030    2    1    2    0    0  0.00000000000E+00  0.00000000000E+00  0.28751917635E+03  0.16888716425E+04  0.16642175784E+04 0.  0.
        2    1    3    3  502    0  0.56245941312E+03 -0.34303220147E+03  0.65959410624E+03  0.93225322078E+03  0.25500000920E-02 0. -1.
       -2    1    3    3    0  502 -0.56245941312E+03  0.34303220147E+03 -0.37207492989E+03  0.75661842173E+03  0.25500000920E-02 0.  1.
</event>
<event>
 5   0  0.1339162E-03  0.1546499E+04  0.7818609E-02  0.8854107E-01
        2   -1    0    0  501    0  0.00000000000E+00  0.00000000000E+00  0.13595587714E+04  0.13595587714E+04  0.25500000920E-02 0.  1.
       -2   -1    0    0    0  501  0.00000000000E+00  0.00000000000E+00 -0.43978597412E+03  0.43978597413E+03  0.25500000920E-02 0. -1.
    10030    2    1    2    0    0  0.00000000000E+00  0.00000000000E+00  0.91977279732E+03  0.17993447456E+04  0.15464991157E+04 0.  0.
        5    1    3    3  502    0  0.56999903115E+03 -0.39263635478E+02  0.10660801216E+04  0.12095410056E+04  0.46999998093E+01 0.  1.
       -5    1    3    3    0  502 -0.56999903115E+03  0.39263635478E+02 -0.14630732425E+03  0.58980374000E+03  0.46999998093E+01 0. -1.
</event>
<event>
 5   0  0.1354766E-03  0.1676812E+04  0.7818609E-02  0.8774701E-01
        2   -1    0    0  501    0  0.00000000000E+00  0.00000000000E+00  0.16867493869E+04  0.16867493869E+04  0.25500000920E-02 0.  1.
       -2   -1    0    0    0  501  0.00000000000E+00  0.00000000000E+00 -0.41673312633E+03  0.41673312633E+03  0.25500000920E-02 0. -1.
    10030    2    1    2    0    0  0.00000000000E+00  0.00000000000E+00  0.12700162605E+04  0.21034825132E+04  0.16768116714E+04 0.  0.
        3    1    3    3  502    0 -0.80688741848E+03 -0.21935016969E+02  0.91934571614E+03  0.12234153044E+04  0.10100000352E+00 0.  1.
       -3    1    3    3    0  502  0.80688741848E+03  0.21935016969E+02  0.35067054439E+03  0.88006720878E+03  0.10100000352E+00 0. -1.
</event>
<event>
 5   0  0.7124495E-04  0.1564040E+04  0.7818609E-02  0.8842950E-01
        1   -1    0    0  501    0  0.00000000000E+00  0.00000000000E+00  0.85950459131E+03  0.85950459132E+03  0.50400001928E-02 0. -1.
       -1   -1    0    0    0  501  0.00000000000E+00  0.00000000000E+00 -0.71152025918E+03  0.71152025920E+03  0.50400001928E-02 0.  1.
    10030    2    1    2    0    0  0.00000000000E+00  0.00000000000E+00  0.14798433213E+03  0.15710248505E+04  0.15640395514E+04 0.  0.
        2    1    3    3  502    0 -0.71259767464E+02  0.15112013626E+03 -0.69338297928E+03  0.71322871928E+03  0.25500000920E-02 0.  1.
       -2    1    3    3    0  502  0.71259767464E+02 -0.15112013626E+03  0.84136731141E+03  0.85779613123E+03  0.25500000920E-02 0. -1.
</event>
<event>
 5   0  0.1354766E-03  0.1586426E+04  0.7818609E-02  0.8828931E-01
       -2   -1    0    0    0  501  0.00000000000E+00  0.00000000000E+00  0.42747006078E+03  0.42747006078E+03  0.25500000920E-02 0.  1.
        2   -1    0    0  501    0  0.00000000000E+00  0.00000000000E+00 -0.14718844359E+04  0.14718844359E+04  0.25500000920E-02 0. -1.
    10030    2    1    2    0    0  0.00000000000E+00  0.00000000000E+00 -0.10444143751E+04  0.18993544967E+04  0.15864255788E+04 0.  0.
        3    1    3    3  502    0 -0.51073151101E+03  0.60657378032E+03 -0.49802112142E+03  0.93637784836E+03  0.10100000352E+00 0.  1.
       -3    1    3    3    0  502  0.51073151101E+03 -0.60657378032E+03 -0.54639325368E+03  0.96297664830E+03  0.10100000352E+00 0. -1.
</event>
<event>
 5   0  0.7302027E-04  0.1581404E+04  0.7818609E-02  0.8832054E-01
       -1   -1    0    0    0  501  0.00000000000E+00  0.00000000000E+00  0.84118910181E+03  0.84118910182E+03  0.50400001928E-02 0.  1.
        1   -1    0    0  501    0  0.00000000000E+00  0.00000000000E+00 -0.74324550158E+03  0.74324550159E+03  0.50400001928E-02 0. -1.
    10030    2    1    2    0    0  0.00000000000E+00  0.00000000000E+00  0.97943600233E+02  0.15844346034E+04  0.15814044592E+04 0.  0.
        5    1    3    3  502    0 -0.31778886212E+03 -0.47450603726E+03 -0.49892351720E+03  0.75834853880E+03  0.46999998093E+01 0. -1.
       -5    1    3    3    0  502  0.31778886212E+03  0.47450603726E+03  0.59686711743E+03  0.82608606462E+03  0.46999998093E+01 0.  1.
</event>
<event>
 5   0  0.7499834E-04  0.1604290E+04  0.7818609E-02  0.8817917E-01
       -1   -1    0    0    0  501  0.00000000000E+00  0.00000000000E+00  0.47719112653E+03  0.47719112656E+03  0.50400001928E-02 0. -1.
        1   -1    0    0  501    0  0.00000000000E+00  0.00000000000E+00 -0.13483829063E+04  0.13483829064E+04  0.50400001928E-02 0.  1.
    10030    2    1    2    0    0  0.00000000000E+00  0.00000000000E+00 -0.87119177981E+03  0.18255740329E+04  0.16042896972E+04 0.  0.
        3    1    3    3  502    0 -0.76561395044E+03  0.22622823275E+03 -0.52441600706E+03  0.95517333142E+03  0.10100000352E+00 0.  1.
       -3    1    3    3    0  502  0.76561395044E+03 -0.22622823275E+03 -0.34677577275E+03  0.87040070150E+03  0.10100000352E+00 0. -1.
</event>
<event>
 5   0  0.7601145E-04  0.1612029E+04  0.7818609E-02  0.8813192E-01
        1   -1    0    0  501    0  0.00000000000E+00  0.00000000000E+00  0.76248874068E+03  0.76248874069E+03  0.50400001928E-02 0.  1.
       -1   -1    0    0    0  501  0.00000000000E+00  0.00000000000E+00 -0.85202466675E+03  0.85202466677E+03  0.50400001928E-02 0. -1.
    10030    2    1    2    0    0  0.00000000000E+00  0.00000000000E+00 -0.89535926078E+02  0.16145134075E+04  0.16120288027E+04 0.  0.
        4    1    3    3  502    0  0.30935115967E+03 -0.66790475520E+03  0.28416280786E+03  0.78901521930E+03  0.12699999809E+01 0.  1.
       -4    1    3    3    0  502 -0.30935115967E+03  0.66790475520E+03 -0.37369873394E+03  0.82549818816E+03  0.12699999809E+01 0. -1.
</event>
<event>
 5   0  0.1414796E-03  0.1541749E+04  0.7818609E-02  0.8857155E-01
        2   -1    0    0  501    0  0.00000000000E+00  0.00000000000E+00  0.70489605697E+03  0.70489605698E+03  0.25500000920E-02 0. -1.
       -2   -1    0    0    0  501  0.00000000000E+00  0.00000000000E+00 -0.84302866576E+03  0.84302866576E+03  0.25500000920E-02 0.  1.
    10030    2    1    2    0    0  0.00000000000E+00  0.00000000000E+00 -0.13813260879E+03  0.15479247227E+04  0.15417491137E+04 0.  0.
        4    1    3    3  502    0 -0.57066761196E+03 -0.27593803639E+03 -0.50950634023E+03  0.81326603698E+03  0.12699999809E+01 0.  1.
       -4    1    3    3    0  502  0.57066761196E+03  0.27593803639E+03  0.37137373144E+03  0.73465868576E+03  0.12699999809E+01 0. -1.
</event>
<event>
 5   0  0.7601145E-04  0.1600480E+04  0.7818609E-02  0.8820253E-01
        1   -1    0    0  501    0  0.00000000000E+00  0.00000000000E+00  0.76838993499E+03  0.76838993501E+03  0.50400001928E-02 0. -1.
       -1   -1    0    0    0  501  0.00000000000E+00  0.00000000000E+00 -0.83340987991E+03  0.83340987993E+03  0.50400001928E-02 0.  1.
    10030    2    1    2    0    0  0.00000000000E+00  0.00000000000E+00 -0.65019944917E+02  0.16017998149E+04  0.16004796325E+04 0.  0.
        4    1    3    3  502    0  0.99924045870E+02  0.39468150023E+03 -0.72200774246E+03  0.82888786614E+03  0.12699999809E+01 0.  1.
       -4    1    3    3    0  502 -0.99924045870E+02 -0.39468150023E+03  0.65698779755E+03  0.77291194879E+03  0.12699999809E+01 0. -1.
</event>
<event>
 5   0  0.5095750E-04  0.1603816E+04  0.7818609E-02  0.8818207E-01
       -4   -1    0    0    0  501  0.00000000000E+00  0.00000000000E+00  0.19569877391E+04  0.19569881511E+04  0.12699999809E+01 0. -1.
        4   -1    0    0  501    0  0.00000000000E+00  0.00000000000E+00 -0.32859333515E+03  0.32859578939E+03  0.12699999809E+01 0.  1.
    10030    2    1    2    0    0  0.00000000000E+00  0.00000000000E+00  0.16283944039E+04  0.22855839405E+04  0.16038159541E+04 0.  0.
        2    1    3    3  502    0  0.48430231412E+03  0.38282155624E+03  0.15435812566E+04  0.16624512537E+04  0.25500000920E-02 0. -1.
       -2    1    3    3    0  502 -0.48430231412E+03 -0.38282155624E+03  0.84813147327E+02  0.62313268679E+03  0.25500000920E-02 0.  1.
</event>
<event>
 5   0  0.7499834E-04  0.1603527E+04  0.7818609E-02  0.8818384E-01
        1   -1    0    0  501    0  0.00000000000E+00  0.00000000000E+00  0.14807553145E+04  0.14807553145E+04  0.50400001928E-02 0.  1.
       -1   -1    0    0    0  501  0.00000000000E+00  0.00000000000E+00 -0.43411971756E+03  0.43411971759E+03  0.50400001928E-02 0. -1.
    10030    2    1    2    0    0  0.00000000000E+00  0.00000000000E+00  0.10466355969E+04  0.19148750321E+04  0.16035274603E+04 0.  0.
        3    1    3    3  502    0  0.15761192518E+03  0.66665414762E+03  0.10208069300E+04  0.12293559574E+04  0.10100000352E+00 0.  1.
       -3    1    3    3    0  502 -0.15761192518E+03 -0.66665414762E+03  0.25828666921E+02  0.68551907467E+03  0.10100000352E+00 0. -1.
</event>
<event>
 5   0  0.1414751E-03  0.1404719E+04  0.7818609E-02  0.8950410E-01
        2   -1    0    0  501    0  0.00000000000E+00  0.00000000000E+00  0.45953580706E+03  0.45953580706E+03  0.25500000920E-02 0.  1.
       -2   -1    0    0    0  501  0.00000000000E+00  0.00000000000E+00 -0.10734933959E+04  0.10734933959E+04  0.25500000920E-02 0. -1.
    10030    2    1    2    0    0  0.00000000000E+00  0.00000000000E+00 -0.61395758888E+03  0.15330292030E+04  0.14047186965E+04 0.  0.
        2    1    3    3  502    0 -0.21161173126E+02 -0.38286755043E+03  0.33522159784E+03  0.50932197683E+03  0.25500000920E-02 0.  1.
       -2    1    3    3    0  502  0.21161173126E+02  0.38286755043E+03 -0.94917918671E+03  0.10237072262E+04  0.25500000920E-02 0. -1.
</event>
<event>
 5   0  0.1414796E-03  0.1606599E+04  0.7818609E-02  0.8816504E-01
       -2   -1    0    0    0  501  0.00000000000E+00  0.00000000000E+00  0.17892855426E+04  0.17892855426E+04  0.25500000920E-02 0.  1.
        2   -1    0    0  501    0  0.00000000000E+00  0.00000000000E+00 -0.36064102715E+03  0.36064102716E+03  0.25500000920E-02 0. -1.
    10030    2    1    2    0    0  0.00000000000E+00  0.00000000000E+00  0.14286445155E+04  0.21499265698E+04  0.16065986132E+04 0.  0.
        4    1    3    3  502    0  0.57497595838E+01 -0.50416418719E+03 -0.12252360878E+03  0.51887207960E+03  0.12699999809E+01 0. -1.
       -4    1    3    3    0  502 -0.57497595838E+01  0.50416418719E+03  0.15511681243E+04  0.16310544902E+04  0.12699999809E+01 0.  1.
</event>
<event>
 5   0  0.1414751E-03  0.1560303E+04  0.7818609E-02  0.8845314E-01
       -2   -1    0    0    0  501  0.00000000000E+00  0.00000000000E+00  0.67571400352E+03  0.67571400353E+03  0.25500000920E-02 0.  1.
        2   -1    0    0  501    0  0.00000000000E+00  0.00000000000E+00 -0.90073034159E+03  0.90073034160E+03  0.25500000920E-02 0. -1.
    10030    2    1    2    0    0  0.00000000000E+00  0.00000000000E+00 -0.22501633807E+03  0.15764443451E+04  0.15603026696E+04 0.  0.
        2    1    3    3  502    0 -0.50742652723E+03  0.42870492369E+02 -0.70965257719E+03  0.87345654727E+03  0.25500000920E-02 0. -1.
       -2    1    3    3    0  502  0.50742652723E+03 -0.42870492369E+02  0.48463623912E+03  0.70298779785E+03  0.25500000920E-02 0.  1.
</event>
<event>
 5   0  0.7601145E-04  0.1581179E+04  0.7818609E-02  0.8832195E-01
        1   -1    0    0  501    0  0.00000000000E+00  0.00000000000E+00  0.82690417564E+03  0.82690417565E+03  0.50400001928E-02 0. -1.
       -1   -1    0    0    0  501  0.00000000000E+00  0.00000000000E+00 -0.75586935727E+03  0.75586935729E+03  0.50400001928E-02 0.  1.
    10030    2    1    2    0    0  0.00000000000E+00  0.00000000000E+00  0.71034818365E+02  0.15827735329E+04  0.15811787094E+04 0.  0.
        4    1    3    3  502    0  0.35581487052E+03  0.68178486955E+03 -0.14795708121E+03  0.78315243804E+03  0.12699999809E+01 0. -1.
       -4    1    3    3    0  502 -0.35581487052E+03 -0.68178486955E+03  0.21899189957E+03  0.79962109490E+03  0.12699999809E+01 0.  1.
</event>
<event>
 5   0  0.1339162E-03  0.1613791E+04  0.7818609E-02  0.8812120E-01
       -2   -1    0    0    0  501  0.00000000000E+00  0.00000000000E+00  0.37932293680E+03  0.37932293681E+03  0.25500000920E-02 0.  1.
        2   -1    0    0  501    0  0.00000000000E+00  0.00000000000E+00 -0.17164276708E+04  0.17164276708E+04  0.25500000920E-02 0. -1.
    10030    2    1    2    0    0  0.00000000000E+00  0.00000000000E+00 -0.13371047340E+04  0.20957506076E+04  0.16137910458E+04 0.  0.
        5    1    3    3  502    0  0.28422348924E+03 -0.11173806409E+02  0.31203667263E+03  0.42225208211E+03  0.46999998093E+01 0.  1.
       -5    1    3    3    0  502 -0.28422348924E+03  0.11173806409E+02 -0.16491414067E+04  0.16734985255E+04  0.46999998093E+01 0. -1.
</event>
<event>
 5   0  0.7124495E-04  0.1620626E+04  0.7818609E-02  0.8807976E-01
        1   -1    0    0  501    0  0.00000000000E+00  0.00000000000E+00  0.53141599639E+03  0.53141599642E+03  0.50400001928E-02 0. -1.
       -1   -1    0    0    0  501  0.00000000000E+00  0.00000000000E+00 -0.12355801909E+04  0.12355801909E+04  0.50400001928E-02 0.  1.
    10030    2    1    2    0    0  0.00000000000E+00  0.00000000000E+00 -0.70416419447E+03  0.17669961873E+04  0.16206259017E+04 0.  0.
        2    1    3    3  502    0 -0.19943688281E+02  0.56730688671E+03  0.27839299447E+03  0.63224798441E+03  0.25500000920E-02 0. -1.
       -2    1    3    3    0  502  0.19943688281E+02 -0.56730688671E+03 -0.98255718893E+03  0.11347482029E+04  0.25500000920E-02 0.  1.
</event>
<event>
 5   0  0.7633213E-04  0.1658561E+04  0.7818609E-02  0.8785358E-01
        1   -1    0    0  501    0  0.00000000000E+00  0.00000000000E+00  0.11829396833E+04  0.11829396833E+04  0.50400001928E-02 0.  1.
       -1   -1    0    0    0  501  0.00000000000E+00  0.00000000000E+00 -0.58135357653E+03  0.58135357655E+03  0.50400001928E-02 0. -1.
    10030    2    1    2    0    0  0.00000000000E+00  0.00000000000E+00  0.60158610676E+03  0.17642932598E+04  0.16585610821E+04 0.  0.
        1    1    3    3  502    0  0.54633775158E+03 -0.49530377275E+03  0.70431098124E+03  0.10197375763E+04  0.50400001928E-02 0.  1.
       -1    1    3    3    0  502 -0.54633775158E+03  0.49530377275E+03 -0.10272487448E+03  0.74455568359E+03  0.50400001928E-02 0. -1.
</event>
<event>
 5   0  0.7302027E-04  0.1574926E+04  0.7818609E-02  0.8836102E-01
        1   -1    0    0  501    0  0.00000000000E+00  0.00000000000E+00  0.56123671343E+03  0.56123671345E+03  0.50400001928E-02 0.  1.
       -1   -1    0    0    0  501  0.00000000000E+00  0.00000000000E+00 -0.11048773112E+04  0.11048773112E+04  0.50400001928E-02 0. -1.
    10030    2    1    2    0    0  0.00000000000E+00  0.00000000000E+00 -0.54364059773E+03  0.16661140246E+04  0.15749256629E+04 0.  0.
        5    1    3    3  502    0 -0.24181428471E+02  0.67227294834E+03 -0.70483622231E+03  0.97434688321E+03  0.46999998093E+01 0. -1.
       -5    1    3    3    0  502  0.24181428471E+02 -0.67227294834E+03  0.16119562458E+03  0.69176714141E+03  0.46999998093E+01 0.  1.
</event>
<event>
 5   0  0.7601145E-04  0.1601743E+04  0.7818609E-02  0.8819478E-01
       -1   -1    0    0    0  501  0.00000000000E+00  0.00000000000E+00  0.59686810474E+03  0.59686810476E+03  0.50400001928E-02 0. -1.
        1   -1    0    0  501    0  0.00000000000E+00  0.00000000000E+00 -0.10746016599E+04  0.10746016599E+04  0.50400001928E-02 0.  1.
    10030    2    1    2    0    0  0.00000000000E+00  0.00000000000E+00 -0.47773355515E+03  0.16714697647E+04  0.16017433704E+04 0.  0.
        4    1    3    3  502    0 -0.11804677457E+03  0.68305143563E+02 -0.10623931743E+04  0.10711122739E+04  0.12699999809E+01 0.  1.
       -4    1    3    3    0  502  0.11804677457E+03 -0.68305143563E+02  0.58465961912E+03  0.60035749079E+03  0.12699999809E+01 0. -1.
</event>
<event>
 5   0  0.1375777E-03  0.1568095E+04  0.7818609E-02  0.8840392E-01
        2   -1    0    0  501    0  0.00000000000E+00  0.00000000000E+00  0.24989249178E+04  0.24989249178E+04  0.25500000920E-02 0.  1.
       -2   -1    0    0    0  501  0.00000000000E+00  0.00000000000E+00 -0.24599805118E+03  0.24599805119E+03  0.25500000920E-02 0. -1.
    10030    2    1    2    0    0  0.00000000000E+00  0.00000000000E+00  0.22529268666E+04  0.27449229690E+04  0.15680952265E+04 0.  0.
        1    1    3    3  502    0 -0.56548920854E+03 -0.28077133721E+03  0.31268668017E+03  0.70454492316E+03  0.50400001928E-02 0. -1.
       -1    1    3    3    0  502  0.56548920854E+03  0.28077133721E+03  0.19402401864E+04  0.20403780458E+04  0.50400001928E-02 0.  1.
</event>
<event>
 5   0  0.7633213E-04  0.1454227E+04  0.7818609E-02  0.8915476E-01
        1   -1    0    0  501    0  0.00000000000E+00  0.00000000000E+00  0.13647489577E+04  0.13647489577E+04  0.50400001928E-02 0.  1.
       -1   -1    0    0    0  501  0.00000000000E+00  0.00000000000E+00 -0.38739264803E+03  0.38739264806E+03  0.50400001928E-02 0. -1.
    10030    2    1    2    0    0  0.00000000000E+00  0.00000000000E+00  0.97735630967E+03  0.17521416058E+04  0.14542265472E+04 0.  0.
        1    1    3    3  502    0 -0.47871946991E+03  0.53677875020E+03  0.61726547332E+03  0.94779766940E+03  0.50400001928E-02 0. -1.
       -1    1    3    3    0  502  0.47871946991E+03 -0.53677875020E+03  0.36009083635E+03  0.80434393637E+03  0.50400001928E-02 0.  1.
</event>
<event>
 5   0  0.1354766E-03  0.1632193E+04  0.7818609E-02  0.8801011E-01
        2   -1    0    0  501    0  0.00000000000E+00  0.00000000000E+00  0.14468635882E+04  0.14468635882E+04  0.25500000920E-02 0.  1.
       -2   -1    0    0    0  501  0.00000000000E+00  0.00000000000E+00 -0.46031516864E+03  0.46031516865E+03  0.25500000920E-02 0. -1.
    10030    2    1    2    0    0  0.00000000000E+00  0.00000000000E+00  0.98654841953E+03  0.19071787568E+04  0.16321927050E+04 0.  0.
        3    1    3    3  502    0  0.13943605971E+02  0.17818217957E+03  0.14237145859E+04  0.14348890359E+04  0.10100000352E+00 0.  1.
       -3    1    3    3    0  502 -0.13943605971E+02 -0.17818217957E+03 -0.43716616633E+03  0.47228972089E+03  0.10100000352E+00 0. -1.
</event>
<event>
 5   0  0.1375777E-03  0.1603304E+04  0.7818609E-02  0.8818521E-01
        2   -1    0    0  501    0  0.00000000000E+00  0.00000000000E+00  0.65008076987E+03  0.65008076988E+03  0.25500000920E-02 0.  1.
       -2   -1    0    0    0  501  0.00000000000E+00  0.00000000000E+00 -0.98856271687E+03  0.98856271688E+03  0.25500000920E-02 0. -1.
    10030    2    1    2    0    0  0.00000000000E+00  0.00000000000E+00 -0.33848194700E+03  0.16386434868E+04  0.16033036045E+04 0.  0.
        1    1    3    3  502    0  0.13148153407E+03  0.78605310545E+03 -0.25762682300E+03  0.83757892663E+03  0.50400001928E-02 0.  1.
       -1    1    3    3    0  502 -0.13148153407E+03 -0.78605310545E+03 -0.80855123994E+02  0.80106456012E+03  0.50400001928E-02 0. -1.
</event>
<event>
 5   0  0.1375777E-03  0.1581666E+04  0.7818609E-02  0.8831891E-01
        2   -1    0    0  501    0  0.00000000000E+00  0.00000000000E+00  0.83044705917E+03  0.83044705917E+03  0.25500000920E-02 0.  1.
       -2   -1    0    0    0  501  0.00000000000E+00  0.00000000000E+00 -0.75310833062E+03  0.75310833062E+03  0.25500000920E-02 0. -1.
    10030    2    1    2    0    0  0.00000000000E+00  0.00000000000E+00  0.77338728555E+02  0.15835553898E+04  0.15816657022E+04 0.  0.
        1    1    3    3  502    0  0.38313250914E+02 -0.69013569459E+03 -0.34605711330E+03  0.77298816798E+03  0.50400001928E-02 0. -1.
       -1    1    3    3    0  502 -0.38313250914E+02  0.69013569459E+03  0.42339584186E+03  0.81056722181E+03  0.50400001928E-02 0.  1.
</event>
<event>
 5   0  0.1339162E-03  0.1545519E+04  0.7818609E-02  0.8854735E-01
       -2   -1    0    0    0  501  0.00000000000E+00  0.00000000000E+00  0.44926279777E+03  0.44926279778E+03  0.25500000920E-02 0. -1.
        2   -1    0    0  501    0  0.00000000000E+00  0.00000000000E+00 -0.13291943060E+04  0.13291943060E+04  0.25500000920E-02 0.  1.
    10030    2    1    2    0    0  0.00000000000E+00  0.00000000000E+00 -0.87993150823E+03  0.17784571038E+04  0.15455193984E+04 0.  0.
        5    1    3    3  502    0 -0.16188711670E+03  0.71033100425E+03 -0.73639101682E+03  0.10358915937E+04  0.46999998093E+01 0.  1.
       -5    1    3    3    0  502  0.16188711670E+03 -0.71033100425E+03 -0.14354049141E+03  0.74256551012E+03  0.46999998093E+01 0. -1.
</event>
<event>
 5   0  0.7302027E-04  0.1481551E+04  0.7818609E-02  0.8896815E-01
       -1   -1    0    0    0  501  0.00000000000E+00  0.00000000000E+00  0.58933736378E+03  0.58933736380E+03  0.50400001928E-02 0.  1.
        1   -1    0    0  501    0  0.00000000000E+00  0.00000000000E+00 -0.93112735974E+03  0.93112735975E+03  0.50400001928E-02 0. -1.
    10030    2    1    2    0    0  0.00000000000E+00  0.00000000000E+00 -0.34178999595E+03  0.15204647236E+04  0.14815507329E+04 0.  0.
        5    1    3    3  502    0  0.54913780372E+03  0.38352994162E+03 -0.49555608331E+03  0.83321393729E+03  0.46999998093E+01 0. -1.
       -5    1    3    3    0  502 -0.54913780372E+03 -0.38352994162E+03  0.15376608736E+03  0.68725078626E+03  0.46999998093E+01 0.  1.
</event>
<event>
 5   0  0.1354766E-03  0.1637011E+04  0.7818609E-02  0.8798128E-01
        2   -1    0    0  501    0  0.00000000000E+00  0.00000000000E+00  0.61084535082E+03  0.61084535082E+03  0.25500000920E-02 0. -1.
       -2   -1    0    0    0  501  0.00000000000E+00  0.00000000000E+00 -0.10967607124E+04  0.10967607124E+04  0.25500000920E-02 0.  1.
    10030    2    1    2    0    0  0.00000000000E+00  0.00000000000E+00 -0.48591536159E+03  0.17076060632E+04  0.16370109128E+04 0.  0.
        3    1    3    3  502    0  0.13093896793E+03  0.28367706163E+03 -0.10321097340E+04  0.10783636686E+04  0.10100000352E+00 0.  1.
       -3    1    3    3    0  502 -0.13093896793E+03 -0.28367706163E+03  0.54619437236E+03  0.62924239464E+03  0.10100000352E+00 0. -1.
</event>
<event>
 5   0  0.7124495E-04  0.1600322E+04  0.7818609E-02  0.8820350E-01
       -1   -1    0    0    0  501  0.00000000000E+00  0.00000000000E+00  0.45658538368E+03  0.45658538371E+03  0.50400001928E-02 0. -1.
        1   -1    0    0  501    0  0.00000000000E+00  0.00000000000E+00 -0.14022735428E+04  0.14022735428E+04  0.50400001928E-02 0.  1.
    10030    2    1    2    0    0  0.00000000000E+00  0.00000000000E+00 -0.94568815910E+03  0.18588589265E+04  0.16003219721E+04 0.  0.
        2    1    3    3  502    0  0.39641261085E+03 -0.65571461059E+03 -0.74063936908E+03  0.10656694063E+04  0.25500000920E-02 0.  1.
       -2    1    3    3    0  502 -0.39641261085E+03  0.65571461059E+03 -0.20504879002E+03  0.79318952015E+03  0.25500000920E-02 0. -1.
</event>
<event>
 5   0  0.7633213E-04  0.1605816E+04  0.7818609E-02  0.8816983E-01
        1   -1    0    0  501    0  0.00000000000E+00  0.00000000000E+00  0.62236126713E+03  0.62236126715E+03  0.50400001928E-02 0. -1.
       -1   -1    0    0    0  501  0.00000000000E+00  0.00000000000E+00 -0.10358310682E+04  0.10358310682E+04  0.50400001928E-02 0.  1.
    10030    2    1    2    0    0  0.00000000000E+00  0.00000000000E+00 -0.41346980104E+03  0.16581923353E+04  0.16058158501E+04 0.  0.
        1    1    3    3  502    0  0.15505077747E+03 -0.24192844213E+03 -0.98091586222E+03  0.10221379767E+04  0.50400001928E-02 0.  1.
       -1    1    3    3    0  502 -0.15505077747E+03  0.24192844213E+03  0.56744606118E+03  0.63605435859E+03  0.50400001928E-02 0. -1.
</event>
<event>
 5   0  0.7499834E-04  0.1192170E+04  0.7818609E-02  0.9119738E-01
       -1   -1    0    0    0  501  0.00000000000E+00  0.00000000000E+00  0.76636344118E+03  0.76636344120E+03  0.50400001928E-02 0.  1.
        1   -1    0    0  501    0  0.00000000000E+00  0.00000000000E+00 -0.46364071639E+03  0.46364071642E+03  0.50400001928E-02 0. -1.
    10030    2    1    2    0    0  0.00000000000E+00  0.00000000000E+00  0.30272272479E+03  0.12300041576E+04  0.11921699458E+04 0.  0.
        3    1    3    3  502    0 -0.88774331918E+02  0.23485434391E+03  0.70914765903E+03  0.75228176727E+03  0.10100000352E+00 0.  1.
       -3    1    3    3    0  502  0.88774331918E+02 -0.23485434391E+03 -0.40642493424E+03  0.47772239034E+03  0.10100000352E+00 0. -1.
</event>
<event>
 5   0  0.7499834E-04  0.1590876E+04  0.7818609E-02  0.8826173E-01
        1   -1    0    0  501    0  0.00000000000E+00  0.00000000000E+00  0.11725186583E+04  0.11725186583E+04  0.50400001928E-02 0. -1.
       -1   -1    0    0    0  501  0.00000000000E+00  0.00000000000E+00 -0.53962595809E+03  0.53962595811E+03  0.50400001928E-02 0.  1.
    10030    2    1    2    0    0  0.00000000000E+00  0.00000000000E+00  0.63289270021E+03  0.17121446164E+04  0.15908758649E+04 0.  0.
        3    1    3    3  502    0  0.26825980373E+03 -0.68701328262E+03  0.63710245681E+03  0.97460254641E+03  0.10100000352E+00 0. -1.
       -3    1    3    3    0  502 -0.26825980373E+03  0.68701328262E+03 -0.42097566035E+01  0.73754207002E+03  0.10100000352E+00 0.  1.
</event>
<event>
 5   0  0.1414751E-03  0.1638727E+04  0.7818609E-02  0.8797104E-01
       -2   -1    0    0    0  501  0.00000000000E+00  0.00000000000E+00  0.60243062928E+03  0.60243062929E+03  0.25500000920E-02 0.  1.
        2   -1    0    0  501    0  0.00000000000E+00  0.00000000000E+00 -0.11144130385E+04  0.11144130385E+04  0.25500000920E-02 0. -1.
    10030    2    1    2    0    0  0.00000000000E+00  0.00000000000E+00 -0.51198240923E+03  0.17168436678E+04  0.16387270036E+04 0.  0.
        2    1    3    3  502    0  0.60082435685E+03  0.55216843608E+03 -0.33352338027E+03  0.88154281506E+03  0.25500000920E-02 0. -1.
       -2    1    3    3    0  502 -0.60082435685E+03 -0.55216843608E+03 -0.17845902896E+03  0.83530085275E+03  0.25500000920E-02 0.  1.
</event>
<event>
 5   0  0.7302027E-04  0.1583578E+04  0.7818609E-02  0.8830700E-01
       -1   -1    0    0    0  501  0.00000000000E+00  0.00000000000E+00  0.73620646941E+03  0.73620646942E+03  0.50400001928E-02 0. -1.
        1   -1    0    0  501    0  0.00000000000E+00  0.00000000000E+00 -0.85156845753E+03  0.85156845755E+03  0.50400001928E-02 0.  1.
    10030    2    1    2    0    0  0.00000000000E+00  0.00000000000E+00 -0.11536198813E+03  0.15877749270E+04  0.15835784889E+04 0.  0.
        5    1    3    3  502    0  0.17300882482E+02 -0.60646971629E+03 -0.56775622422E+03  0.83094768635E+03  0.46999998093E+01 0.  1.
       -5    1    3    3    0  502 -0.17300882482E+02  0.60646971629E+03  0.45239423609E+03  0.75682724063E+03  0.46999998093E+01 0. -1.
</event>
<event>
 5   0  0.1339162E-03  0.1577111E+04  0.7818609E-02  0.8834734E-01
       -2   -1    0    0    0  501  0.00000000000E+00  0.00000000000E+00  0.68923451284E+03  0.68923451285E+03  0.25500000920E-02 0.  1.
        2   -1    0    0  501    0  0.00000000000E+00  0.00000000000E+00 -0.90218949495E+03  0.90218949496E+03  0.25500000920E-02 0. -1.
    10030    2    1    2    0    0  0.00000000000E+00  0.00000000000E+00 -0.21295498211E+03  0.15914240078E+04  0.15771114571E+04 0.  0.
        5    1    3    3  502    0 -0.12266249401E+03 -0.31236564818E+03 -0.82652150239E+03  0.89206405012E+03  0.46999998093E+01 0. -1.
       -5    1    3    3    0  502  0.12266249401E+03  0.31236564818E+03  0.61356652028E+03  0.69935995768E+03  0.46999998093E+01 0.  1.
</event>
<event>
 5   0  0.7124495E-04  0.1657538E+04  0.7818609E-02  0.8785960E-01
        1   -1    0    0  501    0  0.00000000000E+00  0.00000000000E+00  0.91818152032E+03  0.91818152033E+03  0.50400001928E-02 0. -1.
       -1   -1    0    0    0  501  0.00000000000E+00  0.00000000000E+00 -0.74806350126E+03  0.74806350127E+03  0.50400001928E-02 0.  1.
    10030    2    1    2    0    0  0.00000000000E+00  0.00000000000E+00  0.17011801906E+03  0.16662450216E+04  0.16575380332E+04 0.  0.
        2    1    3    3  502    0  0.60692447258E+03 -0.17231824745E+03  0.62528983622E+03  0.88827826333E+03  0.25500000920E-02 0. -1.
       -2    1    3    3    0  502 -0.60692447258E+03  0.17231824745E+03 -0.45517181716E+03  0.77796675827E+03  0.25500000920E-02 0.  1.
</event>
<event>
 5   0  0.5095750E-04  0.1582653E+04  0.7818609E-02  0.8831277E-01
        4   -1    0    0  501    0  0.00000000000E+00  0.00000000000E+00  0.45484176074E+03  0.45484353377E+03  0.12699999809E+01 0. -1.
       -4   -1    0    0    0  501  0.00000000000E+00  0.00000000000E+00 -0.13767319635E+04  0.13767325493E+04  0.12699999809E+01 0.  1.
    10030    2    1    2    0    0  0.00000000000E+00  0.00000000000E+00 -0.92189020281E+03  0.18315760831E+04  0.15826526473E+04 0.  0.
        3    1    3    3  502    0  0.65001223788E+03  0.26722782543E+03 -0.88183762803E+03  0.11276365693E+04  0.10100000352E+00 0.  1.
       -3    1    3    3    0  502 -0.65001223788E+03 -0.26722782543E+03 -0.40052574778E+02  0.70393951376E+03  0.10100000352E+00 0. -1.
</event>
<event>
 5   0  0.7633213E-04  0.1664345E+04  0.7818609E-02  0.8781965E-01
       -1   -1    0    0    0  501  0.00000000000E+00  0.00000000000E+00  0.41949394843E+03  0.41949394846E+03  0.50400001928E-02 0. -1.
        1   -1    0    0  501    0  0.00000000000E+00  0.00000000000E+00 -0.16508252232E+04  0.16508252232E+04  0.50400001928E-02 0.  1.
    10030    2    1    2    0    0  0.00000000000E+00  0.00000000000E+00 -0.12313312748E+04  0.20703191717E+04  0.16643451458E+04 0.  0.
        1    1    3    3  502    0 -0.66504084271E+03  0.47431412596E+03 -0.81335950823E+03  0.11527388699E+04  0.50400001928E-02 0.  1.
       -1    1    3    3    0  502  0.66504084271E+03 -0.47431412596E+03 -0.41797176656E+03  0.91758030178E+03  0.50400001928E-02 0. -1.
</event>
<event>
 5   0  0.7124495E-04  0.1554068E+04  0.7818609E-02  0.8849274E-01
        1   -1    0    0  501    0  0.00000000000E+00  0.00000000000E+00  0.53802304468E+03  0.53802304471E+03  0.50400001928E-02 0.  1.
       -1   -1    0    0    0  501  0.00000000000E+00  0.00000000000E+00 -0.11222223656E+04  0.11222223656E+04  0.50400001928E-02 0. -1.
    10030    2    1    2    0    0  0.00000000000E+00  0.00000000000E+00 -0.58419932095E+03  0.16602454103E+04  0.15540675584E+04 0.  0.
        2    1    3    3  502    0 -0.44829871235E+03 -0.24334178422E+03 -0.91831761797E+03  0.10504733252E+04  0.25500000920E-02 0. -1.
       -2    1    3    3    0  502  0.44829871235E+03  0.24334178422E+03  0.33411829702E+03  0.60977208517E+03  0.25500000920E-02 0.  1.
</event>
<event>
 5   0  0.1375777E-03  0.1597042E+04  0.7818609E-02  0.8822367E-01
       -2   -1    0    0    0  501  0.00000000000E+00  0.00000000000E+00  0.31401205532E+03  0.31401205534E+03  0.25500000920E-02 0. -1.
        2   -1    0    0  501    0  0.00000000000E+00  0.00000000000E+00 -0.20306105162E+04  0.20306105162E+04  0.25500000920E-02 0.  1.
    10030    2    1    2    0    0  0.00000000000E+00  0.00000000000E+00 -0.17165984609E+04  0.23446225716E+04  0.15970424938E+04 0.  0.
        1    1    3    3  502    0  0.57907200663E+03  0.17875619764E+03 -0.16216534209E+04  0.17311955362E+04  0.50400001928E-02 0.  1.
       -1    1    3    3    0  502 -0.57907200663E+03 -0.17875619764E+03 -0.94945040000E+02  0.61342703535E+03  0.50400001928E-02 0. -1.
</event>
<event>
 5   0  0.1375777E-03  0.1596265E+04  0.7818609E-02  0.8822846E-01
       -2   -1    0    0    0  501  0.00000000000E+00  0.00000000000E+00  0.62833629415E+03  0.62833629416E+03  0.25500000920E-02 0.  1.
        2   -1    0    0  501    0  0.00000000000E+00  0.00000000000E+00 -0.10138127669E+04  0.10138127669E+04  0.25500000920E-02 0. -1.
    10030    2    1    2    0    0  0.00000000000E+00  0.00000000000E+00 -0.38547647272E+03  0.16421490610E+04  0.15962648363E+04 0.  0.
        1    1    3    3  502    0 -0.12237897421E+03  0.45738952938E+03 -0.85372859968E+03  0.97623476524E+03  0.50400001928E-02 0. -1.
       -1    1    3    3    0  502  0.12237897421E+03 -0.45738952938E+03  0.46825212696E+03  0.66591429580E+03  0.50400001928E-02 0.  1.
</event>
<event>
 5   0  0.5095750E-04  0.1057070E+04  0.7818609E-02  0.9248075E-01
       -3   -1    0    0    0  501  0.00000000000E+00  0.00000000000E+00  0.39532571706E+03  0.39532572996E+03  0.10100000352E+00 0.  1.
        3   -1    0    0  501    0  0.00000000000E+00  0.00000000000E+00 -0.70663104140E+03  0.70663104861E+03  0.10100000352E+00 0. -1.
    10030    2    1    2    0    0  0.00000000000E+00  0.00000000000E+00 -0.31130532433E+03  0.11019567786E+04  0.10570703557E+04 0.  0.
        3    1    3    3  502    0 -0.22968964696E+03 -0.22245431602E+03  0.28305731323E+03  0.42704181225E+03  0.10100000352E+00 0.  1.
       -3    1    3    3    0  502  0.22968964696E+03  0.22245431602E+03 -0.59436263756E+03  0.67491496633E+03  0.10100000352E+00 0. -1.
</event>
<event>
 5   0  0.7601145E-04  0.1609705E+04  0.7818609E-02  0.8814608E-01
       -1   -1    0    0    0  501  0.00000000000E+00  0.00000000000E+00  0.52269074599E+03  0.52269074601E+03  0.50400001928E-02 0.  1.
        1   -1    0    0  501    0  0.00000000000E+00  0.00000000000E+00 -0.12393330627E+04  0.12393330627E+04  0.50400001928E-02 0. -1.
    10030    2    1    2    0    0  0.00000000000E+00  0.00000000000E+00 -0.71664231675E+03  0.17620238088E+04  0.16097054676E+04 0.  0.
        4    1    3    3  502    0 -0.33420176577E+02  0.27730923174E+03  0.46793509302E+03  0.54496071637E+03  0.12699999809E+01 0.  1.
       -4    1    3    3    0  502  0.33420176577E+02 -0.27730923174E+03 -0.11845774098E+04  0.12170630924E+04  0.12699999809E+01 0. -1.
</event>
<event>
 5   0  0.1339162E-03  0.1601302E+04  0.7818609E-02  0.8819748E-01
       -2   -1    0    0    0  501  0.00000000000E+00  0.00000000000E+00  0.81661016822E+03  0.81661016823E+03  0.25500000920E-02 0. -1.
        2   -1    0    0  501    0  0.00000000000E+00  0.00000000000E+00 -0.78500416320E+03  0.78500416321E+03  0.25500000920E-02 0.  1.
    10030    2    1    2    0    0  0.00000000000E+00  0.00000000000E+00  0.31606005018E+02  0.16016143314E+04  0.16013024471E+04 0.  0.
        5    1    3    3  502    0  0.35404444463E+03 -0.71724933789E+03 -0.19221103489E+02  0.80011600552E+03  0.46999998093E+01 0. -1.
       -5    1    3    3    0  502 -0.35404444463E+03  0.71724933789E+03  0.50827108507E+02  0.80149832591E+03  0.46999998093E+01 0.  1.
</event>
<event>
 5   0  0.7302027E-04  0.1163305E+04  0.7818609E-02  0.9145596E-01
        1   -1    0    0  501    0  0.00000000000E+00  0.00000000000E+00  0.73738157859E+03  0.73738157861E+03  0.50400001928E-02 0. -1.
       -1   -1    0    0    0  501  0.00000000000E+00  0.00000000000E+00 -0.45881223143E+03  0.45881223146E+03  0.50400001928E-02 0.  1.
    10030    2    1    2    0    0  0.00000000000E+00  0.00000000000E+00  0.27856934716E+03  0.11961938101E+04  0.11633050976E+04 0.  0.
        5    1    3    3  502    0 -0.48027166131E+03 -0.26027734013E+03 -0.66092982485E+02  0.55026860239E+03  0.46999998093E+01 0.  1.
       -5    1    3    3    0  502  0.48027166131E+03  0.26027734013E+03  0.34466232964E+03  0.64592520768E+03  0.46999998093E+01 0. -1.
</event>
<event>
 5   0  0.7124495E-04  0.1610539E+04  0.7818609E-02  0.8814100E-01
       -1   -1    0    0    0  501  0.00000000000E+00  0.00000000000E+00  0.99402128789E+03  0.99402128790E+03  0.50400001928E-02 0.  1.
        1   -1    0    0  501    0  0.00000000000E+00  0.00000000000E+00 -0.65235890900E+03  0.65235890902E+03  0.50400001928E-02 0. -1.
    10030    2    1    2    0    0  0.00000000000E+00  0.00000000000E+00  0.34166237888E+03  0.16463801969E+04  0.16105385968E+04 0.  0.
        2    1    3    3  502    0  0.48397789568E+03  0.64220088088E+03  0.21422667816E+03  0.83219567684E+03  0.25500000920E-02 0.  1.
       -2    1    3    3    0  502 -0.48397789568E+03 -0.64220088088E+03  0.12743570072E+03  0.81418452008E+03  0.25500000920E-02 0. -1.
</event>
<event>
 5   0  0.1339162E-03  0.1643942E+04  0.7818609E-02  0.8793999E-01
       -2   -1    0    0    0  501  0.00000000000E+00  0.00000000000E+00  0.98624945429E+03  0.98624945429E+03  0.25500000920E-02 0.  1.
        2   -1    0    0  501    0  0.00000000000E+00  0.00000000000E+00 -0.68505604552E+03  0.68505604553E+03  0.25500000920E-02 0. -1.
    10030    2    1    2    0    0  0.00000000000E+00  0.00000000000E+00  0.30119340877E+03  0.16713054998E+04  0.16439417886E+04 0.  0.
        5    1    3    3  502    0 -0.41196845388E+03  0.46387418371E+03  0.69875307865E+03  0.93443845182E+03  0.46999998093E+01 0.  1.
       -5    1    3    3    0  502  0.41196845388E+03 -0.46387418371E+03 -0.39755966989E+03  0.73686704800E+03  0.46999998093E+01 0. -1.
</event>
<event>
 5   0  0.1375777E-03  0.1588460E+04  0.7818609E-02  0.8827669E-01
       -2   -1    0    0    0  501  0.00000000000E+00  0.00000000000E+00  0.98857352606E+03  0.98857352607E+03  0.25500000920E-02 0.  1.
        2   -1    0    0  501    0  0.00000000000E+00  0.00000000000E+00 -0.63809273091E+03  0.63809273092E+03  0.25500000920E-02 0. -1.
    10030    2    1    2    0    0  0.00000000000E+00  0.00000000000E+00  0.35048079515E+03  0.16266662570E+04  0.15884603627E+04 0.  0.
        1    1    3    3  502    0  0.64899891035E+03 -0.39667708985E+02 -0.29183120259E+03  0.71269808728E+03  0.50400001928E-02 0. -1.
       -1    1    3    3    0  502 -0.64899891035E+03  0.39667708985E+02  0.64231199774E+03  0.91396816971E+03  0.50400001928E-02 0.  1.
</event>
<event>
 5   0  0.7124495E-04  0.1585559E+04  0.7818609E-02  0.8829469E-01
       -1   -1    0    0    0  501  0.00000000000E+00  0.00000000000E+00  0.58065197209E+03  0.58065197211E+03  0.50400001928E-02 0.  1.
        1   -1    0    0  501    0  0.00000000000E+00  0.00000000000E+00 -0.10824030854E+04  0.10824030854E+04  0.50400001928E-02 0. -1.
    10030    2    1    2    0    0  0.00000000000E+00  0.00000000000E+00 -0.50175111326E+03  0.16630550575E+04  0.15855591899E+04 0.  0.
        2    1    3    3  502    0 -0.40930131384E+03 -0.13335366044E+03  0.44738662053E+03  0.62085872185E+03  0.25500000920E-02 0.  1.
       -2    1    3    3    0  502  0.40930131384E+03  0.13335366044E+03 -0.94913773379E+03  0.10421963356E+04  0.25500000920E-02 0. -1.
</event>
<event>
 5   0  0.5095750E-04  0.1617481E+04  0.7818609E-02  0.8809880E-01
        3   -1    0    0  501    0  0.00000000000E+00  0.00000000000E+00  0.62750329900E+03  0.62750330713E+03  0.10100000352E+00 0. -1.
       -3   -1    0    0    0  501  0.00000000000E+00  0.00000000000E+00 -0.10423229502E+04  0.10423229551E+04  0.10100000352E+00 0.  1.
    10030    2    1    2    0    0  0.00000000000E+00  0.00000000000E+00 -0.41481965118E+03  0.16698262622E+04  0.16174808818E+04 0.  0.
        2    1    3    3  502    0 -0.21382883467E+03  0.94128946641E+02  0.59190668136E+03  0.63634624897E+03  0.25500000920E-02 0. -1.
       -2    1    3    3    0  502  0.21382883467E+03 -0.94128946641E+02 -0.10067263325E+04  0.10334800132E+04  0.25500000920E-02 0.  1.
</event>
<event>
 5   0  0.7499834E-04  0.1376483E+04  0.7818609E-02  0.8971019E-01
        1   -1    0    0  501    0  0.00000000000E+00  0.00000000000E+00  0.16901911726E+04  0.16901911726E+04  0.50400001928E-02 0. -1.
       -1   -1    0    0    0  501  0.00000000000E+00  0.00000000000E+00 -0.28025019546E+03  0.28025019551E+03  0.50400001928E-02 0.  1.
    10030    2    1    2    0    0  0.00000000000E+00  0.00000000000E+00  0.14099409772E+04  0.19704413681E+04  0.13764830643E+04 0.  0.
        3    1    3    3  502    0  0.55496100641E+03  0.14318953418E+03  0.15951019346E+03  0.59491887964E+03  0.10100000352E+00 0.  1.
       -3    1    3    3    0  502 -0.55496100641E+03 -0.14318953418E+03  0.12504307837E+04  0.13755224885E+04  0.10100000352E+00 0. -1.
</event>
<event>
 5   0  0.7499834E-04  0.1592954E+04  0.7818609E-02  0.8824889E-01
        1   -1    0    0  501    0  0.00000000000E+00  0.00000000000E+00  0.42581926517E+03  0.42581926520E+03  0.50400001928E-02 0.  1.
       -1   -1    0    0    0  501  0.00000000000E+00  0.00000000000E+00 -0.14897758295E+04  0.14897758295E+04  0.50400001928E-02 0. -1.
    10030    2    1    2    0    0  0.00000000000E+00  0.00000000000E+00 -0.10639565643E+04  0.19155950947E+04  0.15929535449E+04 0.  0.
        3    1    3    3  502    0  0.50644628908E+03  0.51597264757E+03 -0.13014242998E+03  0.73461056285E+03  0.10100000352E+00 0.  1.
       -3    1    3    3    0  502 -0.50644628908E+03 -0.51597264757E+03 -0.93381413434E+03  0.11809845318E+04  0.10100000352E+00 0. -1.
</event>
<event>
 5   0  0.7302027E-04  0.1587145E+04  0.7818609E-02  0.8828484E-01
        1   -1    0    0  501    0  0.00000000000E+00  0.00000000000E+00  0.11053818290E+04  0.11053818291E+04  0.50400001928E-02 0. -1.
       -1   -1    0    0    0  501  0.00000000000E+00  0.00000000000E+00 -0.56971922288E+03  0.56971922290E+03  0.50400001928E-02 0.  1.
    10030    2    1    2    0    0  0.00000000000E+00  0.00000000000E+00  0.53566260616E+03  0.16751010520E+04  0.15871449545E+04 0.  0.
        5    1    3    3  502    0  0.76050910086E+03  0.11210321107E+03  0.47570833106E+03  0.90402529204E+03  0.46999998093E+01 0.  1.
       -5    1    3    3    0  502 -0.76050910086E+03 -0.11210321107E+03  0.59954275107E+02  0.77107575991E+03  0.46999998093E+01 0. -1.
</event>
<event>
 5   0  0.7601145E-04  0.1628621E+04  0.7818609E-02  0.8803155E-01
       -1   -1    0    0    0  501  0.00000000000E+00  0.00000000000E+00  0.50178349129E+03  0.50178349132E+03  0.50400001928E-02 0.  1.
        1   -1    0    0  501    0  0.00000000000E+00  0.00000000000E+00 -0.13214894518E+04  0.13214894518E+04  0.50400001928E-02 0. -1.
    10030    2    1    2    0    0  0.00000000000E+00  0.00000000000E+00 -0.81970596046E+03  0.18232729431E+04  0.16286210005E+04 0.  0.
        4    1    3    3  502    0 -0.67787998791E+02  0.48071075762E+03 -0.11417669871E+04  0.12406899335E+04  0.12699999809E+01 0. -1.
       -4    1    3    3    0  502  0.67787998791E+02 -0.48071075762E+03  0.32206102667E+03  0.58258300959E+03  0.12699999809E+01 0.  1.
</event>
<event>
 5   0  0.7302027E-04  0.1608640E+04  0.7818609E-02  0.8815258E-01
        1   -1    0    0  501    0  0.00000000000E+00  0.00000000000E+00  0.10839965005E+04  0.10839965005E+04  0.50400001928E-02 0.  1.
       -1   -1    0    0    0  501  0.00000000000E+00  0.00000000000E+00 -0.59680125661E+03  0.59680125663E+03  0.50400001928E-02 0. -1.
    10030    2    1    2    0    0  0.00000000000E+00  0.00000000000E+00  0.48719524387E+03  0.16807977571E+04  0.16086397654E+04 0.  0.
        5    1    3    3  502    0  0.15081431066E+03  0.68499421636E+03  0.65488685085E+03  0.95961498016E+03  0.46999998093E+01 0. -1.
       -5    1    3    3    0  502 -0.15081431066E+03 -0.68499421636E+03 -0.16769160697E+03  0.72118277696E+03  0.46999998093E+01 0.  1.
</event>
<event>
 5   0  0.1414796E-03  0.1689558E+04  0.7818609E-02  0.8767342E-01
       -2   -1    0    0    0  501  0.00000000000E+00  0.00000000000E+00  0.49590780563E+03  0.49590780564E+03  0.25500000920E-02 0.  1.
        2   -1    0    0  501    0  0.00000000000E+00  0.00000000000E+00 -0.14390819522E+04  0.14390819522E+04  0.25500000920E-02 0. -1.
    10030    2    1    2    0    0  0.00000000000E+00  0.00000000000E+00 -0.94317414654E+03  0.19349897578E+04  0.16895584903E+04 0.  0.
        4    1    3    3  502    0  0.71030636863E+03 -0.18604854934E+03 -0.95000186497E+03  0.12006891173E+04  0.12699999809E+01 0. -1.
       -4    1    3    3    0  502 -0.71030636863E+03  0.18604854934E+03  0.68277184337E+01  0.73430064052E+03  0.12699999809E+01 0.  1.
</event>
<event>
 5   0  0.7302027E-04  0.1319477E+04  0.7818609E-02  0.9014260E-01
       -1   -1    0    0    0  501  0.00000000000E+00  0.00000000000E+00  0.53237465206E+03  0.53237465208E+03  0.50400001928E-02 0.  1.
        1   -1    0    0  501    0  0.00000000000E+00  0.00000000000E+00 -0.81757300942E+03  0.81757300944E+03  0.50400001928E-02 0. -1.
    10030    2    1    2    0    0  0.00000000000E+00  0.00000000000E+00 -0.28519835737E+03  0.13499476615E+04  0.13194773912E+04 0.  0.
        5    1    3    3  502    0 -0.52756350107E+03  0.35137923925E+03 -0.32969494047E+03  0.71450084759E+03  0.46999998093E+01 0. -1.
       -5    1    3    3    0  502  0.52756350107E+03 -0.35137923925E+03  0.44496583103E+02  0.63544681393E+03  0.46999998093E+01 0.  1.
</event>
<event>
 5   0  0.1354766E-03  0.1543664E+04  0.7818609E-02  0.8855925E-01
        2   -1    0    0  501    0  0.00000000000E+00  0.00000000000E+00  0.14531190169E+04  0.14531190169E+04  0.25500000920E-02 0. -1.
       -2   -1    0    0    0  501  0.00000000000E+00  0.00000000000E+00 -0.40996252623E+03  0.40996252624E+03  0.25500000920E-02 0.  1.
    10030    2    1    2    0    0  0.00000000000E+00  0.00000000000E+00  0.10431564907E+04  0.18630815432E+04  0.15436636202E+04 0.  0.
        3    1    3    3  502    0 -0.67626481133E+03 -0.34193026145E+03  0.69844043723E+03  0.10305675394E+04  0.10100000352E+00 0. -1.
       -3    1    3    3    0  502  0.67626481133E+03  0.34193026145E+03  0.34471605348E+03  0.83251400377E+03  0.10100000352E+00 0.  1.
</event>
<event>
 5   0  0.1354766E-03  0.9128228E+03  0.7818609E-02  0.9409693E-01
        2   -1    0    0  501    0  0.00000000000E+00  0.00000000000E+00  0.12156345551E+04  0.12156345551E+04  0.25500000920E-02 0.  1.
       -2   -1    0    0    0  501  0.00000000000E+00  0.00000000000E+00 -0.17136016996E+03  0.17136016998E+03  0.25500000920E-02 0. -1.
    10030    2    1    2    0    0  0.00000000000E+00  0.00000000000E+00  0.10442743852E+04  0.13869947251E+04  0.91282275166E+03 0.  0.
        3    1    3    3  502    0  0.27076223605E+03 -0.14913470755E+03  0.10323625107E+04  0.10776482326E+04  0.10100000352E+00 0.  1.
       -3    1    3    3    0  502 -0.27076223605E+03  0.14913470755E+03  0.11911874425E+02  0.30934649249E+03  0.10100000352E+00 0. -1.
</event>
<event>
 5   0  0.5095750E-04  0.1574541E+04  0.7818609E-02  0.8836343E-01
       -4   -1    0    0    0  501  0.00000000000E+00  0.00000000000E+00  0.12077975529E+04  0.12077982206E+04  0.12699999809E+01 0.  1.
        4   -1    0    0  501    0  0.00000000000E+00  0.00000000000E+00 -0.51315960365E+03  0.51316117518E+03  0.12699999809E+01 0. -1.
    10030    2    1    2    0    0  0.00000000000E+00  0.00000000000E+00  0.69463794929E+03  0.17209593958E+04  0.15745410003E+04 0.  0.
        3    1    3    3  502    0 -0.46081504772E+03 -0.75282878505E+02 -0.34548294605E+03  0.58084119707E+03  0.10100000352E+00 0. -1.
       -3    1    3    3    0  502  0.46081504772E+03  0.75282878505E+02  0.10401208953E+04  0.11401181988E+04  0.10100000352E+00 0.  1.
</event>
<event>
 5   0  0.1339162E-03  0.1486510E+04  0.7818609E-02  0.8893473E-01
       -2   -1    0    0    0  501  0.00000000000E+00  0.00000000000E+00  0.43481590712E+03  0.43481590713E+03  0.25500000920E-02 0. -1.
        2   -1    0    0  501    0  0.00000000000E+00  0.00000000000E+00 -0.12704875128E+04  0.12704875128E+04  0.25500000920E-02 0.  1.
    10030    2    1    2    0    0  0.00000000000E+00  0.00000000000E+00 -0.83567160567E+03  0.17053034199E+04  0.14865102494E+04 0.  0.
        5    1    3    3  502    0  0.53846032653E+03  0.49935893213E+03 -0.28649819063E+03  0.78829066313E+03  0.46999998093E+01 0. -1.
       -5    1    3    3    0  502 -0.53846032653E+03 -0.49935893213E+03 -0.54917341504E+03  0.91701275680E+03  0.46999998093E+01 0.  1.
</event>
<event>
 5   0  0.7302027E-04  0.1588063E+04  0.7818609E-02  0.8827915E-01
       -1   -1    0    0    0  501  0.00000000000E+00  0.00000000000E+00  0.59534732492E+03  0.59534732495E+03  0.50400001928E-02 0. -1.
        1   -1    0    0  501    0  0.00000000000E+00  0.00000000000E+00 -0.10590224743E+04  0.10590224743E+04  0.50400001928E-02 0.  1.
    10030    2    1    2    0    0  0.00000000000E+00  0.00000000000E+00 -0.46367514936E+03  0.16543697992E+04  0.15880632193E+04 0.  0.
        5    1    3    3  502    0 -0.12155664572E+03  0.75814627807E+03 -0.21150096759E+02  0.76813489288E+03  0.46999998093E+01 0.  1.
       -5    1    3    3    0  502  0.12155664572E+03 -0.75814627807E+03 -0.44252505260E+03  0.88623490636E+03  0.46999998093E+01 0. -1.
</event>
<event>
 5   0  0.7124495E-04  0.1603680E+04  0.7818609E-02  0.8818290E-01
       -1   -1    0    0    0  501  0.00000000000E+00  0.00000000000E+00  0.98797945650E+03  0.98797945651E+03  0.50400001928E-02 0. -1.
        1   -1    0    0  501    0  0.00000000000E+00  0.00000000000E+00 -0.65077002757E+03  0.65077002759E+03  0.50400001928E-02 0.  1.
    10030    2    1    2    0    0  0.00000000000E+00  0.00000000000E+00  0.33720942892E+03  0.16387494841E+04  0.16036800406E+04 0.  0.
        2    1    3    3  502    0 -0.55823275278E+03 -0.26271882946E+02  0.75618633891E+03  0.94028282834E+03  0.25500000920E-02 0. -1.
       -2    1    3    3    0  502  0.55823275278E+03  0.26271882946E+02 -0.41897690998E+03  0.69846665577E+03  0.25500000920E-02 0.  1.
</event>
<event>
 5   0  0.1339162E-03  0.1618063E+04  0.7818609E-02  0.8809527E-01
       -2   -1    0    0    0  501  0.00000000000E+00  0.00000000000E+00  0.69458335275E+03  0.69458335276E+03  0.25500000920E-02 0.  1.
        2   -1    0    0  501    0  0.00000000000E+00  0.00000000000E+00 -0.94233776267E+03  0.94233776267E+03  0.25500000920E-02 0. -1.
    10030    2    1    2    0    0  0.00000000000E+00  0.00000000000E+00 -0.24775440991E+03  0.16369211154E+04  0.16180631911E+04 0.  0.
        5    1    3    3  502    0  0.16021522527E+03  0.51318226124E+02 -0.92443266452E+03  0.93962775607E+03  0.46999998093E+01 0. -1.
       -5    1    3    3    0  502 -0.16021522527E+03 -0.51318226124E+02  0.67667825461E+03  0.69729335936E+03  0.46999998093E+01 0.  1.
</event>
<event>
 5   0  0.1375777E-03  0.1592700E+04  0.7818609E-02  0.8825045E-01
        2   -1    0    0  501    0  0.00000000000E+00  0.00000000000E+00  0.14405813782E+04  0.14405813782E+04  0.25500000920E-02 0.  1.
       -2   -1    0    0    0  501  0.00000000000E+00  0.00000000000E+00 -0.44022019571E+03  0.44022019572E+03  0.25500000920E-02 0. -1.
    10030    2    1    2    0    0  0.00000000000E+00  0.00000000000E+00  0.10003611825E+04  0.18808015739E+04  0.15926996155E+04 0.  0.
        1    1    3    3  502    0 -0.25270873634E+03 -0.43365703667E+03 -0.22992300980E+03  0.55207311231E+03  0.50400001928E-02 0. -1.
       -1    1    3    3    0  502  0.25270873634E+03  0.43365703667E+03  0.12302841923E+04  0.13287284616E+04  0.50400001928E-02 0.  1.
</event>
<event>
 5   0  0.7124495E-04  0.1658031E+04  0.7818609E-02  0.8785669E-01
       -1   -1    0    0    0  501  0.00000000000E+00  0.00000000000E+00  0.64564034659E+03  0.64564034661E+03  0.50400001928E-02 0.  1.
        1   -1    0    0  501    0  0.00000000000E+00  0.00000000000E+00 -0.10644732041E+04  0.10644732041E+04  0.50400001928E-02 0. -1.
    10030    2    1    2    0    0  0.00000000000E+00  0.00000000000E+00 -0.41883285746E+03  0.17101135507E+04  0.16580311800E+04 0.  0.
        2    1    3    3  502    0 -0.57837738250E+03  0.38376035873E+03 -0.67694822978E+03  0.96956243498E+03  0.25500000920E-02 0.  1.
       -2    1    3    3    0  502  0.57837738250E+03 -0.38376035873E+03  0.25811537232E+03  0.74055111569E+03  0.25500000920E-02 0. -1.
</event>
<event>
 5   0  0.1375777E-03  0.1583384E+04  0.7818609E-02  0.8830822E-01
       -2   -1    0    0    0  501  0.00000000000E+00  0.00000000000E+00  0.53244409391E+03  0.53244409392E+03  0.25500000920E-02 0. -1.
        2   -1    0    0  501    0  0.00000000000E+00  0.00000000000E+00 -0.11771677666E+04  0.11771677666E+04  0.25500000920E-02 0.  1.
    10030    2    1    2    0    0  0.00000000000E+00  0.00000000000E+00 -0.64472367272E+03  0.17096118606E+04  0.15833837499E+04 0.  0.
        1    1    3    3  502    0 -0.30193951860E+03 -0.67627979660E+03 -0.20321367898E+02  0.74090133905E+03  0.50400001928E-02 0. -1.
       -1    1    3    3    0  502  0.30193951860E+03  0.67627979660E+03 -0.62440230482E+03  0.96871052151E+03  0.50400001928E-02 0.  1.
</event>
<event>
 5   0  0.7601145E-04  0.1563166E+04  0.7818609E-02  0.8843502E-01
        1   -1    0    0  501    0  0.00000000000E+00  0.00000000000E+00  0.14608886950E+04  0.14608886950E+04  0.50400001928E-02 0.  1.
       -1   -1    0    0    0  501  0.00000000000E+00  0.00000000000E+00 -0.41815078551E+03  0.41815078554E+03  0.50400001928E-02 0. -1.
    10030    2    1    2    0    0  0.00000000000E+00  0.00000000000E+00  0.10427379095E+04  0.18790394805E+04  0.15631657051E+04 0.  0.
        4    1    3    3  502    0 -0.59530316589E+03 -0.36564994259E+03  0.94258265426E+03  0.11732644258E+04  0.12699999809E+01 0.  1.
       -4    1    3    3    0  502  0.59530316589E+03  0.36564994259E+03  0.10015525522E+03  0.70577505473E+03  0.12699999809E+01 0. -1.
</event>
<event>
 5   0  0.1354766E-03  0.1594323E+04  0.7818609E-02  0.8824043E-01
        2   -1    0    0  501    0  0.00000000000E+00  0.00000000000E+00  0.11866603926E+04  0.11866603926E+04  0.25500000920E-02 0. -1.
       -2   -1    0    0    0  501  0.00000000000E+00  0.00000000000E+00 -0.53550855884E+03  0.53550855885E+03  0.25500000920E-02 0.  1.
    10030    2    1    2    0    0  0.00000000000E+00  0.00000000000E+00  0.65115183380E+03  0.17221689515E+04  0.15943234260E+04 0.  0.
        3    1    3    3  502    0 -0.43584141741E+03 -0.19419633997E+01 -0.39540829176E+03  0.58848044975E+03  0.10100000352E+00 0.  1.
       -3    1    3    3    0  502  0.43584141741E+03  0.19419633997E+01  0.10465601256E+04  0.11336885017E+04  0.10100000352E+00 0. -1.
</event>
<event>
 5   0  0.7601145E-04  0.1530165E+04  0.7818609E-02  0.8864638E-01
        1   -1    0    0  501    0  0.00000000000E+00  0.00000000000E+00  0.15223220638E+04  0.15223220639E+04  0.50400001928E-02 0.  1.
       -1   -1    0    0    0  501  0.00000000000E+00  0.00000000000E+00 -0.38451217730E+03  0.38451217734E+03  0.50400001928E-02 0. -1.
    10030    2    1    2    0    0  0.00000000000E+00  0.00000000000E+00  0.11378098865E+04  0.19068342412E+04  0.15301651824E+04 0.  0.
        4    1    3    3  502    0  0.46359044379E+03  0.41711098712E+03  0.11212404284E+04  0.12829962534E+04  0.12699999809E+01 0.  1.
       -4    1    3    3    0  502 -0.46359044379E+03 -0.41711098712E+03  0.16569458163E+02  0.62383798777E+03  0.12699999809E+01 0. -1.
</event>
<event>
 5   0  0.1354766E-03  0.1578101E+04  0.7818609E-02  0.8834115E-01
       -2   -1    0    0    0  501  0.00000000000E+00  0.00000000000E+00  0.13564065995E+04  0.13564065995E+04  0.25500000920E-02 0. -1.
        2   -1    0    0  501    0  0.00000000000E+00  0.00000000000E+00 -0.45900753391E+03  0.45900753392E+03  0.25500000920E-02 0.  1.
    10030    2    1    2    0    0  0.00000000000E+00  0.00000000000E+00  0.89739906559E+03  0.18154141334E+04  0.15781011986E+04 0.  0.
        3    1    3    3  502    0 -0.70312638954E+03 -0.13612192080E+03  0.82969022482E+03  0.10960391309E+04  0.10100000352E+00 0. -1.
       -3    1    3    3    0  502  0.70312638954E+03  0.13612192080E+03  0.67708840763E+02  0.71937500257E+03  0.10100000352E+00 0.  1.
</event>
<event>
 5   0  0.1414796E-03  0.1387235E+04  0.7818609E-02  0.8963111E-01
        2   -1    0    0  501    0  0.00000000000E+00  0.00000000000E+00  0.58803154411E+03  0.58803154412E+03  0.25500000920E-02 0. -1.
       -2   -1    0    0    0  501  0.00000000000E+00  0.00000000000E+00 -0.81816186659E+03  0.81816186659E+03  0.25500000920E-02 0.  1.
    10030    2    1    2    0    0  0.00000000000E+00  0.00000000000E+00 -0.23013032248E+03  0.14061934107E+04  0.13872346388E+04 0.  0.
        4    1    3    3  502    0 -0.61234274079E+03  0.23092283289E+03 -0.34801974016E+03  0.74122084387E+03  0.12699999809E+01 0. -1.
       -4    1    3    3    0  502  0.61234274079E+03 -0.23092283289E+03  0.11788941768E+03  0.66497256684E+03  0.12699999809E+01 0.  1.
</event>
<event>
 5   0  0.1414751E-03  0.1608539E+04  0.7818609E-02  0.8815319E-01
        2   -1    0    0  501    0  0.00000000000E+00  0.00000000000E+00  0.52231070863E+03  0.52231070864E+03  0.25500000920E-02 0.  1.
       -2   -1    0    0    0  501  0.00000000000E+00  0.00000000000E+00 -0.12384386019E+04  0.12384386019E+04  0.25500000920E-02 0. -1.
    10030    2    1    2    0    0  0.00000000000E+00  0.00000000000E+00 -0.71612789328E+03  0.17607493106E+04  0.16085393918E+04 0.  0.
        2    1    3    3  502    0  0.77614882535E+03 -0.15721066266E+03 -0.20431844178E+03  0.81784363860E+03  0.25500000920E-02 0. -1.
       -2    1    3    3    0  502 -0.77614882535E+03  0.15721066266E+03 -0.51180945150E+03  0.94290567195E+03  0.25500000920E-02 0.  1.
</event>
<event>
 5   0  0.1414751E-03  0.9493622E+03  0.7818609E-02  0.9365896E-01
        2   -1    0    0  501    0  0.00000000000E+00  0.00000000000E+00  0.90841557860E+03  0.90841557860E+03  0.25500000920E-02 0. -1.
       -2   -1    0    0    0  501  0.00000000000E+00  0.00000000000E+00 -0.24803864140E+03  0.24803864141E+03  0.25500000920E-02 0.  1.
    10030    2    1    2    0    0  0.00000000000E+00  0.00000000000E+00  0.66037693720E+03  0.11564542200E+04  0.94936224057E+03 0.  0.
        2    1    3    3  502    0 -0.38777929818E+03  0.95415574794E+02  0.17610246838E+02  0.39973370737E+03  0.25500000920E-02 0.  1.
       -2    1    3    3    0  502  0.38777929818E+03 -0.95415574794E+02  0.64276669036E+03  0.75672051264E+03  0.25500000920E-02 0. -1.
</event>
<event>
 5   0  0.7601145E-04  0.1594410E+04  0.7818609E-02  0.8823989E-01
        1   -1    0    0  501    0  0.00000000000E+00  0.00000000000E+00  0.72934006795E+03  0.72934006796E+03  0.50400001928E-02 0. -1.
       -1   -1    0    0    0  501  0.00000000000E+00  0.00000000000E+00 -0.87138493158E+03  0.87138493160E+03  0.50400001928E-02 0.  1.
    10030    2    1    2    0    0  0.00000000000E+00  0.00000000000E+00 -0.14204486364E+03  0.16007249996E+04  0.15944101671E+04 0.  0.
        4    1    3    3  502    0  0.36815932020E+03  0.69378001066E+03  0.66128817786E+02  0.78819199544E+03  0.12699999809E+01 0. -1.
       -4    1    3    3    0  502 -0.36815932020E+03 -0.69378001066E+03 -0.20817368142E+03  0.81253300412E+03  0.12699999809E+01 0.  1.
</event>
<event>
 5   0  0.1414751E-03  0.1574125E+04  0.7818609E-02  0.8836603E-01
        2   -1    0    0  501    0  0.00000000000E+00  0.00000000000E+00  0.16638896916E+04  0.16638896916E+04  0.25500000920E-02 0.  1.
       -2   -1    0    0    0  501  0.00000000000E+00  0.00000000000E+00 -0.37230095265E+03  0.37230095266E+03  0.25500000920E-02 0. -1.
    10030    2    1    2    0    0  0.00000000000E+00  0.00000000000E+00  0.12915887389E+04  0.20361906442E+04  0.15741254299E+04 0.  0.
        2    1    3    3  502    0  0.26685224613E+02  0.59893420705E+03 -0.13825450097E+02  0.59968777599E+03  0.25500000920E-02 0. -1.
       -2    1    3    3    0  502 -0.26685224613E+02 -0.59893420705E+03  0.13054141890E+04  0.14365028682E+04  0.25500000920E-02 0.  1.
</event>
<event>
 5   0  0.1339162E-03  0.1499272E+04  0.7818609E-02  0.8884937E-01
       -2   -1    0    0    0  501  0.00000000000E+00  0.00000000000E+00  0.99512003902E+03  0.99512003902E+03  0.25500000920E-02 0.  1.
        2   -1    0    0  501    0  0.00000000000E+00  0.00000000000E+00 -0.56470990248E+03  0.56470990249E+03  0.25500000920E-02 0. -1.
    10030    2    1    2    0    0  0.00000000000E+00  0.00000000000E+00  0.43041013654E+03  0.15598299415E+04  0.14992720103E+04 0.  0.
        5    1    3    3  502    0  0.32347944681E+03  0.19927155426E+03  0.88751374440E+03  0.96542780224E+03  0.46999998093E+01 0.  1.
       -5    1    3    3    0  502 -0.32347944681E+03 -0.19927155426E+03 -0.45710360786E+03  0.59440213927E+03  0.46999998093E+01 0. -1.
</event>
<event>
 5   0  0.1339162E-03  0.1569976E+04  0.7818609E-02  0.8839208E-01
       -2   -1    0    0    0  501  0.00000000000E+00  0.00000000000E+00  0.20508187690E+04  0.20508187690E+04  0.25500000920E-02 0. -1.
        2   -1    0    0  501    0  0.00000000000E+00  0.00000000000E+00 -0.30046822605E+03  0.30046822606E+03  0.25500000920E-02 0.  1.
    10030    2    1    2    0    0  0.00000000000E+00  0.00000000000E+00  0.17503505430E+04  0.23512869951E+04  0.15699756399E+04 0.  0.
        5    1    3    3  502    0 -0.48162146474E+03  0.20628863399E+03  0.17505940670E+04  0.18273247969E+04  0.46999998093E+01 0. -1.
       -5    1    3    3    0  502  0.48162146474E+03 -0.20628863399E+03 -0.24352406845E+00  0.52396219817E+03  0.46999998093E+01 0.  1.
</event>
<event>
 5   0  0.1354766E-03  0.1631850E+04  0.7818609E-02  0.8801217E-01
       -2   -1    0    0    0  501  0.00000000000E+00  0.00000000000E+00  0.62482824056E+03  0.62482824057E+03  0.25500000920E-02 0.  1.
        2   -1    0    0  501    0  0.00000000000E+00  0.00000000000E+00 -0.10654669764E+04  0.10654669764E+04  0.25500000920E-02 0. -1.
    10030    2    1    2    0    0  0.00000000000E+00  0.00000000000E+00 -0.44063873579E+03  0.16902952169E+04  0.16318503071E+04 0.  0.
        3    1    3    3  502    0  0.33170929440E+03 -0.17624494114E+03  0.52994298730E+03  0.64956363449E+03  0.10100000352E+00 0.  1.
       -3    1    3    3    0  502 -0.33170929440E+03  0.17624494114E+03 -0.97058172310E+03  0.10407315824E+04  0.10100000352E+00 0. -1.
</event>
<event>
 5   0  0.7302027E-04  0.1603790E+04  0.7818609E-02  0.8818223E-01
       -1   -1    0    0    0  501  0.00000000000E+00  0.00000000000E+00  0.10640754155E+04  0.10640754155E+04  0.50400001928E-02 0. -1.
        1   -1    0    0  501    0  0.00000000000E+00  0.00000000000E+00 -0.60431379257E+03  0.60431379259E+03  0.50400001928E-02 0.  1.
    10030    2    1    2    0    0  0.00000000000E+00  0.00000000000E+00  0.45976162293E+03  0.16683892081E+04  0.16037898241E+04 0.  0.
        5    1    3    3  502    0  0.77219950300E+03 -0.16862274070E+03  0.37055971471E+03  0.87296179372E+03  0.46999998093E+01 0. -1.
       -5    1    3    3    0  502 -0.77219950300E+03  0.16862274070E+03  0.89201908216E+02  0.79542741438E+03  0.46999998093E+01 0.  1.
</event>
<event>
 5   0  0.7633213E-04  0.1602090E+04  0.7818609E-02  0.8819265E-01
       -1   -1    0    0    0  501  0.00000000000E+00  0.00000000000E+00  0.72629263669E+03  0.72629263671E+03  0.50400001928E-02 0. -1.
        1   -1    0    0  501    0  0.00000000000E+00  0.00000000000E+00 -0.88349084987E+03  0.88349084989E+03  0.50400001928E-02 0.  1.
    10030    2    1    2    0    0  0.00000000000E+00  0.00000000000E+00 -0.15719821318E+03  0.16097834866E+04  0.16020897589E+04 0.  0.
        1    1    3    3  502    0  0.11238673758E+03  0.43367256587E+03  0.58864578449E+03  0.73973409601E+03  0.50400001928E-02 0. -1.
       -1    1    3    3    0  502 -0.11238673758E+03 -0.43367256587E+03 -0.74584399768E+03  0.87004939059E+03  0.50400001928E-02 0.  1.
</event>
<event>
 5   0  0.1354766E-03  0.1525699E+04  0.7818609E-02  0.8867541E-01
       -2   -1    0    0    0  501  0.00000000000E+00  0.00000000000E+00  0.45059893215E+03  0.45059893215E+03  0.25500000920E-02 0. -1.
        2   -1    0    0  501    0  0.00000000000E+00  0.00000000000E+00 -0.12914795152E+04  0.12914795152E+04  0.25500000920E-02 0.  1.
    10030    2    1    2    0    0  0.00000000000E+00  0.00000000000E+00 -0.84088058303E+03  0.17420784473E+04  0.15256989093E+04 0.  0.
        3    1    3    3  502    0  0.62682141674E+03 -0.43476521162E+03 -0.42462044309E+03  0.87305693320E+03  0.10100000352E+00 0.  1.
       -3    1    3    3    0  502 -0.62682141674E+03  0.43476521162E+03 -0.41626013994E+03  0.86902151413E+03  0.10100000352E+00 0. -1.
</event>
<event>
 5   0  0.7124495E-04  0.1625501E+04  0.7818609E-02  0.8805033E-01
       -1   -1    0    0    0  501  0.00000000000E+00  0.00000000000E+00  0.35856959630E+03  0.35856959633E+03  0.50400001928E-02 0. -1.
        1   -1    0    0  501    0  0.00000000000E+00  0.00000000000E+00 -0.18422173607E+04  0.18422173607E+04  0.50400001928E-02 0.  1.
    10030    2    1    2    0    0  0.00000000000E+00  0.00000000000E+00 -0.14836477644E+04  0.22007869570E+04  0.16255007048E+04 0.  0.
        2    1    3    3  502    0 -0.51820675364E+03 -0.17154927854E+03 -0.15570952507E+04  0.16500039437E+04  0.25500000920E-02 0.  1.
       -2    1    3    3    0  502  0.51820675364E+03  0.17154927854E+03  0.73447486330E+02  0.55078301330E+03  0.25500000920E-02 0. -1.
</event>
<event>
 5   0  0.1414796E-03  0.1584464E+04  0.7818609E-02  0.8830150E-01
        2   -1    0    0  501    0  0.00000000000E+00  0.00000000000E+00  0.18098615771E+04  0.18098615771E+04  0.25500000920E-02 0. -1.
       -2   -1    0    0    0  501  0.00000000000E+00  0.00000000000E+00 -0.34678408308E+03  0.34678408309E+03  0.25500000920E-02 0.  1.
    10030    2    1    2    0    0  0.00000000000E+00  0.00000000000E+00  0.14630774940E+04  0.21566456601E+04  0.15844635528E+04 0.  0.
        4    1    3    3  502    0  0.15039192523E+03 -0.32278160625E+03  0.16947888310E+04  0.17317957418E+04  0.12699999809E+01 0. -1.
       -4    1    3    3    0  502 -0.15039192523E+03  0.32278160625E+03 -0.23171133708E+03  0.42484991837E+03  0.12699999809E+01 0.  1.
</event>
<event>
 5   0  0.7601145E-04  0.1571371E+04  0.7818609E-02  0.8838332E-01
       -1   -1    0    0    0  501  0.00000000000E+00  0.00000000000E+00  0.71053088352E+03  0.71053088354E+03  0.50400001928E-02 0. -1.
        1   -1    0    0  501    0  0.00000000000E+00  0.00000000000E+00 -0.86878915172E+03  0.86878915173E+03  0.50400001928E-02 0.  1.
    10030    2    1    2    0    0  0.00000000000E+00  0.00000000000E+00 -0.15825826820E+03  0.15793200353E+04  0.15713707692E+04 0.  0.
        4    1    3    3  502    0 -0.11012751924E+03 -0.27292736180E+03 -0.81129395169E+03  0.86302775405E+03  0.12699999809E+01 0.  1.
       -4    1    3    3    0  502  0.11012751924E+03  0.27292736180E+03  0.65303568349E+03  0.71629228121E+03  0.12699999809E+01 0. -1.
</event>
<event>
 5   0  0.1414796E-03  0.1912291E+04  0.7818609E-02  0.8648762E-01
        2   -1    0    0  501    0  0.00000000000E+00  0.00000000000E+00  0.18271539872E+04  0.18271539872E+04  0.25500000920E-02 0.  1.
       -2   -1    0    0    0  501  0.00000000000E+00  0.00000000000E+00 -0.50034875868E+03  0.50034875868E+03  0.25500000920E-02 0. -1.
    10030    2    1    2    0    0  0.00000000000E+00  0.00000000000E+00  0.13268052285E+04  0.23275027458E+04  0.19122910128E+04 0.  0.
        4    1    3    3  502    0 -0.72376980297E+03  0.15461670707E+03  0.14002060083E+04  0.15837700377E+04  0.12699999809E+01 0.  1.
       -4    1    3    3    0  502  0.72376980297E+03 -0.15461670707E+03 -0.73400779797E+02  0.74373270815E+03  0.12699999809E+01 0. -1.
</event>
<event>
 5   0  0.1375777E-03  0.1621138E+04  0.7818609E-02  0.8807666E-01
       -2   -1    0    0    0  501  0.00000000000E+00  0.00000000000E+00  0.37626730306E+03  0.37626730307E+03  0.25500000920E-02 0.  1.
        2   -1    0    0  501    0  0.00000000000E+00  0.00000000000E+00 -0.17461573769E+04  0.17461573769E+04  0.25500000920E-02 0. -1.
    10030    2    1    2    0    0  0.00000000000E+00  0.00000000000E+00 -0.13698900738E+04  0.21224246800E+04  0.16211377818E+04 0.  0.
        1    1    3    3  502    0  0.97220839397E+02 -0.20536508454E+03 -0.17036111342E+04  0.17186964846E+04  0.50400001928E-02 0. -1.
       -1    1    3    3    0  502 -0.97220839397E+02  0.20536508454E+03  0.33372106038E+03  0.40372819536E+03  0.50400001928E-02 0.  1.
</event>
<event>
 5   0  0.1414751E-03  0.1569428E+04  0.7818609E-02  0.8839553E-01
        2   -1    0    0  501    0  0.00000000000E+00  0.00000000000E+00  0.22677216116E+04  0.22677216116E+04  0.25500000920E-02 0.  1.
       -2   -1    0    0    0  501  0.00000000000E+00  0.00000000000E+00 -0.27153963161E+03  0.27153963163E+03  0.25500000920E-02 0. -1.
    10030    2    1    2    0    0  0.00000000000E+00  0.00000000000E+00  0.19961819800E+04  0.25392612432E+04  0.15694282921E+04 0.  0.
        2    1    3    3  502    0  0.20798458204E+03  0.74918112990E+03  0.82650908039E+03  0.11347454392E+04  0.25500000920E-02 0.  1.
       -2    1    3    3    0  502 -0.20798458204E+03 -0.74918112990E+03  0.11696728996E+04  0.14045158041E+04  0.25500000920E-02 0. -1.
</event>
<event>
 5   0  0.7499834E-04  0.8068696E+03  0.7818609E-02  0.9550127E-01
       -1   -1    0    0    0  501  0.00000000000E+00  0.00000000000E+00  0.94880861003E+02  0.94880861137E+02  0.50400001928E-02 0. -1.
        1   -1    0    0  501    0  0.00000000000E+00  0.00000000000E+00 -0.17154106298E+04  0.17154106298E+04  0.50400001928E-02 0.  1.
    10030    2    1    2    0    0  0.00000000000E+00  0.00000000000E+00 -0.16205297688E+04  0.18102914910E+04  0.80686959953E+03 0.  0.
        3    1    3    3  502    0  0.45368460114E+02  0.39027306128E+03 -0.10157504424E+04  0.10890915163E+04  0.10100000352E+00 0.  1.
       -3    1    3    3    0  502 -0.45368460114E+02 -0.39027306128E+03 -0.60477932647E+03  0.72119997467E+03  0.10100000352E+00 0. -1.
</event>
<event>
 5   0  0.7633213E-04  0.1583676E+04  0.7818609E-02  0.8830640E-01
       -1   -1    0    0    0  501  0.00000000000E+00  0.00000000000E+00  0.81111067911E+03  0.81111067913E+03  0.50400001928E-02 0. -1.
        1   -1    0    0  501    0  0.00000000000E+00  0.00000000000E+00 -0.77302334001E+03  0.77302334003E+03  0.50400001928E-02 0.  1.
    10030    2    1    2    0    0  0.00000000000E+00  0.00000000000E+00  0.38087339097E+02  0.15841340192E+04  0.15836760860E+04 0.  0.
        1    1    3    3  502    0  0.71673353088E+03 -0.26170097680E+03 -0.19270866377E+03  0.78697584758E+03  0.50400001928E-02 0.  1.
       -1    1    3    3    0  502 -0.71673353088E+03  0.26170097680E+03  0.23079600287E+03  0.79715817158E+03  0.50400001928E-02 0. -1.
</event>
<event>
 5   0  0.7124495E-04  0.1595072E+04  0.7818609E-02  0.8823581E-01
        1   -1    0    0  501    0  0.00000000000E+00  0.00000000000E+00  0.13462948174E+04  0.13462948174E+04  0.50400001928E-02 0. -1.
       -1   -1    0    0    0  501  0.00000000000E+00  0.00000000000E+00 -0.47245476970E+03  0.47245476973E+03  0.50400001928E-02 0.  1.
    10030    2    1    2    0    0  0.00000000000E+00  0.00000000000E+00  0.87384004769E+03  0.18187495871E+04  0.15950716698E+04 0.  0.
        2    1    3    3  502    0 -0.32980280424E+03  0.37962108011E+03 -0.26890148698E+03  0.57025438521E+03  0.25500000920E-02 0.  1.
       -2    1    3    3    0  502  0.32980280424E+03 -0.37962108011E+03  0.11427415347E+04  0.12484952019E+04  0.25500000920E-02 0. -1.
</event>
<event>
 5   0  0.1414751E-03  0.1536090E+04  0.7818609E-02  0.8860802E-01
        2   -1    0    0  501    0  0.00000000000E+00  0.00000000000E+00  0.11283362314E+04  0.11283362314E+04  0.25500000920E-02 0.  1.
       -2   -1    0    0    0  501  0.00000000000E+00  0.00000000000E+00 -0.52279922449E+03  0.52279922450E+03  0.25500000920E-02 0. -1.
    10030    2    1    2    0    0  0.00000000000E+00  0.00000000000E+00  0.60553700695E+03  0.16511354559E+04  0.15360902405E+04 0.  0.
        2    1    3    3  502    0 -0.39436053945E+03 -0.30073086150E+03 -0.32761311634E+03  0.59438172931E+03  0.25500000920E-02 0. -1.
       -2    1    3    3    0  502  0.39436053945E+03  0.30073086150E+03  0.93315012329E+03  0.10567537266E+04  0.25500000920E-02 0.  1.
</event>
<event>
 5   0  0.1339162E-03  0.1479038E+04  0.7818609E-02  0.8898513E-01
        2   -1    0    0  501    0  0.00000000000E+00  0.00000000000E+00  0.92085261126E+03  0.92085261126E+03  0.25500000920E-02 0. -1.
       -2   -1    0    0    0  501  0.00000000000E+00  0.00000000000E+00 -0.59389372709E+03  0.59389372710E+03  0.25500000920E-02 0.  1.
    10030    2    1    2    0    0  0.00000000000E+00  0.00000000000E+00  0.32695888416E+03  0.15147463384E+04  0.14790383219E+04 0.  0.
        5    1    3    3  502    0 -0.32106830830E+03  0.24348946083E+03 -0.47156711185E+03  0.62029799863E+03  0.46999998093E+01 0.  1.
       -5    1    3    3    0  502  0.32106830830E+03 -0.24348946083E+03  0.79852599601E+03  0.89444833973E+03  0.46999998093E+01 0. -1.
</event>
<event>
 5   0  0.7633213E-04  0.1650985E+04  0.7818609E-02  0.8789824E-01
        1   -1    0    0  501    0  0.00000000000E+00  0.00000000000E+00  0.13856854281E+04  0.13856854281E+04  0.50400001928E-02 0.  1.
       -1   -1    0    0    0  501  0.00000000000E+00  0.00000000000E+00 -0.49176936432E+03  0.49176936435E+03  0.50400001928E-02 0. -1.
    10030    2    1    2    0    0  0.00000000000E+00  0.00000000000E+00  0.89391606379E+03  0.18774547925E+04  0.16509847270E+04 0.  0.
        1    1    3    3  502    0  0.70487318463E+03  0.22128557460E+03  0.86574669416E+03  0.11381260257E+04  0.50400001928E-02 0.  1.
       -1    1    3    3    0  502 -0.70487318463E+03 -0.22128557460E+03  0.28169369629E+02  0.73932876675E+03  0.50400001928E-02 0. -1.
</event>
<event>
 5   0  0.1375777E-03  0.1591647E+04  0.7818609E-02  0.8825696E-01
       -2   -1    0    0    0  501  0.00000000000E+00  0.00000000000E+00  0.42750094020E+03  0.42750094021E+03  0.25500000920E-02 0.  1.
        2   -1    0    0  501    0  0.00000000000E+00  0.00000000000E+00 -0.14814816635E+04  0.14814816635E+04  0.25500000920E-02 0. -1.
    10030    2    1    2    0    0  0.00000000000E+00  0.00000000000E+00 -0.10539807233E+04  0.19089826037E+04  0.15916466996E+04 0.  0.
        1    1    3    3  502    0  0.11140393777E+03  0.42904789159E+03  0.26572528093E+03  0.51681994503E+03  0.50400001928E-02 0.  1.
       -1    1    3    3    0  502 -0.11140393777E+03 -0.42904789159E+03 -0.13197060042E+04  0.13921626587E+04  0.50400001928E-02 0. -1.
</event>
<event>
 5   0  0.7633213E-04  0.1613480E+04  0.7818609E-02  0.8812309E-01
       -1   -1    0    0    0  501  0.00000000000E+00  0.00000000000E+00  0.67093846900E+03  0.67093846902E+03  0.50400001928E-02 0. -1.
        1   -1    0    0  501    0  0.00000000000E+00  0.00000000000E+00 -0.97002856525E+03  0.97002856527E+03  0.50400001928E-02 0.  1.
    10030    2    1    2    0    0  0.00000000000E+00  0.00000000000E+00 -0.29909009626E+03  0.16409670343E+04  0.16134800655E+04 0.  0.
        1    1    3    3  502    0  0.22345957108E+03 -0.46501829520E+03  0.48122487339E+03  0.70551652963E+03  0.50400001928E-02 0. -1.
       -1    1    3    3    0  502 -0.22345957108E+03  0.46501829520E+03 -0.78031496965E+03  0.93545050466E+03  0.50400001928E-02 0.  1.
</event>
<event>
 5   0  0.1339162E-03  0.1630332E+04  0.7818609E-02  0.8802128E-01
       -2   -1    0    0    0  501  0.00000000000E+00  0.00000000000E+00  0.30742497597E+03  0.30742497598E+03  0.25500000920E-02 0. -1.
        2   -1    0    0  501    0  0.00000000000E+00  0.00000000000E+00 -0.21614882777E+04  0.21614882777E+04  0.25500000920E-02 0.  1.
    10030    2    1    2    0    0  0.00000000000E+00  0.00000000000E+00 -0.18540633018E+04  0.24689132537E+04  0.16303318458E+04 0.  0.
        5    1    3    3  502    0  0.56199819125E+03 -0.26002364465E+02 -0.33743551109E+02  0.56363002685E+03  0.46999998093E+01 0. -1.
       -5    1    3    3    0  502 -0.56199819125E+03  0.26002364465E+02 -0.18203197506E+04  0.19052832268E+04  0.46999998093E+01 0.  1.
</event>
<event>
 5   0  0.1375777E-03  0.1601734E+04  0.7818609E-02  0.8819484E-01
        2   -1    0    0  501    0  0.00000000000E+00  0.00000000000E+00  0.15653545514E+04  0.15653545514E+04  0.25500000920E-02 0. -1.
       -2   -1    0    0    0  501  0.00000000000E+00  0.00000000000E+00 -0.40973968611E+03  0.40973968611E+03  0.25500000920E-02 0.  1.
    10030    2    1    2    0    0  0.00000000000E+00  0.00000000000E+00  0.11556148653E+04  0.19750942375E+04  0.16017339137E+04 0.  0.
        1    1    3    3  502    0  0.10276498827E+03 -0.47730095094E+03  0.13606166372E+04  0.14455637218E+04  0.50400001928E-02 0. -1.
       -1    1    3    3    0  502 -0.10276498827E+03  0.47730095094E+03 -0.20500177183E+03  0.52953051570E+03  0.50400001928E-02 0.  1.
</event>
<event>
 5   0  0.1339162E-03  0.1625864E+04  0.7818609E-02  0.8804815E-01
       -2   -1    0    0    0  501  0.00000000000E+00  0.00000000000E+00  0.73318438277E+03  0.73318438277E+03  0.25500000920E-02 0.  1.
        2   -1    0    0  501    0  0.00000000000E+00  0.00000000000E+00 -0.90135348348E+03  0.90135348348E+03  0.25500000920E-02 0. -1.
    10030    2    1    2    0    0  0.00000000000E+00  0.00000000000E+00 -0.16816910071E+03  0.16345378663E+04  0.16258638288E+04 0.  0.
        5    1    3    3  502    0  0.79774958659E+03  0.15619497470E+03 -0.78142482708E+02  0.81665758469E+03  0.46999998093E+01 0. -1.
       -5    1    3    3    0  502 -0.79774958659E+03 -0.15619497470E+03 -0.90026618006E+02  0.81788028156E+03  0.46999998093E+01 0.  1.
</event>
<event>
 5   0  0.1339162E-03  0.1279503E+04  0.7818609E-02  0.9045979E-01
        2   -1    0    0  501    0  0.00000000000E+00  0.00000000000E+00  0.86687806369E+03  0.86687806369E+03  0.25500000920E-02 0.  1.
       -2   -1    0    0    0  501  0.00000000000E+00  0.00000000000E+00 -0.47213361246E+03  0.47213361247E+03  0.25500000920E-02 0. -1.
    10030    2    1    2    0    0  0.00000000000E+00  0.00000000000E+00  0.39474445122E+03  0.13390116762E+04  0.12795034533E+04 0.  0.
        5    1    3    3  502    0 -0.63787024278E+03  0.48658483673E+02  0.20130006894E+03  0.67066377747E+03  0.46999998093E+01 0.  1.
       -5    1    3    3    0  502  0.63787024278E+03 -0.48658483673E+02  0.19344438228E+03  0.66834789869E+03  0.46999998093E+01 0. -1.
</event>
<event>
 5   0  0.5095750E-04  0.1623590E+04  0.7818609E-02  0.8806185E-01
        4   -1    0    0  501    0  0.00000000000E+00  0.00000000000E+00  0.45159775007E+03  0.45159953584E+03  0.12699999809E+01 0. -1.
       -4   -1    0    0    0  501  0.00000000000E+00  0.00000000000E+00 -0.14592829055E+04  0.14592834582E+04  0.12699999809E+01 0.  1.
    10030    2    1    2    0    0  0.00000000000E+00  0.00000000000E+00 -0.10076851555E+04  0.19108829940E+04  0.16235899865E+04 0.  0.
        3    1    3    3  502    0 -0.66427311891E+03 -0.44365933007E+03 -0.67406835188E+03  0.10452083672E+04  0.10100000352E+00 0. -1.
       -3    1    3    3    0  502  0.66427311891E+03  0.44365933007E+03 -0.33361680357E+03  0.86567462680E+03  0.10100000352E+00 0.  1.
</event>
<event>
 5   0  0.1354766E-03  0.1597950E+04  0.7818609E-02  0.8821808E-01
       -2   -1    0    0    0  501  0.00000000000E+00  0.00000000000E+00  0.33910111486E+03  0.33910111487E+03  0.25500000920E-02 0.  1.
        2   -1    0    0  501    0  0.00000000000E+00  0.00000000000E+00 -0.18825091676E+04  0.18825091676E+04  0.25500000920E-02 0. -1.
    10030    2    1    2    0    0  0.00000000000E+00  0.00000000000E+00 -0.15434080527E+04  0.22216102824E+04  0.15979498834E+04 0.  0.
        3    1    3    3  502    0  0.53826660053E+03  0.89901098269E+02 -0.15830269857E+04  0.16744514291E+04  0.10100000352E+00 0. -1.
       -3    1    3    3    0  502 -0.53826660053E+03 -0.89901098269E+02  0.39618933023E+02  0.54715885333E+03  0.10100000352E+00 0.  1.
</event>
<event>
 5   0  0.7124495E-04  0.1635707E+04  0.7818609E-02  0.8798907E-01
        1   -1    0    0  501    0  0.00000000000E+00  0.00000000000E+00  0.20830383866E+04  0.20830383866E+04  0.50400001928E-02 0. -1.
       -1   -1    0    0    0  501  0.00000000000E+00  0.00000000000E+00 -0.32111005386E+03  0.32111005390E+03  0.50400001928E-02 0.  1.
    10030    2    1    2    0    0  0.00000000000E+00  0.00000000000E+00  0.17619283327E+04  0.24041484405E+04  0.16357072703E+04 0.  0.
        2    1    3    3  502    0  0.55018012369E+03  0.35899390770E+03  0.16496336544E+03  0.67733869387E+03  0.25500000920E-02 0.  1.
       -2    1    3    3    0  502 -0.55018012369E+03 -0.35899390770E+03  0.15969649673E+04  0.17268097466E+04  0.25500000920E-02 0. -1.
</event>
<event>
 5   0  0.1414796E-03  0.1578223E+04  0.7818609E-02  0.8834039E-01
       -2   -1    0    0    0  501  0.00000000000E+00  0.00000000000E+00  0.66126218539E+03  0.66126218540E+03  0.25500000920E-02 0. -1.
        2   -1    0    0  501    0  0.00000000000E+00  0.00000000000E+00 -0.94167987181E+03  0.94167987181E+03  0.25500000920E-02 0.  1.
    10030    2    1    2    0    0  0.00000000000E+00  0.00000000000E+00 -0.28041768641E+03  0.16029420572E+04  0.15782234189E+04 0.  0.
        4    1    3    3  502    0 -0.20136413128E+03 -0.68124390457E+03 -0.48918146849E+03  0.86252008260E+03  0.12699999809E+01 0.  1.
       -4    1    3    3    0  502  0.20136413128E+03  0.68124390457E+03  0.20876378207E+03  0.74042197461E+03  0.12699999809E+01 0. -1.
</event>
<event>
 5   0  0.7499834E-04  0.1663783E+04  0.7818609E-02  0.8782294E-01
        1   -1    0    0  501    0  0.00000000000E+00  0.00000000000E+00  0.16556638675E+04  0.16556638675E+04  0.50400001928E-02 0.  1.
       -1   -1    0    0    0  501  0.00000000000E+00  0.00000000000E+00 -0.41798538534E+03  0.41798538537E+03  0.50400001928E-02 0. -1.
    10030    2    1    2    0    0  0.00000000000E+00  0.00000000000E+00  0.12376784822E+04  0.20736492529E+04  0.16637827979E+04 0.  0.
        3    1    3    3  502    0 -0.39895019907E+03  0.65233285224E+03  0.21049417701E+03  0.79309975426E+03  0.10100000352E+00 0. -1.
       -3    1    3    3    0  502  0.39895019907E+03 -0.65233285224E+03  0.10271843051E+04  0.12805494986E+04  0.10100000352E+00 0.  1.
</event>
<event>
 5   0  0.1354766E-03  0.1649934E+04  0.7818609E-02  0.8790446E-01
        2   -1    0    0  501    0  0.00000000000E+00  0.00000000000E+00  0.15803910221E+04  0.15803910221E+04  0.25500000920E-02 0.  1.
       -2   -1    0    0    0  501  0.00000000000E+00  0.00000000000E+00 -0.43063412119E+03  0.43063412119E+03  0.25500000920E-02 0. -1.
    10030    2    1    2    0    0  0.00000000000E+00  0.00000000000E+00  0.11497569009E+04  0.20110251433E+04  0.16499336943E+04 0.  0.
        3    1    3    3  502    0 -0.30532612266E+03 -0.57846769170E+03 -0.37855576495E+02  0.65519612819E+03  0.10100000352E+00 0. -1.
       -3    1    3    3    0  502  0.30532612266E+03  0.57846769170E+03  0.11876124774E+04  0.13558290151E+04  0.10100000352E+00 0.  1.
</event>
<event>
 5   0  0.7601145E-04  0.1596314E+04  0.7818609E-02  0.8822816E-01
       -1   -1    0    0    0  501  0.00000000000E+00  0.00000000000E+00  0.13319860603E+04  0.13319860603E+04  0.50400001928E-02 0.  1.
        1   -1    0    0  501    0  0.00000000000E+00  0.00000000000E+00 -0.47827435631E+03  0.47827435634E+03  0.50400001928E-02 0. -1.
    10030    2    1    2    0    0  0.00000000000E+00  0.00000000000E+00  0.85371170400E+03  0.18102604167E+04  0.15963142243E+04 0.  0.
        4    1    3    3  502    0  0.29459833372E+03  0.52679676082E+03  0.10191059981E+04  0.11844330516E+04  0.12699999809E+01 0.  1.
       -4    1    3    3    0  502 -0.29459833372E+03 -0.52679676082E+03 -0.16539429410E+03  0.62582736507E+03  0.12699999809E+01 0. -1.
</event>
<event>
 5   0  0.1375777E-03  0.1585434E+04  0.7818609E-02  0.8829547E-01
       -2   -1    0    0    0  501  0.00000000000E+00  0.00000000000E+00  0.28966636317E+03  0.28966636318E+03  0.25500000920E-02 0.  1.
        2   -1    0    0  501    0  0.00000000000E+00  0.00000000000E+00 -0.21693928656E+04  0.21693928656E+04  0.25500000920E-02 0. -1.
    10030    2    1    2    0    0  0.00000000000E+00  0.00000000000E+00 -0.18797265024E+04  0.24590592288E+04  0.15854338733E+04 0.  0.
        1    1    3    3  502    0  0.64275704220E+03 -0.23773010554E+03 -0.15578439096E+04  0.17019194650E+04  0.50400001928E-02 0. -1.
       -1    1    3    3    0  502 -0.64275704220E+03  0.23773010554E+03 -0.32188259276E+03  0.75713976380E+03  0.50400001928E-02 0.  1.
</event>
<event>
 5   0  0.7302027E-04  0.1577446E+04  0.7818609E-02  0.8834525E-01
        1   -1    0    0  501    0  0.00000000000E+00  0.00000000000E+00  0.87914560482E+03  0.87914560484E+03  0.50400001928E-02 0. -1.
       -1   -1    0    0    0  501  0.00000000000E+00  0.00000000000E+00 -0.70760088522E+03  0.70760088524E+03  0.50400001928E-02 0.  1.
    10030    2    1    2    0    0  0.00000000000E+00  0.00000000000E+00  0.17154471960E+03  0.15867464901E+04  0.15774463011E+04 0.  0.
        5    1    3    3  502    0  0.22906652535E+03  0.49846149042E+03  0.65579385080E+03  0.85499882761E+03  0.46999998093E+01 0. -1.
       -5    1    3    3    0  502 -0.22906652535E+03 -0.49846149042E+03 -0.48424913120E+03  0.73174766247E+03  0.46999998093E+01 0.  1.
</event>
<event>
 5   0  0.7601145E-04  0.1386631E+04  0.7818609E-02  0.8963553E-01
        1   -1    0    0  501    0  0.00000000000E+00  0.00000000000E+00  0.95403424585E+03  0.95403424586E+03  0.50400001928E-02 0. -1.
       -1   -1    0    0    0  501  0.00000000000E+00  0.00000000000E+00 -0.50384639502E+03  0.50384639504E+03  0.50400001928E-02 0.  1.
    10030    2    1    2    0    0  0.00000000000E+00  0.00000000000E+00  0.45018785083E+03  0.14578806409E+04  0.13866314803E+04 0.  0.
        4    1    3    3  502    0 -0.59866629215E+03 -0.34191148499E+03  0.30221348681E+03  0.75275453996E+03  0.12699999809E+01 0.  1.
       -4    1    3    3    0  502  0.59866629215E+03  0.34191148499E+03  0.14797436403E+03  0.70512610095E+03  0.12699999809E+01 0. -1.
</event>
<event>
 5   0  0.1354766E-03  0.1548787E+04  0.7818609E-02  0.8852643E-01
       -2   -1    0    0    0  501  0.00000000000E+00  0.00000000000E+00  0.44944312014E+03  0.44944312014E+03  0.25500000920E-02 0. -1.
        2   -1    0    0  501    0  0.00000000000E+00  0.00000000000E+00 -0.13342852514E+04  0.13342852514E+04  0.25500000920E-02 0.  1.
    10030    2    1    2    0    0  0.00000000000E+00  0.00000000000E+00 -0.88484213123E+03  0.17837283715E+04  0.15487870435E+04 0.  0.
        3    1    3    3  502    0 -0.50282358669E+03 -0.26257254866E+03 -0.10495607804E+04  0.11930438989E+04  0.10100000352E+00 0.  1.
       -3    1    3    3    0  502  0.50282358669E+03  0.26257254866E+03  0.16471864918E+03  0.59068447265E+03  0.10100000352E+00 0. -1.
</event>
<event>
 5   0  0.7302027E-04  0.1624480E+04  0.7818609E-02  0.8805649E-01
        1   -1    0    0  501    0  0.00000000000E+00  0.00000000000E+00  0.12523228928E+04  0.12523228928E+04  0.50400001928E-02 0.  1.
       -1   -1    0    0    0  501  0.00000000000E+00  0.00000000000E+00 -0.52680796733E+03  0.52680796735E+03  0.50400001928E-02 0. -1.
    10030    2    1    2    0    0  0.00000000000E+00  0.00000000000E+00  0.72551492549E+03  0.17791308602E+04  0.16244798277E+04 0.  0.
        5    1    3    3  502    0  0.23670452494E+02  0.65176902823E+03 -0.16742406877E+03  0.67336176405E+03  0.46999998093E+01 0. -1.
       -5    1    3    3    0  502 -0.23670452494E+02 -0.65176902823E+03  0.89293899426E+03  0.11057690961E+04  0.46999998093E+01 0.  1.
</event>
<event>
 5   0  0.7499834E-04  0.1568088E+04  0.7818609E-02  0.8840396E-01
        1   -1    0    0  501    0  0.00000000000E+00  0.00000000000E+00  0.54864755872E+03  0.54864755874E+03  0.50400001928E-02 0.  1.
       -1   -1    0    0    0  501  0.00000000000E+00  0.00000000000E+00 -0.11204372787E+04  0.11204372787E+04  0.50400001928E-02 0. -1.
    10030    2    1    2    0    0  0.00000000000E+00  0.00000000000E+00 -0.57178971998E+03  0.16690848374E+04  0.15680882344E+04 0.  0.
        3    1    3    3  502    0  0.16699634807E+03  0.26987480144E+03  0.47722293074E+03  0.57311597827E+03  0.10100000352E+00 0.  1.
       -3    1    3    3    0  502 -0.16699634807E+03 -0.26987480144E+03 -0.10490126507E+04  0.10959688592E+04  0.10100000352E+00 0. -1.
</event>
<event>
 5   0  0.7124495E-04  0.1645942E+04  0.7818609E-02  0.8792811E-01
       -1   -1    0    0    0  501  0.00000000000E+00  0.00000000000E+00  0.31893086051E+03  0.31893086055E+03  0.50400001928E-02 0.  1.
        1   -1    0    0  501    0  0.00000000000E+00  0.00000000000E+00 -0.21235992143E+04  0.21235992143E+04  0.50400001928E-02 0. -1.
    10030    2    1    2    0    0  0.00000000000E+00  0.00000000000E+00 -0.18046683538E+04  0.24425300749E+04  0.16459420705E+04 0.  0.
        2    1    3    3  502    0 -0.67471254869E+03  0.86675213984E+02 -0.21499496616E+03  0.71342305231E+03  0.25500000920E-02 0. -1.
       -2    1    3    3    0  502  0.67471254869E+03 -0.86675213984E+02 -0.15896733877E+04  0.17291070226E+04  0.25500000920E-02 0.  1.
</event>
<event>
 5   0  0.1414751E-03  0.1555347E+04  0.7818609E-02  0.8848460E-01
       -2   -1    0    0    0  501  0.00000000000E+00  0.00000000000E+00  0.11151102313E+04  0.11151102313E+04  0.25500000920E-02 0. -1.
        2   -1    0    0  501    0  0.00000000000E+00  0.00000000000E+00 -0.54234649285E+03  0.54234649286E+03  0.25500000920E-02 0.  1.
    10030    2    1    2    0    0  0.00000000000E+00  0.00000000000E+00  0.57276373846E+03  0.16574567242E+04  0.15553470649E+04 0.  0.
        2    1    3    3  502    0  0.39264509503E+03  0.18287854330E+03 -0.40190096325E+03  0.59087995102E+03  0.25500000920E-02 0.  1.
       -2    1    3    3    0  502 -0.39264509503E+03 -0.18287854330E+03  0.97466470172E+03  0.10665767732E+04  0.25500000920E-02 0. -1.
</event>
<event>
 5   0  0.7124495E-04  0.1546872E+04  0.7818609E-02  0.8853868E-01
       -1   -1    0    0    0  501  0.00000000000E+00  0.00000000000E+00  0.48886665686E+03  0.48886665689E+03  0.50400001928E-02 0.  1.
        1   -1    0    0  501    0  0.00000000000E+00  0.00000000000E+00 -0.12236531794E+04  0.12236531794E+04  0.50400001928E-02 0. -1.
    10030    2    1    2    0    0  0.00000000000E+00  0.00000000000E+00 -0.73478652255E+03  0.17125198363E+04  0.15468719908E+04 0.  0.
        2    1    3    3  502    0  0.53112383045E+03 -0.39472151649E+03  0.75863772906E+02  0.66607275195E+03  0.25500000920E-02 0.  1.
       -2    1    3    3    0  502 -0.53112383045E+03  0.39472151649E+03 -0.81065029546E+03  0.10464470844E+04  0.25500000920E-02 0. -1.
</event>
<event>
 5   0  0.7124495E-04  0.1678573E+04  0.7818609E-02  0.8773680E-01
       -1   -1    0    0    0  501  0.00000000000E+00  0.00000000000E+00  0.10060790110E+04  0.10060790110E+04  0.50400001928E-02 0. -1.
        1   -1    0    0  501    0  0.00000000000E+00  0.00000000000E+00 -0.70014562758E+03  0.70014562760E+03  0.50400001928E-02 0.  1.
    10030    2    1    2    0    0  0.00000000000E+00  0.00000000000E+00  0.30593338340E+03  0.17062246386E+04  0.16785729899E+04 0.  0.
        2    1    3    3  502    0 -0.77785588384E+02 -0.81100208503E+03  0.35784807850E+03  0.88984842921E+03  0.25500000920E-02 0. -1.
       -2    1    3    3    0  502  0.77785588384E+02  0.81100208503E+03 -0.51914695101E+02  0.81637620939E+03  0.25500000920E-02 0.  1.
</event>
<event>
 5   0  0.7499834E-04  0.1613735E+04  0.7818609E-02  0.8812155E-01
       -1   -1    0    0    0  501  0.00000000000E+00  0.00000000000E+00  0.47758204639E+03  0.47758204642E+03  0.50400001928E-02 0. -1.
        1   -1    0    0  501    0  0.00000000000E+00  0.00000000000E+00 -0.13631893598E+04  0.13631893598E+04  0.50400001928E-02 0.  1.
    10030    2    1    2    0    0  0.00000000000E+00  0.00000000000E+00 -0.88560731337E+03  0.18407714062E+04  0.16137345062E+04 0.  0.
        3    1    3    3  502    0 -0.49462434183E+03  0.15922692823E+03  0.26131587329E+03  0.58162913445E+03  0.10100000352E+00 0. -1.
       -3    1    3    3    0  502  0.49462434183E+03 -0.15922692823E+03 -0.11469231867E+04  0.12591422717E+04  0.10100000352E+00 0.  1.
</event>
<event>
 5   0  0.1375777E-03  0.1623478E+04  0.7818609E-02  0.8806253E-01
       -2   -1    0    0    0  501  0.00000000000E+00  0.00000000000E+00  0.56876659697E+03  0.56876659698E+03  0.25500000920E-02 0.  1.
        2   -1    0    0  501    0  0.00000000000E+00  0.00000000000E+00 -0.11585072254E+04  0.11585072254E+04  0.25500000920E-02 0. -1.
    10030    2    1    2    0    0  0.00000000000E+00  0.00000000000E+00 -0.58974062838E+03  0.17272738223E+04  0.16234780099E+04 0.  0.
        1    1    3    3  502    0  0.50160713937E+03 -0.47249495296E+03  0.16157980066E+03  0.70779180191E+03  0.50400001928E-02 0.  1.
       -1    1    3    3    0  502 -0.50160713937E+03  0.47249495296E+03 -0.75132042904E+03  0.10194820204E+04  0.50400001928E-02 0. -1.
</event>
<event>
 5   0  0.1414796E-03  0.1699729E+04  0.7818609E-02  0.8761519E-01
        2   -1    0    0  501    0  0.00000000000E+00  0.00000000000E+00  0.20010800967E+04  0.20010800967E+04  0.25500000920E-02 0.  1.
       -2   -1    0    0    0  501  0.00000000000E+00  0.00000000000E+00 -0.36093977422E+03  0.36093977423E+03  0.25500000920E-02 0. -1.
    10030    2    1    2    0    0  0.00000000000E+00  0.00000000000E+00  0.16401403225E+04  0.23620198709E+04  0.16997286822E+04 0.  0.
        4    1    3    3  502    0  0.83460458833E+03 -0.52929640449E+02  0.10303681634E+04  0.13270367480E+04  0.12699999809E+01 0. -1.
       -4    1    3    3    0  502 -0.83460458833E+03  0.52929640449E+02  0.60977215909E+03  0.10349831229E+04  0.12699999809E+01 0.  1.
</event>
<event>
 5   0  0.7633213E-04  0.1385358E+04  0.7818609E-02  0.8964486E-01
        1   -1    0    0  501    0  0.00000000000E+00  0.00000000000E+00  0.33299512856E+03  0.33299512860E+03  0.50400001928E-02 0.  1.
       -1   -1    0    0    0  501  0.00000000000E+00  0.00000000000E+00 -0.14408746578E+04  0.14408746578E+04  0.50400001928E-02 0. -1.
    10030    2    1    2    0    0  0.00000000000E+00  0.00000000000E+00 -0.11078795293E+04  0.17738697864E+04  0.13853580649E+04 0.  0.
        1    1    3    3  502    0 -0.59667538216E+03 -0.14730379725E+03 -0.96304894281E+03  0.11424461417E+04  0.50400001928E-02 0. -1.
       -1    1    3    3    0  502  0.59667538216E+03  0.14730379725E+03 -0.14483058646E+03  0.63142364476E+03  0.50400001928E-02 0.  1.
</event>
<event>
 5   0  0.1375777E-03  0.1571487E+04  0.7818609E-02  0.8838259E-01
       -2   -1    0    0    0  501  0.00000000000E+00  0.00000000000E+00  0.50625557486E+03  0.50625557486E+03  0.25500000920E-02 0. -1.
        2   -1    0    0  501    0  0.00000000000E+00  0.00000000000E+00 -0.12195282146E+04  0.12195282146E+04  0.25500000920E-02 0.  1.
    10030    2    1    2    0    0  0.00000000000E+00  0.00000000000E+00 -0.71327263973E+03  0.17257837895E+04  0.15714871394E+04 0.  0.
        1    1    3    3  502    0  0.69330931834E+03  0.36192345929E+03 -0.27353224655E+03  0.82854468269E+03  0.50400001928E-02 0. -1.
       -1    1    3    3    0  502 -0.69330931834E+03 -0.36192345929E+03 -0.43974039318E+03  0.89723910676E+03  0.50400001928E-02 0.  1.
</event>
<event>
 5   0  0.1414796E-03  0.1586838E+04  0.7818609E-02  0.8828675E-01
       -2   -1    0    0    0  501  0.00000000000E+00  0.00000000000E+00  0.26410225204E+03  0.26410225205E+03  0.25500000920E-02 0. -1.
        2   -1    0    0  501    0  0.00000000000E+00  0.00000000000E+00 -0.23835970002E+04  0.23835970002E+04  0.25500000920E-02 0.  1.
    10030    2    1    2    0    0  0.00000000000E+00  0.00000000000E+00 -0.21194947482E+04  0.26476992523E+04  0.15868375288E+04 0.  0.
        4    1    3    3  502    0  0.26961374799E+01 -0.79230439632E+03 -0.11297106261E+04  0.13798555132E+04  0.12699999809E+01 0.  1.
       -4    1    3    3    0  502 -0.26961374799E+01  0.79230439632E+03 -0.98978412208E+03  0.12678437391E+04  0.12699999809E+01 0. -1.
</event>
<event>
 5   0  0.1339162E-03  0.1612354E+04  0.7818609E-02  0.8812994E-01
       -2   -1    0    0    0  501  0.00000000000E+00  0.00000000000E+00  0.10501459483E+04  0.10501459483E+04  0.25500000920E-02 0. -1.
        2   -1    0    0  501    0  0.00000000000E+00  0.00000000000E+00 -0.61888663117E+03  0.61888663118E+03  0.25500000920E-02 0.  1.
    10030    2    1    2    0    0  0.00000000000E+00  0.00000000000E+00  0.43125931711E+03  0.16690325795E+04  0.16123539167E+04 0.  0.
        5    1    3    3  502    0 -0.25798115738E+02  0.39802233078E+03 -0.50957731262E+03  0.64713093429E+03  0.46999998093E+01 0.  1.
       -5    1    3    3    0  502  0.25798115738E+02 -0.39802233078E+03  0.94083662973E+03  0.10219016452E+04  0.46999998093E+01 0. -1.
</event>
<event>
 5   0  0.1375777E-03  0.1606486E+04  0.7818609E-02  0.8816573E-01
       -2   -1    0    0    0  501  0.00000000000E+00  0.00000000000E+00  0.80007434594E+03  0.80007434594E+03  0.25500000920E-02 0. -1.
        2   -1    0    0  501    0  0.00000000000E+00  0.00000000000E+00 -0.80642457719E+03  0.80642457719E+03  0.25500000920E-02 0.  1.
    10030    2    1    2    0    0  0.00000000000E+00  0.00000000000E+00 -0.63502312501E+01  0.16064989231E+04  0.16064863724E+04 0.  0.
        1    1    3    3  502    0  0.23356460790E+03 -0.70734405077E+03  0.29734609002E+03  0.80206154969E+03  0.50400001928E-02 0. -1.
       -1    1    3    3    0  502 -0.23356460790E+03  0.70734405077E+03 -0.30369632127E+03  0.80443737344E+03  0.50400001928E-02 0.  1.
</event>
<event>
 5   0  0.1339162E-03  0.1595650E+04  0.7818609E-02  0.8823225E-01
       -2   -1    0    0    0  501  0.00000000000E+00  0.00000000000E+00  0.61558782491E+03  0.61558782492E+03  0.25500000920E-02 0. -1.
        2   -1    0    0  501    0  0.00000000000E+00  0.00000000000E+00 -0.10340116216E+04  0.10340116217E+04  0.25500000920E-02 0.  1.
    10030    2    1    2    0    0  0.00000000000E+00  0.00000000000E+00 -0.41842379673E+03  0.16495994466E+04  0.15956502939E+04 0.  0.
        5    1    3    3  502    0 -0.13258171404E+03 -0.29288166410E+03 -0.96406696806E+03  0.10162700374E+04  0.46999998093E+01 0.  1.
       -5    1    3    3    0  502  0.13258171404E+03  0.29288166410E+03  0.54564317133E+03  0.63332940914E+03  0.46999998093E+01 0. -1.
</event>
<event>
 5   0  0.1375777E-03  0.1542974E+04  0.7818609E-02  0.8856368E-01
       -2   -1    0    0    0  501  0.00000000000E+00  0.00000000000E+00  0.28010748573E+03  0.28010748574E+03  0.25500000920E-02 0. -1.
        2   -1    0    0  501    0  0.00000000000E+00  0.00000000000E+00 -0.21248702477E+04  0.21248702477E+04  0.25500000920E-02 0.  1.
    10030    2    1    2    0    0  0.00000000000E+00  0.00000000000E+00 -0.18447627620E+04  0.24049777334E+04  0.15429738333E+04 0.  0.
        1    1    3    3  502    0 -0.18716056756E+03  0.70417215271E+03 -0.52712999889E+03  0.89930725253E+03  0.50400001928E-02 0. -1.
       -1    1    3    3    0  502  0.18716056756E+03 -0.70417215271E+03 -0.13176327631E+04  0.15056704809E+04  0.50400001928E-02 0.  1.
</event>
<event>
 5   0  0.7601145E-04  0.1625595E+04  0.7818609E-02  0.8804976E-01
       -1   -1    0    0    0  501  0.00000000000E+00  0.00000000000E+00  0.46773101913E+03  0.46773101915E+03  0.50400001928E-02 0.  1.
        1   -1    0    0  501    0  0.00000000000E+00  0.00000000000E+00 -0.14124357395E+04  0.14124357395E+04  0.50400001928E-02 0. -1.
    10030    2    1    2    0    0  0.00000000000E+00  0.00000000000E+00 -0.94470472035E+03  0.18801667586E+04  0.16255952853E+04 0.  0.
        4    1    3    3  502    0 -0.24406720299E+03 -0.11809826676E+03  0.41388134309E+03  0.49478821656E+03  0.12699999809E+01 0.  1.
       -4    1    3    3    0  502  0.24406720299E+03  0.11809826676E+03 -0.13585860634E+04  0.13853785421E+04  0.12699999809E+01 0. -1.
</event>
<event>
 5   0  0.7499834E-04  0.1622765E+04  0.7818609E-02  0.8806683E-01
        1   -1    0    0  501    0  0.00000000000E+00  0.00000000000E+00  0.72560969333E+03  0.72560969334E+03  0.50400001928E-02 0.  1.
       -1   -1    0    0    0  501  0.00000000000E+00  0.00000000000E+00 -0.90729439972E+03  0.90729439973E+03  0.50400001928E-02 0. -1.
    10030    2    1    2    0    0  0.00000000000E+00  0.00000000000E+00 -0.18168470640E+03  0.16329040931E+04  0.16227650614E+04 0.  0.
        3    1    3    3  502    0  0.28822880227E+03 -0.56708209527E+03  0.41597476220E+03  0.76006115426E+03  0.10100000352E+00 0.  1.
       -3    1    3    3    0  502 -0.28822880227E+03  0.56708209527E+03 -0.59765946859E+03  0.87284293881E+03  0.10100000352E+00 0. -1.
</event>
<event>
 5   0  0.1375777E-03  0.1795180E+04  0.7818609E-02  0.8708867E-01
        2   -1    0    0  501    0  0.00000000000E+00  0.00000000000E+00  0.15239536241E+04  0.15239536241E+04  0.25500000920E-02 0.  1.
       -2   -1    0    0    0  501  0.00000000000E+00  0.00000000000E+00 -0.52866928145E+03  0.52866928146E+03  0.25500000920E-02 0. -1.
    10030    2    1    2    0    0  0.00000000000E+00  0.00000000000E+00  0.99528434269E+03  0.20526229056E+04  0.17951796205E+04 0.  0.
        1    1    3    3  502    0 -0.79781128035E+03  0.36184123786E+03  0.72122318211E+03  0.11347223444E+04  0.50400001928E-02 0. -1.
       -1    1    3    3    0  502  0.79781128035E+03 -0.36184123786E+03  0.27406116058E+03  0.91790056119E+03  0.50400001928E-02 0.  1.
</event>
<event>
 5   0  0.7124495E-04  0.1602969E+04  0.7818609E-02  0.8818726E-01
       -1   -1    0    0    0  501  0.00000000000E+00  0.00000000000E+00  0.28886905655E+03  0.28886905659E+03  0.50400001928E-02 0.  1.
        1   -1    0    0  501    0  0.00000000000E+00  0.00000000000E+00 -0.22237670912E+04  0.22237670912E+04  0.50400001928E-02 0. -1.
    10030    2    1    2    0    0  0.00000000000E+00  0.00000000000E+00 -0.19348980347E+04  0.25126361478E+04  0.16029691222E+04 0.  0.
        2    1    3    3  502    0  0.13722612138E+03 -0.72267956911E+03 -0.14662965932E+04  0.16404641012E+04  0.25500000920E-02 0. -1.
       -2    1    3    3    0  502 -0.13722612138E+03  0.72267956911E+03 -0.46860144147E+03  0.87217204664E+03  0.25500000920E-02 0.  1.
</event>
<event>
 5   0  0.1414751E-03  0.1537793E+04  0.7818609E-02  0.8859703E-01
       -2   -1    0    0    0  501  0.00000000000E+00  0.00000000000E+00  0.27055318446E+03  0.27055318447E+03  0.25500000920E-02 0.  1.
        2   -1    0    0  501    0  0.00000000000E+00  0.00000000000E+00 -0.21851598472E+04  0.21851598472E+04  0.25500000920E-02 0. -1.
    10030    2    1    2    0    0  0.00000000000E+00  0.00000000000E+00 -0.19146066628E+04  0.24557130317E+04  0.15377931659E+04 0.  0.
        2    1    3    3  502    0  0.33454645004E+03  0.60047396425E+03 -0.15075106365E+04  0.16568278813E+04  0.25500000920E-02 0. -1.
       -2    1    3    3    0  502 -0.33454645004E+03 -0.60047396425E+03 -0.40709602627E+03  0.79888515044E+03  0.25500000920E-02 0.  1.
</event>
<event>
 5   0  0.7601145E-04  0.1697522E+04  0.7818609E-02  0.8762779E-01
        1   -1    0    0  501    0  0.00000000000E+00  0.00000000000E+00  0.78699161031E+03  0.78699161032E+03  0.50400001928E-02 0.  1.
       -1   -1    0    0    0  501  0.00000000000E+00  0.00000000000E+00 -0.91537818556E+03  0.91537818557E+03  0.50400001928E-02 0. -1.
    10030    2    1    2    0    0  0.00000000000E+00  0.00000000000E+00 -0.12838657525E+03  0.17023697959E+04  0.16975216668E+04 0.  0.
        4    1    3    3  502    0 -0.62566579791E+02 -0.42982275140E+03  0.66708829632E+03  0.79603428476E+03  0.12699999809E+01 0.  1.
       -4    1    3    3    0  502  0.62566579791E+02  0.42982275140E+03 -0.79547487157E+03  0.90633551113E+03  0.12699999809E+01 0. -1.
</event>
<event>
 5   0  0.1339162E-03  0.1617652E+04  0.7818609E-02  0.8809777E-01
       -2   -1    0    0    0  501  0.00000000000E+00  0.00000000000E+00  0.43446049258E+03  0.43446049258E+03  0.25500000920E-02 0. -1.
        2   -1    0    0  501    0  0.00000000000E+00  0.00000000000E+00 -0.15057736426E+04  0.15057736426E+04  0.25500000920E-02 0.  1.
    10030    2    1    2    0    0  0.00000000000E+00  0.00000000000E+00 -0.10713131500E+04  0.19402341352E+04  0.16176515799E+04 0.  0.
        5    1    3    3  502    0  0.60703031055E+03 -0.73482676321E+01 -0.11766839764E+04  0.13240646001E+04  0.46999998093E+01 0.  1.
       -5    1    3    3    0  502 -0.60703031055E+03  0.73482676321E+01  0.10537082633E+03  0.61616953511E+03  0.46999998093E+01 0. -1.
</event>
<event>
 5   0  0.7601145E-04  0.1558830E+04  0.7818609E-02  0.8846247E-01
       -1   -1    0    0    0  501  0.00000000000E+00  0.00000000000E+00  0.48817537284E+03  0.48817537286E+03  0.50400001928E-02 0. -1.
        1   -1    0    0  501    0  0.00000000000E+00  0.00000000000E+00 -0.12444051419E+04  0.12444051420E+04  0.50400001928E-02 0.  1.
    10030    2    1    2    0    0  0.00000000000E+00  0.00000000000E+00 -0.75622976911E+03  0.17325805148E+04  0.15588302591E+04 0.  0.
        4    1    3    3  502    0 -0.71762630734E+02  0.60588430796E+03 -0.91719187404E+03  0.11015844119E+04  0.12699999809E+01 0.  1.
       -4    1    3    3    0  502  0.71762630734E+02 -0.60588430796E+03  0.16096210493E+03  0.63099610294E+03  0.12699999809E+01 0. -1.
</event>
<event>
 5   0  0.1375777E-03  0.1580912E+04  0.7818609E-02  0.8832361E-01
       -2   -1    0    0    0  501  0.00000000000E+00  0.00000000000E+00  0.56025535472E+03  0.56025535472E+03  0.25500000920E-02 0.  1.
        2   -1    0    0  501    0  0.00000000000E+00  0.00000000000E+00 -0.11152422289E+04  0.11152422289E+04  0.25500000920E-02 0. -1.
    10030    2    1    2    0    0  0.00000000000E+00  0.00000000000E+00 -0.55498687418E+03  0.16754975836E+04  0.15809116744E+04 0.  0.
        1    1    3    3  502    0  0.12700175493E+03 -0.77807116189E+03 -0.33834144854E+03  0.85790390752E+03  0.50400001928E-02 0. -1.
       -1    1    3    3    0  502 -0.12700175493E+03  0.77807116189E+03 -0.21664542564E+03  0.81759367610E+03  0.50400001928E-02 0.  1.
</event>
<event>
 5   0  0.7124495E-04  0.1621543E+04  0.7818609E-02  0.8807422E-01
       -1   -1    0    0    0  501  0.00000000000E+00  0.00000000000E+00  0.82442559586E+03  0.82442559588E+03  0.50400001928E-02 0.  1.
        1   -1    0    0  501    0  0.00000000000E+00  0.00000000000E+00 -0.79734318016E+03  0.79734318017E+03  0.50400001928E-02 0. -1.
    10030    2    1    2    0    0  0.00000000000E+00  0.00000000000E+00  0.27082415708E+02  0.16217687761E+04  0.16215426315E+04 0.  0.
        2    1    3    3  502    0  0.65295232924E+02 -0.75214352549E+03 -0.28207872812E+03  0.80594773977E+03  0.25500000920E-02 0. -1.
       -2    1    3    3    0  502 -0.65295232924E+02  0.75214352549E+03  0.30916114383E+03  0.81582103628E+03  0.25500000920E-02 0.  1.
</event>
<event>
 5   0  0.7124495E-04  0.1599848E+04  0.7818609E-02  0.8820642E-01
        1   -1    0    0  501    0  0.00000000000E+00  0.00000000000E+00  0.13754680610E+04  0.13754680610E+04  0.50400001928E-02 0.  1.
       -1   -1    0    0    0  501  0.00000000000E+00  0.00000000000E+00 -0.46520749821E+03  0.46520749823E+03  0.50400001928E-02 0. -1.
    10030    2    1    2    0    0  0.00000000000E+00  0.00000000000E+00  0.91026056279E+03  0.18406755592E+04  0.15998475622E+04 0.  0.
        2    1    3    3  502    0  0.16586309622E+03 -0.18404735142E+03 -0.41995039602E+03  0.48758827854E+03  0.25500000920E-02 0. -1.
       -2    1    3    3    0  502 -0.16586309622E+03  0.18404735142E+03  0.13302109588E+04  0.13530872807E+04  0.25500000920E-02 0.  1.
</event>
<event>
 5   0  0.7302027E-04  0.1605524E+04  0.7818609E-02  0.8817161E-01
        1   -1    0    0  501    0  0.00000000000E+00  0.00000000000E+00  0.27300394540E+04  0.27300394541E+04  0.50400001928E-02 0.  1.
       -1   -1    0    0    0  501  0.00000000000E+00  0.00000000000E+00 -0.23605042789E+03  0.23605042794E+03  0.50400001928E-02 0. -1.
    10030    2    1    2    0    0  0.00000000000E+00  0.00000000000E+00  0.24939890262E+04  0.29660898820E+04  0.16055241902E+04 0.  0.
        5    1    3    3  502    0 -0.63972000988E+02  0.34452817512E+03  0.25812579300E+04  0.26049388998E+04  0.46999998093E+01 0.  1.
       -5    1    3    3    0  502  0.63972000988E+02 -0.34452817512E+03 -0.87268903862E+02  0.36115098219E+03  0.46999998093E+01 0. -1.
</event>
<event>
 5   0  0.7302027E-04  0.1586453E+04  0.7818609E-02  0.8828914E-01
        1   -1    0    0  501    0  0.00000000000E+00  0.00000000000E+00  0.35570277715E+03  0.35570277719E+03  0.50400001928E-02 0. -1.
       -1   -1    0    0    0  501  0.00000000000E+00  0.00000000000E+00 -0.17689159066E+04  0.17689159066E+04  0.50400001928E-02 0.  1.
    10030    2    1    2    0    0  0.00000000000E+00  0.00000000000E+00 -0.14132131295E+04  0.21246186838E+04  0.15864530256E+04 0.  0.
        5    1    3    3  502    0 -0.35320550237E+03 -0.63671462050E+02  0.24072693446E+03  0.43218020427E+03  0.46999998093E+01 0. -1.
       -5    1    3    3    0  502  0.35320550237E+03  0.63671462050E+02 -0.16539400639E+04  0.16924384796E+04  0.46999998093E+01 0.  1.
</event>
<event>
 5   0  0.7601145E-04  0.1566634E+04  0.7818609E-02  0.8841312E-01
       -1   -1    0    0    0  501  0.00000000000E+00  0.00000000000E+00  0.50192531418E+03  0.50192531420E+03  0.50400001928E-02 0.  1.
        1   -1    0    0  501    0  0.00000000000E+00  0.00000000000E+00 -0.12224637730E+04  0.12224637730E+04  0.50400001928E-02 0. -1.
    10030    2    1    2    0    0  0.00000000000E+00  0.00000000000E+00 -0.72053845883E+03  0.17243890872E+04  0.15666339884E+04 0.  0.
        4    1    3    3  502    0 -0.77768313053E+02 -0.70117172272E+02 -0.12147245093E+04  0.12192299106E+04  0.12699999809E+01 0. -1.
       -4    1    3    3    0  502  0.77768313053E+02  0.70117172272E+02  0.49418605049E+03  0.50515917666E+03  0.12699999809E+01 0.  1.
</event>
<event>
 5   0  0.1414796E-03  0.1641287E+04  0.7818609E-02  0.8795578E-01
       -2   -1    0    0    0  501  0.00000000000E+00  0.00000000000E+00  0.74314944166E+03  0.74314944166E+03  0.25500000920E-02 0.  1.
        2   -1    0    0  501    0  0.00000000000E+00  0.00000000000E+00 -0.90621883498E+03  0.90621883498E+03  0.25500000920E-02 0. -1.
    10030    2    1    2    0    0  0.00000000000E+00  0.00000000000E+00 -0.16306939332E+03  0.16493682766E+04  0.16412873255E+04 0.  0.
        4    1    3    3  502    0  0.28458085355E+03  0.76864404749E+03 -0.12241019369E+03  0.82872540830E+03  0.12699999809E+01 0. -1.
       -4    1    3    3    0  502 -0.28458085355E+03 -0.76864404749E+03 -0.40659199629E+02  0.82064286834E+03  0.12699999809E+01 0.  1.
</event>
<event>
 5   0  0.1375777E-03  0.1611105E+04  0.7818609E-02  0.8813755E-01
       -2   -1    0    0    0  501  0.00000000000E+00  0.00000000000E+00  0.82602320170E+03  0.82602320170E+03  0.25500000920E-02 0. -1.
        2   -1    0    0  501    0  0.00000000000E+00  0.00000000000E+00 -0.78558936299E+03  0.78558936300E+03  0.25500000920E-02 0.  1.
    10030    2    1    2    0    0  0.00000000000E+00  0.00000000000E+00  0.40433838706E+02  0.16116125647E+04  0.16111052614E+04 0.  0.
        1    1    3    3  502    0  0.68589971633E+03 -0.32060420168E+03  0.29538455344E+03  0.81270997867E+03  0.50400001928E-02 0. -1.
       -1    1    3    3    0  502 -0.68589971633E+03  0.32060420168E+03 -0.25495071474E+03  0.79890258603E+03  0.50400001928E-02 0.  1.
</event>
<event>
 5   0  0.1339162E-03  0.1317381E+04  0.7818609E-02  0.9015894E-01
        2   -1    0    0  501    0  0.00000000000E+00  0.00000000000E+00  0.11262274417E+04  0.11262274417E+04  0.25500000920E-02 0.  1.
       -2   -1    0    0    0  501  0.00000000000E+00  0.00000000000E+00 -0.38524461188E+03  0.38524461189E+03  0.25500000920E-02 0. -1.
    10030    2    1    2    0    0  0.00000000000E+00  0.00000000000E+00  0.74098282984E+03  0.15114720536E+04  0.13173808161E+04 0.  0.
        5    1    3    3  502    0  0.20127843922E+03 -0.60619064323E+03  0.18594984966E+03  0.66526651999E+03  0.46999998093E+01 0. -1.
       -5    1    3    3    0  502 -0.20127843922E+03  0.60619064323E+03  0.55503298018E+03  0.84620553361E+03  0.46999998093E+01 0.  1.
</event>
<event>
 5   0  0.1414751E-03  0.1618235E+04  0.7818609E-02  0.8809423E-01
        2   -1    0    0  501    0  0.00000000000E+00  0.00000000000E+00  0.13280476436E+04  0.13280476436E+04  0.25500000920E-02 0.  1.
       -2   -1    0    0    0  501  0.00000000000E+00  0.00000000000E+00 -0.49295751933E+03  0.49295751933E+03  0.25500000920E-02 0. -1.
    10030    2    1    2    0    0  0.00000000000E+00  0.00000000000E+00  0.83509012424E+03  0.18210051629E+04  0.16182349297E+04 0.  0.
        2    1    3    3  502    0 -0.47118346762E+03 -0.64953968467E+03  0.53424834876E+03  0.96402124473E+03  0.25500000920E-02 0. -1.
       -2    1    3    3    0  502  0.47118346762E+03  0.64953968467E+03  0.30084177547E+03  0.85698391817E+03  0.25500000920E-02 0.  1.
</event>
<event>
 5   0  0.7124495E-04  0.1578157E+04  0.7818609E-02  0.8834081E-01
       -1   -1    0    0    0  501  0.00000000000E+00  0.00000000000E+00  0.46253699041E+03  0.46253699044E+03  0.50400001928E-02 0.  1.
        1   -1    0    0  501    0  0.00000000000E+00  0.00000000000E+00 -0.13461509895E+04  0.13461509895E+04  0.50400001928E-02 0. -1.
    10030    2    1    2    0    0  0.00000000000E+00  0.00000000000E+00 -0.88361399904E+03  0.18086879799E+04  0.15781566809E+04 0.  0.
        2    1    3    3  502    0  0.55203475252E+03  0.17296809780E+02  0.20407902381E+03  0.58880369868E+03  0.25500000920E-02 0.  1.
       -2    1    3    3    0  502 -0.55203475252E+03 -0.17296809780E+02 -0.10876930228E+04  0.12198842812E+04  0.25500000920E-02 0. -1.
</event>
<event>
 5   0  0.7633213E-04  0.1594107E+04  0.7818609E-02  0.8824176E-01
        1   -1    0    0  501    0  0.00000000000E+00  0.00000000000E+00  0.13855824663E+04  0.13855824663E+04  0.50400001928E-02 0.  1.
       -1   -1    0    0    0  501  0.00000000000E+00  0.00000000000E+00 -0.45850356859E+03  0.45850356862E+03  0.50400001928E-02 0. -1.
    10030    2    1    2    0    0  0.00000000000E+00  0.00000000000E+00  0.92707889774E+03  0.18440860350E+04  0.15941072805E+04 0.  0.
        1    1    3    3  502    0  0.45011481485E+02  0.64536538338E+03 -0.75059150715E+02  0.65127289799E+03  0.50400001928E-02 0. -1.
       -1    1    3    3    0  502 -0.45011481485E+02 -0.64536538338E+03  0.10021380485E+04  0.11928131370E+04  0.50400001928E-02 0.  1.
</event>
<event>
 5   0  0.1339162E-03  0.1544167E+04  0.7818609E-02  0.8855602E-01
       -2   -1    0    0    0  501  0.00000000000E+00  0.00000000000E+00  0.43279140937E+03  0.43279140938E+03  0.25500000920E-02 0. -1.
        2   -1    0    0  501    0  0.00000000000E+00  0.00000000000E+00 -0.13773676870E+04  0.13773676870E+04  0.25500000920E-02 0.  1.
    10030    2    1    2    0    0  0.00000000000E+00  0.00000000000E+00 -0.94457627759E+03  0.18101590963E+04  0.15441669631E+04 0.  0.
        5    1    3    3  502    0  0.13473929136E+03  0.51607403789E+01 -0.13634414153E+04  0.13701006872E+04  0.46999998093E+01 0.  1.
       -5    1    3    3    0  502 -0.13473929136E+03 -0.51607403789E+01  0.41886513775E+03  0.44005840919E+03  0.46999998093E+01 0. -1.
</event>
<event>
 5   0  0.1375777E-03  0.1589079E+04  0.7818609E-02  0.8827286E-01
       -2   -1    0    0    0  501  0.00000000000E+00  0.00000000000E+00  0.71981396957E+03  0.71981396957E+03  0.25500000920E-02 0.  1.
        2   -1    0    0  501    0  0.00000000000E+00  0.00000000000E+00 -0.87702202491E+03  0.87702202491E+03  0.25500000920E-02 0. -1.
    10030    2    1    2    0    0  0.00000000000E+00  0.00000000000E+00 -0.15720805534E+03  0.15968359945E+04  0.15890786074E+04 0.  0.
        1    1    3    3  502    0 -0.75876394508E+03  0.15219676680E+03  0.10229177231E+03  0.78060885652E+03  0.50400001928E-02 0.  1.
       -1    1    3    3    0  502  0.75876394508E+03 -0.15219676680E+03 -0.25949982765E+03  0.81622713796E+03  0.50400001928E-02 0. -1.
</event>
<event>
 5   0  0.7302027E-04  0.1686776E+04  0.7818609E-02  0.8768942E-01
       -1   -1    0    0    0  501  0.00000000000E+00  0.00000000000E+00  0.49782026320E+03  0.49782026323E+03  0.50400001928E-02 0. -1.
        1   -1    0    0  501    0  0.00000000000E+00  0.00000000000E+00 -0.14288360803E+04  0.14288360804E+04  0.50400001928E-02 0.  1.
    10030    2    1    2    0    0  0.00000000000E+00  0.00000000000E+00 -0.93101581714E+03  0.19266563436E+04  0.16867762787E+04 0.  0.
        5    1    3    3  502    0  0.28039837248E+03  0.65957337281E+03 -0.97327379308E+03  0.12086952667E+04  0.46999998093E+01 0. -1.
       -5    1    3    3    0  502 -0.28039837248E+03 -0.65957337281E+03  0.42257975931E+02  0.71796107690E+03  0.46999998093E+01 0.  1.
</event>
<event>
 5   0  0.7499834E-04  0.1631394E+04  0.7818609E-02  0.8801490E-01
        1   -1    0    0  501    0  0.00000000000E+00  0.00000000000E+00  0.74693291557E+03  0.74693291558E+03  0.50400001928E-02 0. -1.
       -1   -1    0    0    0  501  0.00000000000E+00  0.00000000000E+00 -0.89079133744E+03  0.89079133745E+03  0.50400001928E-02 0.  1.
    10030    2    1    2    0    0  0.00000000000E+00  0.00000000000E+00 -0.14385842187E+03  0.16377242530E+04  0.16313937242E+04 0.  0.
        3    1    3    3  502    0 -0.57173129534E+03  0.45168218370E+03  0.29619238044E+03  0.78652616331E+03  0.10100000352E+00 0. -1.
       -3    1    3    3    0  502  0.57173129534E+03 -0.45168218370E+03 -0.44005080231E+03  0.85119808973E+03  0.10100000352E+00 0.  1.
</event>
<event>
 5   0  0.1339162E-03  0.1691842E+04  0.7818609E-02  0.8766031E-01
        2   -1    0    0  501    0  0.00000000000E+00  0.00000000000E+00  0.54374970785E+03  0.54374970785E+03  0.25500000920E-02 0. -1.
       -2   -1    0    0    0  501  0.00000000000E+00  0.00000000000E+00 -0.13160137726E+04  0.13160137726E+04  0.25500000920E-02 0.  1.
    10030    2    1    2    0    0  0.00000000000E+00  0.00000000000E+00 -0.77226406473E+03  0.18597634804E+04  0.16918417235E+04 0.  0.
        5    1    3    3  502    0 -0.39434931663E+03 -0.26487471009E+03  0.38325928285E+03  0.61039312206E+03  0.46999998093E+01 0. -1.
       -5    1    3    3    0  502  0.39434931663E+03  0.26487471009E+03 -0.11555233476E+04  0.12493703584E+04  0.46999998093E+01 0.  1.
</event>
<event>
 5   0  0.7499834E-04  0.1588268E+04  0.7818609E-02  0.8827788E-01
        1   -1    0    0  501    0  0.00000000000E+00  0.00000000000E+00  0.32270434672E+03  0.32270434676E+03  0.50400001928E-02 0. -1.
       -1   -1    0    0    0  501  0.00000000000E+00  0.00000000000E+00 -0.19542618321E+04  0.19542618322E+04  0.50400001928E-02 0.  1.
    10030    2    1    2    0    0  0.00000000000E+00  0.00000000000E+00 -0.16315574854E+04  0.22769661789E+04  0.15882679722E+04 0.  0.
        3    1    3    3  502    0 -0.33915234747E+03  0.21820943883E+03 -0.17965324355E+04  0.18412410152E+04  0.10100000352E+00 0.  1.
       -3    1    3    3    0  502  0.33915234747E+03 -0.21820943883E+03  0.16497495004E+03  0.43572516375E+03  0.10100000352E+00 0. -1.
</event>
<event>
 5   0  0.1339162E-03  0.1620018E+04  0.7818609E-02  0.8808343E-01
       -2   -1    0    0    0  501  0.00000000000E+00  0.00000000000E+00  0.12650531200E+04  0.12650531200E+04  0.25500000920E-02 0.  1.
        2   -1    0    0  501    0  0.00000000000E+00  0.00000000000E+00 -0.51864618874E+03  0.51864618875E+03  0.25500000920E-02 0. -1.
    10030    2    1    2    0    0  0.00000000000E+00  0.00000000000E+00  0.74640693127E+03  0.17836993088E+04  0.16200184928E+04 0.  0.
        5    1    3    3  502    0 -0.48990776805E+03 -0.60849445410E+03  0.13752568847E+03  0.79322791608E+03  0.46999998093E+01 0.  1.
       -5    1    3    3    0  502  0.48990776805E+03  0.60849445410E+03  0.60888124280E+03  0.99047139267E+03  0.46999998093E+01 0. -1.
</event>
<event>
 5   0  0.7124495E-04  0.1575823E+04  0.7818609E-02  0.8835540E-01
       -1   -1    0    0    0  501  0.00000000000E+00  0.00000000000E+00  0.43009405012E+03  0.43009405015E+03  0.50400001928E-02 0.  1.
        1   -1    0    0  501    0  0.00000000000E+00  0.00000000000E+00 -0.14434152976E+04  0.14434152976E+04  0.50400001928E-02 0. -1.
    10030    2    1    2    0    0  0.00000000000E+00  0.00000000000E+00 -0.10133212475E+04  0.18735093478E+04  0.15758227456E+04 0.  0.
        2    1    3    3  502    0 -0.72247410037E+02 -0.38154106706E+03  0.30842369333E+03  0.49590165227E+03  0.25500000920E-02 0.  1.
       -2    1    3    3    0  502  0.72247410037E+02  0.38154106706E+03 -0.13217449408E+04  0.13776076955E+04  0.25500000920E-02 0. -1.
</event>
<event>
 5   0  0.1375777E-03  0.1526050E+04  0.7818609E-02  0.8867312E-01
       -2   -1    0    0    0  501  0.00000000000E+00  0.00000000000E+00  0.60090381440E+03  0.60090381440E+03  0.25500000920E-02 0. -1.
        2   -1    0    0  501    0  0.00000000000E+00  0.00000000000E+00 -0.96888593187E+03  0.96888593187E+03  0.25500000920E-02 0.  1.
    10030    2    1    2    0    0  0.00000000000E+00  0.00000000000E+00 -0.36798211747E+03  0.15697897463E+04  0.15260501331E+04 0.  0.
        1    1    3    3  502    0 -0.21168183692E+03 -0.56804821441E+03  0.29266838975E+03  0.67315879282E+03  0.50400001928E-02 0. -1.
       -1    1    3    3    0  502  0.21168183692E+03  0.56804821441E+03 -0.66065050722E+03  0.89663095345E+03  0.50400001928E-02 0.  1.
</event>
<event>
 5   0  0.7124495E-04  0.1620619E+04  0.7818609E-02  0.8807980E-01
        1   -1    0    0  501    0  0.00000000000E+00  0.00000000000E+00  0.13413984397E+04  0.13413984397E+04  0.50400001928E-02 0.  1.
       -1   -1    0    0    0  501  0.00000000000E+00  0.00000000000E+00 -0.48949028188E+03  0.48949028190E+03  0.50400001928E-02 0. -1.
    10030    2    1    2    0    0  0.00000000000E+00  0.00000000000E+00  0.85190815785E+03  0.18308887216E+04  0.16206190180E+04 0.  0.
        2    1    3    3  502    0 -0.63116776456E+03 -0.49394409411E+03  0.56080618923E+03  0.97819072630E+03  0.25500000920E-02 0.  1.
       -2    1    3    3    0  502  0.63116776456E+03  0.49394409411E+03  0.29110196861E+03  0.85269799534E+03  0.25500000920E-02 0. -1.
</event>
<event>
 5   0  0.1414796E-03  0.1596659E+04  0.7818609E-02  0.8822603E-01
       -2   -1    0    0    0  501  0.00000000000E+00  0.00000000000E+00  0.13553213843E+04  0.13553213843E+04  0.25500000920E-02 0. -1.
        2   -1    0    0  501    0  0.00000000000E+00  0.00000000000E+00 -0.47024262973E+03  0.47024262974E+03  0.25500000920E-02 0.  1.
    10030    2    1    2    0    0  0.00000000000E+00  0.00000000000E+00  0.88507875456E+03  0.18255640140E+04  0.15966588764E+04 0.  0.
        4    1    3    3  502    0  0.33398284217E+03 -0.69661571275E+03  0.67266638821E+03  0.10243532949E+04  0.12699999809E+01 0. -1.
       -4    1    3    3    0  502 -0.33398284217E+03  0.69661571275E+03  0.21241236634E+03  0.80121071909E+03  0.12699999809E+01 0.  1.
</event>
<event>
 5   0  0.7601145E-04  0.1596119E+04  0.7818609E-02  0.8822936E-01
       -1   -1    0    0    0  501  0.00000000000E+00  0.00000000000E+00  0.38568776551E+03  0.38568776554E+03  0.50400001928E-02 0. -1.
        1   -1    0    0  501    0  0.00000000000E+00  0.00000000000E+00 -0.16513322501E+04  0.16513322501E+04  0.50400001928E-02 0.  1.
    10030    2    1    2    0    0  0.00000000000E+00  0.00000000000E+00 -0.12656444845E+04  0.20370200156E+04  0.15961185992E+04 0.  0.
        4    1    3    3  502    0 -0.19463111050E+03  0.34766005134E+03  0.24967107298E+03  0.47019787118E+03  0.12699999809E+01 0. -1.
       -4    1    3    3    0  502  0.19463111050E+03 -0.34766005134E+03 -0.15153155575E+04  0.15668221444E+04  0.12699999809E+01 0.  1.
</event>
<event>
 5   0  0.5095750E-04  0.1593681E+04  0.7818609E-02  0.8824439E-01
        4   -1    0    0  501    0  0.00000000000E+00  0.00000000000E+00  0.10244549860E+04  0.10244557732E+04  0.12699999809E+01 0.  1.
       -4   -1    0    0    0  501  0.00000000000E+00  0.00000000000E+00 -0.61979605123E+03  0.61979735238E+03  0.12699999809E+01 0. -1.
    10030    2    1    2    0    0  0.00000000000E+00  0.00000000000E+00  0.40465893474E+03  0.16442531256E+04  0.15936811122E+04 0.  0.
        5    1    3    3  502    0  0.73433249459E+03  0.16293486394E+03 -0.68960946851E+02  0.75536063220E+03  0.46999998093E+01 0. -1.
       -5    1    3    3    0  502 -0.73433249459E+03 -0.16293486394E+03  0.47361988159E+03  0.88889249335E+03  0.46999998093E+01 0.  1.
</event>
<event>
 5   0  0.7302027E-04  0.1439823E+04  0.7818609E-02  0.8925486E-01
        1   -1    0    0  501    0  0.00000000000E+00  0.00000000000E+00  0.62567187275E+03  0.62567187277E+03  0.50400001928E-02 0. -1.
       -1   -1    0    0    0  501  0.00000000000E+00  0.00000000000E+00 -0.82834582169E+03  0.82834582170E+03  0.50400001928E-02 0.  1.
    10030    2    1    2    0    0  0.00000000000E+00  0.00000000000E+00 -0.20267394894E+03  0.14540176945E+04  0.14398231580E+04 0.  0.
        5    1    3    3  502    0 -0.40767602857E+03  0.32691232632E+03 -0.60137419183E+03  0.79670849246E+03  0.46999998093E+01 0.  1.
       -5    1    3    3    0  502  0.40767602857E+03 -0.32691232632E+03  0.39870024289E+03  0.65730920201E+03  0.46999998093E+01 0. -1.
</event>
<event>
 5   0  0.7124495E-04  0.1614121E+04  0.7818609E-02  0.8811919E-01
        1   -1    0    0  501    0  0.00000000000E+00  0.00000000000E+00  0.94459311779E+03  0.94459311781E+03  0.50400001928E-02 0. -1.
       -1   -1    0    0    0  501  0.00000000000E+00  0.00000000000E+00 -0.68955285896E+03  0.68955285898E+03  0.50400001928E-02 0.  1.
    10030    2    1    2    0    0  0.00000000000E+00  0.00000000000E+00  0.25504025884E+03  0.16341459768E+04  0.16141212903E+04 0.  0.
        2    1    3    3  502    0  0.46915695277E+03 -0.30317671597E+03  0.71726072411E+03  0.90911347685E+03  0.25500000920E-02 0. -1.
       -2    1    3    3    0  502 -0.46915695277E+03  0.30317671597E+03 -0.46222046527E+03  0.72503249993E+03  0.25500000920E-02 0.  1.
</event>
<event>
 5   0  0.7499834E-04  0.1507342E+04  0.7818609E-02  0.8879585E-01
       -1   -1    0    0    0  501  0.00000000000E+00  0.00000000000E+00  0.14638367605E+04  0.14638367605E+04  0.50400001928E-02 0. -1.
        1   -1    0    0  501    0  0.00000000000E+00  0.00000000000E+00 -0.38803493799E+03  0.38803493802E+03  0.50400001928E-02 0.  1.
    10030    2    1    2    0    0  0.00000000000E+00  0.00000000000E+00  0.10758018225E+04  0.18518716985E+04  0.15073417750E+04 0.  0.
        3    1    3    3  502    0 -0.62769330278E+03 -0.24385440919E+02  0.10495316085E+04  0.12231558117E+04  0.10100000352E+00 0. -1.
       -3    1    3    3    0  502  0.62769330278E+03  0.24385440919E+02  0.26270214005E+02  0.62871588689E+03  0.10100000352E+00 0.  1.
</event>
<event>
 5   0  0.7302027E-04  0.1592278E+04  0.7818609E-02  0.8825306E-01
        1   -1    0    0  501    0  0.00000000000E+00  0.00000000000E+00  0.17444391056E+04  0.17444391056E+04  0.50400001928E-02 0.  1.
       -1   -1    0    0    0  501  0.00000000000E+00  0.00000000000E+00 -0.36334737523E+03  0.36334737526E+03  0.50400001928E-02 0. -1.
    10030    2    1    2    0    0  0.00000000000E+00  0.00000000000E+00  0.13810917304E+04  0.21077864809E+04  0.15922780791E+04 0.  0.
        5    1    3    3  502    0 -0.19804388167E+03 -0.40881218072E+02  0.17098568644E+04  0.17217796722E+04  0.46999998093E+01 0.  1.
       -5    1    3    3    0  502  0.19804388167E+03  0.40881218072E+02 -0.32876513395E+03  0.38600680869E+03  0.46999998093E+01 0. -1.
</event>
<event>
 5   0  0.7302027E-04  0.1618210E+04  0.7818609E-02  0.8809438E-01
        1   -1    0    0  501    0  0.00000000000E+00  0.00000000000E+00  0.97371631197E+03  0.97371631198E+03  0.50400001928E-02 0. -1.
       -1   -1    0    0    0  501  0.00000000000E+00  0.00000000000E+00 -0.67232217389E+03  0.67232217391E+03  0.50400001928E-02 0.  1.
    10030    2    1    2    0    0  0.00000000000E+00  0.00000000000E+00  0.30139413808E+03  0.16460384859E+04  0.16182102059E+04 0.  0.
        5    1    3    3  502    0  0.62029470910E+03  0.21159308046E+03 -0.33190025056E+03  0.73465435693E+03  0.46999998093E+01 0.  1.
       -5    1    3    3    0  502 -0.62029470910E+03 -0.21159308046E+03  0.63329438864E+03  0.91138412896E+03  0.46999998093E+01 0. -1.
</event>
<event>
 5   0  0.7302027E-04  0.1570472E+04  0.7818609E-02  0.8838896E-01
       -1   -1    0    0    0  501  0.00000000000E+00  0.00000000000E+00  0.45190100992E+03  0.45190100994E+03  0.50400001928E-02 0. -1.
        1   -1    0    0  501    0  0.00000000000E+00  0.00000000000E+00 -0.13644480538E+04  0.13644480538E+04  0.50400001928E-02 0.  1.
    10030    2    1    2    0    0  0.00000000000E+00  0.00000000000E+00 -0.91254704386E+03  0.18163490637E+04  0.15704718444E+04 0.  0.
        5    1    3    3  502    0 -0.33244154003E+03  0.73816062452E+02 -0.12745832132E+04  0.13192993011E+04  0.46999998093E+01 0.  1.
       -5    1    3    3    0  502  0.33244154003E+03 -0.73816062452E+02  0.36203616933E+03  0.49704976261E+03  0.46999998093E+01 0. -1.
</event>
<event>
 5   0  0.1414796E-03  0.1602786E+04  0.7818609E-02  0.8818839E-01
       -2   -1    0    0    0  501  0.00000000000E+00  0.00000000000E+00  0.12057517108E+04  0.12057517108E+04  0.25500000920E-02 0.  1.
        2   -1    0    0  501    0  0.00000000000E+00  0.00000000000E+00 -0.53263899194E+03  0.53263899195E+03  0.25500000920E-02 0. -1.
    10030    2    1    2    0    0  0.00000000000E+00  0.00000000000E+00  0.67311271891E+03  0.17383907028E+04  0.16027855450E+04 0.  0.
        4    1    3    3  502    0 -0.56361765463E+03 -0.52799858289E+03  0.56862502363E+03  0.95905338462E+03  0.12699999809E+01 0.  1.
       -4    1    3    3    0  502  0.56361765463E+03  0.52799858289E+03  0.10448769528E+03  0.77933731818E+03  0.12699999809E+01 0. -1.
</event>
<event>
 5   0  0.7601145E-04  0.1615904E+04  0.7818609E-02  0.8810837E-01
       -1   -1    0    0    0  501  0.00000000000E+00  0.00000000000E+00  0.60400505615E+03  0.60400505617E+03  0.50400001928E-02 0.  1.
        1   -1    0    0  501    0  0.00000000000E+00  0.00000000000E+00 -0.10807633311E+04  0.10807633311E+04  0.50400001928E-02 0. -1.
    10030    2    1    2    0    0  0.00000000000E+00  0.00000000000E+00 -0.47675827498E+03  0.16847683873E+04  0.16159041018E+04 0.  0.
        4    1    3    3  502    0 -0.10540032971E+03 -0.29836329833E+03  0.53671005217E+03  0.62304829692E+03  0.12699999809E+01 0.  1.
       -4    1    3    3    0  502  0.10540032971E+03  0.29836329833E+03 -0.10134683271E+04  0.10617200904E+04  0.12699999809E+01 0. -1.
</event>
<event>
 5   0  0.1354766E-03  0.1706235E+04  0.7818609E-02  0.8757816E-01
       -2   -1    0    0    0  501  0.00000000000E+00  0.00000000000E+00  0.51017543975E+03  0.51017543975E+03  0.25500000920E-02 0.  1.
        2   -1    0    0  501    0  0.00000000000E+00  0.00000000000E+00 -0.14265873258E+04  0.14265873258E+04  0.25500000920E-02 0. -1.
    10030    2    1    2    0    0  0.00000000000E+00  0.00000000000E+00 -0.91641188605E+03  0.19367627656E+04  0.17062354073E+04 0.  0.
        3    1    3    3  502    0 -0.34473806318E+03  0.25242029135E+03  0.37996982932E+03  0.57178441487E+03  0.10100000352E+00 0.  1.
       -3    1    3    3    0  502  0.34473806318E+03 -0.25242029135E+03 -0.12963817154E+04  0.13649783507E+04  0.10100000352E+00 0. -1.
</event>
<event>
 5   0  0.1375777E-03  0.1275923E+04  0.7818609E-02  0.9048879E-01
       -2   -1    0    0    0  501  0.00000000000E+00  0.00000000000E+00  0.62783430535E+03  0.62783430535E+03  0.25500000920E-02 0.  1.
        2   -1    0    0  501    0  0.00000000000E+00  0.00000000000E+00 -0.64825210836E+03  0.64825210837E+03  0.25500000920E-02 0. -1.
    10030    2    1    2    0    0  0.00000000000E+00  0.00000000000E+00 -0.20417803014E+02  0.12760864137E+04  0.12759230575E+04 0.  0.
        1    1    3    3  502    0 -0.18576762943E+03  0.11028706209E+03 -0.61055408037E+03  0.64764892750E+03  0.50400001928E-02 0. -1.
       -1    1    3    3    0  502  0.18576762943E+03 -0.11028706209E+03  0.59013627736E+03  0.62843748622E+03  0.50400001928E-02 0.  1.
</event>
<event>
 5   0  0.7601145E-04  0.1615497E+04  0.7818609E-02  0.8811084E-01
       -1   -1    0    0    0  501  0.00000000000E+00  0.00000000000E+00  0.59060878485E+03  0.59060878487E+03  0.50400001928E-02 0. -1.
        1   -1    0    0  501    0  0.00000000000E+00  0.00000000000E+00 -0.11047206852E+04  0.11047206852E+04  0.50400001928E-02 0.  1.
    10030    2    1    2    0    0  0.00000000000E+00  0.00000000000E+00 -0.51411190033E+03  0.16953294701E+04  0.16154971266E+04 0.  0.
        4    1    3    3  502    0 -0.43710443517E+03  0.35036798272E+03  0.35362706687E+03  0.66247394355E+03  0.12699999809E+01 0. -1.
       -4    1    3    3    0  502  0.43710443517E+03 -0.35036798272E+03 -0.86773896720E+03  0.10328555265E+04  0.12699999809E+01 0.  1.
</event>
<event>
 5   0  0.1375777E-03  0.1621107E+04  0.7818609E-02  0.8807685E-01
        2   -1    0    0  501    0  0.00000000000E+00  0.00000000000E+00  0.18777060306E+04  0.18777060306E+04  0.25500000920E-02 0.  1.
       -2   -1    0    0    0  501  0.00000000000E+00  0.00000000000E+00 -0.34989321663E+03  0.34989321664E+03  0.25500000920E-02 0. -1.
    10030    2    1    2    0    0  0.00000000000E+00  0.00000000000E+00  0.15278128139E+04  0.22275992472E+04  0.16211065393E+04 0.  0.
        1    1    3    3  502    0 -0.29525480597E+03  0.65477984446E+03  0.12800437067E+04  0.14677956044E+04  0.50400001928E-02 0.  1.
       -1    1    3    3    0  502  0.29525480597E+03 -0.65477984446E+03  0.24776910726E+03  0.75980364285E+03  0.50400001928E-02 0. -1.
</event>
<event>
 5   0  0.1354766E-03  0.1624856E+04  0.7818609E-02  0.8805422E-01
       -2   -1    0    0    0  501  0.00000000000E+00  0.00000000000E+00  0.36498548011E+03  0.36498548012E+03  0.25500000920E-02 0.  1.
        2   -1    0    0  501    0  0.00000000000E+00  0.00000000000E+00 -0.18083991775E+04  0.18083991775E+04  0.25500000920E-02 0. -1.
    10030    2    1    2    0    0  0.00000000000E+00  0.00000000000E+00 -0.14434136974E+04  0.21733846577E+04  0.16248562300E+04 0.  0.
        3    1    3    3  502    0 -0.67193253454E+03 -0.41313263471E+03 -0.98199543766E+03  0.12595582379E+04  0.10100000352E+00 0.  1.
       -3    1    3    3    0  502  0.67193253454E+03  0.41313263471E+03 -0.46141825978E+03  0.91382641978E+03  0.10100000352E+00 0. -1.
</event>
<event>
 5   0  0.7124495E-04  0.1599097E+04  0.7818609E-02  0.8821103E-01
       -1   -1    0    0    0  501  0.00000000000E+00  0.00000000000E+00  0.68978101959E+03  0.68978101961E+03  0.50400001928E-02 0.  1.
        1   -1    0    0  501    0  0.00000000000E+00  0.00000000000E+00 -0.92678335027E+03  0.92678335028E+03  0.50400001928E-02 0. -1.
    10030    2    1    2    0    0  0.00000000000E+00  0.00000000000E+00 -0.23700233068E+03  0.16165643699E+04  0.15990967004E+04 0.  0.
        2    1    3    3  502    0 -0.42004434832E+03 -0.18816160886E+03  0.54242596459E+03  0.71138454627E+03  0.25500000920E-02 0.  1.
       -2    1    3    3    0  502  0.42004434832E+03  0.18816160886E+03 -0.77942829527E+03  0.90517982361E+03  0.25500000920E-02 0. -1.
</event>
<event>
 5   0  0.1354766E-03  0.1587173E+04  0.7818609E-02  0.8828467E-01
       -2   -1    0    0    0  501  0.00000000000E+00  0.00000000000E+00  0.27806008789E+03  0.27806008790E+03  0.25500000920E-02 0. -1.
        2   -1    0    0  501    0  0.00000000000E+00  0.00000000000E+00 -0.22649057064E+04  0.22649057064E+04  0.25500000920E-02 0.  1.
    10030    2    1    2    0    0  0.00000000000E+00  0.00000000000E+00 -0.19868456185E+04  0.25429657943E+04  0.15871734370E+04 0.  0.
        3    1    3    3  502    0  0.23891875898E+03  0.66681943291E+03 -0.42009218053E+03  0.82353371506E+03  0.10100000352E+00 0. -1.
       -3    1    3    3    0  502 -0.23891875898E+03 -0.66681943291E+03 -0.15667534380E+04  0.17194320792E+04  0.10100000352E+00 0.  1.
</event>
<event>
 5   0  0.7601145E-04  0.1599479E+04  0.7818609E-02  0.8820868E-01
        1   -1    0    0  501    0  0.00000000000E+00  0.00000000000E+00  0.10346482586E+04  0.10346482586E+04  0.50400001928E-02 0.  1.
       -1   -1    0    0    0  501  0.00000000000E+00  0.00000000000E+00 -0.61816498600E+03  0.61816498602E+03  0.50400001928E-02 0. -1.
    10030    2    1    2    0    0  0.00000000000E+00  0.00000000000E+00  0.41648327259E+03  0.16528132446E+04  0.15994790731E+04 0.  0.
        4    1    3    3  502    0  0.38009250007E+03  0.29750043825E+03 -0.45067659326E+03  0.66036946022E+03  0.12699999809E+01 0. -1.
       -4    1    3    3    0  502 -0.38009250007E+03 -0.29750043825E+03  0.86715986585E+03  0.99244378441E+03  0.12699999809E+01 0.  1.
</event>
<event>
 5   0  0.7124495E-04  0.1580098E+04  0.7818609E-02  0.8832869E-01
        1   -1    0    0  501    0  0.00000000000E+00  0.00000000000E+00  0.89863575794E+03  0.89863575795E+03  0.50400001928E-02 0.  1.
       -1   -1    0    0    0  501  0.00000000000E+00  0.00000000000E+00 -0.69458319819E+03  0.69458319820E+03  0.50400001928E-02 0. -1.
    10030    2    1    2    0    0  0.00000000000E+00  0.00000000000E+00  0.20405255975E+03  0.15932189562E+04  0.15800978435E+04 0.  0.
        2    1    3    3  502    0 -0.35080427583E+03  0.67349311132E+03 -0.11777632946E+03  0.76845811514E+03  0.25500000920E-02 0. -1.
       -2    1    3    3    0  502  0.35080427583E+03 -0.67349311132E+03  0.32182888921E+03  0.82476084102E+03  0.25500000920E-02 0.  1.
</event>
<event>
 5   0  0.7633213E-04  0.1802276E+04  0.7818609E-02  0.8705090E-01
       -1   -1    0    0    0  501  0.00000000000E+00  0.00000000000E+00  0.48418191912E+03  0.48418191914E+03  0.50400001928E-02 0.  1.
        1   -1    0    0  501    0  0.00000000000E+00  0.00000000000E+00 -0.16771575750E+04  0.16771575750E+04  0.50400001928E-02 0. -1.
    10030    2    1    2    0    0  0.00000000000E+00  0.00000000000E+00 -0.11929756559E+04  0.21613394942E+04  0.18022756430E+04 0.  0.
        1    1    3    3  502    0 -0.17850087504E+03  0.77764109838E+03 -0.10988214425E+04  0.13579384385E+04  0.50400001928E-02 0. -1.
       -1    1    3    3    0  502  0.17850087504E+03 -0.77764109838E+03 -0.94154213390E+02  0.80340105564E+03  0.50400001928E-02 0.  1.
</event>
<event>
 5   0  0.1375777E-03  0.1595793E+04  0.7818609E-02  0.8823137E-01
       -2   -1    0    0    0  501  0.00000000000E+00  0.00000000000E+00  0.14161580549E+04  0.14161580549E+04  0.25500000920E-02 0.  1.
        2   -1    0    0  501    0  0.00000000000E+00  0.00000000000E+00 -0.44955345436E+03  0.44955345437E+03  0.25500000920E-02 0. -1.
    10030    2    1    2    0    0  0.00000000000E+00  0.00000000000E+00  0.96660460050E+03  0.18657115092E+04  0.15957929007E+04 0.  0.
        1    1    3    3  502    0  0.13278658249E+03  0.35269160272E+03  0.13055480710E+04  0.13588522395E+04  0.50400001928E-02 0.  1.
       -1    1    3    3    0  502 -0.13278658249E+03 -0.35269160272E+03 -0.33894347048E+03  0.50685926974E+03  0.50400001928E-02 0. -1.
</event>
<event>
 5   0  0.7633213E-04  0.1592149E+04  0.7818609E-02  0.8825386E-01
        1   -1    0    0  501    0  0.00000000000E+00  0.00000000000E+00  0.13581197062E+04  0.13581197062E+04  0.50400001928E-02 0. -1.
       -1   -1    0    0    0  501  0.00000000000E+00  0.00000000000E+00 -0.46662623595E+03  0.46662623598E+03  0.50400001928E-02 0.  1.
    10030    2    1    2    0    0  0.00000000000E+00  0.00000000000E+00  0.89149347026E+03  0.18247459422E+04  0.15921485942E+04 0.  0.
        1    1    3    3  502    0  0.27869551260E+03  0.21455471303E+03 -0.37274896619E+03  0.51249068815E+03  0.50400001928E-02 0.  1.
       -1    1    3    3    0  502 -0.27869551260E+03 -0.21455471303E+03  0.12642424364E+04  0.13122552540E+04  0.50400001928E-02 0. -1.
</event>
<event>
 5   0  0.7601145E-04  0.1603405E+04  0.7818609E-02  0.8818459E-01
        1   -1    0    0  501    0  0.00000000000E+00  0.00000000000E+00  0.10822053434E+04  0.10822053434E+04  0.50400001928E-02 0.  1.
       -1   -1    0    0    0  501  0.00000000000E+00  0.00000000000E+00 -0.59390461929E+03  0.59390461931E+03  0.50400001928E-02 0. -1.
    10030    2    1    2    0    0  0.00000000000E+00  0.00000000000E+00  0.48830072413E+03  0.16761099627E+04  0.16034048179E+04 0.  0.
        4    1    3    3  502    0 -0.13242742689E+02 -0.59444766850E+03 -0.31798998265E+03  0.67428676598E+03  0.12699999809E+01 0.  1.
       -4    1    3    3    0  502  0.13242742689E+02  0.59444766850E+03  0.80629070678E+03  0.10018231968E+04  0.12699999809E+01 0. -1.
</event>
<event>
 5   0  0.1414751E-03  0.1563665E+04  0.7818609E-02  0.8843186E-01
        2   -1    0    0  501    0  0.00000000000E+00  0.00000000000E+00  0.10804869101E+04  0.10804869101E+04  0.25500000920E-02 0.  1.
       -2   -1    0    0    0  501  0.00000000000E+00  0.00000000000E+00 -0.56572839698E+03  0.56572839699E+03  0.25500000920E-02 0. -1.
    10030    2    1    2    0    0  0.00000000000E+00  0.00000000000E+00  0.51475851316E+03  0.16462153071E+04  0.15636650890E+04 0.  0.
        2    1    3    3  502    0  0.75487629206E+03 -0.97917542612E+02  0.69532978332E+02  0.76436960729E+03  0.25500000920E-02 0.  1.
       -2    1    3    3    0  502 -0.75487629206E+03  0.97917542612E+02  0.44522553483E+03  0.88184569985E+03  0.25500000920E-02 0. -1.
</event>
<event>
 5   0  0.1414751E-03  0.1624390E+04  0.7818609E-02  0.8805703E-01
       -2   -1    0    0    0  501  0.00000000000E+00  0.00000000000E+00  0.27838103669E+03  0.27838103670E+03  0.25500000920E-02 0. -1.
        2   -1    0    0  501    0  0.00000000000E+00  0.00000000000E+00 -0.23696310269E+04  0.23696310269E+04  0.25500000920E-02 0.  1.
    10030    2    1    2    0    0  0.00000000000E+00  0.00000000000E+00 -0.20912499903E+04  0.26480120636E+04  0.16243895369E+04 0.  0.
        2    1    3    3  502    0  0.39702548034E+03 -0.54200265700E+03 -0.17895636378E+04  0.19115266480E+04  0.25500000920E-02 0.  1.
       -2    1    3    3    0  502 -0.39702548034E+03  0.54200265700E+03 -0.30168635248E+03  0.73648541568E+03  0.25500000920E-02 0. -1.
</event>
<event>
 5   0  0.5095750E-04  0.1584805E+04  0.7818609E-02  0.8829938E-01
       -4   -1    0    0    0  501  0.00000000000E+00  0.00000000000E+00  0.56483637533E+03  0.56483780308E+03  0.12699999809E+01 0.  1.
        4   -1    0    0  501    0  0.00000000000E+00  0.00000000000E+00 -0.11116494492E+04  0.11116501746E+04  0.12699999809E+01 0. -1.
    10030    2    1    2    0    0  0.00000000000E+00  0.00000000000E+00 -0.54681307385E+03  0.16764879777E+04  0.15848051621E+04 0.  0.
        2    1    3    3  502    0  0.10537754062E+03  0.53866310747E+03 -0.87799367626E+03  0.10354396482E+04  0.25500000920E-02 0. -1.
       -2    1    3    3    0  502 -0.10537754062E+03 -0.53866310747E+03  0.33118060241E+03  0.64104832956E+03  0.25500000920E-02 0.  1.
</event>
<event>
 5   0  0.1375777E-03  0.1495020E+04  0.7818609E-02  0.8887771E-01
       -2   -1    0    0    0  501  0.00000000000E+00  0.00000000000E+00  0.59453562230E+03  0.59453562230E+03  0.25500000920E-02 0. -1.
        2   -1    0    0  501    0  0.00000000000E+00  0.00000000000E+00 -0.93984492014E+03  0.93984492015E+03  0.25500000920E-02 0.  1.
    10030    2    1    2    0    0  0.00000000000E+00  0.00000000000E+00 -0.34530929785E+03  0.15343805424E+04  0.14950201129E+04 0.  0.
        1    1    3    3  502    0  0.46925527290E+03  0.26091119063E+03 -0.70643990073E+03  0.88731758345E+03  0.50400001928E-02 0.  1.
       -1    1    3    3    0  502 -0.46925527290E+03 -0.26091119063E+03  0.36113060288E+03  0.64706295899E+03  0.50400001928E-02 0. -1.
</event>
<event>
 5   0  0.7499834E-04  0.1579179E+04  0.7818609E-02  0.8833442E-01
        1   -1    0    0  501    0  0.00000000000E+00  0.00000000000E+00  0.92635363231E+03  0.92635363232E+03  0.50400001928E-02 0. -1.
       -1   -1    0    0    0  501  0.00000000000E+00  0.00000000000E+00 -0.67301664346E+03  0.67301664348E+03  0.50400001928E-02 0.  1.
    10030    2    1    2    0    0  0.00000000000E+00  0.00000000000E+00  0.25333698884E+03  0.15993702758E+04  0.15791787895E+04 0.  0.
        3    1    3    3  502    0 -0.22743163402E+03  0.57589319502E+03  0.62290605466E+03  0.87828815508E+03  0.10100000352E+00 0. -1.
       -3    1    3    3    0  502  0.22743163402E+03 -0.57589319502E+03 -0.36956906582E+03  0.72108212072E+03  0.10100000352E+00 0.  1.
</event>
<event>
 5   0  0.1414796E-03  0.1734794E+04  0.7818609E-02  0.8741765E-01
       -2   -1    0    0    0  501  0.00000000000E+00  0.00000000000E+00  0.51169786224E+03  0.51169786225E+03  0.25500000920E-02 0.  1.
        2   -1    0    0  501    0  0.00000000000E+00  0.00000000000E+00 -0.14703555344E+04  0.14703555344E+04  0.25500000920E-02 0. -1.
    10030    2    1    2    0    0  0.00000000000E+00  0.00000000000E+00 -0.95865767213E+03  0.19820533966E+04  0.17347942629E+04 0.  0.
        4    1    3    3  502    0 -0.24130107376E+03  0.45526472679E+03  0.31789471618E+03  0.60543442513E+03  0.12699999809E+01 0.  1.
       -4    1    3    3    0  502  0.24130107376E+03 -0.45526472679E+03 -0.12765523883E+04  0.13766189715E+04  0.12699999809E+01 0. -1.
</event>
<event>
 5   0  0.1339162E-03  0.1633668E+04  0.7818609E-02  0.8800127E-01
        2   -1    0    0  501    0  0.00000000000E+00  0.00000000000E+00  0.11545480631E+04  0.11545480631E+04  0.25500000920E-02 0. -1.
       -2   -1    0    0    0  501  0.00000000000E+00  0.00000000000E+00 -0.57790382628E+03  0.57790382628E+03  0.25500000920E-02 0.  1.
    10030    2    1    2    0    0  0.00000000000E+00  0.00000000000E+00  0.57664423684E+03  0.17324518894E+04  0.16336679507E+04 0.  0.
        5    1    3    3  502    0 -0.50775896609E+03  0.41660697414E+03 -0.22664940326E+03  0.69481837954E+03  0.46999998093E+01 0.  1.
       -5    1    3    3    0  502  0.50775896609E+03 -0.41660697414E+03  0.80329364010E+03  0.10376335099E+04  0.46999998093E+01 0. -1.
</event>
<event>
 5   0  0.1354766E-03  0.1585314E+04  0.7818609E-02  0.8829622E-01
       -2   -1    0    0    0  501  0.00000000000E+00  0.00000000000E+00  0.40319558618E+03  0.40319558619E+03  0.25500000920E-02 0. -1.
        2   -1    0    0  501    0  0.00000000000E+00  0.00000000000E+00 -0.15583126107E+04  0.15583126107E+04  0.25500000920E-02 0.  1.
    10030    2    1    2    0    0  0.00000000000E+00  0.00000000000E+00 -0.11551170246E+04  0.19615081969E+04  0.15853135545E+04 0.  0.
        3    1    3    3  502    0 -0.43864687183E+03  0.25872682905E+03 -0.13291141353E+04  0.14233393991E+04  0.10100000352E+00 0.  1.
       -3    1    3    3    0  502  0.43864687183E+03 -0.25872682905E+03  0.17399711070E+03  0.53816879784E+03  0.10100000352E+00 0. -1.
</event>
<event>
 5   0  0.7633213E-04  0.1588248E+04  0.7818609E-02  0.8827800E-01
        1   -1    0    0  501    0  0.00000000000E+00  0.00000000000E+00  0.11372584220E+04  0.11372584220E+04  0.50400001928E-02 0.  1.
       -1   -1    0    0    0  501  0.00000000000E+00  0.00000000000E+00 -0.55452032460E+03  0.55452032462E+03  0.50400001928E-02 0. -1.
    10030    2    1    2    0    0  0.00000000000E+00  0.00000000000E+00  0.58273809736E+03  0.16917787466E+04  0.15882479773E+04 0.  0.
        1    1    3    3  502    0 -0.71427460229E+03  0.33867683780E+03  0.37208946076E+03  0.87369375342E+03  0.50400001928E-02 0.  1.
       -1    1    3    3    0  502  0.71427460229E+03 -0.33867683780E+03  0.21064863660E+03  0.81808499318E+03  0.50400001928E-02 0. -1.
</event>
<event>
 5   0  0.5095750E-04  0.1589906E+04  0.7818609E-02  0.8826773E-01
       -4   -1    0    0    0  501  0.00000000000E+00  0.00000000000E+00  0.67835608073E+03  0.67835726956E+03  0.12699999809E+01 0. -1.
        4   -1    0    0  501    0  0.00000000000E+00  0.00000000000E+00 -0.93158859156E+03  0.93158945723E+03  0.12699999809E+01 0.  1.
    10030    2    1    2    0    0  0.00000000000E+00  0.00000000000E+00 -0.25323251083E+03  0.16099467268E+04  0.15899062106E+04 0.  0.
        5    1    3    3  502    0  0.55249015277E+03  0.46783988916E+03 -0.45909749388E+03  0.85727016143E+03  0.46999998093E+01 0.  1.
       -5    1    3    3    0  502 -0.55249015277E+03 -0.46783988916E+03  0.20586498305E+03  0.75267656536E+03  0.46999998093E+01 0. -1.
</event>
<event>
 5   0  0.7124495E-04  0.1569660E+04  0.7818609E-02  0.8839407E-01
       -1   -1    0    0    0  501  0.00000000000E+00  0.00000000000E+00  0.36195498897E+03  0.36195498901E+03  0.50400001928E-02 0.  1.
        1   -1    0    0  501    0  0.00000000000E+00  0.00000000000E+00 -0.17017523886E+04  0.17017523886E+04  0.50400001928E-02 0. -1.
    10030    2    1    2    0    0  0.00000000000E+00  0.00000000000E+00 -0.13397973996E+04  0.20637073776E+04  0.15696595390E+04 0.  0.
        2    1    3    3  502    0  0.55473080363E+03  0.33738992145E+02 -0.13984795313E+04  0.15048619816E+04  0.25500000920E-02 0. -1.
       -2    1    3    3    0  502 -0.55473080363E+03 -0.33738992145E+02  0.58682131694E+02  0.55884539603E+03  0.25500000920E-02 0.  1.
</event>
<event>
 5   0  0.1414751E-03  0.1456950E+04  0.7818609E-02  0.8913597E-01
       -2   -1    0    0    0  501  0.00000000000E+00  0.00000000000E+00  0.64586635333E+03  0.64586635333E+03  0.25500000920E-02 0. -1.
        2   -1    0    0  501    0  0.00000000000E+00  0.00000000000E+00 -0.82164923141E+03  0.82164923141E+03  0.25500000920E-02 0.  1.
    10030    2    1    2    0    0  0.00000000000E+00  0.00000000000E+00 -0.17578287808E+03  0.14675155847E+04  0.14569496804E+04 0.  0.
        2    1    3    3  502    0 -0.27929663531E+03 -0.54664087998E+03 -0.48297665059E+03  0.78108213856E+03  0.25500000920E-02 0.  1.
       -2    1    3    3    0  502  0.27929663531E+03  0.54664087998E+03  0.30719377251E+03  0.68643344618E+03  0.25500000920E-02 0. -1.
</event>
<event>
 5   0  0.1414796E-03  0.1611801E+04  0.7818609E-02  0.8813331E-01
        2   -1    0    0  501    0  0.00000000000E+00  0.00000000000E+00  0.12782402171E+04  0.12782402171E+04  0.25500000920E-02 0. -1.
       -2   -1    0    0    0  501  0.00000000000E+00  0.00000000000E+00 -0.50810144589E+03  0.50810144590E+03  0.25500000920E-02 0.  1.
    10030    2    1    2    0    0  0.00000000000E+00  0.00000000000E+00  0.77013877120E+03  0.17863416630E+04  0.16118011075E+04 0.  0.
        4    1    3    3  502    0 -0.47526779726E+03 -0.87413521508E+02 -0.32971566715E+03  0.58500823662E+03  0.12699999809E+01 0.  1.
       -4    1    3    3    0  502  0.47526779726E+03  0.87413521508E+02  0.10998544383E+04  0.12013334264E+04  0.12699999809E+01 0. -1.
</event>
<event>
 5   0  0.1339162E-03  0.1601480E+04  0.7818609E-02  0.8819639E-01
       -2   -1    0    0    0  501  0.00000000000E+00  0.00000000000E+00  0.11227975949E+04  0.11227975949E+04  0.25500000920E-02 0. -1.
        2   -1    0    0  501    0  0.00000000000E+00  0.00000000000E+00 -0.57106007672E+03  0.57106007672E+03  0.25500000920E-02 0.  1.
    10030    2    1    2    0    0  0.00000000000E+00  0.00000000000E+00  0.55173751815E+03  0.16938576716E+04  0.16014804160E+04 0.  0.
        5    1    3    3  502    0 -0.35469671806E+03  0.16038429207E+03 -0.46422927753E+03  0.60585790005E+03  0.46999998093E+01 0.  1.
       -5    1    3    3    0  502  0.35469671806E+03 -0.16038429207E+03  0.10159667957E+04  0.10879997715E+04  0.46999998093E+01 0. -1.
</event>
<event>
 5   0  0.7633213E-04  0.1560240E+04  0.7818609E-02  0.8845353E-01
       -1   -1    0    0    0  501  0.00000000000E+00  0.00000000000E+00  0.39620262970E+03  0.39620262973E+03  0.50400001928E-02 0. -1.
        1   -1    0    0  501    0  0.00000000000E+00  0.00000000000E+00 -0.15360512933E+04  0.15360512933E+04  0.50400001928E-02 0.  1.
    10030    2    1    2    0    0  0.00000000000E+00  0.00000000000E+00 -0.11398486636E+04  0.19322539230E+04  0.15602404453E+04 0.  0.
        1    1    3    3  502    0 -0.37558216055E+03  0.11510332572E+03  0.26478055825E+03  0.47372933091E+03  0.50400001928E-02 0. -1.
       -1    1    3    3    0  502  0.37558216055E+03 -0.11510332572E+03 -0.14046292218E+04  0.14585245921E+04  0.50400001928E-02 0.  1.
</event>
<event>
 5   0  0.7601145E-04  0.1624261E+04  0.7818609E-02  0.8805780E-01
       -1   -1    0    0    0  501  0.00000000000E+00  0.00000000000E+00  0.52492129157E+03  0.52492129159E+03  0.50400001928E-02 0. -1.
        1   -1    0    0  501    0  0.00000000000E+00  0.00000000000E+00 -0.12564858913E+04  0.12564858913E+04  0.50400001928E-02 0.  1.
    10030    2    1    2    0    0  0.00000000000E+00  0.00000000000E+00 -0.73156459969E+03  0.17814071829E+04  0.16242613052E+04 0.  0.
        4    1    3    3  502    0  0.75298034953E+03  0.22288984021E+03 -0.13863261572E+03  0.79742078145E+03  0.12699999809E+01 0. -1.
       -4    1    3    3    0  502 -0.75298034953E+03 -0.22288984021E+03 -0.59293198397E+03  0.98398640141E+03  0.12699999809E+01 0.  1.
</event>
<event>
 5   0  0.1414751E-03  0.1628232E+04  0.7818609E-02  0.8803389E-01
       -2   -1    0    0    0  501  0.00000000000E+00  0.00000000000E+00  0.46534336574E+03  0.46534336575E+03  0.25500000920E-02 0.  1.
        2   -1    0    0  501    0  0.00000000000E+00  0.00000000000E+00 -0.14242915264E+04  0.14242915264E+04  0.25500000920E-02 0. -1.
    10030    2    1    2    0    0  0.00000000000E+00  0.00000000000E+00 -0.95894816062E+03  0.18896348921E+04  0.16282316944E+04 0.  0.
        2    1    3    3  502    0  0.40374307789E+03 -0.69787148853E+03 -0.34842234904E+03  0.87831157385E+03  0.25500000920E-02 0. -1.
       -2    1    3    3    0  502 -0.40374307789E+03  0.69787148853E+03 -0.61052581158E+03  0.10113233183E+04  0.25500000920E-02 0.  1.
</event>
<event>
 5   0  0.1375777E-03  0.1612221E+04  0.7818609E-02  0.8813075E-01
        2   -1    0    0  501    0  0.00000000000E+00  0.00000000000E+00  0.93566835113E+03  0.93566835113E+03  0.25500000920E-02 0.  1.
       -2   -1    0    0    0  501  0.00000000000E+00  0.00000000000E+00 -0.69449228604E+03  0.69449228605E+03  0.25500000920E-02 0. -1.
    10030    2    1    2    0    0  0.00000000000E+00  0.00000000000E+00  0.24117606509E+03  0.16301606372E+04  0.16122213895E+04 0.  0.
        1    1    3    3  502    0  0.34968810187E+03 -0.34647970470E+01  0.85497585667E+03  0.92373020353E+03  0.50400001928E-02 0.  1.
       -1    1    3    3    0  502 -0.34968810187E+03  0.34647970470E+01 -0.61379979158E+03  0.70643043364E+03  0.50400001928E-02 0. -1.
</event>
<event>
 5   0  0.1375777E-03  0.1602000E+04  0.7818609E-02  0.8819320E-01
        2   -1    0    0  501    0  0.00000000000E+00  0.00000000000E+00  0.22348139521E+04  0.22348139521E+04  0.25500000920E-02 0.  1.
       -2   -1    0    0    0  501  0.00000000000E+00  0.00000000000E+00 -0.28709386446E+03  0.28709386447E+03  0.25500000920E-02 0. -1.
    10030    2    1    2    0    0  0.00000000000E+00  0.00000000000E+00  0.19477200876E+04  0.25219078166E+04  0.16020004668E+04 0.  0.
        1    1    3    3  502    0  0.50681882480E+03 -0.61039588369E+03  0.11474029439E+04  0.13949845776E+04  0.50400001928E-02 0.  1.
       -1    1    3    3    0  502 -0.50681882480E+03  0.61039588369E+03  0.80031714376E+03  0.11269232390E+04  0.50400001928E-02 0. -1.
</event>
<event>
 5   0  0.7124495E-04  0.1616345E+04  0.7818609E-02  0.8810569E-01
        1   -1    0    0  501    0  0.00000000000E+00  0.00000000000E+00  0.69100194169E+03  0.69100194171E+03  0.50400001928E-02 0.  1.
       -1   -1    0    0    0  501  0.00000000000E+00  0.00000000000E+00 -0.94521066577E+03  0.94521066578E+03  0.50400001928E-02 0. -1.
    10030    2    1    2    0    0  0.00000000000E+00  0.00000000000E+00 -0.25420872408E+03  0.16362126075E+04  0.16163445244E+04 0.  0.
        2    1    3    3  502    0  0.69568302526E+03 -0.17246937366E+03 -0.50508644781E+03  0.87683115607E+03  0.25500000920E-02 0.  1.
       -2    1    3    3    0  502 -0.69568302526E+03  0.17246937366E+03  0.25087772372E+03  0.75938145142E+03  0.25500000920E-02 0. -1.
</event>
<event>
 5   0  0.1339162E-03  0.1604480E+04  0.7818609E-02  0.8817800E-01
        2   -1    0    0  501    0  0.00000000000E+00  0.00000000000E+00  0.17460613835E+04  0.17460613835E+04  0.25500000920E-02 0. -1.
       -2   -1    0    0    0  501  0.00000000000E+00  0.00000000000E+00 -0.36859478169E+03  0.36859478170E+03  0.25500000920E-02 0.  1.
    10030    2    1    2    0    0  0.00000000000E+00  0.00000000000E+00  0.13774666018E+04  0.21146561652E+04  0.16044801207E+04 0.  0.
        5    1    3    3  502    0  0.46829050712E+03  0.22875219712E+03 -0.11505907829E+03  0.53374549014E+03  0.46999998093E+01 0.  1.
       -5    1    3    3    0  502 -0.46829050712E+03 -0.22875219712E+03  0.14925256801E+04  0.15809106750E+04  0.46999998093E+01 0. -1.
</event>
<event>
 5   0  0.7601145E-04  0.1605201E+04  0.7818609E-02  0.8817359E-01
       -1   -1    0    0    0  501  0.00000000000E+00  0.00000000000E+00  0.29420773402E+03  0.29420773407E+03  0.50400001928E-02 0. -1.
        1   -1    0    0  501    0  0.00000000000E+00  0.00000000000E+00 -0.21894991435E+04  0.21894991435E+04  0.50400001928E-02 0.  1.
    10030    2    1    2    0    0  0.00000000000E+00  0.00000000000E+00 -0.18952914095E+04  0.24837068776E+04  0.16052010238E+04 0.  0.
        4    1    3    3  502    0  0.21028029692E+03 -0.74399567878E+03 -0.12810083317E+04  0.14962390624E+04  0.12699999809E+01 0. -1.
       -4    1    3    3    0  502 -0.21028029692E+03  0.74399567878E+03 -0.61428307783E+03  0.98746781514E+03  0.12699999809E+01 0.  1.
</event>
<event>
 5   0  0.7633213E-04  0.1492420E+04  0.7818609E-02  0.8889509E-01
       -1   -1    0    0    0  501  0.00000000000E+00  0.00000000000E+00  0.28918901135E+03  0.28918901140E+03  0.50400001928E-02 0. -1.
        1   -1    0    0  501    0  0.00000000000E+00  0.00000000000E+00 -0.19254857716E+04  0.19254857717E+04  0.50400001928E-02 0.  1.
    10030    2    1    2    0    0  0.00000000000E+00  0.00000000000E+00 -0.16362967603E+04  0.22146747830E+04  0.14924199499E+04 0.  0.
        1    1    3    3  502    0 -0.46156743142E+03 -0.58184694748E+03 -0.71073915921E+03  0.10279788502E+04  0.50400001928E-02 0.  1.
       -1    1    3    3    0  502  0.46156743142E+03  0.58184694748E+03 -0.92555760109E+03  0.11866959328E+04  0.50400001928E-02 0. -1.
</event>
<event>
 5   0  0.7633213E-04  0.1607568E+04  0.7818609E-02  0.8815912E-01
       -1   -1    0    0    0  501  0.00000000000E+00  0.00000000000E+00  0.47024646692E+03  0.47024646694E+03  0.50400001928E-02 0.  1.
        1   -1    0    0  501    0  0.00000000000E+00  0.00000000000E+00 -0.13738933471E+04  0.13738933471E+04  0.50400001928E-02 0. -1.
    10030    2    1    2    0    0  0.00000000000E+00  0.00000000000E+00 -0.90364688014E+03  0.18441398140E+04  0.16075677185E+04 0.  0.
        1    1    3    3  502    0  0.66348465369E+03  0.39263568788E+02  0.66707494998E+02  0.66798458323E+03  0.50400001928E-02 0.  1.
       -1    1    3    3    0  502 -0.66348465369E+03 -0.39263568788E+02 -0.97035437514E+03  0.11761552308E+04  0.50400001928E-02 0. -1.
</event>
<event>
 5   0  0.7124495E-04  0.1758638E+04  0.7818609E-02  0.8728610E-01
       -1   -1    0    0    0  501  0.00000000000E+00  0.00000000000E+00  0.88921970157E+03  0.88921970159E+03  0.50400001928E-02 0.  1.
        1   -1    0    0  501    0  0.00000000000E+00  0.00000000000E+00 -0.86952891748E+03  0.86952891749E+03  0.50400001928E-02 0. -1.
    10030    2    1    2    0    0  0.00000000000E+00  0.00000000000E+00  0.19690784096E+02  0.17587486191E+04  0.17586383875E+04 0.  0.
        2    1    3    3  502    0 -0.52015357376E+03  0.86948649999E+02  0.71351044164E+03  0.88725247724E+03  0.25500000920E-02 0.  1.
       -2    1    3    3    0  502  0.52015357376E+03 -0.86948649999E+02 -0.69381965754E+03  0.87149614184E+03  0.25500000920E-02 0. -1.
</event>
<event>
 5   0  0.7499834E-04  0.1661993E+04  0.7818609E-02  0.8783343E-01
       -1   -1    0    0    0  501  0.00000000000E+00  0.00000000000E+00  0.58644423201E+03  0.58644423203E+03  0.50400001928E-02 0.  1.
        1   -1    0    0  501    0  0.00000000000E+00  0.00000000000E+00 -0.11775289245E+04  0.11775289245E+04  0.50400001928E-02 0. -1.
    10030    2    1    2    0    0  0.00000000000E+00  0.00000000000E+00 -0.59108469249E+03  0.17639731565E+04  0.16619928349E+04 0.  0.
        3    1    3    3  502    0 -0.64941771031E+03  0.16545694553E+03 -0.81705343088E+03  0.10567382279E+04  0.10100000352E+00 0. -1.
       -3    1    3    3    0  502  0.64941771031E+03 -0.16545694553E+03  0.22596873839E+03  0.70723492860E+03  0.10100000352E+00 0.  1.
</event>
<event>
 5   0  0.1354766E-03  0.1582998E+04  0.7818609E-02  0.8831062E-01
        2   -1    0    0  501    0  0.00000000000E+00  0.00000000000E+00  0.89537423324E+03  0.89537423324E+03  0.25500000920E-02 0. -1.
       -2   -1    0    0    0  501  0.00000000000E+00  0.00000000000E+00 -0.69967448460E+03  0.69967448460E+03  0.25500000920E-02 0.  1.
    10030    2    1    2    0    0  0.00000000000E+00  0.00000000000E+00  0.19569974864E+03  0.15950487178E+04  0.15829977955E+04 0.  0.
        3    1    3    3  502    0 -0.52757006332E+03 -0.17755720239E+03 -0.46911811173E+03  0.72796191164E+03  0.10100000352E+00 0.  1.
       -3    1    3    3    0  502  0.52757006332E+03  0.17755720239E+03  0.66481786037E+03  0.86708680621E+03  0.10100000352E+00 0. -1.
</event>
<event>
 5   0  0.7499834E-04  0.1603327E+04  0.7818609E-02  0.8818507E-01
        1   -1    0    0  501    0  0.00000000000E+00  0.00000000000E+00  0.94052779330E+03  0.94052779331E+03  0.50400001928E-02 0.  1.
       -1   -1    0    0    0  501  0.00000000000E+00  0.00000000000E+00 -0.68330203232E+03  0.68330203233E+03  0.50400001928E-02 0. -1.
    10030    2    1    2    0    0  0.00000000000E+00  0.00000000000E+00  0.25722576098E+03  0.16238298256E+04  0.16033272313E+04 0.  0.
        3    1    3    3  502    0 -0.32207663987E+02  0.73765615841E+03  0.44484044161E+03  0.86200752337E+03  0.10100000352E+00 0.  1.
       -3    1    3    3    0  502  0.32207663987E+02 -0.73765615841E+03 -0.18761468062E+03  0.76182230228E+03  0.10100000352E+00 0. -1.
</event>
<event>
 5   0  0.1414796E-03  0.1523728E+04  0.7818609E-02  0.8868825E-01
       -2   -1    0    0    0  501  0.00000000000E+00  0.00000000000E+00  0.36002196724E+03  0.36002196725E+03  0.25500000920E-02 0. -1.
        2   -1    0    0  501    0  0.00000000000E+00  0.00000000000E+00 -0.16122267404E+04  0.16122267404E+04  0.25500000920E-02 0.  1.
    10030    2    1    2    0    0  0.00000000000E+00  0.00000000000E+00 -0.12522047732E+04  0.19722487077E+04  0.15237283783E+04 0.  0.
        4    1    3    3  502    0 -0.21761658057E+03  0.52920498888E+03  0.24974094593E+02  0.57274795040E+03  0.12699999809E+01 0. -1.
       -4    1    3    3    0  502  0.21761658057E+03 -0.52920498888E+03 -0.12771788678E+04  0.13995007573E+04  0.12699999809E+01 0.  1.
</event>
<event>
 5   0  0.1354766E-03  0.1619001E+04  0.7818609E-02  0.8808960E-01
       -2   -1    0    0    0  501  0.00000000000E+00  0.00000000000E+00  0.12414907440E+04  0.12414907440E+04  0.25500000920E-02 0. -1.
        2   -1    0    0  501    0  0.00000000000E+00  0.00000000000E+00 -0.52782569584E+03  0.52782569584E+03  0.25500000920E-02 0.  1.
    10030    2    1    2    0    0  0.00000000000E+00  0.00000000000E+00  0.71366504815E+03  0.17693164398E+04  0.16190005755E+04 0.  0.
        3    1    3    3  502    0 -0.69899753266E+03 -0.36878574939E+03  0.54828392695E+03  0.96188136190E+03  0.10100000352E+00 0. -1.
       -3    1    3    3    0  502  0.69899753266E+03  0.36878574939E+03  0.16538112120E+03  0.80743507793E+03  0.10100000352E+00 0.  1.
</event>
<event>
 5   0  0.1414751E-03  0.1618479E+04  0.7818609E-02  0.8809276E-01
       -2   -1    0    0    0  501  0.00000000000E+00  0.00000000000E+00  0.46620460329E+03  0.46620460330E+03  0.25500000920E-02 0.  1.
        2   -1    0    0  501    0  0.00000000000E+00  0.00000000000E+00 -0.14046798788E+04  0.14046798788E+04  0.25500000920E-02 0. -1.
    10030    2    1    2    0    0  0.00000000000E+00  0.00000000000E+00 -0.93847527550E+03  0.18708844821E+04  0.16184785765E+04 0.  0.
        2    1    3    3  502    0  0.45049196555E+03 -0.54216597571E+03 -0.92869246337E+03  0.11659145113E+04  0.25500000920E-02 0. -1.
       -2    1    3    3    0  502 -0.45049196555E+03  0.54216597571E+03 -0.97828121322E+01  0.70496997075E+03  0.25500000920E-02 0.  1.
</event>
<event>
 5   0  0.7302027E-04  0.1581993E+04  0.7818609E-02  0.8831688E-01
        1   -1    0    0  501    0  0.00000000000E+00  0.00000000000E+00  0.78597181272E+03  0.78597181274E+03  0.50400001928E-02 0.  1.
       -1   -1    0    0    0  501  0.00000000000E+00  0.00000000000E+00 -0.79605282968E+03  0.79605282970E+03  0.50400001928E-02 0. -1.
    10030    2    1    2    0    0  0.00000000000E+00  0.00000000000E+00 -0.10081016962E+02  0.15820246424E+04  0.15819925229E+04 0.  0.
        5    1    3    3  502    0 -0.20931518776E+03  0.36045032887E+03  0.66721990169E+03  0.78672852663E+03  0.46999998093E+01 0.  1.
       -5    1    3    3    0  502  0.20931518776E+03 -0.36045032887E+03 -0.67730091865E+03  0.79529611581E+03  0.46999998093E+01 0. -1.
</event>
<event>
 5   0  0.7633213E-04  0.1601630E+04  0.7818609E-02  0.8819547E-01
       -1   -1    0    0    0  501  0.00000000000E+00  0.00000000000E+00  0.79868308080E+03  0.79868308081E+03  0.50400001928E-02 0. -1.
        1   -1    0    0  501    0  0.00000000000E+00  0.00000000000E+00 -0.80295269354E+03  0.80295269355E+03  0.50400001928E-02 0.  1.
    10030    2    1    2    0    0  0.00000000000E+00  0.00000000000E+00 -0.42696127400E+01  0.16016357744E+04  0.16016300834E+04 0.  0.
        1    1    3    3  502    0 -0.37609084641E+03  0.15140292199E+01  0.70487415127E+03  0.79893315502E+03  0.50400001928E-02 0. -1.
       -1    1    3    3    0  502  0.37609084641E+03 -0.15140292199E+01 -0.70914376401E+03  0.80270261934E+03  0.50400001928E-02 0.  1.
</event>
<event>
 5   0  0.1375777E-03  0.1569098E+04  0.7818609E-02  0.8839760E-01
       -2   -1    0    0    0  501  0.00000000000E+00  0.00000000000E+00  0.84569967476E+03  0.84569967477E+03  0.25500000920E-02 0.  1.
        2   -1    0    0  501    0  0.00000000000E+00  0.00000000000E+00 -0.72782043556E+03  0.72782043557E+03  0.25500000920E-02 0. -1.
    10030    2    1    2    0    0  0.00000000000E+00  0.00000000000E+00  0.11787923920E+03  0.15735201103E+04  0.15690984745E+04 0.  0.
        1    1    3    3  502    0 -0.68537637893E+03 -0.38112912742E+03  0.36131009415E+02  0.78505136292E+03  0.50400001928E-02 0.  1.
       -1    1    3    3    0  502  0.68537637893E+03  0.38112912742E+03  0.81748229783E+02  0.78846874742E+03  0.50400001928E-02 0. -1.
</event>
<event>
 5   0  0.1414796E-03  0.1471863E+04  0.7818609E-02  0.8903382E-01
        2   -1    0    0  501    0  0.00000000000E+00  0.00000000000E+00  0.78491813497E+03  0.78491813497E+03  0.25500000920E-02 0. -1.
       -2   -1    0    0    0  501  0.00000000000E+00  0.00000000000E+00 -0.69000203062E+03  0.69000203063E+03  0.25500000920E-02 0.  1.
    10030    2    1    2    0    0  0.00000000000E+00  0.00000000000E+00  0.94916104343E+02  0.14749201656E+04  0.14718629107E+04 0.  0.
        4    1    3    3  502    0  0.46624204963E+03 -0.27289377516E+03  0.54823684569E+03  0.76968689299E+03  0.12699999809E+01 0. -1.
       -4    1    3    3    0  502 -0.46624204963E+03  0.27289377516E+03 -0.45332074135E+03  0.70523327261E+03  0.12699999809E+01 0.  1.
</event>
<event>
 5   0  0.1339162E-03  0.1633611E+04  0.7818609E-02  0.8800162E-01
       -2   -1    0    0    0  501  0.00000000000E+00  0.00000000000E+00  0.53989686652E+03  0.53989686653E+03  0.25500000920E-02 0. -1.
        2   -1    0    0  501    0  0.00000000000E+00  0.00000000000E+00 -0.12357379034E+04  0.12357379034E+04  0.25500000920E-02 0.  1.
    10030    2    1    2    0    0  0.00000000000E+00  0.00000000000E+00 -0.69584103688E+03  0.17756347699E+04  0.16336107515E+04 0.  0.
        5    1    3    3  502    0 -0.12799995424E+03 -0.49032663350E+03  0.34835237970E+03  0.61495988994E+03  0.46999998093E+01 0. -1.
       -5    1    3    3    0  502  0.12799995424E+03  0.49032663350E+03 -0.10441934166E+04  0.11606748800E+04  0.46999998093E+01 0.  1.
</event>
<event>
 5   0  0.1354766E-03  0.1660354E+04  0.7818609E-02  0.8784305E-01
        2   -1    0    0  501    0  0.00000000000E+00  0.00000000000E+00  0.89666108017E+03  0.89666108017E+03  0.25500000920E-02 0.  1.
       -2   -1    0    0    0  501  0.00000000000E+00  0.00000000000E+00 -0.76862240674E+03  0.76862240675E+03  0.25500000920E-02 0. -1.
    10030    2    1    2    0    0  0.00000000000E+00  0.00000000000E+00  0.12803867342E+03  0.16652834869E+04  0.16603539351E+04 0.  0.
        3    1    3    3  502    0 -0.17065195184E+03  0.80198188130E+03 -0.66354133724E+02  0.82261771672E+03  0.10100000352E+00 0. -1.
       -3    1    3    3    0  502  0.17065195184E+03 -0.80198188130E+03  0.19439280715E+03  0.84266577020E+03  0.10100000352E+00 0.  1.
</event>
<event>
 5   0  0.1414796E-03  0.1678970E+04  0.7818609E-02  0.8773450E-01
       -2   -1    0    0    0  501  0.00000000000E+00  0.00000000000E+00  0.61483407582E+03  0.61483407583E+03  0.25500000920E-02 0.  1.
        2   -1    0    0  501    0  0.00000000000E+00  0.00000000000E+00 -0.11462200187E+04  0.11462200187E+04  0.25500000920E-02 0. -1.
    10030    2    1    2    0    0  0.00000000000E+00  0.00000000000E+00 -0.53138594289E+03  0.17610540945E+04  0.16789700723E+04 0.  0.
        4    1    3    3  502    0 -0.57583138422E+02  0.30009481981E+03  0.55442916403E+03  0.63306084189E+03  0.12699999809E+01 0.  1.
       -4    1    3    3    0  502  0.57583138422E+02 -0.30009481981E+03 -0.10858151069E+04  0.11279932527E+04  0.12699999809E+01 0. -1.
</event>
<event>
 5   0  0.7302027E-04  0.1535757E+04  0.7818609E-02  0.8861017E-01
       -1   -1    0    0    0  501  0.00000000000E+00  0.00000000000E+00  0.38954906333E+03  0.38954906336E+03  0.50400001928E-02 0. -1.
        1   -1    0    0  501    0  0.00000000000E+00  0.00000000000E+00 -0.15136404332E+04  0.15136404332E+04  0.50400001928E-02 0.  1.
    10030    2    1    2    0    0  0.00000000000E+00  0.00000000000E+00 -0.11240913699E+04  0.19031894966E+04  0.15357567685E+04 0.  0.
        5    1    3    3  502    0  0.39752506811E+03  0.17763364792E+02  0.25178850978E+03  0.47091534330E+03  0.46999998093E+01 0. -1.
       -5    1    3    3    0  502 -0.39752506811E+03 -0.17763364792E+02 -0.13758798797E+04  0.14322741533E+04  0.46999998093E+01 0.  1.
</event>
<event>
 5   0  0.7124495E-04  0.1621202E+04  0.7818609E-02  0.8807628E-01
       -1   -1    0    0    0  501  0.00000000000E+00  0.00000000000E+00  0.69329159686E+03  0.69329159688E+03  0.50400001928E-02 0. -1.
        1   -1    0    0  501    0  0.00000000000E+00  0.00000000000E+00 -0.94776008068E+03  0.94776008069E+03  0.50400001928E-02 0.  1.
    10030    2    1    2    0    0  0.00000000000E+00  0.00000000000E+00 -0.25446848382E+03  0.16410516776E+04  0.16212021463E+04 0.  0.
        2    1    3    3  502    0 -0.18647744522E+03  0.78878764819E+03 -0.13805665025E+03  0.82220400765E+03  0.25500000920E-02 0. -1.
       -2    1    3    3    0  502  0.18647744522E+03 -0.78878764819E+03 -0.11641183357E+03  0.81884766991E+03  0.25500000920E-02 0.  1.
</event>
<event>
 5   0  0.1414796E-03  0.1810210E+04  0.7818609E-02  0.8700889E-01
       -2   -1    0    0    0  501  0.00000000000E+00  0.00000000000E+00  0.77896747428E+03  0.77896747428E+03  0.25500000920E-02 0. -1.
        2   -1    0    0  501    0  0.00000000000E+00  0.00000000000E+00 -0.10516678003E+04  0.10516678003E+04  0.25500000920E-02 0.  1.
    10030    2    1    2    0    0  0.00000000000E+00  0.00000000000E+00 -0.27270032598E+03  0.18306352745E+04  0.18102099438E+04 0.  0.
        4    1    3    3  502    0  0.17062986846E+03  0.87196960917E+03  0.38130211567E+02  0.88932619284E+03  0.12699999809E+01 0. -1.
       -4    1    3    3    0  502 -0.17062986846E+03 -0.87196960917E+03 -0.31083053755E+03  0.94130908171E+03  0.12699999809E+01 0.  1.
</event>
<event>
 5   0  0.1354766E-03  0.1745031E+04  0.7818609E-02  0.8736090E-01
        2   -1    0    0  501    0  0.00000000000E+00  0.00000000000E+00  0.97811552685E+03  0.97811552685E+03  0.25500000920E-02 0.  1.
       -2   -1    0    0    0  501  0.00000000000E+00  0.00000000000E+00 -0.77831596309E+03  0.77831596309E+03  0.25500000920E-02 0. -1.
    10030    2    1    2    0    0  0.00000000000E+00  0.00000000000E+00  0.19979956376E+03  0.17564314899E+04  0.17450305766E+04 0.  0.
        3    1    3    3  502    0 -0.61048743114E+03 -0.37263382641E+03  0.60289668497E+03  0.93543321254E+03  0.10100000352E+00 0.  1.
       -3    1    3    3    0  502  0.61048743114E+03  0.37263382641E+03 -0.40309712122E+03  0.82099827741E+03  0.10100000352E+00 0. -1.
</event>
<event>
 5   0  0.5095750E-04  0.1556411E+04  0.7818609E-02  0.8847783E-01
        3   -1    0    0  501    0  0.00000000000E+00  0.00000000000E+00  0.54355640880E+03  0.54355641819E+03  0.10100000352E+00 0. -1.
       -3   -1    0    0    0  501  0.00000000000E+00  0.00000000000E+00 -0.11141511281E+04  0.11141511327E+04  0.10100000352E+00 0.  1.
    10030    2    1    2    0    0  0.00000000000E+00  0.00000000000E+00 -0.57059471934E+03  0.16577075509E+04  0.15564112537E+04 0.  0.
        3    1    3    3  502    0 -0.20557183894E+03 -0.59257711325E+03  0.20533109774E+03  0.65997597382E+03  0.10100000352E+00 0. -1.
       -3    1    3    3    0  502  0.20557183894E+03  0.59257711325E+03 -0.77592581708E+03  0.99773157709E+03  0.10100000352E+00 0.  1.
</event>
<event>
 5   0  0.1414751E-03  0.1227904E+04  0.7818609E-02  0.9088777E-01
        2   -1    0    0  501    0  0.00000000000E+00  0.00000000000E+00  0.74155966102E+03  0.74155966102E+03  0.25500000920E-02 0.  1.
       -2   -1    0    0    0  501  0.00000000000E+00  0.00000000000E+00 -0.50830288384E+03  0.50830288385E+03  0.25500000920E-02 0. -1.
    10030    2    1    2    0    0  0.00000000000E+00  0.00000000000E+00  0.23325677717E+03  0.12498625449E+04  0.12279037654E+04 0.  0.
        2    1    3    3  502    0  0.25813033039E+02 -0.83805136631E+02 -0.50189565584E+03  0.50949863882E+03  0.25500000920E-02 0. -1.
       -2    1    3    3    0  502 -0.25813033039E+02  0.83805136631E+02  0.73515243302E+03  0.74036390605E+03  0.25500000920E-02 0.  1.
</event>
<event>
 5   0  0.1414796E-03  0.1607975E+04  0.7818609E-02  0.8815664E-01
       -2   -1    0    0    0  501  0.00000000000E+00  0.00000000000E+00  0.53332612362E+03  0.53332612363E+03  0.25500000920E-02 0.  1.
        2   -1    0    0  501    0  0.00000000000E+00  0.00000000000E+00 -0.12120083553E+04  0.12120083553E+04  0.25500000920E-02 0. -1.
    10030    2    1    2    0    0  0.00000000000E+00  0.00000000000E+00 -0.67868223163E+03  0.17453344789E+04  0.16079747733E+04 0.  0.
        4    1    3    3  502    0  0.69756492499E+03 -0.32634911110E+03 -0.88766707200E+02  0.77523010009E+03  0.12699999809E+01 0.  1.
       -4    1    3    3    0  502 -0.69756492499E+03  0.32634911110E+03 -0.58991552443E+03  0.97010437879E+03  0.12699999809E+01 0. -1.
</event>
<event>
 5   0  0.7633213E-04  0.1582983E+04  0.7818609E-02  0.8831071E-01
       -1   -1    0    0    0  501  0.00000000000E+00  0.00000000000E+00  0.41146919731E+03  0.41146919735E+03  0.50400001928E-02 0.  1.
        1   -1    0    0  501    0  0.00000000000E+00  0.00000000000E+00 -0.15224928799E+04  0.15224928799E+04  0.50400001928E-02 0. -1.
    10030    2    1    2    0    0  0.00000000000E+00  0.00000000000E+00 -0.11110236826E+04  0.19339620773E+04  0.15829831626E+04 0.  0.
        1    1    3    3  502    0 -0.51011928128E+03 -0.43086391701E+03 -0.36326109908E+02  0.66871891136E+03  0.50400001928E-02 0.  1.
       -1    1    3    3    0  502  0.51011928128E+03  0.43086391701E+03 -0.10746975727E+04  0.12652431659E+04  0.50400001928E-02 0. -1.
</event>
<event>
 5   0  0.1414751E-03  0.1532601E+04  0.7818609E-02  0.8863058E-01
        2   -1    0    0  501    0  0.00000000000E+00  0.00000000000E+00  0.17833804082E+04  0.17833804082E+04  0.25500000920E-02 0.  1.
       -2   -1    0    0    0  501  0.00000000000E+00  0.00000000000E+00 -0.32927167062E+03  0.32927167063E+03  0.25500000920E-02 0. -1.
    10030    2    1    2    0    0  0.00000000000E+00  0.00000000000E+00  0.14541087376E+04  0.21126520788E+04  0.15326012480E+04 0.  0.
        2    1    3    3  502    0  0.56401253365E+03  0.29899707482E+03  0.13114158950E+04  0.14585338661E+04  0.25500000920E-02 0.  1.
       -2    1    3    3    0  502 -0.56401253365E+03 -0.29899707482E+03  0.14269284254E+03  0.65411821270E+03  0.25500000920E-02 0. -1.
</event>
<event>
 5   0  0.7302027E-04  0.1772886E+04  0.7818609E-02  0.8720852E-01
       -1   -1    0    0    0  501  0.00000000000E+00  0.00000000000E+00  0.10324711887E+04  0.10324711887E+04  0.50400001928E-02 0.  1.
        1   -1    0    0  501    0  0.00000000000E+00  0.00000000000E+00 -0.76106881747E+03  0.76106881748E+03  0.50400001928E-02 0. -1.
    10030    2    1    2    0    0  0.00000000000E+00  0.00000000000E+00  0.27140237119E+03  0.17935400062E+04  0.17728864900E+04 0.  0.
        5    1    3    3  502    0 -0.40301027499E+02 -0.17679743862E+03  0.10134948656E+04  0.10295996502E+04  0.46999998093E+01 0.  1.
       -5    1    3    3    0  502  0.40301027499E+02  0.17679743862E+03 -0.74209249443E+03  0.76394035592E+03  0.46999998093E+01 0. -1.
</event>
<event>
 5   0  0.7499834E-04  0.1581098E+04  0.7818609E-02  0.8832245E-01
        1   -1    0    0  501    0  0.00000000000E+00  0.00000000000E+00  0.15326374900E+04  0.15326374901E+04  0.50400001928E-02 0. -1.
       -1   -1    0    0    0  501  0.00000000000E+00  0.00000000000E+00 -0.40777260187E+03  0.40777260190E+03  0.50400001928E-02 0.  1.
    10030    2    1    2    0    0  0.00000000000E+00  0.00000000000E+00  0.11248648882E+04  0.19404100920E+04  0.15810978174E+04 0.  0.
        3    1    3    3  502    0  0.12590826166E+03  0.51989846167E+03  0.12767963038E+04  0.13843251469E+04  0.10100000352E+00 0. -1.
       -3    1    3    3    0  502 -0.12590826166E+03 -0.51989846167E+03 -0.15193141565E+03  0.55608494501E+03  0.10100000352E+00 0.  1.
</event>
<event>
 5   0  0.1339162E-03  0.1581895E+04  0.7818609E-02  0.8831748E-01
       -2   -1    0    0    0  501  0.00000000000E+00  0.00000000000E+00  0.29234488932E+03  0.29234488933E+03  0.25500000920E-02 0. -1.
        2   -1    0    0  501    0  0.00000000000E+00  0.00000000000E+00 -0.21399321339E+04  0.21399321339E+04  0.25500000920E-02 0.  1.
    10030    2    1    2    0    0  0.00000000000E+00  0.00000000000E+00 -0.18475872446E+04  0.24322770233E+04  0.15818953478E+04 0.  0.
        5    1    3    3  502    0 -0.63351811608E+03 -0.22932474593E+03 -0.28678410534E+03  0.73225832571E+03  0.46999998093E+01 0. -1.
       -5    1    3    3    0  502  0.63351811608E+03  0.22932474593E+03 -0.15608031393E+04  0.17000186976E+04  0.46999998093E+01 0.  1.
</event>
<event>
 5   0  0.7302027E-04  0.1458793E+04  0.7818609E-02  0.8912327E-01
        1   -1    0    0  501    0  0.00000000000E+00  0.00000000000E+00  0.26899375212E+04  0.26899375212E+04  0.50400001928E-02 0.  1.
       -1   -1    0    0    0  501  0.00000000000E+00  0.00000000000E+00 -0.19778124915E+03  0.19778124922E+03  0.50400001928E-02 0. -1.
    10030    2    1    2    0    0  0.00000000000E+00  0.00000000000E+00  0.24921562721E+04  0.28877187704E+04  0.14587929300E+04 0.  0.
        5    1    3    3  502    0  0.65912901977E+03 -0.78523452703E+01  0.62802077486E+03  0.91046411664E+03  0.46999998093E+01 0. -1.
       -5    1    3    3    0  502 -0.65912901977E+03  0.78523452703E+01  0.18641354972E+04  0.19772546538E+04  0.46999998093E+01 0.  1.
</event>
<event>
 5   0  0.1354766E-03  0.1647324E+04  0.7818609E-02  0.8791991E-01
       -2   -1    0    0    0  501  0.00000000000E+00  0.00000000000E+00  0.54946333448E+03  0.54946333448E+03  0.25500000920E-02 0. -1.
        2   -1    0    0  501    0  0.00000000000E+00  0.00000000000E+00 -0.12346936925E+04  0.12346936925E+04  0.25500000920E-02 0.  1.
    10030    2    1    2    0    0  0.00000000000E+00  0.00000000000E+00 -0.68523035800E+03  0.17841570270E+04  0.16473237852E+04 0.  0.
        3    1    3    3  502    0 -0.98839895795E+02  0.66119861198E+03 -0.86368711591E+03  0.10922034489E+04  0.10100000352E+00 0.  1.
       -3    1    3    3    0  502  0.98839895795E+02 -0.66119861198E+03  0.17845675791E+03  0.69195357802E+03  0.10100000352E+00 0. -1.
</event>
<event>
 5   0  0.7633213E-04  0.1596082E+04  0.7818609E-02  0.8822959E-01
       -1   -1    0    0    0  501  0.00000000000E+00  0.00000000000E+00  0.46121854072E+03  0.46121854075E+03  0.50400001928E-02 0.  1.
        1   -1    0    0  501    0  0.00000000000E+00  0.00000000000E+00 -0.13808409216E+04  0.13808409216E+04  0.50400001928E-02 0. -1.
    10030    2    1    2    0    0  0.00000000000E+00  0.00000000000E+00 -0.91962238089E+03  0.18420594624E+04  0.15960819965E+04 0.  0.
        1    1    3    3  502    0 -0.75199883811E+02 -0.26202761337E+03  0.40581682698E+03  0.48887707021E+03  0.50400001928E-02 0.  1.
       -1    1    3    3    0  502  0.75199883811E+02  0.26202761337E+03 -0.13254392079E+04  0.13531823922E+04  0.50400001928E-02 0. -1.
</event>
<event>
 5   0  0.7302027E-04  0.1654327E+04  0.7818609E-02  0.8787851E-01
       -1   -1    0    0    0  501  0.00000000000E+00  0.00000000000E+00  0.14396011923E+04  0.14396011923E+04  0.50400001928E-02 0. -1.
        1   -1    0    0  501    0  0.00000000000E+00  0.00000000000E+00 -0.47526997135E+03  0.47526997138E+03  0.50400001928E-02 0.  1.
    10030    2    1    2    0    0  0.00000000000E+00  0.00000000000E+00  0.96433122092E+03  0.19148711637E+04  0.16543267119E+04 0.  0.
        5    1    3    3  502    0  0.13674341432E+03  0.50830703159E+03 -0.25636766830E+03  0.58550941160E+03  0.46999998093E+01 0.  1.
       -5    1    3    3    0  502 -0.13674341432E+03 -0.50830703159E+03  0.12206988892E+04  0.13293617521E+04  0.46999998093E+01 0. -1.
</event>
<event>
 5   0  0.1354766E-03  0.1595924E+04  0.7818609E-02  0.8823056E-01
       -2   -1    0    0    0  501  0.00000000000E+00  0.00000000000E+00  0.60525011509E+03  0.60525011509E+03  0.25500000920E-02 0.  1.
        2   -1    0    0  501    0  0.00000000000E+00  0.00000000000E+00 -0.10520333340E+04  0.10520333340E+04  0.25500000920E-02 0. -1.
    10030    2    1    2    0    0  0.00000000000E+00  0.00000000000E+00 -0.44678321890E+03  0.16572834491E+04  0.15959239286E+04 0.  0.
        3    1    3    3  502    0 -0.79302086986E+03 -0.88663099745E+02 -0.22318139219E+03  0.82858505256E+03  0.10100000352E+00 0.  1.
       -3    1    3    3    0  502  0.79302086986E+03  0.88663099745E+02 -0.22360182671E+03  0.82869839653E+03  0.10100000352E+00 0. -1.
</event>
<event>
 5   0  0.1339162E-03  0.1623026E+04  0.7818609E-02  0.8806526E-01
        2   -1    0    0  501    0  0.00000000000E+00  0.00000000000E+00  0.10741691948E+04  0.10741691948E+04  0.25500000920E-02 0. -1.
       -2   -1    0    0    0  501  0.00000000000E+00  0.00000000000E+00 -0.61308122210E+03  0.61308122210E+03  0.25500000920E-02 0.  1.
    10030    2    1    2    0    0  0.00000000000E+00  0.00000000000E+00  0.46108797274E+03  0.16872504169E+04  0.16230255238E+04 0.  0.
        5    1    3    3  502    0 -0.43775593632E+03 -0.54924522597E+03  0.65311434811E+03  0.95910427991E+03  0.46999998093E+01 0. -1.
       -5    1    3    3    0  502  0.43775593632E+03  0.54924522597E+03 -0.19202637537E+03  0.72814613703E+03  0.46999998093E+01 0.  1.
</event>
<event>
 5   0  0.1339162E-03  0.1618732E+04  0.7818609E-02  0.8809122E-01
        2   -1    0    0  501    0  0.00000000000E+00  0.00000000000E+00  0.96912491876E+03  0.96912491876E+03  0.25500000920E-02 0.  1.
       -2   -1    0    0    0  501  0.00000000000E+00  0.00000000000E+00 -0.67594290879E+03  0.67594290879E+03  0.25500000920E-02 0. -1.
    10030    2    1    2    0    0  0.00000000000E+00  0.00000000000E+00  0.29318200997E+03  0.16450678276E+04  0.16187317462E+04 0.  0.
        5    1    3    3  502    0  0.92220674147E+02  0.66416812248E+03  0.60720567994E+03  0.90462410724E+03  0.46999998093E+01 0.  1.
       -5    1    3    3    0  502 -0.92220674147E+02 -0.66416812248E+03 -0.31402366997E+03  0.74044372031E+03  0.46999998093E+01 0. -1.
</event>
<event>
 5   0  0.7601145E-04  0.1727506E+04  0.7818609E-02  0.8745830E-01
       -1   -1    0    0    0  501  0.00000000000E+00  0.00000000000E+00  0.10657331055E+04  0.10657331055E+04  0.50400001928E-02 0.  1.
        1   -1    0    0  501    0  0.00000000000E+00  0.00000000000E+00 -0.70005287104E+03  0.70005287106E+03  0.50400001928E-02 0. -1.
    10030    2    1    2    0    0  0.00000000000E+00  0.00000000000E+00  0.36568023446E+03  0.17657859766E+04  0.17275063187E+04 0.  0.
        4    1    3    3  502    0  0.21013563723E+03  0.27926815044E+03  0.99022934295E+03  0.10500968767E+04  0.12699999809E+01 0.  1.
       -4    1    3    3    0  502 -0.21013563723E+03 -0.27926815044E+03 -0.62454910849E+03  0.71568909989E+03  0.12699999809E+01 0. -1.
</event>
<event>
 5   0  0.5095750E-04  0.1576496E+04  0.7818609E-02  0.8835119E-01
        3   -1    0    0  501    0  0.00000000000E+00  0.00000000000E+00  0.77711167643E+03  0.77711168300E+03  0.10100000352E+00 0.  1.
       -3   -1    0    0    0  501  0.00000000000E+00  0.00000000000E+00 -0.79954388067E+03  0.79954388705E+03  0.10100000352E+00 0. -1.
    10030    2    1    2    0    0  0.00000000000E+00  0.00000000000E+00 -0.22432204236E+02  0.15766555700E+04  0.15764959825E+04 0.  0.
        4    1    3    3  502    0 -0.67970635647E+03  0.33148667282E+03  0.21117802868E+03  0.78516362498E+03  0.12699999809E+01 0.  1.
       -4    1    3    3    0  502  0.67970635647E+03 -0.33148667282E+03 -0.23361023291E+03  0.79149194507E+03  0.12699999809E+01 0. -1.
</event>
<event>
 5   0  0.7601145E-04  0.1045399E+04  0.7818609E-02  0.9260107E-01
       -1   -1    0    0    0  501  0.00000000000E+00  0.00000000000E+00  0.29305741956E+03  0.29305741960E+03  0.50400001928E-02 0.  1.
        1   -1    0    0  501    0  0.00000000000E+00  0.00000000000E+00 -0.93229063710E+03  0.93229063712E+03  0.50400001928E-02 0. -1.
    10030    2    1    2    0    0  0.00000000000E+00  0.00000000000E+00 -0.63923321755E+03  0.12253480567E+04  0.10453988491E+04 0.  0.
        4    1    3    3  502    0  0.29509769002E+03  0.15806702860E+03  0.15091217310E+03  0.36721101437E+03  0.12699999809E+01 0.  1.
       -4    1    3    3    0  502 -0.29509769002E+03 -0.15806702860E+03 -0.79014539065E+03  0.85813704235E+03  0.12699999809E+01 0. -1.
</event>
<event>
 5   0  0.7499834E-04  0.1567762E+04  0.7818609E-02  0.8840602E-01
        1   -1    0    0  501    0  0.00000000000E+00  0.00000000000E+00  0.18998521245E+04  0.18998521245E+04  0.50400001928E-02 0. -1.
       -1   -1    0    0    0  501  0.00000000000E+00  0.00000000000E+00 -0.32343002658E+03  0.32343002662E+03  0.50400001928E-02 0.  1.
    10030    2    1    2    0    0  0.00000000000E+00  0.00000000000E+00  0.15764220979E+04  0.22232821511E+04  0.15677617461E+04 0.  0.
        3    1    3    3  502    0 -0.39245315217E+03 -0.60855190442E+03  0.36250343944E+03  0.80979235044E+03  0.10100000352E+00 0.  1.
       -3    1    3    3    0  502  0.39245315217E+03  0.60855190442E+03  0.12139186585E+04  0.14134898007E+04  0.10100000352E+00 0. -1.
</event>
<event>
 5   0  0.7601145E-04  0.1606136E+04  0.7818609E-02  0.8816787E-01
       -1   -1    0    0    0  501  0.00000000000E+00  0.00000000000E+00  0.97097747468E+03  0.97097747469E+03  0.50400001928E-02 0. -1.
        1   -1    0    0  501    0  0.00000000000E+00  0.00000000000E+00 -0.66419470794E+03  0.66419470796E+03  0.50400001928E-02 0.  1.
    10030    2    1    2    0    0  0.00000000000E+00  0.00000000000E+00  0.30678276674E+03  0.16351721826E+04  0.16061358600E+04 0.  0.
        4    1    3    3  502    0  0.69194967612E+03  0.36800076676E+03 -0.24983294484E+02  0.78412033293E+03  0.12699999809E+01 0. -1.
       -4    1    3    3    0  502 -0.69194967612E+03 -0.36800076676E+03  0.33176606122E+03  0.85105184971E+03  0.12699999809E+01 0.  1.
</event>
<event>
 5   0  0.1354766E-03  0.1611608E+04  0.7818609E-02  0.8813448E-01
       -2   -1    0    0    0  501  0.00000000000E+00  0.00000000000E+00  0.73348542432E+03  0.73348542433E+03  0.25500000920E-02 0. -1.
        2   -1    0    0  501    0  0.00000000000E+00  0.00000000000E+00 -0.88525304688E+03  0.88525304688E+03  0.25500000920E-02 0.  1.
    10030    2    1    2    0    0  0.00000000000E+00  0.00000000000E+00 -0.15176762256E+03  0.16187384712E+04  0.16116081493E+04 0.  0.
        3    1    3    3  502    0  0.23831329022E+03 -0.69639238004E+03 -0.40530533208E+03  0.84025471953E+03  0.10100000352E+00 0.  1.
       -3    1    3    3    0  502 -0.23831329022E+03  0.69639238004E+03  0.25353770952E+03  0.77848375168E+03  0.10100000352E+00 0. -1.
</event>
<event>
 5   0  0.1339162E-03  0.1596467E+04  0.7818609E-02  0.8822721E-01
        2   -1    0    0  501    0  0.00000000000E+00  0.00000000000E+00  0.12688674157E+04  0.12688674157E+04  0.25500000920E-02 0.  1.
       -2   -1    0    0    0  501  0.00000000000E+00  0.00000000000E+00 -0.50216177437E+03  0.50216177438E+03  0.25500000920E-02 0. -1.
    10030    2    1    2    0    0  0.00000000000E+00  0.00000000000E+00  0.76670564132E+03  0.17710291901E+04  0.15964669905E+04 0.  0.
        5    1    3    3  502    0 -0.14780552219E+03  0.68738787910E+03 -0.35864372473E+02  0.70402905617E+03  0.46999998093E+01 0. -1.
       -5    1    3    3    0  502  0.14780552219E+03 -0.68738787910E+03  0.80257001379E+03  0.10670001339E+04  0.46999998093E+01 0.  1.
</event>
<event>
 5   0  0.1339162E-03  0.1546637E+04  0.7818609E-02  0.8854019E-01
        2   -1    0    0  501    0  0.00000000000E+00  0.00000000000E+00  0.19908686474E+04  0.19908686474E+04  0.25500000920E-02 0. -1.
       -2   -1    0    0    0  501  0.00000000000E+00  0.00000000000E+00 -0.30038216981E+03  0.30038216982E+03  0.25500000920E-02 0.  1.
    10030    2    1    2    0    0  0.00000000000E+00  0.00000000000E+00  0.16904864776E+04  0.22912508172E+04  0.15466369246E+04 0.  0.
        5    1    3    3  502    0  0.99733244892E+02  0.74045789027E+03  0.11406959434E+04  0.13636106235E+04  0.46999998093E+01 0. -1.
       -5    1    3    3    0  502 -0.99733244892E+02 -0.74045789027E+03  0.54979053420E+03  0.92764019366E+03  0.46999998093E+01 0.  1.
</event>
<event>
 5   0  0.7633213E-04  0.1619472E+04  0.7818609E-02  0.8808674E-01
        1   -1    0    0  501    0  0.00000000000E+00  0.00000000000E+00  0.16051810154E+04  0.16051810154E+04  0.50400001928E-02 0. -1.
       -1   -1    0    0    0  501  0.00000000000E+00  0.00000000000E+00 -0.40847243636E+03  0.40847243640E+03  0.50400001928E-02 0.  1.
    10030    2    1    2    0    0  0.00000000000E+00  0.00000000000E+00  0.11967085790E+04  0.20136534518E+04  0.16194717660E+04 0.  0.
        1    1    3    3  502    0 -0.50491758967E+03  0.63054990089E+03  0.66799864688E+03  0.10482161715E+04  0.50400001928E-02 0.  1.
       -1    1    3    3    0  502  0.50491758967E+03 -0.63054990089E+03  0.52870993216E+03  0.96543728034E+03  0.50400001928E-02 0. -1.
</event>
<event>
 5   0  0.1375777E-03  0.1589328E+04  0.7818609E-02  0.8827131E-01
        2   -1    0    0  501    0  0.00000000000E+00  0.00000000000E+00  0.95647161180E+03  0.95647161180E+03  0.25500000920E-02 0.  1.
       -2   -1    0    0    0  501  0.00000000000E+00  0.00000000000E+00 -0.66022919191E+03  0.66022919191E+03  0.25500000920E-02 0. -1.
    10030    2    1    2    0    0  0.00000000000E+00  0.00000000000E+00  0.29624241989E+03  0.16167008037E+04  0.15893275048E+04 0.  0.
        1    1    3    3  502    0  0.45710077066E+03 -0.50215457350E+03 -0.27177165640E+03  0.73140970972E+03  0.50400001928E-02 0. -1.
       -1    1    3    3    0  502 -0.45710077066E+03  0.50215457350E+03  0.56801407629E+03  0.88529109400E+03  0.50400001928E-02 0.  1.
</event>
<event>
 5   0  0.1375777E-03  0.1682613E+04  0.7818609E-02  0.8771343E-01
       -2   -1    0    0    0  501  0.00000000000E+00  0.00000000000E+00  0.69712822448E+03  0.69712822449E+03  0.25500000920E-02 0. -1.
        2   -1    0    0  501    0  0.00000000000E+00  0.00000000000E+00 -0.10153039546E+04  0.10153039546E+04  0.25500000920E-02 0.  1.
    10030    2    1    2    0    0  0.00000000000E+00  0.00000000000E+00 -0.31817573009E+03  0.17124321791E+04  0.16826134947E+04 0.  0.
        1    1    3    3  502    0  0.34901127009E+02 -0.12364044869E+03 -0.10052620586E+04  0.10134381361E+04  0.50400001928E-02 0.  1.
       -1    1    3    3    0  502 -0.34901127009E+02  0.12364044869E+03  0.68708632852E+03  0.69899404295E+03  0.50400001928E-02 0. -1.
</event>
<event>
 5   0  0.7499834E-04  0.1540410E+04  0.7818609E-02  0.8858017E-01
       -1   -1    0    0    0  501  0.00000000000E+00  0.00000000000E+00  0.36543078967E+03  0.36543078971E+03  0.50400001928E-02 0. -1.
        1   -1    0    0  501    0  0.00000000000E+00  0.00000000000E+00 -0.16233317811E+04  0.16233317811E+04  0.50400001928E-02 0.  1.
    10030    2    1    2    0    0  0.00000000000E+00  0.00000000000E+00 -0.12579009914E+04  0.19887625708E+04  0.15404095750E+04 0.  0.
        3    1    3    3  502    0  0.25840496583E+03 -0.43542445326E+03 -0.13782640717E+04  0.14683253871E+04  0.10100000352E+00 0.  1.
       -3    1    3    3    0  502 -0.25840496583E+03  0.43542445326E+03  0.12036308030E+03  0.52043718369E+03  0.10100000352E+00 0. -1.
</event>
<event>
 5   0  0.1414796E-03  0.1628857E+04  0.7818609E-02  0.8803013E-01
        2   -1    0    0  501    0  0.00000000000E+00  0.00000000000E+00  0.21383161689E+04  0.21383161689E+04  0.25500000920E-02 0. -1.
       -2   -1    0    0    0  501  0.00000000000E+00  0.00000000000E+00 -0.31019458157E+03  0.31019458158E+03  0.25500000920E-02 0.  1.
    10030    2    1    2    0    0  0.00000000000E+00  0.00000000000E+00  0.18281215874E+04  0.24485107505E+04  0.16288573778E+04 0.  0.
        4    1    3    3  502    0  0.21474131596E+02  0.54081987145E+02 -0.30706428699E+03  0.31253174064E+03  0.12699999809E+01 0.  1.
       -4    1    3    3    0  502 -0.21474131596E+02 -0.54081987145E+02  0.21351858743E+04  0.21359790099E+04  0.12699999809E+01 0. -1.
</event>
<event>
 5   0  0.7124495E-04  0.1595442E+04  0.7818609E-02  0.8823353E-01
       -1   -1    0    0    0  501  0.00000000000E+00  0.00000000000E+00  0.73137177549E+03  0.73137177551E+03  0.50400001928E-02 0.  1.
        1   -1    0    0  501    0  0.00000000000E+00  0.00000000000E+00 -0.87008955454E+03  0.87008955456E+03  0.50400001928E-02 0. -1.
    10030    2    1    2    0    0  0.00000000000E+00  0.00000000000E+00 -0.13871777906E+03  0.16014613301E+04  0.15954421862E+04 0.  0.
        2    1    3    3  502    0  0.40932110627E+03 -0.40975554309E+03  0.48126837807E+03  0.75303560664E+03  0.25500000920E-02 0.  1.
       -2    1    3    3    0  502 -0.40932110627E+03  0.40975554309E+03 -0.61998615713E+03  0.84842572342E+03  0.25500000920E-02 0. -1.
</event>
<event>
 5   0  0.1414751E-03  0.1640804E+04  0.7818609E-02  0.8795866E-01
       -2   -1    0    0    0  501  0.00000000000E+00  0.00000000000E+00  0.49866366740E+03  0.49866366741E+03  0.25500000920E-02 0.  1.
        2   -1    0    0  501    0  0.00000000000E+00  0.00000000000E+00 -0.13497258641E+04  0.13497258641E+04  0.25500000920E-02 0. -1.
    10030    2    1    2    0    0  0.00000000000E+00  0.00000000000E+00 -0.85106219667E+03  0.18483895315E+04  0.16408037657E+04 0.  0.
        2    1    3    3  502    0  0.18023034255E+03 -0.36638345119E+03  0.37606894952E+03  0.55511049754E+03  0.25500000920E-02 0.  1.
       -2    1    3    3    0  502 -0.18023034255E+03  0.36638345119E+03 -0.12271311462E+04  0.12932790339E+04  0.25500000920E-02 0. -1.
</event>
<event>
 5   0  0.7633213E-04  0.1536828E+04  0.7818609E-02  0.8860326E-01
       -1   -1    0    0    0  501  0.00000000000E+00  0.00000000000E+00  0.95973829750E+03  0.95973829752E+03  0.50400001928E-02 0.  1.
        1   -1    0    0  501    0  0.00000000000E+00  0.00000000000E+00 -0.61523015206E+03  0.61523015208E+03  0.50400001928E-02 0. -1.
    10030    2    1    2    0    0  0.00000000000E+00  0.00000000000E+00  0.34450814544E+03  0.15749684496E+04  0.15368278222E+04 0.  0.
        1    1    3    3  502    0  0.11643482452E+02  0.76332281228E+03  0.82545033922E+02  0.76786129547E+03  0.50400001928E-02 0. -1.
       -1    1    3    3    0  502 -0.11643482452E+02 -0.76332281228E+03  0.26196311152E+03  0.80710715413E+03  0.50400001928E-02 0.  1.
</event>
<event>
 5   0  0.1414751E-03  0.1575077E+04  0.7818609E-02  0.8836007E-01
        2   -1    0    0  501    0  0.00000000000E+00  0.00000000000E+00  0.15594724944E+04  0.15594724944E+04  0.25500000920E-02 0.  1.
       -2   -1    0    0    0  501  0.00000000000E+00  0.00000000000E+00 -0.39770948687E+03  0.39770948688E+03  0.25500000920E-02 0. -1.
    10030    2    1    2    0    0  0.00000000000E+00  0.00000000000E+00  0.11617630075E+04  0.19571819813E+04  0.15750771480E+04 0.  0.
        2    1    3    3  502    0 -0.92192215803E+02 -0.63377049865E+03  0.11381982405E+02  0.64054195737E+03  0.25500000920E-02 0. -1.
       -2    1    3    3    0  502  0.92192215803E+02  0.63377049865E+03  0.11503810251E+04  0.13166400239E+04  0.25500000920E-02 0.  1.
</event>
<event>
 5   0  0.1339162E-03  0.1628257E+04  0.7818609E-02  0.8803374E-01
       -2   -1    0    0    0  501  0.00000000000E+00  0.00000000000E+00  0.48875542603E+03  0.48875542604E+03  0.25500000920E-02 0.  1.
        2   -1    0    0  501    0  0.00000000000E+00  0.00000000000E+00 -0.13561086473E+04  0.13561086473E+04  0.25500000920E-02 0. -1.
    10030    2    1    2    0    0  0.00000000000E+00  0.00000000000E+00 -0.86735322125E+03  0.18448640733E+04  0.16282573011E+04 0.  0.
        5    1    3    3  502    0  0.24721321153E+03 -0.46583957289E+03  0.26904168153E+03  0.59205269699E+03  0.46999998093E+01 0.  1.
       -5    1    3    3    0  502 -0.24721321153E+03  0.46583957289E+03 -0.11363949028E+04  0.12528113763E+04  0.46999998093E+01 0. -1.
</event>
<event>
 5   0  0.1339162E-03  0.1503845E+04  0.7818609E-02  0.8881900E-01
        2   -1    0    0  501    0  0.00000000000E+00  0.00000000000E+00  0.12984142836E+04  0.12984142836E+04  0.25500000920E-02 0.  1.
       -2   -1    0    0    0  501  0.00000000000E+00  0.00000000000E+00 -0.43544482795E+03  0.43544482795E+03  0.25500000920E-02 0. -1.
    10030    2    1    2    0    0  0.00000000000E+00  0.00000000000E+00  0.86296945562E+03  0.17338591115E+04  0.15038454499E+04 0.  0.
        5    1    3    3  502    0 -0.43467204118E+03 -0.27163634953E+03  0.10657537185E+04  0.11826153932E+04  0.46999998093E+01 0.  1.
       -5    1    3    3    0  502  0.43467204118E+03  0.27163634953E+03 -0.20278426283E+03  0.55124371835E+03  0.46999998093E+01 0. -1.
</event>
<event>
 5   0  0.5095750E-04  0.1597015E+04  0.7818609E-02  0.8822384E-01
        4   -1    0    0  501    0  0.00000000000E+00  0.00000000000E+00  0.26324926979E+03  0.26325233321E+03  0.12699999809E+01 0. -1.
       -4   -1    0    0    0  501  0.00000000000E+00  0.00000000000E+00 -0.24220760807E+04  0.24220764137E+04  0.12699999809E+01 0.  1.
    10030    2    1    2    0    0  0.00000000000E+00  0.00000000000E+00 -0.21588268110E+04  0.26853287469E+04  0.15970151155E+04 0.  0.
        2    1    3    3  502    0  0.21487655151E+03  0.58668981921E+03 -0.19154890195E+04  0.20148139021E+04  0.25500000920E-02 0.  1.
       -2    1    3    3    0  502 -0.21487655151E+03 -0.58668981921E+03 -0.24333779149E+03  0.67051484482E+03  0.25500000920E-02 0. -1.
</event>
<event>
 5   0  0.7499834E-04  0.1619971E+04  0.7818609E-02  0.8808372E-01
       -1   -1    0    0    0  501  0.00000000000E+00  0.00000000000E+00  0.58114699743E+03  0.58114699746E+03  0.50400001928E-02 0. -1.
        1   -1    0    0  501    0  0.00000000000E+00  0.00000000000E+00 -0.11289332485E+04  0.11289332485E+04  0.50400001928E-02 0.  1.
    10030    2    1    2    0    0  0.00000000000E+00  0.00000000000E+00 -0.54778625109E+03  0.17100802460E+04  0.16199705772E+04 0.  0.
        3    1    3    3  502    0 -0.91069892150E+02  0.24907155251E+03 -0.10818049286E+04  0.11138367373E+04  0.10100000352E+00 0.  1.
       -3    1    3    3    0  502  0.91069892150E+02 -0.24907155251E+03  0.53401867753E+03  0.59624350871E+03  0.10100000352E+00 0. -1.
</event>
<event>
 5   0  0.7499834E-04  0.1512546E+04  0.7818609E-02  0.8876153E-01
        1   -1    0    0  501    0  0.00000000000E+00  0.00000000000E+00  0.93103398307E+03  0.93103398308E+03  0.50400001928E-02 0.  1.
       -1   -1    0    0    0  501  0.00000000000E+00  0.00000000000E+00 -0.61431563092E+03  0.61431563094E+03  0.50400001928E-02 0. -1.
    10030    2    1    2    0    0  0.00000000000E+00  0.00000000000E+00  0.31671835215E+03  0.15453496140E+04  0.15125458390E+04 0.  0.
        3    1    3    3  502    0  0.64180142204E+03 -0.29409962108E+03  0.43543266544E+03  0.82946083017E+03  0.10100000352E+00 0.  1.
       -3    1    3    3    0  502 -0.64180142204E+03  0.29409962108E+03 -0.11871431330E+03  0.71588878385E+03  0.10100000352E+00 0. -1.
</event>
<event>
 5   0  0.7302027E-04  0.1607080E+04  0.7818609E-02  0.8816210E-01
        1   -1    0    0  501    0  0.00000000000E+00  0.00000000000E+00  0.23390719826E+04  0.23390719826E+04  0.50400001928E-02 0.  1.
       -1   -1    0    0    0  501  0.00000000000E+00  0.00000000000E+00 -0.27603949815E+03  0.27603949820E+03  0.50400001928E-02 0. -1.
    10030    2    1    2    0    0  0.00000000000E+00  0.00000000000E+00  0.20630324844E+04  0.26151114808E+04  0.16070796574E+04 0.  0.
        5    1    3    3  502    0  0.31581069766E+03  0.25685836904E+02  0.22330993925E+04  0.22554713799E+04  0.46999998093E+01 0.  1.
       -5    1    3    3    0  502 -0.31581069766E+03 -0.25685836904E+02 -0.17006690801E+03  0.35964010090E+03  0.46999998093E+01 0. -1.
</event>
<event>
 5   0  0.1375777E-03  0.1667310E+04  0.7818609E-02  0.8780231E-01
       -2   -1    0    0    0  501  0.00000000000E+00  0.00000000000E+00  0.12410168042E+04  0.12410168042E+04  0.25500000920E-02 0. -1.
        2   -1    0    0  501    0  0.00000000000E+00  0.00000000000E+00 -0.56000918234E+03  0.56000918235E+03  0.25500000920E-02 0.  1.
    10030    2    1    2    0    0  0.00000000000E+00  0.00000000000E+00  0.68100762190E+03  0.18010259866E+04  0.16673101761E+04 0.  0.
        1    1    3    3  502    0  0.30425512854E+03  0.62911806205E+02 -0.49513411169E+03  0.58453987647E+03  0.50400001928E-02 0.  1.
       -1    1    3    3    0  502 -0.30425512854E+03 -0.62911806205E+02  0.11761417336E+04  0.12164861101E+04  0.50400001928E-02 0. -1.
</event>
<event>
 5   0  0.7302027E-04  0.1612876E+04  0.7818609E-02  0.8812677E-01
        1   -1    0    0  501    0  0.00000000000E+00  0.00000000000E+00  0.49608883464E+03  0.49608883467E+03  0.50400001928E-02 0.  1.
       -1   -1    0    0    0  501  0.00000000000E+00  0.00000000000E+00 -0.13109387008E+04  0.13109387008E+04  0.50400001928E-02 0. -1.
    10030    2    1    2    0    0  0.00000000000E+00  0.00000000000E+00 -0.81484986620E+03  0.18070275355E+04  0.16128757577E+04 0.  0.
        5    1    3    3  502    0  0.29238119134E+02  0.79457306916E+03 -0.25661575831E+03  0.83550880741E+03  0.46999998093E+01 0.  1.
       -5    1    3    3    0  502 -0.29238119134E+02 -0.79457306916E+03 -0.55823410789E+03  0.97151872810E+03  0.46999998093E+01 0. -1.
</event>
<event>
 5   0  0.1375777E-03  0.1531469E+04  0.7818609E-02  0.8863792E-01
       -2   -1    0    0    0  501  0.00000000000E+00  0.00000000000E+00  0.39254724245E+03  0.39254724246E+03  0.25500000920E-02 0. -1.
        2   -1    0    0  501    0  0.00000000000E+00  0.00000000000E+00 -0.14937038733E+04  0.14937038733E+04  0.25500000920E-02 0.  1.
    10030    2    1    2    0    0  0.00000000000E+00  0.00000000000E+00 -0.11011566308E+04  0.18862511157E+04  0.15314690157E+04 0.  0.
        1    1    3    3  502    0  0.63525636471E+03 -0.42691329075E+03 -0.57929821015E+03  0.95989167255E+03  0.50400001928E-02 0.  1.
       -1    1    3    3    0  502 -0.63525636471E+03  0.42691329075E+03 -0.52185842068E+03  0.92635944319E+03  0.50400001928E-02 0. -1.
</event>
<event>
 5   0  0.1354766E-03  0.1653567E+04  0.7818609E-02  0.8788299E-01
        2   -1    0    0  501    0  0.00000000000E+00  0.00000000000E+00  0.10903269238E+04  0.10903269238E+04  0.25500000920E-02 0. -1.
       -2   -1    0    0    0  501  0.00000000000E+00  0.00000000000E+00 -0.62694116308E+03  0.62694116309E+03  0.25500000920E-02 0.  1.
    10030    2    1    2    0    0  0.00000000000E+00  0.00000000000E+00  0.46338576068E+03  0.17172680868E+04  0.16535668474E+04 0.  0.
        3    1    3    3  502    0 -0.11283766320E+03  0.59345762991E+03  0.81792678827E+03  0.10168227662E+04  0.10100000352E+00 0. -1.
       -3    1    3    3    0  502  0.11283766320E+03 -0.59345762991E+03 -0.35454102759E+03  0.70044532063E+03  0.10100000352E+00 0.  1.
</event>
<event>
 5   0  0.1414751E-03  0.1533950E+04  0.7818609E-02  0.8862185E-01
        2   -1    0    0  501    0  0.00000000000E+00  0.00000000000E+00  0.71227251985E+03  0.71227251986E+03  0.25500000920E-02 0. -1.
       -2   -1    0    0    0  501  0.00000000000E+00  0.00000000000E+00 -0.82587879971E+03  0.82587879971E+03  0.25500000920E-02 0.  1.
    10030    2    1    2    0    0  0.00000000000E+00  0.00000000000E+00 -0.11360627986E+03  0.15381513196E+04  0.15339501606E+04 0.  0.
        2    1    3    3  502    0 -0.27849830401E+03 -0.66118131947E+03  0.21510133125E+03  0.74899307424E+03  0.25500000920E-02 0. -1.
       -2    1    3    3    0  502  0.27849830401E+03  0.66118131947E+03 -0.32870761111E+03  0.78915824532E+03  0.25500000920E-02 0.  1.
</event>
<event>
 5   0  0.7124495E-04  0.1600021E+04  0.7818609E-02  0.8820535E-01
       -1   -1    0    0    0  501  0.00000000000E+00  0.00000000000E+00  0.67279745006E+03  0.67279745008E+03  0.50400001928E-02 0.  1.
        1   -1    0    0  501    0  0.00000000000E+00  0.00000000000E+00 -0.95127738733E+03  0.95127738734E+03  0.50400001928E-02 0. -1.
    10030    2    1    2    0    0  0.00000000000E+00  0.00000000000E+00 -0.27847993727E+03  0.16240748374E+04  0.16000212505E+04 0.  0.
        2    1    3    3  502    0  0.67991307575E+02  0.21416103779E+03  0.64011078449E+03  0.67840222910E+03  0.25500000920E-02 0.  1.
       -2    1    3    3    0  502 -0.67991307575E+02 -0.21416103779E+03 -0.91859072176E+03  0.94567260832E+03  0.25500000920E-02 0. -1.
</event>
<event>
 5   0  0.1339162E-03  0.1677507E+04  0.7818609E-02  0.8774298E-01
       -2   -1    0    0    0  501  0.00000000000E+00  0.00000000000E+00  0.11370739035E+04  0.11370739035E+04  0.25500000920E-02 0.  1.
        2   -1    0    0  501    0  0.00000000000E+00  0.00000000000E+00 -0.61870015979E+03  0.61870015979E+03  0.25500000920E-02 0. -1.
    10030    2    1    2    0    0  0.00000000000E+00  0.00000000000E+00  0.51837374373E+03  0.17557740633E+04  0.16775074436E+04 0.  0.
        5    1    3    3  502    0  0.75458223051E+03  0.16793042162E+02 -0.12367968381E+03  0.76484972580E+03  0.46999998093E+01 0. -1.
       -5    1    3    3    0  502 -0.75458223051E+03 -0.16793042162E+02  0.64205342754E+03  0.99092433752E+03  0.46999998093E+01 0.  1.
</event>
<event>
 5   0  0.5095750E-04  0.1057748E+04  0.7818609E-02  0.9247381E-01
       -3   -1    0    0    0  501  0.00000000000E+00  0.00000000000E+00  0.70691828794E+03  0.70691829515E+03  0.10100000352E+00 0. -1.
        3   -1    0    0  501    0  0.00000000000E+00  0.00000000000E+00 -0.39567202225E+03  0.39567203514E+03  0.10100000352E+00 0.  1.
    10030    2    1    2    0    0  0.00000000000E+00  0.00000000000E+00  0.31124626568E+03  0.11025903303E+04  0.10577481735E+04 0.  0.
        5    1    3    3  502    0  0.26687226865E+03 -0.37747096810E+03  0.42337957412E+03  0.62687916962E+03  0.46999998093E+01 0. -1.
       -5    1    3    3    0  502 -0.26687226865E+03  0.37747096810E+03 -0.11213330843E+03  0.47571116067E+03  0.46999998093E+01 0.  1.
</event>
<event>
 5   0  0.1339162E-03  0.1598092E+04  0.7818609E-02  0.8821721E-01
       -2   -1    0    0    0  501  0.00000000000E+00  0.00000000000E+00  0.53371832230E+03  0.53371832231E+03  0.25500000920E-02 0. -1.
        2   -1    0    0  501    0  0.00000000000E+00  0.00000000000E+00 -0.11962763656E+04  0.11962763656E+04  0.25500000920E-02 0.  1.
    10030    2    1    2    0    0  0.00000000000E+00  0.00000000000E+00 -0.66255804328E+03  0.17299946879E+04  0.15980921311E+04 0.  0.
        5    1    3    3  502    0 -0.22096099986E+02 -0.48212980372E+03  0.35808163397E+03  0.60098413611E+03  0.46999998093E+01 0. -1.
       -5    1    3    3    0  502  0.22096099986E+02  0.48212980372E+03 -0.10206396772E+04  0.11290105518E+04  0.46999998093E+01 0.  1.
</event>
<event>
 5   0  0.1375777E-03  0.1555089E+04  0.7818609E-02  0.8848624E-01
       -2   -1    0    0    0  501  0.00000000000E+00  0.00000000000E+00  0.10075695591E+04  0.10075695592E+04  0.25500000920E-02 0.  1.
        2   -1    0    0  501    0  0.00000000000E+00  0.00000000000E+00 -0.60003335939E+03  0.60003335939E+03  0.25500000920E-02 0. -1.
    10030    2    1    2    0    0  0.00000000000E+00  0.00000000000E+00  0.40753619976E+03  0.16076029185E+04  0.15550888687E+04 0.  0.
        1    1    3    3  502    0  0.18020837424E+03  0.53163763624E+03  0.75995292720E+03  0.94479737828E+03  0.50400001928E-02 0.  1.
       -1    1    3    3    0  502 -0.18020837424E+03 -0.53163763624E+03 -0.35241672744E+03  0.66280554027E+03  0.50400001928E-02 0. -1.
</event>
<event>
 5   0  0.1414796E-03  0.1601619E+04  0.7818609E-02  0.8819554E-01
        2   -1    0    0  501    0  0.00000000000E+00  0.00000000000E+00  0.10723810608E+04  0.10723810608E+04  0.25500000920E-02 0. -1.
       -2   -1    0    0    0  501  0.00000000000E+00  0.00000000000E+00 -0.59801091041E+03  0.59801091042E+03  0.25500000920E-02 0.  1.
    10030    2    1    2    0    0  0.00000000000E+00  0.00000000000E+00  0.47437015039E+03  0.16703919712E+04  0.16016186494E+04 0.  0.
        4    1    3    3  502    0 -0.59720959300E+03  0.43868603910E+03 -0.79479406102E+02  0.74526728612E+03  0.12699999809E+01 0.  1.
       -4    1    3    3    0  502  0.59720959300E+03 -0.43868603910E+03  0.55384955649E+03  0.92512468511E+03  0.12699999809E+01 0. -1.
</event>
<event>
 5   0  0.7124495E-04  0.1570917E+04  0.7818609E-02  0.8838617E-01
        1   -1    0    0  501    0  0.00000000000E+00  0.00000000000E+00  0.81951655921E+03  0.81951655922E+03  0.50400001928E-02 0.  1.
       -1   -1    0    0    0  501  0.00000000000E+00  0.00000000000E+00 -0.75281563969E+03  0.75281563971E+03  0.50400001928E-02 0. -1.
    10030    2    1    2    0    0  0.00000000000E+00  0.00000000000E+00  0.66700919515E+02  0.15723321989E+04  0.15709167805E+04 0.  0.
        2    1    3    3  502    0  0.59046042433E+03 -0.27065031963E+03  0.47539278599E+03  0.80491826243E+03  0.25500000920E-02 0.  1.
       -2    1    3    3    0  502 -0.59046042433E+03  0.27065031963E+03 -0.40869186647E+03  0.76741393651E+03  0.25500000920E-02 0. -1.
</event>
<event>
 5   0  0.7124495E-04  0.1545869E+04  0.7818609E-02  0.8854511E-01
        1   -1    0    0  501    0  0.00000000000E+00  0.00000000000E+00  0.68586659183E+03  0.68586659185E+03  0.50400001928E-02 0.  1.
       -1   -1    0    0    0  501  0.00000000000E+00  0.00000000000E+00 -0.87105484368E+03  0.87105484370E+03  0.50400001928E-02 0. -1.
    10030    2    1    2    0    0  0.00000000000E+00  0.00000000000E+00 -0.18518825186E+03  0.15569214355E+04  0.15458685804E+04 0.  0.
        2    1    3    3  502    0 -0.32382918625E+03 -0.25710863378E+03 -0.75030022058E+03  0.85669166708E+03  0.25500000920E-02 0. -1.
       -2    1    3    3    0  502  0.32382918625E+03  0.25710863378E+03  0.56511196873E+03  0.70022976846E+03  0.25500000920E-02 0.  1.
</event>
<event>
 5   0  0.1339162E-03  0.1614468E+04  0.7818609E-02  0.8811709E-01
       -2   -1    0    0    0  501  0.00000000000E+00  0.00000000000E+00  0.40127706060E+03  0.40127706061E+03  0.25500000920E-02 0. -1.
        2   -1    0    0  501    0  0.00000000000E+00  0.00000000000E+00 -0.16238829043E+04  0.16238829043E+04  0.25500000920E-02 0.  1.
    10030    2    1    2    0    0  0.00000000000E+00  0.00000000000E+00 -0.12226058437E+04  0.20251599649E+04  0.16144682823E+04 0.  0.
        5    1    3    3  502    0 -0.42407726177E+03  0.29110316393E+03 -0.13916679648E+04  0.14836928221E+04  0.46999998093E+01 0.  1.
       -5    1    3    3    0  502  0.42407726177E+03 -0.29110316393E+03  0.16906212110E+03  0.54146714285E+03  0.46999998093E+01 0. -1.
</event>
<event>
 5   0  0.1354766E-03  0.1474766E+04  0.7818609E-02  0.8901409E-01
        2   -1    0    0  501    0  0.00000000000E+00  0.00000000000E+00  0.67194510396E+03  0.67194510397E+03  0.25500000920E-02 0.  1.
       -2   -1    0    0    0  501  0.00000000000E+00  0.00000000000E+00 -0.80919358937E+03  0.80919358938E+03  0.25500000920E-02 0. -1.
    10030    2    1    2    0    0  0.00000000000E+00  0.00000000000E+00 -0.13724848541E+03  0.14811386933E+04  0.14747659754E+04 0.  0.
        3    1    3    3  502    0  0.10541592375E+03  0.44967125420E+03  0.50867867001E+03  0.68707405231E+03  0.10100000352E+00 0.  1.
       -3    1    3    3    0  502 -0.10541592375E+03 -0.44967125420E+03 -0.64592715542E+03  0.79406464104E+03  0.10100000352E+00 0. -1.
</event>
<event>
 5   0  0.7124495E-04  0.1625906E+04  0.7818609E-02  0.8804789E-01
        1   -1    0    0  501    0  0.00000000000E+00  0.00000000000E+00  0.13325769589E+04  0.13325769589E+04  0.50400001928E-02 0. -1.
       -1   -1    0    0    0  501  0.00000000000E+00  0.00000000000E+00 -0.49595079693E+03  0.49595079696E+03  0.50400001928E-02 0.  1.
    10030    2    1    2    0    0  0.00000000000E+00  0.00000000000E+00  0.83662616197E+03  0.18285277559E+04  0.16259060302E+04 0.  0.
        2    1    3    3  502    0 -0.24637330358E+03 -0.40640986273E+02 -0.45175474182E+03  0.51617229802E+03  0.25500000920E-02 0.  1.
       -2    1    3    3    0  502  0.24637330358E+03  0.40640986273E+02  0.12883809038E+04  0.13123554578E+04  0.25500000920E-02 0. -1.
</event>
<event>
 5   0  0.1414796E-03  0.1596317E+04  0.7818609E-02  0.8822814E-01
        2   -1    0    0  501    0  0.00000000000E+00  0.00000000000E+00  0.79936918230E+03  0.79936918231E+03  0.25500000920E-02 0. -1.
       -2   -1    0    0    0  501  0.00000000000E+00  0.00000000000E+00 -0.79694926581E+03  0.79694926581E+03  0.25500000920E-02 0.  1.
    10030    2    1    2    0    0  0.00000000000E+00  0.00000000000E+00  0.24199164980E+01  0.15963184481E+04  0.15963166139E+04 0.  0.
        4    1    3    3  502    0 -0.52882084865E+03  0.49602959066E+03 -0.33249422390E+03  0.79765334990E+03  0.12699999809E+01 0.  1.
       -4    1    3    3    0  502  0.52882084865E+03 -0.49602959066E+03  0.33491414039E+03  0.79866509822E+03  0.12699999809E+01 0. -1.
</event>
<event>
 5   0  0.7601145E-04  0.1600846E+04  0.7818609E-02  0.8820028E-01
       -1   -1    0    0    0  501  0.00000000000E+00  0.00000000000E+00  0.37638403227E+03  0.37638403230E+03  0.50400001928E-02 0. -1.
        1   -1    0    0  501    0  0.00000000000E+00  0.00000000000E+00 -0.17021896794E+04  0.17021896794E+04  0.50400001928E-02 0.  1.
    10030    2    1    2    0    0  0.00000000000E+00  0.00000000000E+00 -0.13258056471E+04  0.20785737117E+04  0.16008460454E+04 0.  0.
        4    1    3    3  502    0 -0.29526049347E+03 -0.16178688690E+03 -0.16057768289E+04  0.16406933269E+04  0.12699999809E+01 0.  1.
       -4    1    3    3    0  502  0.29526049347E+03  0.16178688690E+03  0.27997118185E+03  0.43788038474E+03  0.12699999809E+01 0. -1.
</event>
<event>
 5   0  0.7499834E-04  0.1616585E+04  0.7818609E-02  0.8810423E-01
       -1   -1    0    0    0  501  0.00000000000E+00  0.00000000000E+00  0.30265893986E+03  0.30265893990E+03  0.50400001928E-02 0. -1.
        1   -1    0    0  501    0  0.00000000000E+00  0.00000000000E+00 -0.21586579257E+04  0.21586579257E+04  0.50400001928E-02 0.  1.
    10030    2    1    2    0    0  0.00000000000E+00  0.00000000000E+00 -0.18559989859E+04  0.24613168656E+04  0.16165854377E+04 0.  0.
        3    1    3    3  502    0  0.72016407027E+02 -0.25045523282E+02 -0.21531702486E+04  0.21545198469E+04  0.10100000352E+00 0.  1.
       -3    1    3    3    0  502 -0.72016407027E+02  0.25045523282E+02  0.29717126272E+03  0.30679701873E+03  0.10100000352E+00 0. -1.
</event>
<event>
 5   0  0.1354766E-03  0.1593722E+04  0.7818609E-02  0.8824414E-01
       -2   -1    0    0    0  501  0.00000000000E+00  0.00000000000E+00  0.70199918857E+03  0.70199918858E+03  0.25500000920E-02 0. -1.
        2   -1    0    0  501    0  0.00000000000E+00  0.00000000000E+00 -0.90454105103E+03  0.90454105103E+03  0.25500000920E-02 0.  1.
    10030    2    1    2    0    0  0.00000000000E+00  0.00000000000E+00 -0.20254186245E+03  0.16065402396E+04  0.15937215364E+04 0.  0.
        3    1    3    3  502    0  0.61129210929E+03  0.50914220050E+03 -0.14728068488E+03  0.80907072222E+03  0.10100000352E+00 0. -1.
       -3    1    3    3    0  502 -0.61129210929E+03 -0.50914220050E+03 -0.55261177570E+02  0.79746951739E+03  0.10100000352E+00 0.  1.
</event>
<event>
 5   0  0.7124495E-04  0.1603739E+04  0.7818609E-02  0.8818254E-01
        1   -1    0    0  501    0  0.00000000000E+00  0.00000000000E+00  0.11296782694E+04  0.11296782694E+04  0.50400001928E-02 0.  1.
       -1   -1    0    0    0  501  0.00000000000E+00  0.00000000000E+00 -0.56918426032E+03  0.56918426034E+03  0.50400001928E-02 0. -1.
    10030    2    1    2    0    0  0.00000000000E+00  0.00000000000E+00  0.56049400907E+03  0.16988625297E+04  0.16037394928E+04 0.  0.
        2    1    3    3  502    0  0.33311688406E+03 -0.72851089459E+03  0.31844267715E+03  0.86203289997E+03  0.25500000920E-02 0. -1.
       -2    1    3    3    0  502 -0.33311688406E+03  0.72851089459E+03  0.24205133192E+03  0.83682962978E+03  0.25500000920E-02 0.  1.
</event>
<event>
 5   0  0.1375777E-03  0.1590428E+04  0.7818609E-02  0.8826450E-01
       -2   -1    0    0    0  501  0.00000000000E+00  0.00000000000E+00  0.89213631471E+03  0.89213631471E+03  0.25500000920E-02 0.  1.
        2   -1    0    0  501    0  0.00000000000E+00  0.00000000000E+00 -0.70882146875E+03  0.70882146875E+03  0.25500000920E-02 0. -1.
    10030    2    1    2    0    0  0.00000000000E+00  0.00000000000E+00  0.18331484597E+03  0.16009577835E+04  0.15904280844E+04 0.  0.
        1    1    3    3  502    0 -0.53640535017E+03 -0.51816903854E+03  0.36941090044E+03  0.83228256355E+03  0.50400001928E-02 0.  1.
       -1    1    3    3    0  502  0.53640535017E+03  0.51816903854E+03 -0.18609605448E+03  0.76867521992E+03  0.50400001928E-02 0. -1.
</event>
<event>
 5   0  0.1354766E-03  0.1619655E+04  0.7818609E-02  0.8808563E-01
        2   -1    0    0  501    0  0.00000000000E+00  0.00000000000E+00  0.16892942390E+04  0.16892942390E+04  0.25500000920E-02 0.  1.
       -2   -1    0    0    0  501  0.00000000000E+00  0.00000000000E+00 -0.38822181653E+03  0.38822181654E+03  0.25500000920E-02 0. -1.
    10030    2    1    2    0    0  0.00000000000E+00  0.00000000000E+00  0.13010724225E+04  0.20775160555E+04  0.16196553684E+04 0.  0.
        3    1    3    3  502    0  0.55631722754E+03  0.39873432256E+03  0.12057246983E+04  0.13864522985E+04  0.10100000352E+00 0.  1.
       -3    1    3    3    0  502 -0.55631722754E+03 -0.39873432256E+03  0.95347724184E+02  0.69106375708E+03  0.10100000352E+00 0. -1.
</event>
<event>
 5   0  0.7633213E-04  0.1589087E+04  0.7818609E-02  0.8827280E-01
        1   -1    0    0  501    0  0.00000000000E+00  0.00000000000E+00  0.89998643963E+03  0.89998643964E+03  0.50400001928E-02 0.  1.
       -1   -1    0    0    0  501  0.00000000000E+00  0.00000000000E+00 -0.70145450854E+03  0.70145450856E+03  0.50400001928E-02 0. -1.
    10030    2    1    2    0    0  0.00000000000E+00  0.00000000000E+00  0.19853193109E+03  0.16014409482E+04  0.15890872169E+04 0.  0.
        1    1    3    3  502    0  0.12900766629E+03  0.37262677020E+01 -0.69082037372E+03  0.70277283086E+03  0.50400001928E-02 0. -1.
       -1    1    3    3    0  502 -0.12900766629E+03 -0.37262677020E+01  0.88935230480E+03  0.89866811733E+03  0.50400001928E-02 0.  1.
</event>
<event>
 5   0  0.7633213E-04  0.1437163E+04  0.7818609E-02  0.8927349E-01
        1   -1    0    0  501    0  0.00000000000E+00  0.00000000000E+00  0.89727421115E+03  0.89727421116E+03  0.50400001928E-02 0.  1.
       -1   -1    0    0    0  501  0.00000000000E+00  0.00000000000E+00 -0.57547523485E+03  0.57547523487E+03  0.50400001928E-02 0. -1.
    10030    2    1    2    0    0  0.00000000000E+00  0.00000000000E+00  0.32179897630E+03  0.14727494460E+04  0.14371626038E+04 0.  0.
        1    1    3    3  502    0 -0.80863494866E+02 -0.35180348417E+03 -0.47581871289E+03  0.59725040296E+03  0.50400001928E-02 0. -1.
       -1    1    3    3    0  502  0.80863494866E+02  0.35180348417E+03  0.79761768919E+03  0.87549904307E+03  0.50400001928E-02 0.  1.
</event>
<event>
 5   0  0.1375777E-03  0.1560710E+04  0.7818609E-02  0.8845055E-01
       -2   -1    0    0    0  501  0.00000000000E+00  0.00000000000E+00  0.65252142484E+03  0.65252142485E+03  0.25500000920E-02 0. -1.
        2   -1    0    0  501    0  0.00000000000E+00  0.00000000000E+00 -0.93323259638E+03  0.93323259638E+03  0.25500000920E-02 0.  1.
    10030    2    1    2    0    0  0.00000000000E+00  0.00000000000E+00 -0.28071117153E+03  0.15857540212E+04  0.15607104325E+04 0.  0.
        1    1    3    3  502    0 -0.35904471630E+03  0.43584134294E+03 -0.68759199634E+03  0.88974914328E+03  0.50400001928E-02 0.  1.
       -1    1    3    3    0  502  0.35904471630E+03 -0.43584134294E+03  0.40688082480E+03  0.69600487795E+03  0.50400001928E-02 0. -1.
</event>
<event>
 5   0  0.7124495E-04  0.1576340E+04  0.7818609E-02  0.8835216E-01
        1   -1    0    0  501    0  0.00000000000E+00  0.00000000000E+00  0.14600894707E+04  0.14600894707E+04  0.50400001928E-02 0.  1.
       -1   -1    0    0    0  501  0.00000000000E+00  0.00000000000E+00 -0.42546164967E+03  0.42546164970E+03  0.50400001928E-02 0. -1.
    10030    2    1    2    0    0  0.00000000000E+00  0.00000000000E+00  0.10346278210E+04  0.18855511204E+04  0.15763401599E+04 0.  0.
        2    1    3    3  502    0  0.60274340311E+03 -0.48416119198E+03  0.70068296498E+03  0.10433926812E+04  0.25500000920E-02 0.  1.
       -2    1    3    3    0  502 -0.60274340311E+03  0.48416119198E+03  0.33394485605E+03  0.84215843919E+03  0.25500000920E-02 0. -1.
</event>
<event>
 5   0  0.7633213E-04  0.1274279E+04  0.7818609E-02  0.9050214E-01
        1   -1    0    0  501    0  0.00000000000E+00  0.00000000000E+00  0.95538513773E+03  0.95538513774E+03  0.50400001928E-02 0.  1.
       -1   -1    0    0    0  501  0.00000000000E+00  0.00000000000E+00 -0.42490393473E+03  0.42490393476E+03  0.50400001928E-02 0. -1.
    10030    2    1    2    0    0  0.00000000000E+00  0.00000000000E+00  0.53048120300E+03  0.13802890725E+04  0.12742792539E+04 0.  0.
        1    1    3    3  502    0 -0.32377452657E+03 -0.40634597069E+03 -0.13422073552E+03  0.53662109334E+03  0.50400001928E-02 0. -1.
       -1    1    3    3    0  502  0.32377452657E+03  0.40634597069E+03  0.66470193852E+03  0.84366797915E+03  0.50400001928E-02 0.  1.
</event>
<event>
 5   0  0.1354766E-03  0.1627764E+04  0.7818609E-02  0.8803671E-01
        2   -1    0    0  501    0  0.00000000000E+00  0.00000000000E+00  0.17816044357E+04  0.17816044357E+04  0.25500000920E-02 0. -1.
       -2   -1    0    0    0  501  0.00000000000E+00  0.00000000000E+00 -0.37180189373E+03  0.37180189373E+03  0.25500000920E-02 0.  1.
    10030    2    1    2    0    0  0.00000000000E+00  0.00000000000E+00  0.14098025420E+04  0.21534063294E+04  0.16277639916E+04 0.  0.
        3    1    3    3  502    0 -0.25980239916E+03 -0.19476433595E+03 -0.28240478006E+03  0.43032883144E+03  0.10100000352E+00 0.  1.
       -3    1    3    3    0  502  0.25980239916E+03  0.19476433595E+03  0.16922073220E+04  0.17230774980E+04  0.10100000352E+00 0. -1.
</event>
<event>
 5   0  0.7601145E-04  0.1566602E+04  0.7818609E-02  0.8841332E-01
        1   -1    0    0  501    0  0.00000000000E+00  0.00000000000E+00  0.11691528983E+04  0.11691528984E+04  0.50400001928E-02 0. -1.
       -1   -1    0    0    0  501  0.00000000000E+00  0.00000000000E+00 -0.52479064976E+03  0.52479064979E+03  0.50400001928E-02 0.  1.
    10030    2    1    2    0    0  0.00000000000E+00  0.00000000000E+00  0.64436224858E+03  0.16939435481E+04  0.15666020672E+04 0.  0.
        4    1    3    3  502    0 -0.68577068147E+03  0.32569977560E+03  0.11363845674E+03  0.76764385176E+03  0.12699999809E+01 0.  1.
       -4    1    3    3    0  502  0.68577068147E+03 -0.32569977560E+03  0.53072379183E+03  0.92629969638E+03  0.12699999809E+01 0. -1.
</event>
<event>
 5   0  0.7633213E-04  0.1628819E+04  0.7818609E-02  0.8803037E-01
       -1   -1    0    0    0  501  0.00000000000E+00  0.00000000000E+00  0.56628023588E+03  0.56628023590E+03  0.50400001928E-02 0. -1.
        1   -1    0    0  501    0  0.00000000000E+00  0.00000000000E+00 -0.11712622954E+04  0.11712622954E+04  0.50400001928E-02 0.  1.
    10030    2    1    2    0    0  0.00000000000E+00  0.00000000000E+00 -0.60498205951E+03  0.17375425313E+04  0.16288188223E+04 0.  0.
        1    1    3    3  502    0  0.53850281494E+03  0.28475957452E+03 -0.87911791431E+03  0.10695427080E+04  0.50400001928E-02 0.  1.
       -1    1    3    3    0  502 -0.53850281494E+03 -0.28475957452E+03  0.27413585480E+03  0.66799982328E+03  0.50400001928E-02 0. -1.
</event>
<event>
 5   0  0.7633213E-04  0.1544398E+04  0.7818609E-02  0.8855454E-01
        1   -1    0    0  501    0  0.00000000000E+00  0.00000000000E+00  0.55687196861E+03  0.55687196864E+03  0.50400001928E-02 0.  1.
       -1   -1    0    0    0  501  0.00000000000E+00  0.00000000000E+00 -0.10707868463E+04  0.10707868463E+04  0.50400001928E-02 0. -1.
    10030    2    1    2    0    0  0.00000000000E+00  0.00000000000E+00 -0.51391487772E+03  0.16276588150E+04  0.15443978491E+04 0.  0.
        1    1    3    3  502    0  0.47166573462E+02 -0.69323621881E+03  0.98087280632E+02  0.70172804944E+03  0.50400001928E-02 0.  1.
       -1    1    3    3    0  502 -0.47166573462E+02  0.69323621881E+03 -0.61200215835E+03  0.92593076554E+03  0.50400001928E-02 0. -1.
</event>
<event>
 5   0  0.1414751E-03  0.1636788E+04  0.7818609E-02  0.8798261E-01
        2   -1    0    0  501    0  0.00000000000E+00  0.00000000000E+00  0.18134583950E+04  0.18134583950E+04  0.25500000920E-02 0.  1.
       -2   -1    0    0    0  501  0.00000000000E+00  0.00000000000E+00 -0.36933217634E+03  0.36933217635E+03  0.25500000920E-02 0. -1.
    10030    2    1    2    0    0  0.00000000000E+00  0.00000000000E+00  0.14441262187E+04  0.21827905714E+04  0.16367877514E+04 0.  0.
        2    1    3    3  502    0  0.18349362524E+03  0.55084262351E+03  0.14912417110E+04  0.16002810212E+04  0.25500000920E-02 0.  1.
       -2    1    3    3    0  502 -0.18349362524E+03 -0.55084262351E+03 -0.47115492292E+02  0.58250955013E+03  0.25500000920E-02 0. -1.
</event>
<event>
 5   0  0.1414796E-03  0.1646973E+04  0.7818609E-02  0.8792199E-01
        2   -1    0    0  501    0  0.00000000000E+00  0.00000000000E+00  0.40879808621E+03  0.40879808621E+03  0.25500000920E-02 0. -1.
       -2   -1    0    0    0  501  0.00000000000E+00  0.00000000000E+00 -0.16588392687E+04  0.16588392687E+04  0.25500000920E-02 0.  1.
    10030    2    1    2    0    0  0.00000000000E+00  0.00000000000E+00 -0.12500411825E+04  0.20676373549E+04  0.16469733676E+04 0.  0.
        4    1    3    3  502    0 -0.76059524970E+03 -0.12009854750E+03 -0.25857680437E+03  0.81227604399E+03  0.12699999809E+01 0.  1.
       -4    1    3    3    0  502  0.76059524970E+03  0.12009854750E+03 -0.99146437808E+03  0.12553613109E+04  0.12699999809E+01 0. -1.
</event>
<event>
 5   0  0.1354766E-03  0.1804471E+04  0.7818609E-02  0.8703926E-01
        2   -1    0    0  501    0  0.00000000000E+00  0.00000000000E+00  0.16703577068E+04  0.16703577068E+04  0.25500000920E-02 0. -1.
       -2   -1    0    0    0  501  0.00000000000E+00  0.00000000000E+00 -0.48733800539E+03  0.48733800539E+03  0.25500000920E-02 0.  1.
    10030    2    1    2    0    0  0.00000000000E+00  0.00000000000E+00  0.11830197014E+04  0.21576957122E+04  0.18044708844E+04 0.  0.
        3    1    3    3  502    0  0.78088393380E+03 -0.18103110922E+03  0.10866669473E+04  0.13503321980E+04  0.10100000352E+00 0. -1.
       -3    1    3    3    0  502 -0.78088393380E+03  0.18103110922E+03  0.96352754165E+02  0.80736351417E+03  0.10100000352E+00 0.  1.
</event>
<event>
 5   0  0.7499834E-04  0.1580320E+04  0.7818609E-02  0.8832730E-01
       -1   -1    0    0    0  501  0.00000000000E+00  0.00000000000E+00  0.67277670400E+03  0.67277670401E+03  0.50400001928E-02 0. -1.
        1   -1    0    0  501    0  0.00000000000E+00  0.00000000000E+00 -0.92802398810E+03  0.92802398811E+03  0.50400001928E-02 0.  1.
    10030    2    1    2    0    0  0.00000000000E+00  0.00000000000E+00 -0.25524728410E+03  0.16008006921E+04  0.15803201194E+04 0.  0.
        3    1    3    3  502    0 -0.59659851093E+03 -0.49223005951E+03 -0.29137476778E+03  0.82651042355E+03  0.10100000352E+00 0. -1.
       -3    1    3    3    0  502  0.59659851093E+03  0.49223005951E+03  0.36127483681E+02  0.77429026858E+03  0.10100000352E+00 0.  1.
</event>
<event>
 5   0  0.1339162E-03  0.1610377E+04  0.7818609E-02  0.8814198E-01
        2   -1    0    0  501    0  0.00000000000E+00  0.00000000000E+00  0.10073163980E+04  0.10073163980E+04  0.25500000920E-02 0.  1.
       -2   -1    0    0    0  501  0.00000000000E+00  0.00000000000E+00 -0.64361946178E+03  0.64361946178E+03  0.25500000920E-02 0. -1.
    10030    2    1    2    0    0  0.00000000000E+00  0.00000000000E+00  0.36369693627E+03  0.16509358598E+04  0.16103768974E+04 0.  0.
        5    1    3    3  502    0  0.60824667864E+03  0.48459738502E+03  0.39568688652E+03  0.87257598512E+03  0.46999998093E+01 0.  1.
       -5    1    3    3    0  502 -0.60824667864E+03 -0.48459738502E+03 -0.31989950252E+02  0.77835987471E+03  0.46999998093E+01 0. -1.
</event>
<event>
 5   0  0.1414751E-03  0.1579369E+04  0.7818609E-02  0.8833323E-01
       -2   -1    0    0    0  501  0.00000000000E+00  0.00000000000E+00  0.31160943041E+03  0.31160943042E+03  0.25500000920E-02 0. -1.
        2   -1    0    0  501    0  0.00000000000E+00  0.00000000000E+00 -0.20012294248E+04  0.20012294248E+04  0.25500000920E-02 0.  1.
    10030    2    1    2    0    0  0.00000000000E+00  0.00000000000E+00 -0.16896199944E+04  0.23128388552E+04  0.15793694453E+04 0.  0.
        2    1    3    3  502    0 -0.12350189721E+03  0.65724690231E+03 -0.22980154822E+03  0.70713150176E+03  0.25500000920E-02 0. -1.
       -2    1    3    3    0  502  0.12350189721E+03 -0.65724690231E+03 -0.14598184462E+04  0.16057073535E+04  0.25500000920E-02 0.  1.
</event>
<event>
 5   0  0.7499834E-04  0.1556228E+04  0.7818609E-02  0.8847900E-01
       -1   -1    0    0    0  501  0.00000000000E+00  0.00000000000E+00  0.25213180759E+03  0.25213180764E+03  0.50400001928E-02 0. -1.
        1   -1    0    0  501    0  0.00000000000E+00  0.00000000000E+00 -0.24013680838E+04  0.24013680838E+04  0.50400001928E-02 0.  1.
    10030    2    1    2    0    0  0.00000000000E+00  0.00000000000E+00 -0.21492362762E+04  0.26534998915E+04  0.15562278442E+04 0.  0.
        3    1    3    3  502    0 -0.69217197233E+03  0.21030086198E+03 -0.58596112330E+03  0.93095592809E+03  0.10100000352E+00 0. -1.
       -3    1    3    3    0  502  0.69217197233E+03 -0.21030086198E+03 -0.15632751529E+04  0.17225439634E+04  0.10100000352E+00 0.  1.
</event>
<event>
 5   0  0.1339162E-03  0.1596488E+04  0.7818609E-02  0.8822708E-01
       -2   -1    0    0    0  501  0.00000000000E+00  0.00000000000E+00  0.30060997745E+03  0.30060997746E+03  0.25500000920E-02 0.  1.
        2   -1    0    0  501    0  0.00000000000E+00  0.00000000000E+00 -0.21196691494E+04  0.21196691494E+04  0.25500000920E-02 0. -1.
    10030    2    1    2    0    0  0.00000000000E+00  0.00000000000E+00 -0.18190591719E+04  0.24202791268E+04  0.15964882652E+04 0.  0.
        5    1    3    3  502    0 -0.51765513002E+03  0.10409630967E+03 -0.18170675019E+04  0.18922365793E+04  0.46999998093E+01 0. -1.
       -5    1    3    3    0  502  0.51765513002E+03 -0.10409630967E+03 -0.19916700094E+01  0.52804254759E+03  0.46999998093E+01 0.  1.
</event>
<event>
 5   0  0.5095750E-04  0.1574085E+04  0.7818609E-02  0.8836629E-01
       -3   -1    0    0    0  501  0.00000000000E+00  0.00000000000E+00  0.13196578990E+04  0.13196579029E+04  0.10100000352E+00 0. -1.
        3   -1    0    0  501    0  0.00000000000E+00  0.00000000000E+00 -0.46939130881E+03  0.46939131968E+03  0.10100000352E+00 0.  1.
    10030    2    1    2    0    0  0.00000000000E+00  0.00000000000E+00  0.85026659022E+03  0.17890492226E+04  0.15740850823E+04 0.  0.
        1    1    3    3  502    0  0.49021917392E+02  0.83914327917E+02  0.13128121420E+04  0.13164043767E+04  0.50400001928E-02 0. -1.
       -1    1    3    3    0  502 -0.49021917392E+02 -0.83914327917E+02 -0.46254555179E+03  0.47264484586E+03  0.50400001928E-02 0.  1.
</event>
<event>
 5   0  0.1339162E-03  0.1441454E+04  0.7818609E-02  0.8924347E-01
       -2   -1    0    0    0  501  0.00000000000E+00  0.00000000000E+00  0.32595805191E+03  0.32595805192E+03  0.25500000920E-02 0. -1.
        2   -1    0    0  501    0  0.00000000000E+00  0.00000000000E+00 -0.15936016660E+04  0.15936016660E+04  0.25500000920E-02 0.  1.
    10030    2    1    2    0    0  0.00000000000E+00  0.00000000000E+00 -0.12676436140E+04  0.19195597179E+04  0.14414538419E+04 0.  0.
        5    1    3    3  502    0  0.22514679622E+03  0.16064717102E+03  0.25244967382E+03  0.37450169722E+03  0.46999998093E+01 0. -1.
       -5    1    3    3    0  502 -0.22514679622E+03 -0.16064717102E+03 -0.15200932879E+04  0.15450580207E+04  0.46999998093E+01 0.  1.
</event>
<event>
 5   0  0.1375777E-03  0.1621890E+04  0.7818609E-02  0.8807212E-01
        2   -1    0    0  501    0  0.00000000000E+00  0.00000000000E+00  0.13989705157E+04  0.13989705157E+04  0.25500000920E-02 0.  1.
       -2   -1    0    0    0  501  0.00000000000E+00  0.00000000000E+00 -0.47008278833E+03  0.47008278833E+03  0.25500000920E-02 0. -1.
    10030    2    1    2    0    0  0.00000000000E+00  0.00000000000E+00  0.92888772740E+03  0.18690533041E+04  0.16218902069E+04 0.  0.
        1    1    3    3  502    0 -0.36652762373E+03 -0.96071111662E+02 -0.36179773902E+03  0.52389861752E+03  0.50400001928E-02 0. -1.
       -1    1    3    3    0  502  0.36652762373E+03  0.96071111662E+02  0.12906854664E+04  0.13451546865E+04  0.50400001928E-02 0.  1.
</event>
<event>
 5   0  0.1414796E-03  0.1546111E+04  0.7818609E-02  0.8854356E-01
       -2   -1    0    0    0  501  0.00000000000E+00  0.00000000000E+00  0.14450628502E+04  0.14450628502E+04  0.25500000920E-02 0.  1.
        2   -1    0    0  501    0  0.00000000000E+00  0.00000000000E+00 -0.41355614763E+03  0.41355614764E+03  0.25500000920E-02 0. -1.
    10030    2    1    2    0    0  0.00000000000E+00  0.00000000000E+00  0.10315067026E+04  0.18586189979E+04  0.15461107663E+04 0.  0.
        4    1    3    3  502    0 -0.28073625478E+03  0.41171236794E+03  0.12262217526E+04  0.13236092014E+04  0.12699999809E+01 0.  1.
       -4    1    3    3    0  502  0.28073625478E+03 -0.41171236794E+03 -0.19471505002E+03  0.53500979642E+03  0.12699999809E+01 0. -1.
</event>
<event>
 5   0  0.7499834E-04  0.1620148E+04  0.7818609E-02  0.8808265E-01
       -1   -1    0    0    0  501  0.00000000000E+00  0.00000000000E+00  0.82919497016E+03  0.82919497018E+03  0.50400001928E-02 0.  1.
        1   -1    0    0  501    0  0.00000000000E+00  0.00000000000E+00 -0.79139369574E+03  0.79139369575E+03  0.50400001928E-02 0. -1.
    10030    2    1    2    0    0  0.00000000000E+00  0.00000000000E+00  0.37801274422E+02  0.16205886659E+04  0.16201477364E+04 0.  0.
        3    1    3    3  502    0  0.30738175984E+03  0.23678938339E+03 -0.69239548907E+03  0.79370289269E+03  0.10100000352E+00 0. -1.
       -3    1    3    3    0  502 -0.30738175984E+03 -0.23678938339E+03  0.73019676350E+03  0.82688577324E+03  0.10100000352E+00 0.  1.
</event>
<event>
 5   0  0.7601145E-04  0.1483212E+04  0.7818609E-02  0.8895694E-01
        1   -1    0    0  501    0  0.00000000000E+00  0.00000000000E+00  0.12213495167E+04  0.12213495167E+04  0.50400001928E-02 0. -1.
       -1   -1    0    0    0  501  0.00000000000E+00  0.00000000000E+00 -0.45030486712E+03  0.45030486715E+03  0.50400001928E-02 0.  1.
    10030    2    1    2    0    0  0.00000000000E+00  0.00000000000E+00  0.77104464962E+03  0.16716543839E+04  0.14832122328E+04 0.  0.
        4    1    3    3  502    0  0.28750502076E+03  0.62331161190E+03  0.70190338759E+03  0.98175683389E+03  0.12699999809E+01 0. -1.
       -4    1    3    3    0  502 -0.28750502076E+03 -0.62331161190E+03  0.69141262034E+02  0.68989755001E+03  0.12699999809E+01 0.  1.
</event>
<event>
 5   0  0.1375777E-03  0.1593726E+04  0.7818609E-02  0.8824412E-01
        2   -1    0    0  501    0  0.00000000000E+00  0.00000000000E+00  0.17986209154E+04  0.17986209154E+04  0.25500000920E-02 0.  1.
       -2   -1    0    0    0  501  0.00000000000E+00  0.00000000000E+00 -0.35304298178E+03  0.35304298178E+03  0.25500000920E-02 0. -1.
    10030    2    1    2    0    0  0.00000000000E+00  0.00000000000E+00  0.14455779336E+04  0.21516638972E+04  0.15937258121E+04 0.  0.
        1    1    3    3  502    0 -0.40578678483E+03 -0.66574157523E+03  0.94510535966E+03  0.12251934136E+04  0.50400001928E-02 0. -1.
       -1    1    3    3    0  502  0.40578678483E+03  0.66574157523E+03  0.50047257398E+03  0.92647048364E+03  0.50400001928E-02 0.  1.
</event>
<event>
 5   0  0.7633213E-04  0.1530931E+04  0.7818609E-02  0.8864141E-01
       -1   -1    0    0    0  501  0.00000000000E+00  0.00000000000E+00  0.42064514990E+03  0.42064514993E+03  0.50400001928E-02 0. -1.
        1   -1    0    0  501    0  0.00000000000E+00  0.00000000000E+00 -0.13929493334E+04  0.13929493334E+04  0.50400001928E-02 0.  1.
    10030    2    1    2    0    0  0.00000000000E+00  0.00000000000E+00 -0.97230418346E+03  0.18135944833E+04  0.15309309340E+04 0.  0.
        1    1    3    3  502    0 -0.19458878216E+03 -0.68804312464E+03 -0.80986161000E+03  0.10803443724E+04  0.50400001928E-02 0.  1.
       -1    1    3    3    0  502  0.19458878216E+03  0.68804312464E+03 -0.16244257347E+03  0.73325011094E+03  0.50400001928E-02 0. -1.
</event>
<event>
 5   0  0.1414796E-03  0.1465484E+04  0.7818609E-02  0.8907736E-01
       -2   -1    0    0    0  501  0.00000000000E+00  0.00000000000E+00  0.12346297164E+04  0.12346297164E+04  0.25500000920E-02 0. -1.
        2   -1    0    0  501    0  0.00000000000E+00  0.00000000000E+00 -0.43487589316E+03  0.43487589317E+03  0.25500000920E-02 0.  1.
    10030    2    1    2    0    0  0.00000000000E+00  0.00000000000E+00  0.79975382321E+03  0.16695056096E+04  0.14654838118E+04 0.  0.
        4    1    3    3  502    0  0.45244277318E+03 -0.19544835955E+03  0.10175858603E+04  0.11306578263E+04  0.12699999809E+01 0. -1.
       -4    1    3    3    0  502 -0.45244277318E+03  0.19544835955E+03 -0.21783203705E+03  0.53884778326E+03  0.12699999809E+01 0.  1.
</event>
<event>
 5   0  0.1339162E-03  0.1373190E+04  0.7818609E-02  0.8973457E-01
       -2   -1    0    0    0  501  0.00000000000E+00  0.00000000000E+00  0.29958556076E+03  0.29958556077E+03  0.25500000920E-02 0. -1.
        2   -1    0    0  501    0  0.00000000000E+00  0.00000000000E+00 -0.15735496448E+04  0.15735496448E+04  0.25500000920E-02 0.  1.
    10030    2    1    2    0    0  0.00000000000E+00  0.00000000000E+00 -0.12739640841E+04  0.18731352056E+04  0.13731900855E+04 0.  0.
        5    1    3    3  502    0  0.19001224619E+03 -0.24265369727E+01 -0.15369413729E+04  0.15486514830E+04  0.46999998093E+01 0.  1.
       -5    1    3    3    0  502 -0.19001224619E+03  0.24265369727E+01  0.26297728889E+03  0.32448372263E+03  0.46999998093E+01 0. -1.
</event>
<event>
 5   0  0.1339162E-03  0.1409546E+04  0.7818609E-02  0.8946938E-01
        2   -1    0    0  501    0  0.00000000000E+00  0.00000000000E+00  0.58915066864E+03  0.58915066865E+03  0.25500000920E-02 0.  1.
       -2   -1    0    0    0  501  0.00000000000E+00  0.00000000000E+00 -0.84308651701E+03  0.84308651701E+03  0.25500000920E-02 0. -1.
    10030    2    1    2    0    0  0.00000000000E+00  0.00000000000E+00 -0.25393584837E+03  0.14322371857E+04  0.14095460052E+04 0.  0.
        5    1    3    3  502    0  0.47861719015E+03  0.45716437298E+03 -0.37295860155E+03  0.75973277348E+03  0.46999998093E+01 0. -1.
       -5    1    3    3    0  502 -0.47861719015E+03 -0.45716437298E+03  0.11902275318E+03  0.67250441218E+03  0.46999998093E+01 0.  1.
</event>
<event>
 5   0  0.7601145E-04  0.1593587E+04  0.7818609E-02  0.8824497E-01
        1   -1    0    0  501    0  0.00000000000E+00  0.00000000000E+00  0.82223426992E+03  0.82223426994E+03  0.50400001928E-02 0.  1.
       -1   -1    0    0    0  501  0.00000000000E+00  0.00000000000E+00 -0.77213998998E+03  0.77213999000E+03  0.50400001928E-02 0. -1.
    10030    2    1    2    0    0  0.00000000000E+00  0.00000000000E+00  0.50094279938E+02  0.15943742599E+04  0.15935870996E+04 0.  0.
        4    1    3    3  502    0 -0.56835222747E+03  0.49155897502E+03  0.29017590053E+03  0.80551731610E+03  0.12699999809E+01 0. -1.
       -4    1    3    3    0  502  0.56835222747E+03 -0.49155897502E+03 -0.24008162059E+03  0.78885694383E+03  0.12699999809E+01 0.  1.
</event>
<event>
 5   0  0.7601145E-04  0.1096428E+04  0.7818609E-02  0.9208681E-01
        1   -1    0    0  501    0  0.00000000000E+00  0.00000000000E+00  0.11578992302E+04  0.11578992302E+04  0.50400001928E-02 0. -1.
       -1   -1    0    0    0  501  0.00000000000E+00  0.00000000000E+00 -0.25955493126E+03  0.25955493131E+03  0.50400001928E-02 0.  1.
    10030    2    1    2    0    0  0.00000000000E+00  0.00000000000E+00  0.89834429892E+03  0.14174541615E+04  0.10964277544E+04 0.  0.
        4    1    3    3  502    0  0.38397547952E+03 -0.38704302339E+03  0.37493642745E+03  0.66167847808E+03  0.12699999809E+01 0.  1.
       -4    1    3    3    0  502 -0.38397547952E+03  0.38704302339E+03  0.52340787147E+03  0.75577568342E+03  0.12699999809E+01 0. -1.
</event>
<event>
 5   0  0.7633213E-04  0.1599831E+04  0.7818609E-02  0.8820652E-01
        1   -1    0    0  501    0  0.00000000000E+00  0.00000000000E+00  0.14631767667E+04  0.14631767667E+04  0.50400001928E-02 0.  1.
       -1   -1    0    0    0  501  0.00000000000E+00  0.00000000000E+00 -0.43731225627E+03  0.43731225630E+03  0.50400001928E-02 0. -1.
    10030    2    1    2    0    0  0.00000000000E+00  0.00000000000E+00  0.10258645104E+04  0.19004890230E+04  0.15998314076E+04 0.  0.
        1    1    3    3  502    0  0.42986166235E+03 -0.44939943888E+02 -0.28666474718E+03  0.51863023882E+03  0.50400001928E-02 0. -1.
       -1    1    3    3    0  502 -0.42986166235E+03  0.44939943888E+02  0.13125292576E+04  0.13818587842E+04  0.50400001928E-02 0.  1.
</event>
<event>
 5   0  0.1339162E-03  0.1561789E+04  0.7818609E-02  0.8844372E-01
        2   -1    0    0  501    0  0.00000000000E+00  0.00000000000E+00  0.79849409507E+03  0.79849409508E+03  0.25500000920E-02 0.  1.
       -2   -1    0    0    0  501  0.00000000000E+00  0.00000000000E+00 -0.76368315498E+03  0.76368315499E+03  0.25500000920E-02 0. -1.
    10030    2    1    2    0    0  0.00000000000E+00  0.00000000000E+00  0.34810940094E+02  0.15621772501E+04  0.15617893453E+04 0.  0.
        5    1    3    3  502    0 -0.59847684536E+03 -0.29536454434E+03 -0.38810816240E+03  0.77205231960E+03  0.46999998093E+01 0.  1.
       -5    1    3    3    0  502  0.59847684536E+03  0.29536454434E+03  0.42291910249E+03  0.79012493046E+03  0.46999998093E+01 0. -1.
</event>
<event>
 5   0  0.1375777E-03  0.1138650E+04  0.7818609E-02  0.9168319E-01
        2   -1    0    0  501    0  0.00000000000E+00  0.00000000000E+00  0.10779931576E+04  0.10779931576E+04  0.25500000920E-02 0.  1.
       -2   -1    0    0    0  501  0.00000000000E+00  0.00000000000E+00 -0.30067972307E+03  0.30067972309E+03  0.25500000920E-02 0. -1.
    10030    2    1    2    0    0  0.00000000000E+00  0.00000000000E+00  0.77731343456E+03  0.13786728807E+04  0.11386495231E+04 0.  0.
        1    1    3    3  502    0 -0.58935050564E+02 -0.21723188724E+03  0.10218322791E+04  0.10463289348E+04  0.50400001928E-02 0.  1.
       -1    1    3    3    0  502  0.58935050564E+02  0.21723188724E+03 -0.24451884459E+03  0.33234394594E+03  0.50400001928E-02 0. -1.
</event>
<event>
 5   0  0.1375777E-03  0.1464447E+04  0.7818609E-02  0.8908446E-01
        2   -1    0    0  501    0  0.00000000000E+00  0.00000000000E+00  0.21911098122E+04  0.21911098122E+04  0.25500000920E-02 0. -1.
       -2   -1    0    0    0  501  0.00000000000E+00  0.00000000000E+00 -0.24469385928E+03  0.24469385929E+03  0.25500000920E-02 0.  1.
    10030    2    1    2    0    0  0.00000000000E+00  0.00000000000E+00  0.19464159529E+04  0.24358036715E+04  0.14644468117E+04 0.  0.
        1    1    3    3  502    0 -0.59622415778E+03 -0.77749243382E+02  0.16682631927E+04  0.17733105400E+04  0.50400001928E-02 0. -1.
       -1    1    3    3    0  502  0.59622415778E+03  0.77749243382E+02  0.27815276015E+03  0.66249313142E+03  0.50400001928E-02 0.  1.
</event>
<event>
 5   0  0.1375777E-03  0.1605803E+04  0.7818609E-02  0.8816991E-01
        2   -1    0    0  501    0  0.00000000000E+00  0.00000000000E+00  0.16071302953E+04  0.16071302953E+04  0.25500000920E-02 0.  1.
       -2   -1    0    0    0  501  0.00000000000E+00  0.00000000000E+00 -0.40111922929E+03  0.40111922930E+03  0.25500000920E-02 0. -1.
    10030    2    1    2    0    0  0.00000000000E+00  0.00000000000E+00  0.12060110660E+04  0.20082495246E+04  0.16058030582E+04 0.  0.
        1    1    3    3  502    0  0.52123430527E+03 -0.39314133856E+03  0.18542254909E+02  0.65313790911E+03  0.50400001928E-02 0. -1.
       -1    1    3    3    0  502 -0.52123430527E+03  0.39314133856E+03  0.11874688111E+04  0.13551116155E+04  0.50400001928E-02 0.  1.
</event>
<event>
 5   0  0.7124495E-04  0.1600645E+04  0.7818609E-02  0.8820152E-01
       -1   -1    0    0    0  501  0.00000000000E+00  0.00000000000E+00  0.37895057459E+03  0.37895057463E+03  0.50400001928E-02 0. -1.
        1   -1    0    0  501    0  0.00000000000E+00  0.00000000000E+00 -0.16902365090E+04  0.16902365090E+04  0.50400001928E-02 0.  1.
    10030    2    1    2    0    0  0.00000000000E+00  0.00000000000E+00 -0.13112859344E+04  0.20691870837E+04  0.16006449904E+04 0.  0.
        2    1    3    3  502    0 -0.75375202429E+03  0.21974734484E+03 -0.45502083324E+03  0.90745521563E+03  0.25500000920E-02 0.  1.
       -2    1    3    3    0  502  0.75375202429E+03 -0.21974734484E+03 -0.85626510120E+03  0.11617318680E+04  0.25500000920E-02 0. -1.
</event>
<event>
 5   0  0.7302027E-04  0.1622157E+04  0.7818609E-02  0.8807051E-01
       -1   -1    0    0    0  501  0.00000000000E+00  0.00000000000E+00  0.42989286533E+03  0.42989286536E+03  0.50400001928E-02 0. -1.
        1   -1    0    0  501    0  0.00000000000E+00  0.00000000000E+00 -0.15302610278E+04  0.15302610278E+04  0.50400001928E-02 0.  1.
    10030    2    1    2    0    0  0.00000000000E+00  0.00000000000E+00 -0.11003681625E+04  0.19601538932E+04  0.16221569566E+04 0.  0.
        5    1    3    3  502    0 -0.55811841849E+02  0.26011987367E+02  0.42704788732E+03  0.43148994570E+03  0.46999998093E+01 0. -1.
       -5    1    3    3    0  502  0.55811841849E+02 -0.26011987367E+02 -0.15274160498E+04  0.15286639475E+04  0.46999998093E+01 0.  1.
</event>
<event>
 5   0  0.1339162E-03  0.1567285E+04  0.7818609E-02  0.8840902E-01
       -2   -1    0    0    0  501  0.00000000000E+00  0.00000000000E+00  0.50973429116E+03  0.50973429117E+03  0.25500000920E-02 0.  1.
        2   -1    0    0  501    0  0.00000000000E+00  0.00000000000E+00 -0.12047362429E+04  0.12047362429E+04  0.25500000920E-02 0. -1.
    10030    2    1    2    0    0  0.00000000000E+00  0.00000000000E+00 -0.69500195178E+03  0.17144705341E+04  0.15672847538E+04 0.  0.
        5    1    3    3  502    0 -0.38157493253E+03 -0.66213805479E+03 -0.15788145208E+03  0.78036842302E+03  0.46999998093E+01 0.  1.
       -5    1    3    3    0  502  0.38157493253E+03  0.66213805479E+03 -0.53712049969E+03  0.93410211108E+03  0.46999998093E+01 0. -1.
</event>
<event>
 5   0  0.7601145E-04  0.1636532E+04  0.7818609E-02  0.8798414E-01
       -1   -1    0    0    0  501  0.00000000000E+00  0.00000000000E+00  0.96736708772E+03  0.96736708773E+03  0.50400001928E-02 0.  1.
        1   -1    0    0  501    0  0.00000000000E+00  0.00000000000E+00 -0.69214616432E+03  0.69214616433E+03  0.50400001928E-02 0. -1.
    10030    2    1    2    0    0  0.00000000000E+00  0.00000000000E+00  0.27522092340E+03  0.16595132521E+04  0.16365322108E+04 0.  0.
        4    1    3    3  502    0 -0.56027115772E+03 -0.45561552612E+03  0.52781071542E+03  0.89446913978E+03  0.12699999809E+01 0.  1.
       -4    1    3    3    0  502  0.56027115772E+03  0.45561552612E+03 -0.25258979202E+03  0.76504411228E+03  0.12699999809E+01 0. -1.
</event>
<event>
 5   0  0.1414751E-03  0.1536764E+04  0.7818609E-02  0.8860367E-01
        2   -1    0    0  501    0  0.00000000000E+00  0.00000000000E+00  0.55370851361E+03  0.55370851361E+03  0.25500000920E-02 0.  1.
       -2   -1    0    0    0  501  0.00000000000E+00  0.00000000000E+00 -0.10662851787E+04  0.10662851787E+04  0.25500000920E-02 0. -1.
    10030    2    1    2    0    0  0.00000000000E+00  0.00000000000E+00 -0.51257666505E+03  0.16199936923E+04  0.15367643689E+04 0.  0.
        2    1    3    3  502    0 -0.15749332020E+03  0.47264332727E+03 -0.87296251299E+03  0.10051166150E+04  0.25500000920E-02 0. -1.
       -2    1    3    3    0  502  0.15749332020E+03 -0.47264332727E+03  0.36038584793E+03  0.61487707724E+03  0.25500000920E-02 0.  1.
</event>
<event>
 5   0  0.7633213E-04  0.1688553E+04  0.7818609E-02  0.8767920E-01
       -1   -1    0    0    0  501  0.00000000000E+00  0.00000000000E+00  0.15710050187E+04  0.15710050187E+04  0.50400001928E-02 0. -1.
        1   -1    0    0  501    0  0.00000000000E+00  0.00000000000E+00 -0.45372411038E+03  0.45372411041E+03  0.50400001928E-02 0.  1.
    10030    2    1    2    0    0  0.00000000000E+00  0.00000000000E+00  0.11172809083E+04  0.20247291291E+04  0.16885530546E+04 0.  0.
        1    1    3    3  502    0 -0.72787461572E+03 -0.20090503733E+03  0.10115074796E+04  0.12622645014E+04  0.50400001928E-02 0. -1.
       -1    1    3    3    0  502  0.72787461572E+03  0.20090503733E+03  0.10577342871E+03  0.76246462769E+03  0.50400001928E-02 0.  1.
</event>
<event>
 5   0  0.1354766E-03  0.1659499E+04  0.7818609E-02  0.8784807E-01
        2   -1    0    0  501    0  0.00000000000E+00  0.00000000000E+00  0.63807667191E+03  0.63807667192E+03  0.25500000920E-02 0.  1.
       -2   -1    0    0    0  501  0.00000000000E+00  0.00000000000E+00 -0.10789991561E+04  0.10789991561E+04  0.25500000920E-02 0. -1.
    10030    2    1    2    0    0  0.00000000000E+00  0.00000000000E+00 -0.44092248422E+03  0.17170758281E+04  0.16594989491E+04 0.  0.
        3    1    3    3  502    0  0.26978498735E+03  0.69428786947E+03 -0.59874760609E+03  0.95567687588E+03  0.10100000352E+00 0. -1.
       -3    1    3    3    0  502 -0.26978498735E+03 -0.69428786947E+03  0.15782512186E+03  0.76139895218E+03  0.10100000352E+00 0.  1.
</event>
<event>
 5   0  0.1339162E-03  0.2023756E+04  0.7818609E-02  0.8595594E-01
       -2   -1    0    0    0  501  0.00000000000E+00  0.00000000000E+00  0.44897168064E+03  0.44897168065E+03  0.25500000920E-02 0. -1.
        2   -1    0    0  501    0  0.00000000000E+00  0.00000000000E+00 -0.22805375831E+04  0.22805375831E+04  0.25500000920E-02 0.  1.
    10030    2    1    2    0    0  0.00000000000E+00  0.00000000000E+00 -0.18315659024E+04  0.27295092637E+04  0.20237557080E+04 0.  0.
        5    1    3    3  502    0  0.61137946362E+03 -0.80597576277E+03 -0.88583853048E+03  0.13446612104E+04  0.46999998093E+01 0. -1.
       -5    1    3    3    0  502 -0.61137946362E+03  0.80597576277E+03 -0.94572737195E+03  0.13848480533E+04  0.46999998093E+01 0.  1.
</event>
<event>
 5   0  0.7633213E-04  0.1517216E+04  0.7818609E-02  0.8873085E-01
       -1   -1    0    0    0  501  0.00000000000E+00  0.00000000000E+00  0.71450549575E+03  0.71450549576E+03  0.50400001928E-02 0.  1.
        1   -1    0    0  501    0  0.00000000000E+00  0.00000000000E+00 -0.80543251252E+03  0.80543251254E+03  0.50400001928E-02 0. -1.
    10030    2    1    2    0    0  0.00000000000E+00  0.00000000000E+00 -0.90927016775E+02  0.15199380083E+04  0.15172158141E+04 0.  0.
        1    1    3    3  502    0 -0.94744559827E+02  0.13856243424E+03  0.69566779542E+03  0.71563242060E+03  0.50400001928E-02 0.  1.
       -1    1    3    3    0  502  0.94744559827E+02 -0.13856243424E+03 -0.78659481220E+03  0.80430558770E+03  0.50400001928E-02 0. -1.
</event>
<event>
 5   0  0.7601145E-04  0.1602299E+04  0.7818609E-02  0.8819137E-01
        1   -1    0    0  501    0  0.00000000000E+00  0.00000000000E+00  0.13748480889E+04  0.13748480889E+04  0.50400001928E-02 0. -1.
       -1   -1    0    0    0  501  0.00000000000E+00  0.00000000000E+00 -0.46684452403E+03  0.46684452406E+03  0.50400001928E-02 0.  1.
    10030    2    1    2    0    0  0.00000000000E+00  0.00000000000E+00  0.90800356489E+03  0.18416926130E+04  0.16022987259E+04 0.  0.
        4    1    3    3  502    0 -0.16315302927E+03 -0.49229736336E+03 -0.24785475972E+03  0.57481231698E+03  0.12699999809E+01 0.  1.
       -4    1    3    3    0  502  0.16315302927E+03  0.49229736336E+03  0.11558583246E+04  0.12668802960E+04  0.12699999809E+01 0. -1.
</event>
<event>
 5   0  0.5095750E-04  0.1585302E+04  0.7818609E-02  0.8829629E-01
       -3   -1    0    0    0  501  0.00000000000E+00  0.00000000000E+00  0.39515259039E+03  0.39515260330E+03  0.10100000352E+00 0. -1.
        3   -1    0    0  501    0  0.00000000000E+00  0.00000000000E+00 -0.15900077683E+04  0.15900077715E+04  0.10100000352E+00 0.  1.
    10030    2    1    2    0    0  0.00000000000E+00  0.00000000000E+00 -0.11948551779E+04  0.19851603748E+04  0.15853021218E+04 0.  0.
        4    1    3    3  502    0 -0.77482728276E+03 -0.14009802993E+03 -0.48328014842E+03  0.92387558192E+03  0.12699999809E+01 0. -1.
       -4    1    3    3    0  502  0.77482728276E+03  0.14009802993E+03 -0.71157502948E+03  0.10612847929E+04  0.12699999809E+01 0.  1.
</event>
<event>
 5   0  0.7302027E-04  0.1594734E+04  0.7818609E-02  0.8823790E-01
        1   -1    0    0  501    0  0.00000000000E+00  0.00000000000E+00  0.11757913560E+04  0.11757913561E+04  0.50400001928E-02 0. -1.
       -1   -1    0    0    0  501  0.00000000000E+00  0.00000000000E+00 -0.54073720477E+03  0.54073720480E+03  0.50400001928E-02 0.  1.
    10030    2    1    2    0    0  0.00000000000E+00  0.00000000000E+00  0.63505415127E+03  0.17165285609E+04  0.15947339982E+04 0.  0.
        5    1    3    3  502    0 -0.12305732275E+03 -0.13625381582E+03 -0.51766054965E+03  0.54927474152E+03  0.46999998093E+01 0.  1.
       -5    1    3    3    0  502  0.12305732275E+03  0.13625381582E+03  0.11527147009E+04  0.11672538193E+04  0.46999998093E+01 0. -1.
</event>
<event>
 5   0  0.1339162E-03  0.1563254E+04  0.7818609E-02  0.8843446E-01
        2   -1    0    0  501    0  0.00000000000E+00  0.00000000000E+00  0.85546358949E+03  0.85546358949E+03  0.25500000920E-02 0.  1.
       -2   -1    0    0    0  501  0.00000000000E+00  0.00000000000E+00 -0.71416317582E+03  0.71416317582E+03  0.25500000920E-02 0. -1.
    10030    2    1    2    0    0  0.00000000000E+00  0.00000000000E+00  0.14130041367E+03  0.15696267653E+04  0.15632537783E+04 0.  0.
        5    1    3    3  502    0 -0.21590489300E+03 -0.50875935325E+03  0.62559453247E+03  0.83477039442E+03  0.46999998093E+01 0.  1.
       -5    1    3    3    0  502  0.21590489300E+03  0.50875935325E+03 -0.48429411880E+03  0.73485637089E+03  0.46999998093E+01 0. -1.
</event>
<event>
 5   0  0.1339162E-03  0.1586281E+04  0.7818609E-02  0.8829021E-01
       -2   -1    0    0    0  501  0.00000000000E+00  0.00000000000E+00  0.73294937900E+03  0.73294937900E+03  0.25500000920E-02 0. -1.
        2   -1    0    0  501    0  0.00000000000E+00  0.00000000000E+00 -0.85827473089E+03  0.85827473089E+03  0.25500000920E-02 0.  1.
    10030    2    1    2    0    0  0.00000000000E+00  0.00000000000E+00 -0.12532535189E+03  0.15912241099E+04  0.15862810987E+04 0.  0.
        5    1    3    3  502    0 -0.19823103842E+03 -0.20836758907E+03 -0.80411222424E+03  0.85400887346E+03  0.46999998093E+01 0.  1.
       -5    1    3    3    0  502  0.19823103842E+03  0.20836758907E+03  0.67878687235E+03  0.73721523644E+03  0.46999998093E+01 0. -1.
</event>
<event>
 5   0  0.1354766E-03  0.1617883E+04  0.7818609E-02  0.8809636E-01
       -2   -1    0    0    0  501  0.00000000000E+00  0.00000000000E+00  0.94765610856E+03  0.94765610857E+03  0.25500000920E-02 0. -1.
        2   -1    0    0  501    0  0.00000000000E+00  0.00000000000E+00 -0.69053182450E+03  0.69053182451E+03  0.25500000920E-02 0.  1.
    10030    2    1    2    0    0  0.00000000000E+00  0.00000000000E+00  0.25712428406E+03  0.16381879331E+04  0.16178834342E+04 0.  0.
        3    1    3    3  502    0  0.18064704401E+03 -0.76594215017E+03  0.31822538557E+03  0.84886285002E+03  0.10100000352E+00 0. -1.
       -3    1    3    3    0  502 -0.18064704401E+03  0.76594215017E+03 -0.61101101512E+02  0.78932508305E+03  0.10100000352E+00 0.  1.
</event>
<event>
 5   0  0.1339162E-03  0.1592455E+04  0.7818609E-02  0.8825196E-01
        2   -1    0    0  501    0  0.00000000000E+00  0.00000000000E+00  0.56577595022E+03  0.56577595022E+03  0.25500000920E-02 0.  1.
       -2   -1    0    0    0  501  0.00000000000E+00  0.00000000000E+00 -0.11205470160E+04  0.11205470160E+04  0.25500000920E-02 0. -1.
    10030    2    1    2    0    0  0.00000000000E+00  0.00000000000E+00 -0.55477106578E+03  0.16863229662E+04  0.15924554031E+04 0.  0.
        5    1    3    3  502    0  0.40241495998E+03 -0.66545041442E+03 -0.45832083824E+03  0.90268606660E+03  0.46999998093E+01 0.  1.
       -5    1    3    3    0  502 -0.40241495998E+03  0.66545041442E+03 -0.96450227542E+02  0.78363689963E+03  0.46999998093E+01 0. -1.
</event>
<event>
 5   0  0.7124495E-04  0.1540043E+04  0.7818609E-02  0.8858253E-01
        1   -1    0    0  501    0  0.00000000000E+00  0.00000000000E+00  0.44164626892E+03  0.44164626895E+03  0.50400001928E-02 0.  1.
       -1   -1    0    0    0  501  0.00000000000E+00  0.00000000000E+00 -0.13425515667E+04  0.13425515667E+04  0.50400001928E-02 0. -1.
    10030    2    1    2    0    0  0.00000000000E+00  0.00000000000E+00 -0.90090529774E+03  0.17841978356E+04  0.15400427141E+04 0.  0.
        2    1    3    3  502    0  0.30861161113E+03 -0.21851299555E+03  0.32666969204E+03  0.49970205468E+03  0.25500000920E-02 0.  1.
       -2    1    3    3    0  502 -0.30861161113E+03  0.21851299555E+03 -0.12275749898E+04  0.12844957809E+04  0.25500000920E-02 0. -1.
</event>
<event>
 5   0  0.1354766E-03  0.1579312E+04  0.7818609E-02  0.8833359E-01
        2   -1    0    0  501    0  0.00000000000E+00  0.00000000000E+00  0.18498635220E+04  0.18498635220E+04  0.25500000920E-02 0.  1.
       -2   -1    0    0    0  501  0.00000000000E+00  0.00000000000E+00 -0.33708254335E+03  0.33708254336E+03  0.25500000920E-02 0. -1.
    10030    2    1    2    0    0  0.00000000000E+00  0.00000000000E+00  0.15127809786E+04  0.21869460654E+04  0.15793121298E+04 0.  0.
        3    1    3    3  502    0 -0.52654266219E+03  0.41297474124E+03  0.17585091942E+03  0.69189512795E+03  0.10100000352E+00 0. -1.
       -3    1    3    3    0  502  0.52654266219E+03 -0.41297474124E+03  0.13369300592E+04  0.14950509374E+04  0.10100000352E+00 0.  1.
</event>
<event>
 5   0  0.1414796E-03  0.1740237E+04  0.7818609E-02  0.8738743E-01
        2   -1    0    0  501    0  0.00000000000E+00  0.00000000000E+00  0.76904888088E+03  0.76904888088E+03  0.25500000920E-02 0.  1.
       -2   -1    0    0    0  501  0.00000000000E+00  0.00000000000E+00 -0.98447065427E+03  0.98447065427E+03  0.25500000920E-02 0. -1.
    10030    2    1    2    0    0  0.00000000000E+00  0.00000000000E+00 -0.21542177339E+03  0.17535195352E+04  0.17402368286E+04 0.  0.
        4    1    3    3  502    0  0.86855115666E+03  0.51796452705E+02 -0.11412007904E+03  0.87754714379E+03  0.12699999809E+01 0. -1.
       -4    1    3    3    0  502 -0.86855115666E+03 -0.51796452705E+02 -0.10130169435E+03  0.87597239136E+03  0.12699999809E+01 0.  1.
</event>
<event>
 5   0  0.1354766E-03  0.1531534E+04  0.7818609E-02  0.8863750E-01
        2   -1    0    0  501    0  0.00000000000E+00  0.00000000000E+00  0.10045829963E+04  0.10045829963E+04  0.25500000920E-02 0. -1.
       -2   -1    0    0    0  501  0.00000000000E+00  0.00000000000E+00 -0.58372412792E+03  0.58372412793E+03  0.25500000920E-02 0.  1.
    10030    2    1    2    0    0  0.00000000000E+00  0.00000000000E+00  0.42085886834E+03  0.15883071242E+04  0.15315343071E+04 0.  0.
        3    1    3    3  502    0 -0.32163511911E+03 -0.15618444008E+03 -0.49184074271E+03  0.60807076526E+03  0.10100000352E+00 0.  1.
       -3    1    3    3    0  502  0.32163511911E+03  0.15618444008E+03  0.91269961106E+03  0.98023635894E+03  0.10100000352E+00 0. -1.
</event>
<event>
 5   0  0.7124495E-04  0.1631684E+04  0.7818609E-02  0.8801316E-01
        1   -1    0    0  501    0  0.00000000000E+00  0.00000000000E+00  0.66336331236E+03  0.66336331238E+03  0.50400001928E-02 0. -1.
       -1   -1    0    0    0  501  0.00000000000E+00  0.00000000000E+00 -0.10033693798E+04  0.10033693798E+04  0.50400001928E-02 0.  1.
    10030    2    1    2    0    0  0.00000000000E+00  0.00000000000E+00 -0.34000606745E+03  0.16667326922E+04  0.16316843265E+04 0.  0.
        2    1    3    3  502    0 -0.17064634709E+03  0.67217093167E+03 -0.60895956693E+03  0.92291152952E+03  0.25500000920E-02 0.  1.
       -2    1    3    3    0  502  0.17064634709E+03 -0.67217093167E+03  0.26895349948E+03  0.74382116268E+03  0.25500000920E-02 0. -1.
</event>
<event>
 5   0  0.1414751E-03  0.1597873E+04  0.7818609E-02  0.8821856E-01
        2   -1    0    0  501    0  0.00000000000E+00  0.00000000000E+00  0.73524478816E+03  0.73524478816E+03  0.25500000920E-02 0.  1.
       -2   -1    0    0    0  501  0.00000000000E+00  0.00000000000E+00 -0.86814560103E+03  0.86814560104E+03  0.25500000920E-02 0. -1.
    10030    2    1    2    0    0  0.00000000000E+00  0.00000000000E+00 -0.13290081288E+03  0.16033903892E+04  0.15978729969E+04 0.  0.
        2    1    3    3  502    0  0.10035072116E+03  0.60854777736E+03 -0.57604138756E+03  0.84393385094E+03  0.25500000920E-02 0. -1.
       -2    1    3    3    0  502 -0.10035072116E+03 -0.60854777736E+03  0.44314057468E+03  0.75945653826E+03  0.25500000920E-02 0.  1.
</event>
<event>
 5   0  0.7601145E-04  0.1506018E+04  0.7818609E-02  0.8880461E-01
        1   -1    0    0  501    0  0.00000000000E+00  0.00000000000E+00  0.11875424570E+04  0.11875424570E+04  0.50400001928E-02 0.  1.
       -1   -1    0    0    0  501  0.00000000000E+00  0.00000000000E+00 -0.47747582545E+03  0.47747582548E+03  0.50400001928E-02 0. -1.
    10030    2    1    2    0    0  0.00000000000E+00  0.00000000000E+00  0.71006663153E+03  0.16650182825E+04  0.15060183464E+04 0.  0.
        4    1    3    3  502    0  0.39323223681E+03  0.62546697587E+03  0.51593426720E+03  0.90112724459E+03  0.12699999809E+01 0.  1.
       -4    1    3    3    0  502 -0.39323223681E+03 -0.62546697587E+03  0.19413236433E+03  0.76389103788E+03  0.12699999809E+01 0. -1.
</event>
<event>
 5   0  0.7601145E-04  0.1593154E+04  0.7818609E-02  0.8824765E-01
       -1   -1    0    0    0  501  0.00000000000E+00  0.00000000000E+00  0.58897353033E+03  0.58897353036E+03  0.50400001928E-02 0. -1.
        1   -1    0    0  501    0  0.00000000000E+00  0.00000000000E+00 -0.10773578793E+04  0.10773578794E+04  0.50400001928E-02 0.  1.
    10030    2    1    2    0    0  0.00000000000E+00  0.00000000000E+00 -0.48838434901E+03  0.16663314097E+04  0.15931544478E+04 0.  0.
        4    1    3    3  502    0 -0.27176909335E+03 -0.66295751794E+03  0.11988018040E+03  0.72645989651E+03  0.12699999809E+01 0. -1.
       -4    1    3    3    0  502  0.27176909335E+03  0.66295751794E+03 -0.60826452941E+03  0.93987151320E+03  0.12699999809E+01 0.  1.
</event>
<event>
 5   0  0.1414796E-03  0.1639168E+04  0.7818609E-02  0.8796840E-01
       -2   -1    0    0    0  501  0.00000000000E+00  0.00000000000E+00  0.32309953054E+03  0.32309953055E+03  0.25500000920E-02 0. -1.
        2   -1    0    0  501    0  0.00000000000E+00  0.00000000000E+00 -0.20789825507E+04  0.20789825507E+04  0.25500000920E-02 0.  1.
    10030    2    1    2    0    0  0.00000000000E+00  0.00000000000E+00 -0.17558830202E+04  0.24020820812E+04  0.16391684308E+04 0.  0.
        4    1    3    3  502    0  0.57932720063E+03 -0.25409773941E+03 -0.16415556772E+04  0.17592306048E+04  0.12699999809E+01 0.  1.
       -4    1    3    3    0  502 -0.57932720063E+03  0.25409773941E+03 -0.11432734298E+03  0.64285147649E+03  0.12699999809E+01 0. -1.
</event>
<event>
 5   0  0.7499834E-04  0.1600935E+04  0.7818609E-02  0.8819974E-01
       -1   -1    0    0    0  501  0.00000000000E+00  0.00000000000E+00  0.24955908892E+03  0.24955908897E+03  0.50400001928E-02 0. -1.
        1   -1    0    0  501    0  0.00000000000E+00  0.00000000000E+00 -0.25675203095E+04  0.25675203095E+04  0.50400001928E-02 0.  1.
    10030    2    1    2    0    0  0.00000000000E+00  0.00000000000E+00 -0.23179612205E+04  0.28170793984E+04  0.16009347635E+04 0.  0.
        3    1    3    3  502    0  0.13220826732E+03 -0.66006241098E+02  0.22535045035E+03  0.26947854365E+03  0.10100000352E+00 0. -1.
       -3    1    3    3    0  502 -0.13220826732E+03  0.66006241098E+02 -0.25433116709E+04  0.25476008548E+04  0.10100000352E+00 0.  1.
</event>
<event>
 5   0  0.7124495E-04  0.1595524E+04  0.7818609E-02  0.8823303E-01
       -1   -1    0    0    0  501  0.00000000000E+00  0.00000000000E+00  0.48930284830E+03  0.48930284832E+03  0.50400001928E-02 0. -1.
        1   -1    0    0  501    0  0.00000000000E+00  0.00000000000E+00 -0.13006749442E+04  0.13006749442E+04  0.50400001928E-02 0.  1.
    10030    2    1    2    0    0  0.00000000000E+00  0.00000000000E+00 -0.81137209586E+03  0.17899777925E+04  0.15955236820E+04 0.  0.
        2    1    3    3  502    0  0.70623664976E+03 -0.27568287389E+03 -0.68424713419E+03  0.10212567714E+04  0.25500000920E-02 0.  1.
       -2    1    3    3    0  502 -0.70623664976E+03  0.27568287389E+03 -0.12712496167E+03  0.76872102112E+03  0.25500000920E-02 0. -1.
</event>
<event>
 5   0  0.1354766E-03  0.1578648E+04  0.7818609E-02  0.8833774E-01
       -2   -1    0    0    0  501  0.00000000000E+00  0.00000000000E+00  0.45800442584E+03  0.45800442585E+03  0.25500000920E-02 0. -1.
        2   -1    0    0  501    0  0.00000000000E+00  0.00000000000E+00 -0.13603189610E+04  0.13603189610E+04  0.25500000920E-02 0.  1.
    10030    2    1    2    0    0  0.00000000000E+00  0.00000000000E+00 -0.90231453512E+03  0.18183233868E+04  0.15786476550E+04 0.  0.
        3    1    3    3  502    0 -0.14930203611E+03  0.67825259630E+02 -0.13404818835E+04  0.13504751216E+04  0.10100000352E+00 0.  1.
       -3    1    3    3    0  502  0.14930203611E+03 -0.67825259630E+02  0.43816734841E+03  0.46784826519E+03  0.10100000352E+00 0. -1.
</event>
<event>
 5   0  0.1354766E-03  0.1570471E+04  0.7818609E-02  0.8838897E-01
        2   -1    0    0  501    0  0.00000000000E+00  0.00000000000E+00  0.22293100807E+04  0.22293100807E+04  0.25500000920E-02 0. -1.
       -2   -1    0    0    0  501  0.00000000000E+00  0.00000000000E+00 -0.27658549676E+03  0.27658549677E+03  0.25500000920E-02 0.  1.
    10030    2    1    2    0    0  0.00000000000E+00  0.00000000000E+00  0.19527245840E+04  0.25058955775E+04  0.15704710582E+04 0.  0.
        3    1    3    3  502    0 -0.27384295593E+01  0.16438759992E+03  0.22015384220E+04  0.22076689552E+04  0.10100000352E+00 0. -1.
       -3    1    3    3    0  502  0.27384295593E+01 -0.16438759992E+03 -0.24881383808E+03  0.29822662226E+03  0.10100000352E+00 0.  1.
</event>
<event>
 5   0  0.1414796E-03  0.1613851E+04  0.7818609E-02  0.8812083E-01
        2   -1    0    0  501    0  0.00000000000E+00  0.00000000000E+00  0.19475894535E+04  0.19475894535E+04  0.25500000920E-02 0. -1.
       -2   -1    0    0    0  501  0.00000000000E+00  0.00000000000E+00 -0.33432563478E+03  0.33432563479E+03  0.25500000920E-02 0.  1.
    10030    2    1    2    0    0  0.00000000000E+00  0.00000000000E+00  0.16132638187E+04  0.22819150883E+04  0.16138513938E+04 0.  0.
        4    1    3    3  502    0  0.39891348660E+03 -0.32348236649E+03  0.16866474238E+04  0.17631091731E+04  0.12699999809E+01 0. -1.
       -4    1    3    3    0  502 -0.39891348660E+03  0.32348236649E+03 -0.73383605081E+02  0.51880591517E+03  0.12699999809E+01 0.  1.
</event>
<event>
 5   0  0.7633213E-04  0.1615306E+04  0.7818609E-02  0.8811200E-01
       -1   -1    0    0    0  501  0.00000000000E+00  0.00000000000E+00  0.54833075879E+03  0.54833075881E+03  0.50400001928E-02 0. -1.
        1   -1    0    0  501    0  0.00000000000E+00  0.00000000000E+00 -0.11896171137E+04  0.11896171137E+04  0.50400001928E-02 0.  1.
    10030    2    1    2    0    0  0.00000000000E+00  0.00000000000E+00 -0.64128635492E+03  0.17379478725E+04  0.16153063544E+04 0.  0.
        1    1    3    3  502    0  0.46677321322E+03  0.63747391828E+03 -0.14043487545E+03  0.80247877438E+03  0.50400001928E-02 0. -1.
       -1    1    3    3    0  502 -0.46677321322E+03 -0.63747391828E+03 -0.50085147948E+03  0.93546909815E+03  0.50400001928E-02 0.  1.
</event>
<event>
 5   0  0.1414796E-03  0.1649331E+04  0.7818609E-02  0.8790802E-01
       -2   -1    0    0    0  501  0.00000000000E+00  0.00000000000E+00  0.34929871232E+03  0.34929871233E+03  0.25500000920E-02 0. -1.
        2   -1    0    0  501    0  0.00000000000E+00  0.00000000000E+00 -0.19469670007E+04  0.19469670007E+04  0.25500000920E-02 0.  1.
    10030    2    1    2    0    0  0.00000000000E+00  0.00000000000E+00 -0.15976682884E+04  0.22962657130E+04  0.16493308538E+04 0.  0.
        4    1    3    3  502    0  0.13330862914E+03  0.39534838017E+03 -0.17891861428E+04  0.18371881229E+04  0.12699999809E+01 0.  1.
       -4    1    3    3    0  502 -0.13330862914E+03 -0.39534838017E+03  0.19151785444E+03  0.45907759015E+03  0.12699999809E+01 0. -1.
</event>
<event>
 5   0  0.7499834E-04  0.1344687E+04  0.7818609E-02  0.8994860E-01
        1   -1    0    0  501    0  0.00000000000E+00  0.00000000000E+00  0.14447166995E+04  0.14447166996E+04  0.50400001928E-02 0.  1.
       -1   -1    0    0    0  501  0.00000000000E+00  0.00000000000E+00 -0.31289576188E+03  0.31289576192E+03  0.50400001928E-02 0. -1.
    10030    2    1    2    0    0  0.00000000000E+00  0.00000000000E+00  0.11318209377E+04  0.17576124615E+04  0.13446869263E+04 0.  0.
        3    1    3    3  502    0  0.35516931828E+03  0.22120714367E+03  0.12537967398E+04  0.13217730971E+04  0.10100000352E+00 0.  1.
       -3    1    3    3    0  502 -0.35516931828E+03 -0.22120714367E+03 -0.12197580217E+03  0.43583936441E+03  0.10100000352E+00 0. -1.
</event>
<event>
 5   0  0.1354766E-03  0.1560574E+04  0.7818609E-02  0.8845142E-01
        2   -1    0    0  501    0  0.00000000000E+00  0.00000000000E+00  0.12685291261E+04  0.12685291261E+04  0.25500000920E-02 0. -1.
       -2   -1    0    0    0  501  0.00000000000E+00  0.00000000000E+00 -0.47996338672E+03  0.47996338673E+03  0.25500000920E-02 0.  1.
    10030    2    1    2    0    0  0.00000000000E+00  0.00000000000E+00  0.78856573936E+03  0.17484925128E+04  0.15605736580E+04 0.  0.
        3    1    3    3  502    0  0.27826232878E+03  0.71288325035E+03  0.22357068017E+03  0.79725548696E+03  0.10100000352E+00 0. -1.
       -3    1    3    3    0  502 -0.27826232878E+03 -0.71288325035E+03  0.56499505918E+03  0.95123702585E+03  0.10100000352E+00 0.  1.
</event>
<event>
 5   0  0.1339162E-03  0.1612012E+04  0.7818609E-02  0.8813202E-01
        2   -1    0    0  501    0  0.00000000000E+00  0.00000000000E+00  0.78810056813E+03  0.78810056813E+03  0.25500000920E-02 0.  1.
       -2   -1    0    0    0  501  0.00000000000E+00  0.00000000000E+00 -0.82431871623E+03  0.82431871623E+03  0.25500000920E-02 0. -1.
    10030    2    1    2    0    0  0.00000000000E+00  0.00000000000E+00 -0.36218148101E+02  0.16124192844E+04  0.16120124672E+04 0.  0.
        5    1    3    3  502    0  0.12827307469E+02  0.69113588001E+03 -0.43268998690E+03  0.81552195508E+03  0.46999998093E+01 0. -1.
       -5    1    3    3    0  502 -0.12827307469E+02 -0.69113588001E+03  0.39647183880E+03  0.79689732928E+03  0.46999998093E+01 0.  1.
</event>
<event>
 5   0  0.7633213E-04  0.1651166E+04  0.7818609E-02  0.8789717E-01
        1   -1    0    0  501    0  0.00000000000E+00  0.00000000000E+00  0.83722101712E+03  0.83722101714E+03  0.50400001928E-02 0.  1.
       -1   -1    0    0    0  501  0.00000000000E+00  0.00000000000E+00 -0.81410653995E+03  0.81410653997E+03  0.50400001928E-02 0. -1.
    10030    2    1    2    0    0  0.00000000000E+00  0.00000000000E+00  0.23114477174E+02  0.16513275571E+04  0.16511657766E+04 0.  0.
        1    1    3    3  502    0 -0.10775709721E+03  0.81790323759E+03  0.43337818370E+02  0.82610862760E+03  0.50400001928E-02 0. -1.
       -1    1    3    3    0  502  0.10775709721E+03 -0.81790323759E+03 -0.20223341196E+02  0.82521892951E+03  0.50400001928E-02 0.  1.
</event>
<event>
 5   0  0.7633213E-04  0.1593036E+04  0.7818609E-02  0.8824838E-01
       -1   -1    0    0    0  501  0.00000000000E+00  0.00000000000E+00  0.66569864507E+03  0.66569864509E+03  0.50400001928E-02 0.  1.
        1   -1    0    0  501    0  0.00000000000E+00  0.00000000000E+00 -0.95304504249E+03  0.95304504251E+03  0.50400001928E-02 0. -1.
    10030    2    1    2    0    0  0.00000000000E+00  0.00000000000E+00 -0.28734639742E+03  0.16187436876E+04  0.15930358358E+04 0.  0.
        1    1    3    3  502    0 -0.15692364283E+03 -0.28143629223E+03 -0.88385772662E+03  0.94076346506E+03  0.50400001928E-02 0. -1.
       -1    1    3    3    0  502  0.15692364283E+03  0.28143629223E+03  0.59651132920E+03  0.67798022254E+03  0.50400001928E-02 0.  1.
</event>
<event>
 5   0  0.1375777E-03  0.1603882E+04  0.7818609E-02  0.8818167E-01
       -2   -1    0    0    0  501  0.00000000000E+00  0.00000000000E+00  0.44093838181E+03  0.44093838181E+03  0.25500000920E-02 0. -1.
        2   -1    0    0  501    0  0.00000000000E+00  0.00000000000E+00 -0.14585010770E+04  0.14585010770E+04  0.25500000920E-02 0.  1.
    10030    2    1    2    0    0  0.00000000000E+00  0.00000000000E+00 -0.10175626952E+04  0.18994394588E+04  0.16038816724E+04 0.  0.
        1    1    3    3  502    0  0.37073511455E+03  0.45875772620E+03  0.13466993121E+03  0.60501170808E+03  0.50400001928E-02 0. -1.
       -1    1    3    3    0  502 -0.37073511455E+03 -0.45875772620E+03 -0.11522326264E+04  0.12944277507E+04  0.50400001928E-02 0.  1.
</event>
<event>
 5   0  0.7601145E-04  0.1645774E+04  0.7818609E-02  0.8792910E-01
        1   -1    0    0  501    0  0.00000000000E+00  0.00000000000E+00  0.59771866966E+03  0.59771866968E+03  0.50400001928E-02 0.  1.
       -1   -1    0    0    0  501  0.00000000000E+00  0.00000000000E+00 -0.11328793826E+04  0.11328793826E+04  0.50400001928E-02 0. -1.
    10030    2    1    2    0    0  0.00000000000E+00  0.00000000000E+00 -0.53516071296E+03  0.17305980523E+04  0.16457741734E+04 0.  0.
        4    1    3    3  502    0 -0.49172006672E+03 -0.11046233704E+03 -0.95160799471E+03  0.10768240062E+04  0.12699999809E+01 0. -1.
       -4    1    3    3    0  502  0.49172006672E+03  0.11046233704E+03  0.41644728175E+03  0.65377404606E+03  0.12699999809E+01 0.  1.
</event>
<event>
 5   0  0.1339162E-03  0.1610651E+04  0.7818609E-02  0.8814032E-01
       -2   -1    0    0    0  501  0.00000000000E+00  0.00000000000E+00  0.12456015817E+04  0.12456015817E+04  0.25500000920E-02 0.  1.
        2   -1    0    0  501    0  0.00000000000E+00  0.00000000000E+00 -0.52067114322E+03  0.52067114323E+03  0.25500000920E-02 0. -1.
    10030    2    1    2    0    0  0.00000000000E+00  0.00000000000E+00  0.72493043852E+03  0.17662727250E+04  0.16106505513E+04 0.  0.
        5    1    3    3  502    0  0.77004615709E+02 -0.64751622957E+03 -0.15576171974E+03  0.67044073693E+03  0.46999998093E+01 0. -1.
       -5    1    3    3    0  502 -0.77004615709E+02  0.64751622957E+03  0.88069215826E+03  0.10958319880E+04  0.46999998093E+01 0.  1.
</event>
<event>
 5   0  0.7124495E-04  0.1547257E+04  0.7818609E-02  0.8853622E-01
       -1   -1    0    0    0  501  0.00000000000E+00  0.00000000000E+00  0.81029432125E+03  0.81029432126E+03  0.50400001928E-02 0. -1.
        1   -1    0    0  501    0  0.00000000000E+00  0.00000000000E+00 -0.73862164272E+03  0.73862164274E+03  0.50400001928E-02 0.  1.
    10030    2    1    2    0    0  0.00000000000E+00  0.00000000000E+00  0.71672678524E+02  0.15489159640E+04  0.15472568276E+04 0.  0.
        2    1    3    3  502    0  0.74646352907E+03  0.11211943690E+03  0.20549477779E+03  0.78230855299E+03  0.25500000920E-02 0. -1.
       -2    1    3    3    0  502 -0.74646352907E+03 -0.11211943690E+03 -0.13382209927E+03  0.76660741102E+03  0.25500000920E-02 0.  1.
</event>
<event>
 5   0  0.7302027E-04  0.1588751E+04  0.7818609E-02  0.8827489E-01
        1   -1    0    0  501    0  0.00000000000E+00  0.00000000000E+00  0.10869527321E+04  0.10869527321E+04  0.50400001928E-02 0. -1.
       -1   -1    0    0    0  501  0.00000000000E+00  0.00000000000E+00 -0.58055185730E+03  0.58055185732E+03  0.50400001928E-02 0.  1.
    10030    2    1    2    0    0  0.00000000000E+00  0.00000000000E+00  0.50640087479E+03  0.16675045894E+04  0.15887509905E+04 0.  0.
        5    1    3    3  502    0  0.77900134011E+03 -0.80369175774E+01  0.41614642409E+03  0.88323701022E+03  0.46999998093E+01 0.  1.
       -5    1    3    3    0  502 -0.77900134011E+03  0.80369175774E+01  0.90254450701E+02  0.78426757921E+03  0.46999998093E+01 0. -1.
</event>
<event>
 5   0  0.7633213E-04  0.1604062E+04  0.7818609E-02  0.8818056E-01
       -1   -1    0    0    0  501  0.00000000000E+00  0.00000000000E+00  0.84545277432E+03  0.84545277434E+03  0.50400001928E-02 0.  1.
        1   -1    0    0  501    0  0.00000000000E+00  0.00000000000E+00 -0.76083956531E+03  0.76083956533E+03  0.50400001928E-02 0. -1.
    10030    2    1    2    0    0  0.00000000000E+00  0.00000000000E+00  0.84613209010E+02  0.16062923397E+04  0.16040622448E+04 0.  0.
        1    1    3    3  502    0  0.26552074863E+03  0.28605184938E+03  0.74394254513E+03  0.84010561179E+03  0.50400001928E-02 0.  1.
       -1    1    3    3    0  502 -0.26552074863E+03 -0.28605184938E+03 -0.65932933612E+03  0.76618672788E+03  0.50400001928E-02 0. -1.
</event>
<event>
 5   0  0.1339162E-03  0.1673257E+04  0.7818609E-02  0.8776766E-01
        2   -1    0    0  501    0  0.00000000000E+00  0.00000000000E+00  0.41805749418E+03  0.41805749419E+03  0.25500000920E-02 0.  1.
       -2   -1    0    0    0  501  0.00000000000E+00  0.00000000000E+00 -0.16742846997E+04  0.16742846997E+04  0.25500000920E-02 0. -1.
    10030    2    1    2    0    0  0.00000000000E+00  0.00000000000E+00 -0.12562272055E+04  0.20923421939E+04  0.16732570228E+04 0.  0.
        5    1    3    3  502    0  0.35382539635E+03  0.39570535736E+03 -0.14367180497E+04  0.15316513916E+04  0.46999998093E+01 0. -1.
       -5    1    3    3    0  502 -0.35382539635E+03 -0.39570535736E+03  0.18049084421E+03  0.56069080230E+03  0.46999998093E+01 0.  1.
</event>
<event>
 5   0  0.7124495E-04  0.1523308E+04  0.7818609E-02  0.8869100E-01
       -1   -1    0    0    0  501  0.00000000000E+00  0.00000000000E+00  0.37541303366E+03  0.37541303370E+03  0.50400001928E-02 0.  1.
        1   -1    0    0  501    0  0.00000000000E+00  0.00000000000E+00 -0.15452754693E+04  0.15452754693E+04  0.50400001928E-02 0. -1.
    10030    2    1    2    0    0  0.00000000000E+00  0.00000000000E+00 -0.11698624356E+04  0.19206885030E+04  0.15233076535E+04 0.  0.
        2    1    3    3  502    0  0.36960720308E+03 -0.58127446499E+03 -0.99471702809E+03  0.12099386159E+04  0.25500000920E-02 0. -1.
       -2    1    3    3    0  502 -0.36960720308E+03  0.58127446499E+03 -0.17514540751E+03  0.71074988709E+03  0.25500000920E-02 0.  1.
</event>
<event>
 5   0  0.7499834E-04  0.1511988E+04  0.7818609E-02  0.8876520E-01
       -1   -1    0    0    0  501  0.00000000000E+00  0.00000000000E+00  0.69519387073E+03  0.69519387075E+03  0.50400001928E-02 0.  1.
        1   -1    0    0  501    0  0.00000000000E+00  0.00000000000E+00 -0.82211200797E+03  0.82211200799E+03  0.50400001928E-02 0. -1.
    10030    2    1    2    0    0  0.00000000000E+00  0.00000000000E+00 -0.12691813724E+03  0.15173058787E+04  0.15119883981E+04 0.  0.
        3    1    3    3  502    0 -0.28616294002E+03 -0.65163496884E+02  0.63569173117E+03  0.70017104827E+03  0.10100000352E+00 0.  1.
       -3    1    3    3    0  502  0.28616294002E+03  0.65163496884E+02 -0.76260986841E+03  0.81713483047E+03  0.10100000352E+00 0. -1.
</event>
<event>
 5   0  0.1354766E-03  0.1595330E+04  0.7818609E-02  0.8823422E-01
        2   -1    0    0  501    0  0.00000000000E+00  0.00000000000E+00  0.64288983161E+03  0.64288983161E+03  0.25500000920E-02 0. -1.
       -2   -1    0    0    0  501  0.00000000000E+00  0.00000000000E+00 -0.98970215578E+03  0.98970215579E+03  0.25500000920E-02 0.  1.
    10030    2    1    2    0    0  0.00000000000E+00  0.00000000000E+00 -0.34681232418E+03  0.16325919874E+04  0.15953300001E+04 0.  0.
        3    1    3    3  502    0 -0.12896943215E+02 -0.32152408692E+03 -0.92033429849E+03  0.97496630752E+03  0.10100000352E+00 0.  1.
       -3    1    3    3    0  502  0.12896943215E+02  0.32152408692E+03  0.57352197431E+03  0.65762567988E+03  0.10100000352E+00 0. -1.
</event>
<event>
 5   0  0.1339162E-03  0.1843785E+04  0.7818609E-02  0.8683356E-01
       -2   -1    0    0    0  501  0.00000000000E+00  0.00000000000E+00  0.11066005656E+04  0.11066005656E+04  0.25500000920E-02 0.  1.
        2   -1    0    0  501    0  0.00000000000E+00  0.00000000000E+00 -0.76801457605E+03  0.76801457605E+03  0.25500000920E-02 0. -1.
    10030    2    1    2    0    0  0.00000000000E+00  0.00000000000E+00  0.33858598952E+03  0.18746151416E+04  0.18437845473E+04 0.  0.
        5    1    3    3  502    0 -0.85115515366E+03  0.22841938052E+03  0.44441480010E+03  0.98699904435E+03  0.46999998093E+01 0.  1.
       -5    1    3    3    0  502  0.85115515366E+03 -0.22841938052E+03 -0.10582881058E+03  0.88761609728E+03  0.46999998093E+01 0. -1.
</event>
<event>
 5   0  0.1375777E-03  0.1565684E+04  0.7818609E-02  0.8841912E-01
        2   -1    0    0  501    0  0.00000000000E+00  0.00000000000E+00  0.11242740076E+04  0.11242740076E+04  0.25500000920E-02 0. -1.
       -2   -1    0    0    0  501  0.00000000000E+00  0.00000000000E+00 -0.54509960663E+03  0.54509960663E+03  0.25500000920E-02 0.  1.
    10030    2    1    2    0    0  0.00000000000E+00  0.00000000000E+00  0.57917440100E+03  0.16693736143E+04  0.15656836453E+04 0.  0.
        1    1    3    3  502    0 -0.11715038642E+03 -0.54370906100E+03 -0.29780359127E+03  0.63089677052E+03  0.50400001928E-02 0.  1.
       -1    1    3    3    0  502  0.11715038642E+03  0.54370906100E+03  0.87697799227E+03  0.10384768437E+04  0.50400001928E-02 0. -1.
</event>
<event>
 5   0  0.7601145E-04  0.1622928E+04  0.7818609E-02  0.8806585E-01
       -1   -1    0    0    0  501  0.00000000000E+00  0.00000000000E+00  0.70934808655E+03  0.70934808657E+03  0.50400001928E-02 0.  1.
        1   -1    0    0  501    0  0.00000000000E+00  0.00000000000E+00 -0.92827991023E+03  0.92827991025E+03  0.50400001928E-02 0. -1.
    10030    2    1    2    0    0  0.00000000000E+00  0.00000000000E+00 -0.21893182368E+03  0.16376279968E+04  0.16229276979E+04 0.  0.
        4    1    3    3  502    0 -0.16426920762E+03  0.78698374356E+03 -0.22066473233E+03  0.83367998788E+03  0.12699999809E+01 0.  1.
       -4    1    3    3    0  502  0.16426920762E+03 -0.78698374356E+03  0.17329086440E+01  0.80394800893E+03  0.12699999809E+01 0. -1.
</event>
<event>
 5   0  0.7302027E-04  0.1540752E+04  0.7818609E-02  0.8857797E-01
        1   -1    0    0  501    0  0.00000000000E+00  0.00000000000E+00  0.54188927085E+03  0.54188927088E+03  0.50400001928E-02 0. -1.
       -1   -1    0    0    0  501  0.00000000000E+00  0.00000000000E+00 -0.10952036732E+04  0.10952036733E+04  0.50400001928E-02 0.  1.
    10030    2    1    2    0    0  0.00000000000E+00  0.00000000000E+00 -0.55331440240E+03  0.16370929441E+04  0.15407519203E+04 0.  0.
        5    1    3    3  502    0  0.70917329973E+01 -0.39643748929E+03  0.42512989653E+03  0.58135229811E+03  0.46999998093E+01 0. -1.
       -5    1    3    3    0  502 -0.70917329973E+01  0.39643748929E+03 -0.97844429892E+03  0.10557406460E+04  0.46999998093E+01 0.  1.
</event>
<event>
 5   0  0.7499834E-04  0.1587639E+04  0.7818609E-02  0.8828178E-01
        1   -1    0    0  501    0  0.00000000000E+00  0.00000000000E+00  0.10932927608E+04  0.10932927608E+04  0.50400001928E-02 0. -1.
       -1   -1    0    0    0  501  0.00000000000E+00  0.00000000000E+00 -0.57637789797E+03  0.57637789799E+03  0.50400001928E-02 0.  1.
    10030    2    1    2    0    0  0.00000000000E+00  0.00000000000E+00  0.51691486280E+03  0.16696706588E+04  0.15876394847E+04 0.  0.
        3    1    3    3  502    0 -0.72433144254E+03  0.30044089077E+03  0.12867536108E+03  0.79465597981E+03  0.10100000352E+00 0. -1.
       -3    1    3    3    0  502  0.72433144254E+03 -0.30044089077E+03  0.38823950172E+03  0.87501467896E+03  0.10100000352E+00 0.  1.
</event>
<event>
 5   0  0.1414751E-03  0.1609546E+04  0.7818609E-02  0.8814705E-01
        2   -1    0    0  501    0  0.00000000000E+00  0.00000000000E+00  0.67905738315E+03  0.67905738315E+03  0.25500000920E-02 0. -1.
       -2   -1    0    0    0  501  0.00000000000E+00  0.00000000000E+00 -0.95376305906E+03  0.95376305906E+03  0.25500000920E-02 0.  1.
    10030    2    1    2    0    0  0.00000000000E+00  0.00000000000E+00 -0.27470567591E+03  0.16328204422E+04  0.16095463299E+04 0.  0.
        2    1    3    3  502    0 -0.44942392140E+03 -0.66557382291E+03 -0.18996285865E+03  0.82526132985E+03  0.25500000920E-02 0. -1.
       -2    1    3    3    0  502  0.44942392140E+03  0.66557382291E+03 -0.84742817254E+02  0.80755911236E+03  0.25500000920E-02 0.  1.
</event>
<event>
 5   0  0.7499834E-04  0.1501403E+04  0.7818609E-02  0.8883521E-01
       -1   -1    0    0    0  501  0.00000000000E+00  0.00000000000E+00  0.35525188996E+03  0.35525188999E+03  0.50400001928E-02 0. -1.
        1   -1    0    0  501    0  0.00000000000E+00  0.00000000000E+00 -0.15863459854E+04  0.15863459855E+04  0.50400001928E-02 0.  1.
    10030    2    1    2    0    0  0.00000000000E+00  0.00000000000E+00 -0.12310940955E+04  0.19415978754E+04  0.15014025569E+04 0.  0.
        3    1    3    3  502    0 -0.51874631111E+03  0.15139798559E+03  0.58319188791E+02  0.54352573381E+03  0.10100000352E+00 0. -1.
       -3    1    3    3    0  502  0.51874631111E+03 -0.15139798559E+03 -0.12894132843E+04  0.13980721416E+04  0.10100000352E+00 0.  1.
</event>
<event>
 5   0  0.5095750E-04  0.1516749E+04  0.7818609E-02  0.8873391E-01
       -4   -1    0    0    0  501  0.00000000000E+00  0.00000000000E+00  0.10862635378E+04  0.10862642802E+04  0.12699999809E+01 0. -1.
        4   -1    0    0  501    0  0.00000000000E+00  0.00000000000E+00 -0.52945748768E+03  0.52945901084E+03  0.12699999809E+01 0.  1.
    10030    2    1    2    0    0  0.00000000000E+00  0.00000000000E+00  0.55680605007E+03  0.16157232910E+04  0.15167494110E+04 0.  0.
        5    1    3    3  502    0  0.65804718043E+03  0.16617038675E+03  0.63881704439E+03  0.93206651871E+03  0.46999998093E+01 0. -1.
       -5    1    3    3    0  502 -0.65804718043E+03 -0.16617038675E+03 -0.82010994312E+02  0.68365677229E+03  0.46999998093E+01 0.  1.
</event>
<event>
 5   0  0.7601145E-04  0.1604314E+04  0.7818609E-02  0.8817902E-01
        1   -1    0    0  501    0  0.00000000000E+00  0.00000000000E+00  0.12314863402E+04  0.12314863402E+04  0.50400001928E-02 0. -1.
       -1   -1    0    0    0  501  0.00000000000E+00  0.00000000000E+00 -0.52250346167E+03  0.52250346169E+03  0.50400001928E-02 0.  1.
    10030    2    1    2    0    0  0.00000000000E+00  0.00000000000E+00  0.70898287854E+03  0.17539898019E+04  0.16043140289E+04 0.  0.
        4    1    3    3  502    0 -0.29226440928E+03 -0.73748776700E+02  0.11672132282E+04  0.12055064081E+04  0.12699999809E+01 0. -1.
       -4    1    3    3    0  502  0.29226440928E+03  0.73748776700E+02 -0.45823034968E+03  0.54848339379E+03  0.12699999809E+01 0.  1.
</event>
<event>
 5   0  0.1354766E-03  0.1605069E+04  0.7818609E-02  0.8817440E-01
        2   -1    0    0  501    0  0.00000000000E+00  0.00000000000E+00  0.21156710083E+04  0.21156710083E+04  0.25500000920E-02 0. -1.
       -2   -1    0    0    0  501  0.00000000000E+00  0.00000000000E+00 -0.30442443165E+03  0.30442443166E+03  0.25500000920E-02 0.  1.
    10030    2    1    2    0    0  0.00000000000E+00  0.00000000000E+00  0.18112465767E+04  0.24200954400E+04  0.16050693995E+04 0.  0.
        3    1    3    3  502    0  0.22379054385E+03 -0.21358851882E+03  0.20221559502E+04  0.20456825169E+04  0.10100000352E+00 0. -1.
       -3    1    3    3    0  502 -0.22379054385E+03  0.21358851882E+03 -0.21090937355E+03  0.37441292304E+03  0.10100000352E+00 0.  1.
</event>
<event>
 5   0  0.1354766E-03  0.1580083E+04  0.7818609E-02  0.8832878E-01
       -2   -1    0    0    0  501  0.00000000000E+00  0.00000000000E+00  0.50159540673E+03  0.50159540674E+03  0.25500000920E-02 0. -1.
        2   -1    0    0  501    0  0.00000000000E+00  0.00000000000E+00 -0.12443611891E+04  0.12443611891E+04  0.25500000920E-02 0.  1.
    10030    2    1    2    0    0  0.00000000000E+00  0.00000000000E+00 -0.74276578235E+03  0.17459565958E+04  0.15800833608E+04 0.  0.
        3    1    3    3  502    0  0.39580470021E+03  0.67151824854E+03 -0.22915495186E+03  0.81247161243E+03  0.10100000352E+00 0. -1.
       -3    1    3    3    0  502 -0.39580470021E+03 -0.67151824854E+03 -0.51361083049E+03  0.93348498340E+03  0.10100000352E+00 0.  1.
</event>
<event>
 5   0  0.7124495E-04  0.1661664E+04  0.7818609E-02  0.8783536E-01
        1   -1    0    0  501    0  0.00000000000E+00  0.00000000000E+00  0.10184944344E+04  0.10184944344E+04  0.50400001928E-02 0. -1.
       -1   -1    0    0    0  501  0.00000000000E+00  0.00000000000E+00 -0.67774734235E+03  0.67774734237E+03  0.50400001928E-02 0.  1.
    10030    2    1    2    0    0  0.00000000000E+00  0.00000000000E+00  0.34074709206E+03  0.16962417768E+04  0.16616641010E+04 0.  0.
        2    1    3    3  502    0  0.56846540103E+03  0.84995263788E+02  0.78277798604E+03  0.97114287439E+03  0.25500000920E-02 0. -1.
       -2    1    3    3    0  502 -0.56846540103E+03 -0.84995263788E+02 -0.44203089398E+03  0.72509890241E+03  0.25500000920E-02 0.  1.
</event>
<event>
 5   0  0.7302027E-04  0.1550839E+04  0.7818609E-02  0.8851332E-01
       -1   -1    0    0    0  501  0.00000000000E+00  0.00000000000E+00  0.10054856618E+04  0.10054856618E+04  0.50400001928E-02 0.  1.
        1   -1    0    0  501    0  0.00000000000E+00  0.00000000000E+00 -0.59799505704E+03  0.59799505707E+03  0.50400001928E-02 0. -1.
    10030    2    1    2    0    0  0.00000000000E+00  0.00000000000E+00  0.40749060478E+03  0.16034807189E+04  0.15508390706E+04 0.  0.
        5    1    3    3  502    0 -0.69703190926E+03  0.11617836757E+03  0.53380261868E+03  0.88561742379E+03  0.46999998093E+01 0.  1.
       -5    1    3    3    0  502  0.69703190926E+03 -0.11617836757E+03 -0.12631201390E+03  0.71786329511E+03  0.46999998093E+01 0. -1.
</event>
<event>
 5   0  0.1339162E-03  0.8451138E+03  0.7818609E-02  0.9496919E-01
        2   -1    0    0  501    0  0.00000000000E+00  0.00000000000E+00  0.36524565285E+03  0.36524565286E+03  0.25500000920E-02 0. -1.
       -2   -1    0    0    0  501  0.00000000000E+00  0.00000000000E+00 -0.48886095084E+03  0.48886095085E+03  0.25500000920E-02 0.  1.
    10030    2    1    2    0    0  0.00000000000E+00  0.00000000000E+00 -0.12361529799E+03  0.85410660370E+03  0.84511380807E+03 0.  0.
        5    1    3    3  502    0  0.13627109375E+03 -0.38800043509E+03  0.36271908288E+02  0.41285819594E+03  0.46999998093E+01 0. -1.
       -5    1    3    3    0  502 -0.13627109375E+03  0.38800043509E+03 -0.15988720628E+03  0.44124840776E+03  0.46999998093E+01 0.  1.
</event>
<event>
 5   0  0.1375777E-03  0.1575580E+04  0.7818609E-02  0.8835692E-01
       -2   -1    0    0    0  501  0.00000000000E+00  0.00000000000E+00  0.46873652270E+03  0.46873652270E+03  0.25500000920E-02 0.  1.
        2   -1    0    0  501    0  0.00000000000E+00  0.00000000000E+00 -0.13240128938E+04  0.13240128938E+04  0.25500000920E-02 0. -1.
    10030    2    1    2    0    0  0.00000000000E+00  0.00000000000E+00 -0.85527637105E+03  0.17927494165E+04  0.15755801469E+04 0.  0.
        1    1    3    3  502    0 -0.13101856488E+03 -0.27112449839E+03 -0.12559463957E+04  0.12915400524E+04  0.50400001928E-02 0. -1.
       -1    1    3    3    0  502  0.13101856488E+03  0.27112449839E+03  0.40067002465E+03  0.50120936409E+03  0.50400001928E-02 0.  1.
</event>
<event>
 5   0  0.5095750E-04  0.1407164E+04  0.7818609E-02  0.8948649E-01
       -3   -1    0    0    0  501  0.00000000000E+00  0.00000000000E+00  0.55338387750E+03  0.55338388672E+03  0.10100000352E+00 0. -1.
        3   -1    0    0  501    0  0.00000000000E+00  0.00000000000E+00 -0.89454670518E+03  0.89454671088E+03  0.10100000352E+00 0.  1.
    10030    2    1    2    0    0  0.00000000000E+00  0.00000000000E+00 -0.34116282768E+03  0.14479305976E+04  0.14071641484E+04 0.  0.
        4    1    3    3  502    0  0.25280880752E+03 -0.30593746535E+03 -0.76837359277E+03  0.86481767837E+03  0.12699999809E+01 0.  1.
       -4    1    3    3    0  502 -0.25280880752E+03  0.30593746535E+03  0.42721076509E+03  0.58311291923E+03  0.12699999809E+01 0. -1.
</event>
<event>
 5   0  0.7601145E-04  0.2049841E+04  0.7818609E-02  0.8583666E-01
       -1   -1    0    0    0  501  0.00000000000E+00  0.00000000000E+00  0.92473732919E+03  0.92473732921E+03  0.50400001928E-02 0. -1.
        1   -1    0    0  501    0  0.00000000000E+00  0.00000000000E+00 -0.11359575013E+04  0.11359575013E+04  0.50400001928E-02 0.  1.
    10030    2    1    2    0    0  0.00000000000E+00  0.00000000000E+00 -0.21122017210E+03  0.20606948305E+04  0.20498412679E+04 0.  0.
        4    1    3    3  502    0 -0.54196799094E+03 -0.54539309820E+03 -0.78689874013E+03  0.11001791558E+04  0.12699999809E+01 0.  1.
       -4    1    3    3    0  502  0.54196799094E+03  0.54539309820E+03  0.57567856803E+03  0.96051567470E+03  0.12699999809E+01 0. -1.
</event>
<event>
 5   0  0.1414796E-03  0.1599502E+04  0.7818609E-02  0.8820854E-01
       -2   -1    0    0    0  501  0.00000000000E+00  0.00000000000E+00  0.73726744582E+03  0.73726744582E+03  0.25500000920E-02 0.  1.
        2   -1    0    0  501    0  0.00000000000E+00  0.00000000000E+00 -0.86753027701E+03  0.86753027701E+03  0.25500000920E-02 0. -1.
    10030    2    1    2    0    0  0.00000000000E+00  0.00000000000E+00 -0.13026283119E+03  0.16047977228E+04  0.15995022119E+04 0.  0.
        4    1    3    3  502    0 -0.73374296532E+03 -0.26998908876E+03  0.10373317550E+03  0.78869197524E+03  0.12699999809E+01 0.  1.
       -4    1    3    3    0  502  0.73374296532E+03  0.26998908876E+03 -0.23399600668E+03  0.81610574759E+03  0.12699999809E+01 0. -1.
</event>
<event>
 5   0  0.1354766E-03  0.1607514E+04  0.7818609E-02  0.8815945E-01
       -2   -1    0    0    0  501  0.00000000000E+00  0.00000000000E+00  0.54379640636E+03  0.54379640637E+03  0.25500000920E-02 0.  1.
        2   -1    0    0  501    0  0.00000000000E+00  0.00000000000E+00 -0.11879907297E+04  0.11879907297E+04  0.25500000920E-02 0. -1.
    10030    2    1    2    0    0  0.00000000000E+00  0.00000000000E+00 -0.64419432337E+03  0.17317871361E+04  0.16075137195E+04 0.  0.
        3    1    3    3  502    0 -0.16796941933E+03  0.44864617812E+03 -0.10173806264E+04  0.11245267752E+04  0.10100000352E+00 0. -1.
       -3    1    3    3    0  502  0.16796941933E+03 -0.44864617812E+03  0.37318630302E+03  0.60726036091E+03  0.10100000352E+00 0.  1.
</event>
<event>
 5   0  0.1339162E-03  0.1640370E+04  0.7818609E-02  0.8796124E-01
        2   -1    0    0  501    0  0.00000000000E+00  0.00000000000E+00  0.11377845281E+04  0.11377845281E+04  0.25500000920E-02 0. -1.
       -2   -1    0    0    0  501  0.00000000000E+00  0.00000000000E+00 -0.59123947222E+03  0.59123947223E+03  0.25500000920E-02 0.  1.
    10030    2    1    2    0    0  0.00000000000E+00  0.00000000000E+00  0.54654505587E+03  0.17290240003E+04  0.16403696216E+04 0.  0.
        5    1    3    3  502    0 -0.11586841200E+03  0.38141577633E+03 -0.48224903837E+03  0.62569138426E+03  0.46999998093E+01 0.  1.
       -5    1    3    3    0  502  0.11586841200E+03 -0.38141577633E+03  0.10287940942E+04  0.11033326161E+04  0.46999998093E+01 0. -1.
</event>
<event>
 5   0  0.1339162E-03  0.1319783E+04  0.7818609E-02  0.9014022E-01
        2   -1    0    0  501    0  0.00000000000E+00  0.00000000000E+00  0.78449668232E+03  0.78449668232E+03  0.25500000920E-02 0. -1.
       -2   -1    0    0    0  501  0.00000000000E+00  0.00000000000E+00 -0.55507804108E+03  0.55507804109E+03  0.25500000920E-02 0.  1.
    10030    2    1    2    0    0  0.00000000000E+00  0.00000000000E+00  0.22941864124E+03  0.13395747234E+04  0.13197831362E+04 0.  0.
        5    1    3    3  502    0 -0.71197413104E+02 -0.62230998296E+03 -0.95999577757E+02  0.63370087222E+03  0.46999998093E+01 0.  1.
       -5    1    3    3    0  502  0.71197413104E+02  0.62230998296E+03  0.32541821899E+03  0.70587385118E+03  0.46999998093E+01 0. -1.
</event>
<event>
 5   0  0.1339162E-03  0.1617287E+04  0.7818609E-02  0.8809998E-01
        2   -1    0    0  501    0  0.00000000000E+00  0.00000000000E+00  0.18597417737E+04  0.18597417737E+04  0.25500000920E-02 0. -1.
       -2   -1    0    0    0  501  0.00000000000E+00  0.00000000000E+00 -0.35161046029E+03  0.35161046029E+03  0.25500000920E-02 0.  1.
    10030    2    1    2    0    0  0.00000000000E+00  0.00000000000E+00  0.15081313134E+04  0.22113522340E+04  0.16172874340E+04 0.  0.
        5    1    3    3  502    0 -0.30747170360E+02 -0.56558962005E+03  0.15431483880E+04  0.16438266467E+04  0.46999998093E+01 0. -1.
       -5    1    3    3    0  502  0.30747170360E+02  0.56558962005E+03 -0.35017074592E+02  0.56752558736E+03  0.46999998093E+01 0.  1.
</event>
<event>
 5   0  0.7302027E-04  0.1609033E+04  0.7818609E-02  0.8815018E-01
        1   -1    0    0  501    0  0.00000000000E+00  0.00000000000E+00  0.14388021982E+04  0.14388021983E+04  0.50400001928E-02 0.  1.
       -1   -1    0    0    0  501  0.00000000000E+00  0.00000000000E+00 -0.44985100968E+03  0.44985100971E+03  0.50400001928E-02 0. -1.
    10030    2    1    2    0    0  0.00000000000E+00  0.00000000000E+00  0.98895118856E+03  0.18886532080E+04  0.16090327798E+04 0.  0.
        5    1    3    3  502    0 -0.76102247024E+03  0.21545944531E+03  0.66717138897E+03  0.10347549106E+04  0.46999998093E+01 0.  1.
       -5    1    3    3    0  502  0.76102247024E+03 -0.21545944531E+03  0.32177979960E+03  0.85389829735E+03  0.46999998093E+01 0. -1.
</event>
<event>
 5   0  0.1375777E-03  0.1570749E+04  0.7818609E-02  0.8838722E-01
        2   -1    0    0  501    0  0.00000000000E+00  0.00000000000E+00  0.97000087135E+03  0.97000087135E+03  0.25500000920E-02 0. -1.
       -2   -1    0    0    0  501  0.00000000000E+00  0.00000000000E+00 -0.63588910432E+03  0.63588910432E+03  0.25500000920E-02 0.  1.
    10030    2    1    2    0    0  0.00000000000E+00  0.00000000000E+00  0.33411176703E+03  0.16058899757E+04  0.15707488472E+04 0.  0.
        1    1    3    3  502    0  0.11707048715E+03  0.76112811353E+03  0.93602105327E+01  0.77013577877E+03  0.50400001928E-02 0. -1.
       -1    1    3    3    0  502 -0.11707048715E+03 -0.76112811353E+03  0.32475155650E+03  0.83575419690E+03  0.50400001928E-02 0.  1.
</event>
<event>
 5   0  0.7124495E-04  0.1638583E+04  0.7818609E-02  0.8797190E-01
       -1   -1    0    0    0  501  0.00000000000E+00  0.00000000000E+00  0.52551744779E+03  0.52551744781E+03  0.50400001928E-02 0. -1.
        1   -1    0    0  501    0  0.00000000000E+00  0.00000000000E+00 -0.12772903347E+04  0.12772903347E+04  0.50400001928E-02 0.  1.
    10030    2    1    2    0    0  0.00000000000E+00  0.00000000000E+00 -0.75177288695E+03  0.18028077826E+04  0.16385827496E+04 0.  0.
        2    1    3    3  502    0 -0.46141008246E+03  0.67219957117E+03 -0.46449940987E+03  0.93835559862E+03  0.25500000920E-02 0.  1.
       -2    1    3    3    0  502  0.46141008246E+03 -0.67219957117E+03 -0.28727347708E+03  0.86445218394E+03  0.25500000920E-02 0. -1.
</event>
<event>
 5   0  0.7124495E-04  0.1386070E+04  0.7818609E-02  0.8963964E-01
       -1   -1    0    0    0  501  0.00000000000E+00  0.00000000000E+00  0.29375869577E+03  0.29375869581E+03  0.50400001928E-02 0.  1.
        1   -1    0    0  501    0  0.00000000000E+00  0.00000000000E+00 -0.16350078808E+04  0.16350078808E+04  0.50400001928E-02 0. -1.
    10030    2    1    2    0    0  0.00000000000E+00  0.00000000000E+00 -0.13412491850E+04  0.19287665766E+04  0.13860703917E+04 0.  0.
        2    1    3    3  502    0  0.54045722201E+03 -0.41964191915E+03 -0.82372157128E+03  0.10708457294E+04  0.25500000920E-02 0.  1.
       -2    1    3    3    0  502 -0.54045722201E+03  0.41964191915E+03 -0.51752761375E+03  0.85792084724E+03  0.25500000920E-02 0. -1.
</event>
<event>
 5   0  0.7499834E-04  0.1612010E+04  0.7818609E-02  0.8813203E-01
       -1   -1    0    0    0  501  0.00000000000E+00  0.00000000000E+00  0.86054115493E+03  0.86054115494E+03  0.50400001928E-02 0.  1.
        1   -1    0    0  501    0  0.00000000000E+00  0.00000000000E+00 -0.75492534286E+03  0.75492534288E+03  0.50400001928E-02 0. -1.
    10030    2    1    2    0    0  0.00000000000E+00  0.00000000000E+00  0.10561581207E+03  0.16154664978E+04  0.16120103306E+04 0.  0.
        3    1    3    3  502    0 -0.30861797819E+03  0.46397576415E+03  0.63640150382E+03  0.84588737456E+03  0.10100000352E+00 0.  1.
       -3    1    3    3    0  502  0.30861797819E+03 -0.46397576415E+03 -0.53078569175E+03  0.76957912326E+03  0.10100000352E+00 0. -1.
</event>
<event>
 5   0  0.1375777E-03  0.1573080E+04  0.7818609E-02  0.8837259E-01
        2   -1    0    0  501    0  0.00000000000E+00  0.00000000000E+00  0.20158460019E+04  0.20158460019E+04  0.25500000920E-02 0.  1.
       -2   -1    0    0    0  501  0.00000000000E+00  0.00000000000E+00 -0.30689105539E+03  0.30689105540E+03  0.25500000920E-02 0. -1.
    10030    2    1    2    0    0  0.00000000000E+00  0.00000000000E+00  0.17089549465E+04  0.23227370573E+04  0.15730799179E+04 0.  0.
        1    1    3    3  502    0  0.18697381099E+03 -0.46158224799E+03 -0.44436675917E+02  0.49999199578E+03  0.50400001928E-02 0. -1.
       -1    1    3    3    0  502 -0.18697381099E+03  0.46158224799E+03  0.17533916225E+04  0.18227450615E+04  0.50400001928E-02 0.  1.
</event>
<event>
 5   0  0.7601145E-04  0.1865409E+04  0.7818609E-02  0.8672269E-01
       -1   -1    0    0    0  501  0.00000000000E+00  0.00000000000E+00  0.91225596662E+03  0.91225596663E+03  0.50400001928E-02 0.  1.
        1   -1    0    0  501    0  0.00000000000E+00  0.00000000000E+00 -0.95361140724E+03  0.95361140725E+03  0.50400001928E-02 0. -1.
    10030    2    1    2    0    0  0.00000000000E+00  0.00000000000E+00 -0.41355440623E+02  0.18658673739E+04  0.18654090126E+04 0.  0.
        4    1    3    3  502    0 -0.61250479298E+03 -0.22004754580E+03  0.64758302123E+03  0.91812222831E+03  0.12699999809E+01 0.  1.
       -4    1    3    3    0  502  0.61250479298E+03  0.22004754580E+03 -0.68893846185E+03  0.94774514557E+03  0.12699999809E+01 0. -1.
</event>
<event>
 5   0  0.7601145E-04  0.1502187E+04  0.7818609E-02  0.8883000E-01
       -1   -1    0    0    0  501  0.00000000000E+00  0.00000000000E+00  0.52255706049E+03  0.52255706051E+03  0.50400001928E-02 0.  1.
        1   -1    0    0  501    0  0.00000000000E+00  0.00000000000E+00 -0.10795783237E+04  0.10795783237E+04  0.50400001928E-02 0. -1.
    10030    2    1    2    0    0  0.00000000000E+00  0.00000000000E+00 -0.55702126317E+03  0.16021353842E+04  0.15021867732E+04 0.  0.
        4    1    3    3  502    0  0.52423423973E+03  0.31396719909E+03 -0.74431039845E+03  0.96301428979E+03  0.12699999809E+01 0. -1.
       -4    1    3    3    0  502 -0.52423423973E+03 -0.31396719909E+03  0.18728913528E+03  0.63912109439E+03  0.12699999809E+01 0.  1.
</event>
<event>
 5   0  0.7302027E-04  0.1588050E+04  0.7818609E-02  0.8827923E-01
       -1   -1    0    0    0  501  0.00000000000E+00  0.00000000000E+00  0.87592877836E+03  0.87592877838E+03  0.50400001928E-02 0. -1.
        1   -1    0    0  501    0  0.00000000000E+00  0.00000000000E+00 -0.71977933042E+03  0.71977933043E+03  0.50400001928E-02 0.  1.
    10030    2    1    2    0    0  0.00000000000E+00  0.00000000000E+00  0.15614944795E+03  0.15957081088E+04  0.15880496587E+04 0.  0.
        5    1    3    3  502    0 -0.76575090922E+03  0.78653825272E+02 -0.11752389130E+03  0.77871357650E+03  0.46999998093E+01 0.  1.
       -5    1    3    3    0  502  0.76575090922E+03 -0.78653825272E+02  0.27367333925E+03  0.81699453231E+03  0.46999998093E+01 0. -1.
</event>
<event>
 5   0  0.1414751E-03  0.1594315E+04  0.7818609E-02  0.8824048E-01
        2   -1    0    0  501    0  0.00000000000E+00  0.00000000000E+00  0.64998723945E+03  0.64998723945E+03  0.25500000920E-02 0.  1.
       -2   -1    0    0    0  501  0.00000000000E+00  0.00000000000E+00 -0.97764967039E+03  0.97764967040E+03  0.25500000920E-02 0. -1.
    10030    2    1    2    0    0  0.00000000000E+00  0.00000000000E+00 -0.32766243095E+03  0.16276369099E+04  0.15943146621E+04 0.  0.
        2    1    3    3  502    0  0.12691851049E+03  0.23486900699E+03  0.60299231657E+03  0.65944786951E+03  0.25500000920E-02 0.  1.
       -2    1    3    3    0  502 -0.12691851049E+03 -0.23486900699E+03 -0.93065474752E+03  0.96818904034E+03  0.25500000920E-02 0. -1.
</event>
<event>
 5   0  0.1414796E-03  0.1591603E+04  0.7818609E-02  0.8825723E-01
        2   -1    0    0  501    0  0.00000000000E+00  0.00000000000E+00  0.78385202420E+03  0.78385202421E+03  0.25500000920E-02 0. -1.
       -2   -1    0    0    0  501  0.00000000000E+00  0.00000000000E+00 -0.80793337336E+03  0.80793337336E+03  0.25500000920E-02 0.  1.
    10030    2    1    2    0    0  0.00000000000E+00  0.00000000000E+00 -0.24081349155E+02  0.15917853976E+04  0.15916032296E+04 0.  0.
        4    1    3    3  502    0  0.32164865497E+03  0.22107454945E+02 -0.73968975346E+03  0.80690094874E+03  0.12699999809E+01 0.  1.
       -4    1    3    3    0  502 -0.32164865497E+03 -0.22107454945E+02  0.71560840430E+03  0.78488444883E+03  0.12699999809E+01 0. -1.
</event>
<event>
 5   0  0.1339162E-03  0.1606801E+04  0.7818609E-02  0.8816381E-01
       -2   -1    0    0    0  501  0.00000000000E+00  0.00000000000E+00  0.70477102360E+03  0.70477102360E+03  0.25500000920E-02 0. -1.
        2   -1    0    0  501    0  0.00000000000E+00  0.00000000000E+00 -0.91583238000E+03  0.91583238000E+03  0.25500000920E-02 0.  1.
    10030    2    1    2    0    0  0.00000000000E+00  0.00000000000E+00 -0.21106135640E+03  0.16206034036E+04  0.16068007019E+04 0.  0.
        5    1    3    3  502    0 -0.86500322312E+02  0.72072909926E+03 -0.45272207069E+03  0.85551861673E+03  0.46999998093E+01 0.  1.
       -5    1    3    3    0  502  0.86500322312E+02 -0.72072909926E+03  0.24166071428E+03  0.76508478688E+03  0.46999998093E+01 0. -1.
</event>
<event>
 5   0  0.1354766E-03  0.1567665E+04  0.7818609E-02  0.8840662E-01
        2   -1    0    0  501    0  0.00000000000E+00  0.00000000000E+00  0.19035030573E+04  0.19035030573E+04  0.25500000920E-02 0.  1.
       -2   -1    0    0    0  501  0.00000000000E+00  0.00000000000E+00 -0.32276991529E+03  0.32276991530E+03  0.25500000920E-02 0. -1.
    10030    2    1    2    0    0  0.00000000000E+00  0.00000000000E+00  0.15807331420E+04  0.22262729726E+04  0.15676651691E+04 0.  0.
        3    1    3    3  502    0  0.19688456455E+03  0.46242728135E+03  0.16445555764E+04  0.17196411185E+04  0.10100000352E+00 0.  1.
       -3    1    3    3    0  502 -0.19688456455E+03 -0.46242728135E+03 -0.63822434368E+02  0.50663185414E+03  0.10100000352E+00 0. -1.
</event>
<event>
 5   0  0.1339162E-03  0.1531470E+04  0.7818609E-02  0.8863791E-01
        2   -1    0    0  501    0  0.00000000000E+00  0.00000000000E+00  0.18032738929E+04  0.18032738929E+04  0.25500000920E-02 0.  1.
       -2   -1    0    0    0  501  0.00000000000E+00  0.00000000000E+00 -0.32515858683E+03  0.32515858684E+03  0.25500000920E-02 0. -1.
    10030    2    1    2    0    0  0.00000000000E+00  0.00000000000E+00  0.14781153061E+04  0.21284324797E+04  0.15314698700E+04 0.  0.
        5    1    3    3  502    0  0.34025720201E+03 -0.12915614466E+03 -0.19724863082E+03  0.41398718045E+03  0.46999998093E+01 0. -1.
       -5    1    3    3    0  502 -0.34025720201E+03  0.12915614466E+03  0.16753639369E+04  0.17144452993E+04  0.46999998093E+01 0.  1.
</event>
<event>
 5   0  0.1414751E-03  0.1632216E+04  0.7818609E-02  0.8800997E-01
        2   -1    0    0  501    0  0.00000000000E+00  0.00000000000E+00  0.98148211944E+03  0.98148211944E+03  0.25500000920E-02 0. -1.
       -2   -1    0    0    0  501  0.00000000000E+00  0.00000000000E+00 -0.67859879697E+03  0.67859879698E+03  0.25500000920E-02 0.  1.
    10030    2    1    2    0    0  0.00000000000E+00  0.00000000000E+00  0.30288332247E+03  0.16600809164E+04  0.16322163895E+04 0.  0.
        2    1    3    3  502    0 -0.79305071211E+01  0.49157303420E+03 -0.51108164817E+03  0.70916245812E+03  0.25500000920E-02 0.  1.
       -2    1    3    3    0  502  0.79305071211E+01 -0.49157303420E+03  0.81396497064E+03  0.95091845830E+03  0.25500000920E-02 0. -1.
</event>
<event>
 5   0  0.7633213E-04  0.1607752E+04  0.7818609E-02  0.8815800E-01
        1   -1    0    0  501    0  0.00000000000E+00  0.00000000000E+00  0.84842199583E+03  0.84842199585E+03  0.50400001928E-02 0. -1.
       -1   -1    0    0    0  501  0.00000000000E+00  0.00000000000E+00 -0.76166902626E+03  0.76166902628E+03  0.50400001928E-02 0.  1.
    10030    2    1    2    0    0  0.00000000000E+00  0.00000000000E+00  0.86752969570E+02  0.16100910221E+04  0.16077521643E+04 0.  0.
        1    1    3    3  502    0  0.71700306871E+02 -0.79075439972E+03  0.16919085310E+03  0.81182448810E+03  0.50400001928E-02 0.  1.
       -1    1    3    3    0  502 -0.71700306871E+02  0.79075439972E+03 -0.82437883528E+02  0.79826653403E+03  0.50400001928E-02 0. -1.
</event>
<event>
 5   0  0.7601145E-04  0.1562949E+04  0.7818609E-02  0.8843639E-01
       -1   -1    0    0    0  501  0.00000000000E+00  0.00000000000E+00  0.23494582338E+03  0.23494582343E+03  0.50400001928E-02 0.  1.
        1   -1    0    0  501    0  0.00000000000E+00  0.00000000000E+00 -0.25993330787E+04  0.25993330787E+04  0.50400001928E-02 0. -1.
    10030    2    1    2    0    0  0.00000000000E+00  0.00000000000E+00 -0.23643872553E+04  0.28342789022E+04  0.15629490721E+04 0.  0.
        4    1    3    3  502    0 -0.47409012903E+03 -0.55380272650E+03 -0.16926695610E+04  0.18429842012E+04  0.12699999809E+01 0. -1.
       -4    1    3    3    0  502  0.47409012903E+03  0.55380272650E+03 -0.67171769437E+03  0.99129470096E+03  0.12699999809E+01 0.  1.
</event>
<event>
 5   0  0.1375777E-03  0.1634966E+04  0.7818609E-02  0.8799351E-01
        2   -1    0    0  501    0  0.00000000000E+00  0.00000000000E+00  0.13194218867E+04  0.13194218867E+04  0.25500000920E-02 0.  1.
       -2   -1    0    0    0  501  0.00000000000E+00  0.00000000000E+00 -0.50649323918E+03  0.50649323919E+03  0.25500000920E-02 0. -1.
    10030    2    1    2    0    0  0.00000000000E+00  0.00000000000E+00  0.81292864755E+03  0.18259151259E+04  0.16349657676E+04 0.  0.
        1    1    3    3  502    0 -0.33238759329E+03  0.57515351299E+03  0.93854838454E+03  0.11498504885E+04  0.50400001928E-02 0.  1.
       -1    1    3    3    0  502  0.33238759329E+03 -0.57515351299E+03 -0.12561973699E+03  0.67606463746E+03  0.50400001928E-02 0. -1.
</event>
<event>
 5   0  0.1414796E-03  0.1563242E+04  0.7818609E-02  0.8843454E-01
        2   -1    0    0  501    0  0.00000000000E+00  0.00000000000E+00  0.20033271926E+04  0.20033271926E+04  0.25500000920E-02 0.  1.
       -2   -1    0    0    0  501  0.00000000000E+00  0.00000000000E+00 -0.30495822479E+03  0.30495822480E+03  0.25500000920E-02 0. -1.
    10030    2    1    2    0    0  0.00000000000E+00  0.00000000000E+00  0.16983689678E+04  0.23082854174E+04  0.15632416375E+04 0.  0.
        4    1    3    3  502    0 -0.35394479686E+03 -0.62977864891E+03  0.12897749117E+04  0.14783162725E+04  0.12699999809E+01 0.  1.
       -4    1    3    3    0  502  0.35394479686E+03  0.62977864891E+03  0.40859405612E+03  0.82996914488E+03  0.12699999809E+01 0. -1.
</event>
<event>
 5   0  0.7124495E-04  0.1619312E+04  0.7818609E-02  0.8808771E-01
       -1   -1    0    0    0  501  0.00000000000E+00  0.00000000000E+00  0.60773765608E+03  0.60773765610E+03  0.50400001928E-02 0. -1.
        1   -1    0    0  501    0  0.00000000000E+00  0.00000000000E+00 -0.10786607600E+04  0.10786607600E+04  0.50400001928E-02 0.  1.
    10030    2    1    2    0    0  0.00000000000E+00  0.00000000000E+00 -0.47092310391E+03  0.16863984161E+04  0.16193119057E+04 0.  0.
        2    1    3    3  502    0  0.40680468359E+03 -0.53357573303E+02  0.49145716006E+03  0.64020873268E+03  0.25500000920E-02 0. -1.
       -2    1    3    3    0  502 -0.40680468359E+03  0.53357573303E+02 -0.96238026397E+03  0.10461896834E+04  0.25500000920E-02 0.  1.
</event>
<event>
 5   0  0.7124495E-04  0.1467360E+04  0.7818609E-02  0.8906453E-01
       -1   -1    0    0    0  501  0.00000000000E+00  0.00000000000E+00  0.46765998975E+03  0.46765998978E+03  0.50400001928E-02 0. -1.
        1   -1    0    0  501    0  0.00000000000E+00  0.00000000000E+00 -0.11510206403E+04  0.11510206403E+04  0.50400001928E-02 0.  1.
    10030    2    1    2    0    0  0.00000000000E+00  0.00000000000E+00 -0.68336065056E+03  0.16186806301E+04  0.14673599434E+04 0.  0.
        2    1    3    3  502    0 -0.47412643387E+02  0.69488924983E+03 -0.87321563906E+02  0.70195732336E+03  0.25500000920E-02 0. -1.
       -2    1    3    3    0  502  0.47412643387E+02 -0.69488924983E+03 -0.59603908666E+03  0.91672330674E+03  0.25500000920E-02 0.  1.
</event>
<event>
 5   0  0.1414751E-03  0.1599086E+04  0.7818609E-02  0.8821110E-01
       -2   -1    0    0    0  501  0.00000000000E+00  0.00000000000E+00  0.12287488735E+04  0.12287488735E+04  0.25500000920E-02 0.  1.
        2   -1    0    0  501    0  0.00000000000E+00  0.00000000000E+00 -0.52025978887E+03  0.52025978888E+03  0.25500000920E-02 0. -1.
    10030    2    1    2    0    0  0.00000000000E+00  0.00000000000E+00  0.70848908467E+03  0.17490086624E+04  0.15990855256E+04 0.  0.
        2    1    3    3  502    0  0.79466651104E+03  0.80107129779E+02  0.31395908120E+03  0.85818548151E+03  0.25500000920E-02 0. -1.
       -2    1    3    3    0  502 -0.79466651104E+03 -0.80107129779E+02  0.39453000348E+03  0.89082318091E+03  0.25500000920E-02 0.  1.
</event>
<event>
 5   0  0.1354766E-03  0.1617585E+04  0.7818609E-02  0.8809817E-01
       -2   -1    0    0    0  501  0.00000000000E+00  0.00000000000E+00  0.39503351854E+03  0.39503351855E+03  0.25500000920E-02 0.  1.
        2   -1    0    0  501    0  0.00000000000E+00  0.00000000000E+00 -0.16559236064E+04  0.16559236064E+04  0.25500000920E-02 0. -1.
    10030    2    1    2    0    0  0.00000000000E+00  0.00000000000E+00 -0.12608900879E+04  0.20509571250E+04  0.16175850255E+04 0.  0.
        3    1    3    3  502    0  0.54750384460E+03  0.16702300507E+03  0.94029602296E+02  0.58008509754E+03  0.10100000352E+00 0.  1.
       -3    1    3    3    0  502 -0.54750384460E+03 -0.16702300507E+03 -0.13549196902E+04  0.14708720274E+04  0.10100000352E+00 0. -1.
</event>
<event>
 5   0  0.1414751E-03  0.1588626E+04  0.7818609E-02  0.8827566E-01
        2   -1    0    0  501    0  0.00000000000E+00  0.00000000000E+00  0.62804566579E+03  0.62804566579E+03  0.25500000920E-02 0.  1.
       -2   -1    0    0    0  501  0.00000000000E+00  0.00000000000E+00 -0.10045969462E+04  0.10045969462E+04  0.25500000920E-02 0. -1.
    10030    2    1    2    0    0  0.00000000000E+00  0.00000000000E+00 -0.37655128037E+03  0.16326426120E+04  0.15886255165E+04 0.  0.
        2    1    3    3  502    0  0.82826822494E+02  0.40335402343E+03 -0.88634413503E+03  0.97732322005E+03  0.25500000920E-02 0. -1.
       -2    1    3    3    0  502 -0.82826822494E+02 -0.40335402343E+03  0.50979285466E+03  0.65531939191E+03  0.25500000920E-02 0.  1.
</event>
<event>
 5   0  0.1375777E-03  0.1597718E+04  0.7818609E-02  0.8821951E-01
        2   -1    0    0  501    0  0.00000000000E+00  0.00000000000E+00  0.63831793590E+03  0.63831793591E+03  0.25500000920E-02 0. -1.
       -2   -1    0    0    0  501  0.00000000000E+00  0.00000000000E+00 -0.99977662992E+03  0.99977662992E+03  0.25500000920E-02 0.  1.
    10030    2    1    2    0    0  0.00000000000E+00  0.00000000000E+00 -0.36145869402E+03  0.16380945658E+04  0.15977175655E+04 0.  0.
        1    1    3    3  502    0 -0.71300743408E+03  0.47206648164E+02  0.18546245531E+03  0.73824412699E+03  0.50400001928E-02 0. -1.
       -1    1    3    3    0  502  0.71300743408E+03 -0.47206648164E+02 -0.54692114932E+03  0.89985043884E+03  0.50400001928E-02 0.  1.
</event>
<event>
 5   0  0.7302027E-04  0.1610746E+04  0.7818609E-02  0.8813973E-01
       -1   -1    0    0    0  501  0.00000000000E+00  0.00000000000E+00  0.96380557705E+03  0.96380557707E+03  0.50400001928E-02 0. -1.
        1   -1    0    0  501    0  0.00000000000E+00  0.00000000000E+00 -0.67298430483E+03  0.67298430485E+03  0.50400001928E-02 0.  1.
    10030    2    1    2    0    0  0.00000000000E+00  0.00000000000E+00  0.29082127222E+03  0.16367898819E+04  0.16107464435E+04 0.  0.
        5    1    3    3  502    0  0.57248553694E+03 -0.30225040459E+03 -0.34140615961E+03  0.73189838973E+03  0.46999998093E+01 0.  1.
       -5    1    3    3    0  502 -0.57248553694E+03  0.30225040459E+03  0.63222743183E+03  0.90489149219E+03  0.46999998093E+01 0. -1.
</event>
<event>
 5   0  0.1339162E-03  0.1186025E+04  0.7818609E-02  0.9125178E-01
        2   -1    0    0  501    0  0.00000000000E+00  0.00000000000E+00  0.26908353413E+03  0.26908353414E+03  0.25500000920E-02 0. -1.
       -2   -1    0    0    0  501  0.00000000000E+00  0.00000000000E+00 -0.13068942179E+04  0.13068942179E+04  0.25500000920E-02 0.  1.
    10030    2    1    2    0    0  0.00000000000E+00  0.00000000000E+00 -0.10378106838E+04  0.15759777521E+04  0.11860248141E+04 0.  0.
        5    1    3    3  502    0 -0.61626002916E+02 -0.22169933750E+03 -0.12451267070E+04  0.12662191623E+04  0.46999998093E+01 0.  1.
       -5    1    3    3    0  502  0.61626002916E+02  0.22169933750E+03  0.20731602318E+03  0.30975858979E+03  0.46999998093E+01 0. -1.
</event>
<event>
 5   0  0.1414796E-03  0.1651277E+04  0.7818609E-02  0.8789651E-01
       -2   -1    0    0    0  501  0.00000000000E+00  0.00000000000E+00  0.44603224329E+03  0.44603224330E+03  0.25500000920E-02 0.  1.
        2   -1    0    0  501    0  0.00000000000E+00  0.00000000000E+00 -0.15283172547E+04  0.15283172547E+04  0.25500000920E-02 0. -1.
    10030    2    1    2    0    0  0.00000000000E+00  0.00000000000E+00 -0.10822850114E+04  0.19743494980E+04  0.16512768073E+04 0.  0.
        4    1    3    3  502    0  0.69885721895E+03  0.36413480810E+02 -0.17303308748E+02  0.70002026504E+03  0.12699999809E+01 0.  1.
       -4    1    3    3    0  502 -0.69885721895E+03 -0.36413480810E+02 -0.10649817026E+04  0.12743292329E+04  0.12699999809E+01 0. -1.
</event>
<event>
 5   0  0.1414751E-03  0.1558721E+04  0.7818609E-02  0.8846317E-01
        2   -1    0    0  501    0  0.00000000000E+00  0.00000000000E+00  0.94605661320E+03  0.94605661321E+03  0.25500000920E-02 0. -1.
       -2   -1    0    0    0  501  0.00000000000E+00  0.00000000000E+00 -0.64203615930E+03  0.64203615930E+03  0.25500000920E-02 0.  1.
    10030    2    1    2    0    0  0.00000000000E+00  0.00000000000E+00  0.30402045391E+03  0.15880927725E+04  0.15587206991E+04 0.  0.
        2    1    3    3  502    0 -0.35660438066E+03 -0.34258650139E+03  0.76574865110E+03  0.91153891410E+03  0.25500000920E-02 0. -1.
       -2    1    3    3    0  502  0.35660438066E+03  0.34258650139E+03 -0.46172819720E+03  0.67655385841E+03  0.25500000920E-02 0.  1.
</event>
<event>
 5   0  0.7302027E-04  0.1333874E+04  0.7818609E-02  0.9003126E-01
        1   -1    0    0  501    0  0.00000000000E+00  0.00000000000E+00  0.58670571823E+03  0.58670571826E+03  0.50400001928E-02 0. -1.
       -1   -1    0    0    0  501  0.00000000000E+00  0.00000000000E+00 -0.75814013581E+03  0.75814013583E+03  0.50400001928E-02 0.  1.
    10030    2    1    2    0    0  0.00000000000E+00  0.00000000000E+00 -0.17143441758E+03  0.13448458541E+04  0.13338742863E+04 0.  0.
        5    1    3    3  502    0  0.29292848191E+03  0.19003913150E+03  0.48716517285E+03  0.59939466351E+03  0.46999998093E+01 0. -1.
       -5    1    3    3    0  502 -0.29292848191E+03 -0.19003913150E+03 -0.65859959043E+03  0.74545119057E+03  0.46999998093E+01 0.  1.
</event>
<event>
 5   0  0.7302027E-04  0.1582981E+04  0.7818609E-02  0.8831072E-01
        1   -1    0    0  501    0  0.00000000000E+00  0.00000000000E+00  0.16021105682E+04  0.16021105683E+04  0.50400001928E-02 0.  1.
       -1   -1    0    0    0  501  0.00000000000E+00  0.00000000000E+00 -0.39101990339E+03  0.39101990342E+03  0.50400001928E-02 0. -1.
    10030    2    1    2    0    0  0.00000000000E+00  0.00000000000E+00  0.12110906649E+04  0.19931304717E+04  0.15829808838E+04 0.  0.
        5    1    3    3  502    0  0.29186388440E+03  0.66471306102E+03  0.20856531212E+03  0.75534731079E+03  0.46999998093E+01 0.  1.
       -5    1    3    3    0  502 -0.29186388440E+03 -0.66471306102E+03  0.10025253527E+04  0.12377831609E+04  0.46999998093E+01 0. -1.
</event>
<event>
 5   0  0.1375777E-03  0.1604327E+04  0.7818609E-02  0.8817894E-01
       -2   -1    0    0    0  501  0.00000000000E+00  0.00000000000E+00  0.50011025130E+03  0.50011025130E+03  0.25500000920E-02 0. -1.
        2   -1    0    0  501    0  0.00000000000E+00  0.00000000000E+00 -0.12866492413E+04  0.12866492413E+04  0.25500000920E-02 0.  1.
    10030    2    1    2    0    0  0.00000000000E+00  0.00000000000E+00 -0.78653899000E+03  0.17867594926E+04  0.16043272427E+04 0.  0.
        1    1    3    3  502    0 -0.24007650181E+03  0.46450780627E+03  0.28423242509E+03  0.59514057189E+03  0.50400001928E-02 0. -1.
       -1    1    3    3    0  502  0.24007650181E+03 -0.46450780627E+03 -0.10707714151E+04  0.11916189207E+04  0.50400001928E-02 0.  1.
</event>
<event>
 5   0  0.1339162E-03  0.1635757E+04  0.7818609E-02  0.8798877E-01
        2   -1    0    0  501    0  0.00000000000E+00  0.00000000000E+00  0.15582948424E+04  0.15582948424E+04  0.25500000920E-02 0. -1.
       -2   -1    0    0    0  501  0.00000000000E+00  0.00000000000E+00 -0.42926728848E+03  0.42926728848E+03  0.25500000920E-02 0.  1.
    10030    2    1    2    0    0  0.00000000000E+00  0.00000000000E+00  0.11290275539E+04  0.19875621309E+04  0.16357567076E+04 0.  0.
        5    1    3    3  502    0 -0.50519624894E+03  0.28086848307E+03  0.12675697476E+04  0.13931494929E+04  0.46999998093E+01 0. -1.
       -5    1    3    3    0  502  0.50519624894E+03 -0.28086848307E+03 -0.13854219365E+03  0.59441263794E+03  0.46999998093E+01 0.  1.
</event>
<event>
 5   0  0.1339162E-03  0.1626494E+04  0.7818609E-02  0.8804435E-01
        2   -1    0    0  501    0  0.00000000000E+00  0.00000000000E+00  0.19452980681E+04  0.19452980681E+04  0.25500000920E-02 0.  1.
       -2   -1    0    0    0  501  0.00000000000E+00  0.00000000000E+00 -0.33998408771E+03  0.33998408772E+03  0.25500000920E-02 0. -1.
    10030    2    1    2    0    0  0.00000000000E+00  0.00000000000E+00  0.16053139804E+04  0.22852821558E+04  0.16264936385E+04 0.  0.
        5    1    3    3  502    0  0.30223884988E+03  0.72708491175E+03  0.10883582320E+04  0.13433341068E+04  0.46999998093E+01 0.  1.
       -5    1    3    3    0  502 -0.30223884988E+03 -0.72708491175E+03  0.51695574835E+03  0.94194804901E+03  0.46999998093E+01 0. -1.
</event>
<event>
 5   0  0.7601145E-04  0.1575642E+04  0.7818609E-02  0.8835653E-01
        1   -1    0    0  501    0  0.00000000000E+00  0.00000000000E+00  0.19573100437E+04  0.19573100437E+04  0.50400001928E-02 0. -1.
       -1   -1    0    0    0  501  0.00000000000E+00  0.00000000000E+00 -0.31709947112E+03  0.31709947116E+03  0.50400001928E-02 0.  1.
    10030    2    1    2    0    0  0.00000000000E+00  0.00000000000E+00  0.16402105725E+04  0.22744095148E+04  0.15756420656E+04 0.  0.
        4    1    3    3  502    0  0.29550835880E+03 -0.45549986431E+03 -0.38873391521E+01  0.54297517514E+03  0.12699999809E+01 0.  1.
       -4    1    3    3    0  502 -0.29550835880E+03  0.45549986431E+03  0.16440979117E+04  0.17314343397E+04  0.12699999809E+01 0. -1.
</event>
<event>
 5   0  0.7601145E-04  0.1612818E+04  0.7818609E-02  0.8812712E-01
       -1   -1    0    0    0  501  0.00000000000E+00  0.00000000000E+00  0.79561197441E+03  0.79561197443E+03  0.50400001928E-02 0.  1.
        1   -1    0    0  501    0  0.00000000000E+00  0.00000000000E+00 -0.81735301887E+03  0.81735301889E+03  0.50400001928E-02 0. -1.
    10030    2    1    2    0    0  0.00000000000E+00  0.00000000000E+00 -0.21741044457E+02  0.16129649933E+04  0.16128184636E+04 0.  0.
        4    1    3    3  502    0  0.14839371493E+03 -0.21263597442E+03 -0.77452321452E+03  0.81677571889E+03  0.12699999809E+01 0. -1.
       -4    1    3    3    0  502 -0.14839371493E+03  0.21263597442E+03  0.75278217006E+03  0.79618927442E+03  0.12699999809E+01 0.  1.
</event>
<event>
 5   0  0.7124495E-04  0.1496569E+04  0.7818609E-02  0.8886738E-01
        1   -1    0    0  501    0  0.00000000000E+00  0.00000000000E+00  0.16002413817E+04  0.16002413817E+04  0.50400001928E-02 0. -1.
       -1   -1    0    0    0  501  0.00000000000E+00  0.00000000000E+00 -0.34990338222E+03  0.34990338226E+03  0.50400001928E-02 0.  1.
    10030    2    1    2    0    0  0.00000000000E+00  0.00000000000E+00  0.12503379995E+04  0.19501447640E+04  0.14965692391E+04 0.  0.
        2    1    3    3  502    0 -0.29886494850E+03 -0.18186100164E+02 -0.26844049507E+03  0.40213342448E+03  0.25500000920E-02 0.  1.
       -2    1    3    3    0  502  0.29886494850E+03  0.18186100164E+02  0.15187784946E+04  0.15480113395E+04  0.25500000920E-02 0. -1.
</event>
<event>
 5   0  0.1375777E-03  0.1609748E+04  0.7818609E-02  0.8814582E-01
        2   -1    0    0  501    0  0.00000000000E+00  0.00000000000E+00  0.10683684184E+04  0.10683684184E+04  0.25500000920E-02 0.  1.
       -2   -1    0    0    0  501  0.00000000000E+00  0.00000000000E+00 -0.60636587858E+03  0.60636587859E+03  0.25500000920E-02 0. -1.
    10030    2    1    2    0    0  0.00000000000E+00  0.00000000000E+00  0.46200253985E+03  0.16747342970E+04  0.16097479985E+04 0.  0.
        1    1    3    3  502    0 -0.55630067440E+03 -0.39062323567E+02 -0.37279541921E+03  0.67080006714E+03  0.50400001928E-02 0. -1.
       -1    1    3    3    0  502  0.55630067440E+03  0.39062323567E+02  0.83479795906E+03  0.10039342299E+04  0.50400001928E-02 0.  1.
</event>
<event>
 5   0  0.1339162E-03  0.1614228E+04  0.7818609E-02  0.8811854E-01
       -2   -1    0    0    0  501  0.00000000000E+00  0.00000000000E+00  0.10390717598E+04  0.10390717598E+04  0.25500000920E-02 0. -1.
        2   -1    0    0  501    0  0.00000000000E+00  0.00000000000E+00 -0.62693759309E+03  0.62693759310E+03  0.25500000920E-02 0.  1.
    10030    2    1    2    0    0  0.00000000000E+00  0.00000000000E+00  0.41213416674E+03  0.16660093529E+04  0.16142281724E+04 0.  0.
        5    1    3    3  502    0 -0.60430455866E+03  0.78095751264E+02  0.75231634113E+03  0.96813475979E+03  0.46999998093E+01 0. -1.
       -5    1    3    3    0  502  0.60430455866E+03 -0.78095751264E+02 -0.34018217439E+03  0.69787459314E+03  0.46999998093E+01 0.  1.
</event>
<event>
 5   0  0.1354766E-03  0.1574519E+04  0.7818609E-02  0.8836356E-01
        2   -1    0    0  501    0  0.00000000000E+00  0.00000000000E+00  0.78645097783E+03  0.78645097784E+03  0.25500000920E-02 0. -1.
       -2   -1    0    0    0  501  0.00000000000E+00  0.00000000000E+00 -0.78806933682E+03  0.78806933683E+03  0.25500000920E-02 0.  1.
    10030    2    1    2    0    0  0.00000000000E+00  0.00000000000E+00 -0.16183589900E+01  0.15745203147E+04  0.15745194830E+04 0.  0.
        3    1    3    3  502    0 -0.42800850351E+03  0.13153748611E+03 -0.64833133663E+03  0.78792570816E+03  0.10100000352E+00 0.  1.
       -3    1    3    3    0  502  0.42800850351E+03 -0.13153748611E+03  0.64671297764E+03  0.78659460650E+03  0.10100000352E+00 0. -1.
</event>
<event>
 5   0  0.7601145E-04  0.1557171E+04  0.7818609E-02  0.8847301E-01
       -1   -1    0    0    0  501  0.00000000000E+00  0.00000000000E+00  0.49254122087E+03  0.49254122090E+03  0.50400001928E-02 0.  1.
        1   -1    0    0  501    0  0.00000000000E+00  0.00000000000E+00 -0.12307499264E+04  0.12307499264E+04  0.50400001928E-02 0. -1.
    10030    2    1    2    0    0  0.00000000000E+00  0.00000000000E+00 -0.73820870549E+03  0.17232911473E+04  0.15571706025E+04 0.  0.
        4    1    3    3  502    0 -0.32030634179E+03  0.68852861279E+03 -0.17894301107E+03  0.78018588640E+03  0.12699999809E+01 0.  1.
       -4    1    3    3    0  502  0.32030634179E+03 -0.68852861279E+03 -0.55926569442E+03  0.94310526087E+03  0.12699999809E+01 0. -1.
</event>
<event>
 5   0  0.1375777E-03  0.1605304E+04  0.7818609E-02  0.8817296E-01
        2   -1    0    0  501    0  0.00000000000E+00  0.00000000000E+00  0.84449533734E+03  0.84449533735E+03  0.25500000920E-02 0.  1.
       -2   -1    0    0    0  501  0.00000000000E+00  0.00000000000E+00 -0.76288220692E+03  0.76288220692E+03  0.25500000920E-02 0. -1.
    10030    2    1    2    0    0  0.00000000000E+00  0.00000000000E+00  0.81613130423E+02  0.16073775443E+04  0.16053042910E+04 0.  0.
        1    1    3    3  502    0 -0.52119836391E+03  0.48847021722E+03 -0.32572573063E+03  0.78507842874E+03  0.50400001928E-02 0. -1.
       -1    1    3    3    0  502  0.52119836391E+03 -0.48847021722E+03  0.40733886105E+03  0.82229911553E+03  0.50400001928E-02 0.  1.
</event>
<event>
 5   0  0.7601145E-04  0.1505250E+04  0.7818609E-02  0.8880969E-01
       -1   -1    0    0    0  501  0.00000000000E+00  0.00000000000E+00  0.37935444751E+03  0.37935444754E+03  0.50400001928E-02 0. -1.
        1   -1    0    0  501    0  0.00000000000E+00  0.00000000000E+00 -0.14931797614E+04  0.14931797614E+04  0.50400001928E-02 0.  1.
    10030    2    1    2    0    0  0.00000000000E+00  0.00000000000E+00 -0.11138253139E+04  0.18725342090E+04  0.15052499905E+04 0.  0.
        4    1    3    3  502    0  0.48877157003E+03 -0.55466344856E+03 -0.73237245229E+03  0.10406345231E+04  0.12699999809E+01 0.  1.
       -4    1    3    3    0  502 -0.48877157003E+03  0.55466344856E+03 -0.38145286162E+03  0.83189968589E+03  0.12699999809E+01 0. -1.
</event>
<event>
 5   0  0.1354766E-03  0.1582581E+04  0.7818609E-02  0.8831321E-01
       -2   -1    0    0    0  501  0.00000000000E+00  0.00000000000E+00  0.83863426724E+03  0.83863426725E+03  0.25500000920E-02 0.  1.
        2   -1    0    0  501    0  0.00000000000E+00  0.00000000000E+00 -0.74661908902E+03  0.74661908903E+03  0.25500000920E-02 0. -1.
    10030    2    1    2    0    0  0.00000000000E+00  0.00000000000E+00  0.92015178219E+02  0.15852533563E+04  0.15825806174E+04 0.  0.
        3    1    3    3  502    0 -0.54282100948E+03 -0.32530260233E+03 -0.42983564029E+03  0.76500661388E+03  0.10100000352E+00 0. -1.
       -3    1    3    3    0  502  0.54282100948E+03  0.32530260233E+03  0.52185081851E+03  0.82024674239E+03  0.10100000352E+00 0.  1.
</event>
<event>
 5   0  0.1414796E-03  0.1599544E+04  0.7818609E-02  0.8820828E-01
       -2   -1    0    0    0  501  0.00000000000E+00  0.00000000000E+00  0.44620960933E+03  0.44620960934E+03  0.25500000920E-02 0.  1.
        2   -1    0    0  501    0  0.00000000000E+00  0.00000000000E+00 -0.14334860081E+04  0.14334860081E+04  0.25500000920E-02 0. -1.
    10030    2    1    2    0    0  0.00000000000E+00  0.00000000000E+00 -0.98727639878E+03  0.18796956175E+04  0.15995439746E+04 0.  0.
        4    1    3    3  502    0 -0.76738257805E+03 -0.22300415888E+03 -0.53129315825E+03  0.95962540029E+03  0.12699999809E+01 0.  1.
       -4    1    3    3    0  502  0.76738257805E+03  0.22300415888E+03 -0.45598324053E+03  0.92007021717E+03  0.12699999809E+01 0. -1.
</event>
<event>
 5   0  0.7633213E-04  0.1533554E+04  0.7818609E-02  0.8862442E-01
        1   -1    0    0  501    0  0.00000000000E+00  0.00000000000E+00  0.63568780251E+03  0.63568780253E+03  0.50400001928E-02 0. -1.
       -1   -1    0    0    0  501  0.00000000000E+00  0.00000000000E+00 -0.92489854580E+03  0.92489854582E+03  0.50400001928E-02 0.  1.
    10030    2    1    2    0    0  0.00000000000E+00  0.00000000000E+00 -0.28921074330E+03  0.15605863483E+04  0.15335536823E+04 0.  0.
        1    1    3    3  502    0 -0.42310861192E+03 -0.55354438340E+03  0.18121733487E+03  0.71991110865E+03  0.50400001928E-02 0. -1.
       -1    1    3    3    0  502  0.42310861192E+03  0.55354438340E+03 -0.47042807816E+03  0.84067523969E+03  0.50400001928E-02 0.  1.
</event>
<event>
 5   0  0.1375777E-03  0.1356175E+04  0.7818609E-02  0.8986167E-01
        2   -1    0    0  501    0  0.00000000000E+00  0.00000000000E+00  0.18544963370E+04  0.18544963370E+04  0.25500000920E-02 0. -1.
       -2   -1    0    0    0  501  0.00000000000E+00  0.00000000000E+00 -0.24793947507E+03  0.24793947508E+03  0.25500000920E-02 0.  1.
    10030    2    1    2    0    0  0.00000000000E+00  0.00000000000E+00  0.16065568619E+04  0.21024358121E+04  0.13561752812E+04 0.  0.
        1    1    3    3  502    0 -0.30112837768E+03 -0.53272483094E+03  0.12561288227E+04  0.13972593405E+04  0.50400001928E-02 0. -1.
       -1    1    3    3    0  502  0.30112837768E+03  0.53272483094E+03  0.35042803916E+03  0.70517647153E+03  0.50400001928E-02 0.  1.
</event>
<event>
 5   0  0.7302027E-04  0.1604447E+04  0.7818609E-02  0.8817821E-01
        1   -1    0    0  501    0  0.00000000000E+00  0.00000000000E+00  0.11592634827E+04  0.11592634827E+04  0.50400001928E-02 0.  1.
       -1   -1    0    0    0  501  0.00000000000E+00  0.00000000000E+00 -0.55514775075E+03  0.55514775077E+03  0.50400001928E-02 0. -1.
    10030    2    1    2    0    0  0.00000000000E+00  0.00000000000E+00  0.60411573194E+03  0.17144112335E+04  0.16044469639E+04 0.  0.
        5    1    3    3  502    0 -0.38085515603E+02 -0.27674249262E+03  0.11055974777E+04  0.11403529219E+04  0.46999998093E+01 0.  1.
       -5    1    3    3    0  502  0.38085515603E+02  0.27674249262E+03 -0.50148174579E+03  0.57405831157E+03  0.46999998093E+01 0. -1.
</event>
<event>
 5   0  0.7302027E-04  0.1668323E+04  0.7818609E-02  0.8779640E-01
       -1   -1    0    0    0  501  0.00000000000E+00  0.00000000000E+00  0.50297257594E+03  0.50297257596E+03  0.50400001928E-02 0. -1.
        1   -1    0    0  501    0  0.00000000000E+00  0.00000000000E+00 -0.13834254126E+04  0.13834254126E+04  0.50400001928E-02 0.  1.
    10030    2    1    2    0    0  0.00000000000E+00  0.00000000000E+00 -0.88045283668E+03  0.18863979886E+04  0.16683225629E+04 0.  0.
        5    1    3    3  502    0 -0.81396322154E+02  0.80214329548E+03 -0.68206136991E+03  0.10560724549E+04  0.46999998093E+01 0. -1.
       -5    1    3    3    0  502  0.81396322154E+02 -0.80214329548E+03 -0.19839146677E+03  0.83032553365E+03  0.46999998093E+01 0.  1.
</event>
<event>
 5   0  0.7601145E-04  0.9058132E+03  0.7818609E-02  0.9418344E-01
        1   -1    0    0  501    0  0.00000000000E+00  0.00000000000E+00  0.64038095456E+03  0.64038095458E+03  0.50400001928E-02 0. -1.
       -1   -1    0    0    0  501  0.00000000000E+00  0.00000000000E+00 -0.32031617812E+03  0.32031617816E+03  0.50400001928E-02 0.  1.
    10030    2    1    2    0    0  0.00000000000E+00  0.00000000000E+00  0.32006477644E+03  0.96069713274E+03  0.90581318148E+03 0.  0.
        4    1    3    3  502    0  0.37284925947E+03  0.23047492831E+03  0.39164562894E+02  0.44008037760E+03  0.12699999809E+01 0. -1.
       -4    1    3    3    0  502 -0.37284925947E+03 -0.23047492831E+03  0.28090021354E+03  0.52061675514E+03  0.12699999809E+01 0.  1.
</event>
<event>
 5   0  0.7499834E-04  0.1597868E+04  0.7818609E-02  0.8821859E-01
        1   -1    0    0  501    0  0.00000000000E+00  0.00000000000E+00  0.12015905065E+04  0.12015905065E+04  0.50400001928E-02 0. -1.
       -1   -1    0    0    0  501  0.00000000000E+00  0.00000000000E+00 -0.53120870991E+03  0.53120870993E+03  0.50400001928E-02 0.  1.
    10030    2    1    2    0    0  0.00000000000E+00  0.00000000000E+00  0.67038179661E+03  0.17327992165E+04  0.15978677578E+04 0.  0.
        3    1    3    3  502    0 -0.52198113588E+02 -0.14421820288E+03 -0.51509382851E+03  0.53744320210E+03  0.10100000352E+00 0.  1.
       -3    1    3    3    0  502  0.52198113588E+02  0.14421820288E+03  0.11854756251E+04  0.11953560144E+04  0.10100000352E+00 0. -1.
</event>
<event>
 5   0  0.7499834E-04  0.1631561E+04  0.7818609E-02  0.8801390E-01
        1   -1    0    0  501    0  0.00000000000E+00  0.00000000000E+00  0.93453888088E+03  0.93453888090E+03  0.50400001928E-02 0.  1.
       -1   -1    0    0    0  501  0.00000000000E+00  0.00000000000E+00 -0.71211349976E+03  0.71211349978E+03  0.50400001928E-02 0. -1.
    10030    2    1    2    0    0  0.00000000000E+00  0.00000000000E+00  0.22242538112E+03  0.16466523807E+04  0.16315609129E+04 0.  0.
        3    1    3    3  502    0  0.61014201536E+03 -0.46844662729E+03  0.38535400914E+03  0.86035646338E+03  0.10100000352E+00 0.  1.
       -3    1    3    3    0  502 -0.61014201536E+03  0.46844662729E+03 -0.16292862802E+03  0.78629591729E+03  0.10100000352E+00 0. -1.
</event>
<event>
 5   0  0.7601145E-04  0.1431476E+04  0.7818609E-02  0.8931345E-01
       -1   -1    0    0    0  501  0.00000000000E+00  0.00000000000E+00  0.53746837412E+03  0.53746837415E+03  0.50400001928E-02 0.  1.
        1   -1    0    0  501    0  0.00000000000E+00  0.00000000000E+00 -0.95313675488E+03  0.95313675490E+03  0.50400001928E-02 0. -1.
    10030    2    1    2    0    0  0.00000000000E+00  0.00000000000E+00 -0.41566838076E+03  0.14906051290E+04  0.14314759684E+04 0.  0.
        4    1    3    3  502    0  0.30995691093E+03  0.70221058807E+02 -0.87563153376E+03  0.93152374073E+03  0.12699999809E+01 0. -1.
       -4    1    3    3    0  502 -0.30995691093E+03 -0.70221058807E+02  0.45996315300E+03  0.55908138831E+03  0.12699999809E+01 0.  1.
</event>
<event>
 5   0  0.7499834E-04  0.1585528E+04  0.7818609E-02  0.8829488E-01
       -1   -1    0    0    0  501  0.00000000000E+00  0.00000000000E+00  0.18392328297E+04  0.18392328298E+04  0.50400001928E-02 0. -1.
        1   -1    0    0  501    0  0.00000000000E+00  0.00000000000E+00 -0.34170500666E+03  0.34170500669E+03  0.50400001928E-02 0.  1.
    10030    2    1    2    0    0  0.00000000000E+00  0.00000000000E+00  0.14975278231E+04  0.21809378364E+04  0.15855283869E+04 0.  0.
        3    1    3    3  502    0 -0.20458062103E+03  0.57358559353E+03  0.50595449441E+02  0.61107575087E+03  0.10100000352E+00 0.  1.
       -3    1    3    3    0  502  0.20458062103E+03 -0.57358559353E+03  0.14469323736E+04  0.15698620856E+04  0.10100000352E+00 0. -1.
</event>
<event>
 5   0  0.7633213E-04  0.1625837E+04  0.7818609E-02  0.8804831E-01
        1   -1    0    0  501    0  0.00000000000E+00  0.00000000000E+00  0.96849208272E+03  0.96849208273E+03  0.50400001928E-02 0. -1.
       -1   -1    0    0    0  501  0.00000000000E+00  0.00000000000E+00 -0.68233526450E+03  0.68233526451E+03  0.50400001928E-02 0.  1.
    10030    2    1    2    0    0  0.00000000000E+00  0.00000000000E+00  0.28615681822E+03  0.16508273472E+04  0.16258367710E+04 0.  0.
        1    1    3    3  502    0 -0.66565529619E+03  0.23509954618E+03 -0.26618979331E+03  0.75447052696E+03  0.50400001928E-02 0.  1.
       -1    1    3    3    0  502  0.66565529619E+03 -0.23509954618E+03  0.55234661154E+03  0.89635682028E+03  0.50400001928E-02 0. -1.
</event>
<event>
 5   0  0.7302027E-04  0.1005569E+04  0.7818609E-02  0.9302457E-01
        1   -1    0    0  501    0  0.00000000000E+00  0.00000000000E+00  0.61983558034E+03  0.61983558036E+03  0.50400001928E-02 0.  1.
       -1   -1    0    0    0  501  0.00000000000E+00  0.00000000000E+00 -0.40783796791E+03  0.40783796794E+03  0.50400001928E-02 0. -1.
    10030    2    1    2    0    0  0.00000000000E+00  0.00000000000E+00  0.21199761243E+03  0.10276735483E+04  0.10055694577E+04 0.  0.
        5    1    3    3  502    0  0.78231727095E+02 -0.49040114419E+03  0.25808025174E+02  0.49729430874E+03  0.46999998093E+01 0.  1.
       -5    1    3    3    0  502 -0.78231727095E+02  0.49040114419E+03  0.18618958726E+03  0.53037923955E+03  0.46999998093E+01 0. -1.
</event>
<event>
 5   0  0.1354766E-03  0.1585147E+04  0.7818609E-02  0.8829725E-01
        2   -1    0    0  501    0  0.00000000000E+00  0.00000000000E+00  0.14026954359E+04  0.14026954359E+04  0.25500000920E-02 0.  1.
       -2   -1    0    0    0  501  0.00000000000E+00  0.00000000000E+00 -0.44783277118E+03  0.44783277119E+03  0.25500000920E-02 0. -1.
    10030    2    1    2    0    0  0.00000000000E+00  0.00000000000E+00  0.95486266475E+03  0.18505282071E+04  0.15851472918E+04 0.  0.
        3    1    3    3  502    0  0.16083888973E+03 -0.76413525518E+03  0.31907026521E+03  0.84355063926E+03  0.10100000352E+00 0. -1.
       -3    1    3    3    0  502 -0.16083888973E+03  0.76413525518E+03  0.63579239954E+03  0.10069775679E+04  0.10100000352E+00 0.  1.
</event>
<event>
 5   0  0.1414751E-03  0.1621479E+04  0.7818609E-02  0.8807460E-01
       -2   -1    0    0    0  501  0.00000000000E+00  0.00000000000E+00  0.44079097686E+03  0.44079097687E+03  0.25500000920E-02 0. -1.
        2   -1    0    0  501    0  0.00000000000E+00  0.00000000000E+00 -0.14911794423E+04  0.14911794423E+04  0.25500000920E-02 0.  1.
    10030    2    1    2    0    0  0.00000000000E+00  0.00000000000E+00 -0.10503884655E+04  0.19319704192E+04  0.16214788843E+04 0.  0.
        2    1    3    3  502    0  0.16040709786E+03  0.17657936322E+03 -0.14484139704E+04  0.14679283832E+04  0.25500000920E-02 0.  1.
       -2    1    3    3    0  502 -0.16040709786E+03 -0.17657936322E+03  0.39802550495E+03  0.46404203598E+03  0.25500000920E-02 0. -1.
</event>
<event>
 5   0  0.7302027E-04  0.1594970E+04  0.7818609E-02  0.8823644E-01
       -1   -1    0    0    0  501  0.00000000000E+00  0.00000000000E+00  0.59783259658E+03  0.59783259660E+03  0.50400001928E-02 0.  1.
        1   -1    0    0  501    0  0.00000000000E+00  0.00000000000E+00 -0.10638134269E+04  0.10638134269E+04  0.50400001928E-02 0. -1.
    10030    2    1    2    0    0  0.00000000000E+00  0.00000000000E+00 -0.46598083034E+03  0.16616460235E+04  0.15949700227E+04 0.  0.
        5    1    3    3  502    0  0.63024753670E+03  0.36228525974E+03 -0.57456499774E+03  0.92661188940E+03  0.46999998093E+01 0. -1.
       -5    1    3    3    0  502 -0.63024753670E+03 -0.36228525974E+03  0.10858416740E+03  0.73503413414E+03  0.46999998093E+01 0.  1.
</event>
<event>
 5   0  0.1354766E-03  0.1616146E+04  0.7818609E-02  0.8810690E-01
        2   -1    0    0  501    0  0.00000000000E+00  0.00000000000E+00  0.14961232731E+04  0.14961232731E+04  0.25500000920E-02 0. -1.
       -2   -1    0    0    0  501  0.00000000000E+00  0.00000000000E+00 -0.43644913205E+03  0.43644913206E+03  0.25500000920E-02 0.  1.
    10030    2    1    2    0    0  0.00000000000E+00  0.00000000000E+00  0.10596741411E+04  0.19325724052E+04  0.16161456667E+04 0.  0.
        3    1    3    3  502    0 -0.14310204848E+02 -0.38056568706E+03 -0.32240767160E+03  0.49898070207E+03  0.10100000352E+00 0.  1.
       -3    1    3    3    0  502  0.14310204848E+02  0.38056568706E+03  0.13820818127E+04  0.14335917031E+04  0.10100000352E+00 0. -1.
</event>
<event>
 5   0  0.1375777E-03  0.1604403E+04  0.7818609E-02  0.8817848E-01
       -2   -1    0    0    0  501  0.00000000000E+00  0.00000000000E+00  0.33123677906E+03  0.33123677907E+03  0.25500000920E-02 0.  1.
        2   -1    0    0  501    0  0.00000000000E+00  0.00000000000E+00 -0.19428008745E+04  0.19428008745E+04  0.25500000920E-02 0. -1.
    10030    2    1    2    0    0  0.00000000000E+00  0.00000000000E+00 -0.16115640954E+04  0.22740376535E+04  0.16044028223E+04 0.  0.
        1    1    3    3  502    0  0.12673300620E+03  0.52525636901E+03 -0.16461918793E+04  0.17326001304E+04  0.50400001928E-02 0. -1.
       -1    1    3    3    0  502 -0.12673300620E+03 -0.52525636901E+03  0.34627783949E+02  0.54143752317E+03  0.50400001928E-02 0.  1.
</event>
<event>
 5   0  0.1414796E-03  0.1837361E+04  0.7818609E-02  0.8686680E-01
        2   -1    0    0  501    0  0.00000000000E+00  0.00000000000E+00  0.18276759685E+04  0.18276759685E+04  0.25500000920E-02 0.  1.
       -2   -1    0    0    0  501  0.00000000000E+00  0.00000000000E+00 -0.46177458570E+03  0.46177458570E+03  0.25500000920E-02 0. -1.
    10030    2    1    2    0    0  0.00000000000E+00  0.00000000000E+00  0.13659013828E+04  0.22894505542E+04  0.18373614921E+04 0.  0.
        4    1    3    3  502    0 -0.18345121540E+03 -0.45897272497E+03 -0.28196654395E+03  0.56904925578E+03  0.12699999809E+01 0. -1.
       -4    1    3    3    0  502  0.18345121540E+03  0.45897272497E+03  0.16478679267E+04  0.17204012984E+04  0.12699999809E+01 0.  1.
</event>
<event>
 5   0  0.1414751E-03  0.1595636E+04  0.7818609E-02  0.8823233E-01
       -2   -1    0    0    0  501  0.00000000000E+00  0.00000000000E+00  0.11269276769E+04  0.11269276769E+04  0.25500000920E-02 0.  1.
        2   -1    0    0  501    0  0.00000000000E+00  0.00000000000E+00 -0.56482211805E+03  0.56482211806E+03  0.25500000920E-02 0. -1.
    10030    2    1    2    0    0  0.00000000000E+00  0.00000000000E+00  0.56210555881E+03  0.16917497949E+04  0.15956361457E+04 0.  0.
        2    1    3    3  502    0  0.77471517024E+02 -0.77172896981E+03  0.47925224783E+03  0.91172921191E+03  0.25500000920E-02 0.  1.
       -2    1    3    3    0  502 -0.77471517024E+02  0.77172896981E+03  0.82853310977E+02  0.78002058302E+03  0.25500000920E-02 0. -1.
</event>
<event>
 5   0  0.7302027E-04  0.1584805E+04  0.7818609E-02  0.8829938E-01
        1   -1    0    0  501    0  0.00000000000E+00  0.00000000000E+00  0.14271216557E+04  0.14271216557E+04  0.50400001928E-02 0.  1.
       -1   -1    0    0    0  501  0.00000000000E+00  0.00000000000E+00 -0.43997755885E+03  0.43997755888E+03  0.50400001928E-02 0. -1.
    10030    2    1    2    0    0  0.00000000000E+00  0.00000000000E+00  0.98714409686E+03  0.18670992146E+04  0.15848047227E+04 0.  0.
        5    1    3    3  502    0 -0.48121506245E+03  0.65238709496E+02 -0.24410343880E+03  0.54353712327E+03  0.46999998093E+01 0. -1.
       -5    1    3    3    0  502  0.48121506245E+03 -0.65238709496E+02  0.12312475357E+04  0.13235620913E+04  0.46999998093E+01 0.  1.
</event>
<event>
 5   0  0.1414751E-03  0.1633983E+04  0.7818609E-02  0.8799939E-01
       -2   -1    0    0    0  501  0.00000000000E+00  0.00000000000E+00  0.11208216797E+04  0.11208216797E+04  0.25500000920E-02 0. -1.
        2   -1    0    0  501    0  0.00000000000E+00  0.00000000000E+00 -0.59552269789E+03  0.59552269790E+03  0.25500000920E-02 0.  1.
    10030    2    1    2    0    0  0.00000000000E+00  0.00000000000E+00  0.52529898185E+03  0.17163443776E+04  0.16339825588E+04 0.  0.
        2    1    3    3  502    0 -0.31409686998E+03  0.75003915683E+03  0.34575224005E+03  0.88360635581E+03  0.25500000920E-02 0. -1.
       -2    1    3    3    0  502  0.31409686998E+03 -0.75003915683E+03  0.17954674180E+03  0.83273802184E+03  0.25500000920E-02 0.  1.
</event>
<event>
 5   0  0.7302027E-04  0.1463894E+04  0.7818609E-02  0.8908825E-01
        1   -1    0    0  501    0  0.00000000000E+00  0.00000000000E+00  0.40091015523E+03  0.40091015526E+03  0.50400001928E-02 0.  1.
       -1   -1    0    0    0  501  0.00000000000E+00  0.00000000000E+00 -0.13363250456E+04  0.13363250456E+04  0.50400001928E-02 0. -1.
    10030    2    1    2    0    0  0.00000000000E+00  0.00000000000E+00 -0.93541489033E+03  0.17372352008E+04  0.14638938233E+04 0.  0.
        5    1    3    3  502    0  0.49417855205E+03  0.53608988712E+03 -0.54387414418E+03  0.90962958565E+03  0.46999998093E+01 0.  1.
       -5    1    3    3    0  502 -0.49417855205E+03 -0.53608988712E+03 -0.39154074614E+03  0.82760561517E+03  0.46999998093E+01 0. -1.
</event>
<event>
 5   0  0.7601145E-04  0.1613546E+04  0.7818609E-02  0.8812269E-01
       -1   -1    0    0    0  501  0.00000000000E+00  0.00000000000E+00  0.37157011155E+03  0.37157011158E+03  0.50400001928E-02 0. -1.
        1   -1    0    0  501    0  0.00000000000E+00  0.00000000000E+00 -0.17517087883E+04  0.17517087883E+04  0.50400001928E-02 0.  1.
    10030    2    1    2    0    0  0.00000000000E+00  0.00000000000E+00 -0.13801386767E+04  0.21232788999E+04  0.16135459459E+04 0.  0.
        4    1    3    3  502    0 -0.67843149463E+03  0.31006179107E+03 -0.28560475146E+03  0.79873606037E+03  0.12699999809E+01 0. -1.
       -4    1    3    3    0  502  0.67843149463E+03 -0.31006179107E+03 -0.10945339253E+04  0.13245428395E+04  0.12699999809E+01 0.  1.
</event>
<event>
 5   0  0.7124495E-04  0.1549914E+04  0.7818609E-02  0.8851923E-01
        1   -1    0    0  501    0  0.00000000000E+00  0.00000000000E+00  0.39652356582E+03  0.39652356586E+03  0.50400001928E-02 0.  1.
       -1   -1    0    0    0  501  0.00000000000E+00  0.00000000000E+00 -0.15145593588E+04  0.15145593588E+04  0.50400001928E-02 0. -1.
    10030    2    1    2    0    0  0.00000000000E+00  0.00000000000E+00 -0.11180357930E+04  0.19110829247E+04  0.15499141623E+04 0.  0.
        2    1    3    3  502    0 -0.24893365484E+03 -0.47401361649E+03 -0.12498438630E+04  0.13596935519E+04  0.25500000920E-02 0. -1.
       -2    1    3    3    0  502  0.24893365484E+03  0.47401361649E+03  0.13180806999E+03  0.55138937282E+03  0.25500000920E-02 0.  1.
</event>
<event>
 5   0  0.7601145E-04  0.1716904E+04  0.7818609E-02  0.8751782E-01
        1   -1    0    0  501    0  0.00000000000E+00  0.00000000000E+00  0.15497956400E+04  0.15497956400E+04  0.50400001928E-02 0. -1.
       -1   -1    0    0    0  501  0.00000000000E+00  0.00000000000E+00 -0.47550770492E+03  0.47550770495E+03  0.50400001928E-02 0.  1.
    10030    2    1    2    0    0  0.00000000000E+00  0.00000000000E+00  0.10742879350E+04  0.20253033449E+04  0.17169039203E+04 0.  0.
        4    1    3    3  502    0  0.28572243296E+03 -0.16023093689E+03  0.14731652480E+04  0.15091483435E+04  0.12699999809E+01 0. -1.
       -4    1    3    3    0  502 -0.28572243296E+03  0.16023093689E+03 -0.39887731295E+03  0.51615500144E+03  0.12699999809E+01 0.  1.
</event>
<event>
 5   0  0.1375777E-03  0.1605800E+04  0.7818609E-02  0.8816993E-01
       -2   -1    0    0    0  501  0.00000000000E+00  0.00000000000E+00  0.14407834641E+04  0.14407834641E+04  0.25500000920E-02 0.  1.
        2   -1    0    0  501    0  0.00000000000E+00  0.00000000000E+00 -0.44742884999E+03  0.44742885000E+03  0.25500000920E-02 0. -1.
    10030    2    1    2    0    0  0.00000000000E+00  0.00000000000E+00  0.99335461412E+03  0.18882123141E+04  0.16057995995E+04 0.  0.
        1    1    3    3  502    0 -0.37882203085E+03 -0.57756302676E+01  0.13290645357E+04  0.13820101407E+04  0.50400001928E-02 0.  1.
       -1    1    3    3    0  502  0.37882203085E+03  0.57756302676E+01 -0.33570992153E+03  0.50620217345E+03  0.50400001928E-02 0. -1.
</event>
<event>
 5   0  0.1414796E-03  0.1551415E+04  0.7818609E-02  0.8850965E-01
       -2   -1    0    0    0  501  0.00000000000E+00  0.00000000000E+00  0.76481907093E+03  0.76481907094E+03  0.25500000920E-02 0. -1.
        2   -1    0    0  501    0  0.00000000000E+00  0.00000000000E+00 -0.78675059628E+03  0.78675059629E+03  0.25500000920E-02 0.  1.
    10030    2    1    2    0    0  0.00000000000E+00  0.00000000000E+00 -0.21931525353E+02  0.15515696672E+04  0.15514146578E+04 0.  0.
        4    1    3    3  502    0 -0.25363651299E+03 -0.60655784773E+03 -0.42268194157E+03  0.78160446518E+03  0.12699999809E+01 0.  1.
       -4    1    3    3    0  502  0.25363651299E+03  0.60655784773E+03  0.40075041622E+03  0.76996520204E+03  0.12699999809E+01 0. -1.
</event>
<event>
 5   0  0.7499834E-04  0.1600708E+04  0.7818609E-02  0.8820113E-01
       -1   -1    0    0    0  501  0.00000000000E+00  0.00000000000E+00  0.12680488153E+04  0.12680488153E+04  0.50400001928E-02 0.  1.
        1   -1    0    0  501    0  0.00000000000E+00  0.00000000000E+00 -0.50515918972E+03  0.50515918974E+03  0.50400001928E-02 0. -1.
    10030    2    1    2    0    0  0.00000000000E+00  0.00000000000E+00  0.76288962554E+03  0.17732080050E+04  0.16007079834E+04 0.  0.
        3    1    3    3  502    0 -0.42889194138E+03 -0.60541619766E+03  0.71393933657E+03  0.10296535613E+04  0.10100000352E+00 0. -1.
       -3    1    3    3    0  502  0.42889194138E+03  0.60541619766E+03  0.48950288964E+02  0.74355444371E+03  0.10100000352E+00 0.  1.
</event>
<event>
 5   0  0.1354766E-03  0.1596698E+04  0.7818609E-02  0.8822579E-01
       -2   -1    0    0    0  501  0.00000000000E+00  0.00000000000E+00  0.56984666104E+03  0.56984666104E+03  0.25500000920E-02 0. -1.
        2   -1    0    0  501    0  0.00000000000E+00  0.00000000000E+00 -0.11184777318E+04  0.11184777318E+04  0.25500000920E-02 0.  1.
    10030    2    1    2    0    0  0.00000000000E+00  0.00000000000E+00 -0.54863107072E+03  0.16883243928E+04  0.15966975930E+04 0.  0.
        3    1    3    3  502    0  0.78882161466E+03  0.74281980790E+02 -0.37793625375E+03  0.87783436623E+03  0.10100000352E+00 0. -1.
       -3    1    3    3    0  502 -0.78882161466E+03 -0.74281980790E+02 -0.17069481697E+03  0.81049002657E+03  0.10100000352E+00 0.  1.
</event>
<event>
 5   0  0.7499834E-04  0.1639943E+04  0.7818609E-02  0.8796379E-01
       -1   -1    0    0    0  501  0.00000000000E+00  0.00000000000E+00  0.37355356723E+03  0.37355356727E+03  0.50400001928E-02 0. -1.
        1   -1    0    0  501    0  0.00000000000E+00  0.00000000000E+00 -0.17998837218E+04  0.17998837218E+04  0.50400001928E-02 0.  1.
    10030    2    1    2    0    0  0.00000000000E+00  0.00000000000E+00 -0.14263301545E+04  0.21734372890E+04  0.16399426635E+04 0.  0.
        3    1    3    3  502    0  0.82833111434E+02  0.79570210872E+03 -0.47479360433E+03  0.93028605659E+03  0.10100000352E+00 0.  1.
       -3    1    3    3    0  502 -0.82833111434E+02 -0.79570210872E+03 -0.95153655019E+03  0.12431512324E+04  0.10100000352E+00 0. -1.
</event>
<event>
 5   0  0.7124495E-04  0.8140271E+03  0.7818609E-02  0.9539932E-01
        1   -1    0    0  501    0  0.00000000000E+00  0.00000000000E+00  0.79147665409E+03  0.79147665411E+03  0.50400001928E-02 0. -1.
       -1   -1    0    0    0  501  0.00000000000E+00  0.00000000000E+00 -0.20930502420E+03  0.20930502426E+03  0.50400001928E-02 0.  1.
    10030    2    1    2    0    0  0.00000000000E+00  0.00000000000E+00  0.58217162990E+03  0.10007816784E+04  0.81402712553E+03 0.  0.
        2    1    3    3  502    0 -0.28041683484E+03 -0.27741815913E+03  0.41443048541E+03  0.57214252029E+03  0.25500000920E-02 0. -1.
       -2    1    3    3    0  502  0.28041683484E+03  0.27741815913E+03  0.16774114448E+03  0.42863915808E+03  0.25500000920E-02 0.  1.
</event>
<event>
 5   0  0.1414751E-03  0.1592746E+04  0.7818609E-02  0.8825017E-01
        2   -1    0    0  501    0  0.00000000000E+00  0.00000000000E+00  0.10234584545E+04  0.10234584545E+04  0.25500000920E-02 0. -1.
       -2   -1    0    0    0  501  0.00000000000E+00  0.00000000000E+00 -0.61967340592E+03  0.61967340593E+03  0.25500000920E-02 0.  1.
    10030    2    1    2    0    0  0.00000000000E+00  0.00000000000E+00  0.40378504858E+03  0.16431318604E+04  0.15927460392E+04 0.  0.
        2    1    3    3  502    0  0.33689123690E+03  0.59794823854E+02 -0.53998031219E+03  0.63925727530E+03  0.25500000920E-02 0.  1.
       -2    1    3    3    0  502 -0.33689123690E+03 -0.59794823854E+02  0.94376536077E+03  0.10038745851E+04  0.25500000920E-02 0. -1.
</event>
<event>
 5   0  0.5095750E-04  0.1637115E+04  0.7818609E-02  0.8798066E-01
        3   -1    0    0  501    0  0.00000000000E+00  0.00000000000E+00  0.33088376709E+03  0.33088378251E+03  0.10100000352E+00 0. -1.
       -3   -1    0    0    0  501  0.00000000000E+00  0.00000000000E+00 -0.20249891438E+04  0.20249891464E+04  0.10100000352E+00 0.  1.
    10030    2    1    2    0    0  0.00000000000E+00  0.00000000000E+00 -0.16941053767E+04  0.23558729289E+04  0.16371146049E+04 0.  0.
        2    1    3    3  502    0  0.65537283871E+03 -0.49015147123E+03 -0.87087455041E+03  0.11950667366E+04  0.25500000920E-02 0. -1.
       -2    1    3    3    0  502 -0.65537283871E+03  0.49015147123E+03 -0.82323082633E+03  0.11608061922E+04  0.25500000920E-02 0.  1.
</event>
<event>
 5   0  0.7633213E-04  0.1577088E+04  0.7818609E-02  0.8834749E-01
        1   -1    0    0  501    0  0.00000000000E+00  0.00000000000E+00  0.24526042062E+04  0.24526042062E+04  0.50400001928E-02 0.  1.
       -1   -1    0    0    0  501  0.00000000000E+00  0.00000000000E+00 -0.25352714171E+03  0.25352714176E+03  0.50400001928E-02 0. -1.
    10030    2    1    2    0    0  0.00000000000E+00  0.00000000000E+00  0.21990770645E+04  0.27061313480E+04  0.15770881196E+04 0.  0.
        1    1    3    3  502    0  0.68831635374E+02  0.14292777035E+03  0.24249401337E+04  0.24301236169E+04  0.50400001928E-02 0.  1.
       -1    1    3    3    0  502 -0.68831635374E+02 -0.14292777035E+03 -0.22586306917E+03  0.27600773106E+03  0.50400001928E-02 0. -1.
</event>
<event>
 5   0  0.1414796E-03  0.1441698E+04  0.7818609E-02  0.8924177E-01
       -2   -1    0    0    0  501  0.00000000000E+00  0.00000000000E+00  0.52769353777E+03  0.52769353778E+03  0.25500000920E-02 0.  1.
        2   -1    0    0  501    0  0.00000000000E+00  0.00000000000E+00 -0.98470635104E+03  0.98470635104E+03  0.25500000920E-02 0. -1.
    10030    2    1    2    0    0  0.00000000000E+00  0.00000000000E+00 -0.45701281327E+03  0.15123998888E+04  0.14416978575E+04 0.  0.
        4    1    3    3  502    0 -0.51640276098E+03 -0.12952560970E+03  0.28130246339E+03  0.60214731082E+03  0.12699999809E+01 0.  1.
       -4    1    3    3    0  502  0.51640276098E+03  0.12952560970E+03 -0.73831527665E+03  0.91025257800E+03  0.12699999809E+01 0. -1.
</event>
<event>
 5   0  0.7633213E-04  0.1457823E+04  0.7818609E-02  0.8912995E-01
        1   -1    0    0  501    0  0.00000000000E+00  0.00000000000E+00  0.19002332634E+04  0.19002332634E+04  0.50400001928E-02 0. -1.
       -1   -1    0    0    0  501  0.00000000000E+00  0.00000000000E+00 -0.27960348674E+03  0.27960348679E+03  0.50400001928E-02 0.  1.
    10030    2    1    2    0    0  0.00000000000E+00  0.00000000000E+00  0.16206297767E+04  0.21798367502E+04  0.14578228234E+04 0.  0.
        1    1    3    3  502    0 -0.40517508562E+03 -0.55387963370E+03  0.11776837017E+04  0.13630437997E+04  0.50400001928E-02 0.  1.
       -1    1    3    3    0  502  0.40517508562E+03  0.55387963370E+03  0.44294607500E+03  0.81679295052E+03  0.50400001928E-02 0. -1.
</event>
<event>
 5   0  0.1414796E-03  0.1428195E+04  0.7818609E-02  0.8933659E-01
       -2   -1    0    0    0  501  0.00000000000E+00  0.00000000000E+00  0.99088228434E+03  0.99088228434E+03  0.25500000920E-02 0. -1.
        2   -1    0    0  501    0  0.00000000000E+00  0.00000000000E+00 -0.51462711093E+03  0.51462711093E+03  0.25500000920E-02 0.  1.
    10030    2    1    2    0    0  0.00000000000E+00  0.00000000000E+00  0.47625517341E+03  0.15055093953E+04  0.14281945067E+04 0.  0.
        4    1    3    3  502    0 -0.57588124147E+03 -0.10409204163E+03 -0.19324272359E+03  0.61629434569E+03  0.12699999809E+01 0.  1.
       -4    1    3    3    0  502  0.57588124147E+03  0.10409204163E+03  0.66949789700E+03  0.88921504958E+03  0.12699999809E+01 0. -1.
</event>
<event>
 5   0  0.1339162E-03  0.1550916E+04  0.7818609E-02  0.8851283E-01
        2   -1    0    0  501    0  0.00000000000E+00  0.00000000000E+00  0.12124098114E+04  0.12124098114E+04  0.25500000920E-02 0.  1.
       -2   -1    0    0    0  501  0.00000000000E+00  0.00000000000E+00 -0.49598315636E+03  0.49598315636E+03  0.25500000920E-02 0. -1.
    10030    2    1    2    0    0  0.00000000000E+00  0.00000000000E+00  0.71642665503E+03  0.17083929677E+04  0.15509156586E+04 0.  0.
        5    1    3    3  502    0  0.19712991004E+03  0.27475824057E+02  0.11837776021E+04  0.12004026922E+04  0.46999998093E+01 0.  1.
       -5    1    3    3    0  502 -0.19712991004E+03 -0.27475824057E+02 -0.46735094704E+03  0.50799027553E+03  0.46999998093E+01 0. -1.
</event>
<event>
 5   0  0.7601145E-04  0.1426116E+04  0.7818609E-02  0.8935128E-01
        1   -1    0    0  501    0  0.00000000000E+00  0.00000000000E+00  0.10661840847E+04  0.10661840847E+04  0.50400001928E-02 0.  1.
       -1   -1    0    0    0  501  0.00000000000E+00  0.00000000000E+00 -0.47688928798E+03  0.47688928801E+03  0.50400001928E-02 0. -1.
    10030    2    1    2    0    0  0.00000000000E+00  0.00000000000E+00  0.58929479673E+03  0.15430733727E+04  0.14261160809E+04 0.  0.
        4    1    3    3  502    0 -0.57323344451E+03 -0.61264316132E+02 -0.15941098234E+03  0.59813323978E+03  0.12699999809E+01 0. -1.
       -4    1    3    3    0  502  0.57323344451E+03  0.61264316132E+02  0.74870577907E+03  0.94494013295E+03  0.12699999809E+01 0.  1.
</event>
<event>
 5   0  0.1339162E-03  0.1603932E+04  0.7818609E-02  0.8818136E-01
       -2   -1    0    0    0  501  0.00000000000E+00  0.00000000000E+00  0.55547569929E+03  0.55547569929E+03  0.25500000920E-02 0.  1.
        2   -1    0    0  501    0  0.00000000000E+00  0.00000000000E+00 -0.11578348973E+04  0.11578348973E+04  0.25500000920E-02 0. -1.
    10030    2    1    2    0    0  0.00000000000E+00  0.00000000000E+00 -0.60235919804E+03  0.17133105966E+04  0.16039316061E+04 0.  0.
        5    1    3    3  502    0  0.51816391339E+02 -0.50378995662E+03  0.36302581502E+03  0.62313649482E+03  0.46999998093E+01 0.  1.
       -5    1    3    3    0  502 -0.51816391339E+02  0.50378995662E+03 -0.96538501306E+03  0.10901741018E+04  0.46999998093E+01 0. -1.
</event>
<event>
 5   0  0.7124495E-04  0.1562450E+04  0.7818609E-02  0.8843954E-01
       -1   -1    0    0    0  501  0.00000000000E+00  0.00000000000E+00  0.10282765046E+04  0.10282765046E+04  0.50400001928E-02 0.  1.
        1   -1    0    0  501    0  0.00000000000E+00  0.00000000000E+00 -0.59352966351E+03  0.59352966353E+03  0.50400001928E-02 0. -1.
    10030    2    1    2    0    0  0.00000000000E+00  0.00000000000E+00  0.43474684107E+03  0.16218061681E+04  0.15624501372E+04 0.  0.
        2    1    3    3  502    0  0.13271767163E+03 -0.49605543901E+03  0.82849042676E+03  0.97472117355E+03  0.25500000920E-02 0.  1.
       -2    1    3    3    0  502 -0.13271767163E+03  0.49605543901E+03 -0.39374358569E+03  0.64708499458E+03  0.25500000920E-02 0. -1.
</event>
<event>
 5   0  0.1414751E-03  0.1636696E+04  0.7818609E-02  0.8798316E-01
       -2   -1    0    0    0  501  0.00000000000E+00  0.00000000000E+00  0.69743295352E+03  0.69743295352E+03  0.25500000920E-02 0.  1.
        2   -1    0    0  501    0  0.00000000000E+00  0.00000000000E+00 -0.96022669516E+03  0.96022669516E+03  0.25500000920E-02 0. -1.
    10030    2    1    2    0    0  0.00000000000E+00  0.00000000000E+00 -0.26279374164E+03  0.16576596487E+04  0.16366963555E+04 0.  0.
        2    1    3    3  502    0 -0.37845218964E+03  0.42774699152E+03 -0.72499256530E+03  0.92293432504E+03  0.25500000920E-02 0. -1.
       -2    1    3    3    0  502  0.37845218964E+03 -0.42774699152E+03  0.46219882366E+03  0.73472532364E+03  0.25500000920E-02 0.  1.
</event>
<event>
 5   0  0.7302027E-04  0.1620432E+04  0.7818609E-02  0.8808093E-01
        1   -1    0    0  501    0  0.00000000000E+00  0.00000000000E+00  0.61801034735E+03  0.61801034737E+03  0.50400001928E-02 0.  1.
       -1   -1    0    0    0  501  0.00000000000E+00  0.00000000000E+00 -0.10621995901E+04  0.10621995901E+04  0.50400001928E-02 0. -1.
    10030    2    1    2    0    0  0.00000000000E+00  0.00000000000E+00 -0.44418924274E+03  0.16802099375E+04  0.16204324579E+04 0.  0.
        5    1    3    3  502    0 -0.33441979600E+03  0.64196923164E+03 -0.59948143133E+03  0.93987295462E+03  0.46999998093E+01 0.  1.
       -5    1    3    3    0  502  0.33441979600E+03 -0.64196923164E+03  0.15529218859E+03  0.74033698284E+03  0.46999998093E+01 0. -1.
</event>
</LesHouchesEvents>
