<LesHouchesEvents version="3.0">
<header>
<!--
#*********************************************************************
#                                                                    *
#                        MadGraph5_aMC@NLO                           *
#                                                                    *
#                           Going Beyond                             *
#                                                                    *
#                   http://madgraph.hep.uiuc.edu                     *
#                   http://madgraph.phys.ucl.ac.be                   *
#                   http://amcatnlo.cern.ch                          *
#                                                                    *
#                     The MadGraph5_aMC@NLO team                     *
#                                                                    *
#....................................................................*
#                                                                    *
# This file contains all the information necessary to reproduce      *
# the events generated:                                              *
#                                                                    *
# 1. software version                                                *
# 2. proc_card          : code generation info including model       *
# 3. param_card         : model primary parameters in the LH format  *
# 4. run_card           : running parameters (collider and cuts)     *
# 5. pythia_card        : present only if pythia has been run        *
# 6. pgs_card           : present only if pgs has been run           *
# 7. delphes_cards      : present only if delphes has been run       *
#                                                                    *
#                                                                    *
#*********************************************************************
-->
<MGVersion>
#5.2.2.3
</MGVersion>
<MG5ProcCard>
#************************************************************
#*                     MadGraph5_aMC@NLO                    *
#*                                                          *
#*                *                       *                 *
#*                  *        * *        *                   *
#*                    * * * * 5 * * * *                     *
#*                  *        * *        *                   *
#*                *                       *                 *
#*                                                          *
#*                                                          *
#*         VERSION 2.2.3                 2015-02-10         *
#*                                                          *
#*    The MadGraph5_aMC@NLO Development Team - Find us at   *
#*    https://server06.fynu.ucl.ac.be/projects/madgraph     *
#*                                                          *
#************************************************************
#*                                                          *
#*               Command File for MadGraph5_aMC@NLO         *
#*                                                          *
#*     run as ./bin/mg5_aMC  filename                       *
#*                                                          *
#************************************************************
set group_subprocesses Auto
set ignore_six_quark_processes False
set loop_optimized_output True
set gauge unitary
set complex_mass_scheme False
import model sm
define p = g u c d s u~ c~ d~ s~
define j = g u c d s u~ c~ d~ s~
define l+ = e+ mu+
define l- = e- mu-
define vl = ve vm vt
define vl~ = ve~ vm~ vt~
import model Zprime_UFO
generate p p > zph, zph > j j
add process p p > zph, zph > b b~
output Dijet_signal
</MG5ProcCard>
<MGProcCard>
#*********************************************************************
#                        MadGraph/MadEvent                           *
#                   http://madgraph.hep.uiuc.edu                     *
#                                                                    *
#                          proc_card.dat                             *
#*********************************************************************
#                                                                    *
#            This Files is generated by MADGRAPH 5                   *
#                                                                    *
# WARNING: This Files is generated for MADEVENT (compatibility issue)*
#          This files is NOT a valid MG4 proc_card.dat               *
#          Running this in MG4 will NEVER reproduce the result of MG5*
#                                                                    *
#*********************************************************************
#*********************************************************************
# Process(es) requested : mg2 input                                  *
#*********************************************************************
# Begin PROCESS # This is TAG. Do not modify this line
p p > zph , zph > j j           #Process
# Be carefull the coupling are here in MG5 convention
          
end_coup           # End the couplings input

done               # this tells MG there are no more procs
# End PROCESS  # This is TAG. Do not modify this line
#*********************************************************************
# Model information                                                  *
#*********************************************************************
# Begin MODEL  # This is TAG. Do not modify this line
Zprime_UFO
# End   MODEL  # This is TAG. Do not modify this line
#*********************************************************************
# Start multiparticle definitions                                    *
#*********************************************************************
# Begin MULTIPARTICLES # This is TAG. Do not modify this line

# End  MULTIPARTICLES # This is TAG. Do not modify this line
</MGProcCard>
<MGRunCard>
#*********************************************************************
#                       MadGraph5_aMC@NLO                            *
#                                                                    *
#                     run_card.dat MadEvent                          *
#                                                                    *
#  This file is used to set the parameters of the run.               *
#                                                                    *
#  Some notation/conventions:                                        *
#                                                                    *
#   Lines starting with a '# ' are info or comments                  *
#                                                                    *
#   mind the format:   value    = variable     ! comment             *
#*********************************************************************
#
#*******************                                                 
# Running parameters
#*******************                                                 
#                                                                    
#*********************************************************************
# Tag name for the run (one word)                                    *
#*********************************************************************
  tag_1     = run_tag ! name of the run 
#*********************************************************************
# Run to generate the grid pack                                      *
#*********************************************************************
  .false.     = gridpack  !True = setting up the grid pack
#*********************************************************************
# Number of events and rnd seed                                      *
# Warning: Do not generate more than 1M events in a single run       *
# If you want to run Pythia, avoid more than 50k events in a run.    *
#*********************************************************************
  2000 = nevents ! Number of unweighted events requested 
 1407 = iseed   ! rnd seed (0=assigned automatically=default))
#*********************************************************************
# Collider type and energy                                           *
# lpp: 0=No PDF, 1=proton, -1=antiproton, 2=photon from proton,      *
#                                         3=photon from electron     *
#*********************************************************************
        1     = lpp1    ! beam 1 type 
        1     = lpp2    ! beam 2 type
     4000     = ebeam1  ! beam 1 total energy in GeV
     4000     = ebeam2  ! beam 2 total energy in GeV
#*********************************************************************
# Beam polarization from -100 (left-handed) to 100 (right-handed)    *
#*********************************************************************
        0     = polbeam1 ! beam polarization for beam 1
        0     = polbeam2 ! beam polarization for beam 2
#*********************************************************************
# PDF CHOICE: this automatically fixes also alpha_s and its evol.    *
#*********************************************************************
 'nn23lo1'    = pdlabel     ! PDF set                                     
 230000    = lhaid     ! if pdlabel=lhapdf, this is the lhapdf number
#*********************************************************************
# Renormalization and factorization scales                           *
#*********************************************************************
 F        = fixed_ren_scale  ! if .true. use fixed ren scale
 F        = fixed_fac_scale  ! if .true. use fixed fac scale
 91.1880  = scale            ! fixed ren scale
 91.1880  = dsqrt_q2fact1    ! fixed fact scale for pdf1
 91.1880  = dsqrt_q2fact2    ! fixed fact scale for pdf2
 1        = scalefact        ! scale factor for event-by-event scales
#*********************************************************************
# Matching - Warning! ickkw > 1 is still beta
#*********************************************************************
 0        = ickkw            ! 0 no matching, 1 MLM, 2 CKKW matching
 1        = highestmult      ! for ickkw=2, highest mult group
 1        = ktscheme         ! for ickkw=1, 1 Durham kT, 2 Pythia pTE
 1        = alpsfact         ! scale factor for QCD emission vx
 F        = chcluster        ! cluster only according to channel diag
 T        = pdfwgt           ! for ickkw=1, perform pdf reweighting
 5        = asrwgtflavor     ! highest quark flavor for a_s reweight
 T        = clusinfo         ! include clustering tag in output
 3.0      = lhe_version       ! Change the way clustering information pass to shower.        
#*********************************************************************
#**********************************************************
#
#**********************************************************
# Automatic ptj and mjj cuts if xqcut > 0
# (turn off for VBF and single top processes)
#**********************************************************
   T  = auto_ptj_mjj  ! Automatic setting of ptj and mjj
#**********************************************************
#                                                                    
#**********************************
# BW cutoff (M+/-bwcutoff*Gamma)
#**********************************
  15  = bwcutoff      ! (M+/-bwcutoff*Gamma)
#**********************************************************
# Apply pt/E/eta/dr/mij cuts on decay products or not
# (note that etmiss/ptll/ptheavy/ht/sorted cuts always apply)
#**********************************************************
   T  = cut_decays    ! Cut decay products 
#*************************************************************
# Number of helicities to sum per event (0 = all helicities)
# 0 gives more stable result, but longer run time (needed for
# long decay chains e.g.).
# Use >=2 if most helicities contribute, e.g. pure QCD.
#*************************************************************
   0  = nhel          ! Number of helicities used per event
#*******************                                                 
# Standard Cuts
#*******************                                                 
#                                                                    
#*********************************************************************
# Minimum and maximum pt's (for max, -1 means no cut)                *
#*********************************************************************
 20  = ptj       ! minimum pt for the jets 
  0  = ptb       ! minimum pt for the b 
 10  = pta       ! minimum pt for the photons 
 10  = ptl       ! minimum pt for the charged leptons 
  0  = misset    ! minimum missing Et (sum of neutrino's momenta)
  0  = ptheavy   ! minimum pt for one heavy final state
 1.0 = ptonium   ! minimum pt for the quarkonium states
 -1  = ptjmax    ! maximum pt for the jets
 -1  = ptbmax    ! maximum pt for the b
 -1  = ptamax    ! maximum pt for the photons
 -1  = ptlmax    ! maximum pt for the charged leptons
 -1  = missetmax ! maximum missing Et (sum of neutrino's momenta)
#*********************************************************************
# Minimum and maximum E's (in the center of mass frame)              *
#*********************************************************************
  0  = ej     ! minimum E for the jets 
  0  = eb     ! minimum E for the b 
  0  = ea     ! minimum E for the photons 
  0  = el     ! minimum E for the charged leptons 
 -1   = ejmax ! maximum E for the jets
 -1   = ebmax ! maximum E for the b
 -1   = eamax ! maximum E for the photons
 -1   = elmax ! maximum E for the charged leptons
#*********************************************************************
# Maximum and minimum absolute rapidity (for max, -1 means no cut)   *
#*********************************************************************
   5  = etaj    ! max rap for the jets 
  -1  = etab    ! max rap for the b
 2.5  = etaa    ! max rap for the photons 
 2.5  = etal    ! max rap for the charged leptons 
 0.6  = etaonium ! max rap for the quarkonium states
   0  = etajmin ! min rap for the jets
   0  = etabmin ! min rap for the b
   0  = etaamin ! min rap for the photons
   0  = etalmin ! main rap for the charged leptons
#*********************************************************************
# Minimum and maximum DeltaR distance                                *
#*********************************************************************
 0.4 = drjj    ! min distance between jets 
 0   = drbb    ! min distance between b's 
 0.4 = drll    ! min distance between leptons 
 0.4 = draa    ! min distance between gammas 
 0   = drbj    ! min distance between b and jet 
 0.4 = draj    ! min distance between gamma and jet 
 0.4 = drjl    ! min distance between jet and lepton 
 0   = drab    ! min distance between gamma and b 
 0   = drbl    ! min distance between b and lepton 
 0.4 = dral    ! min distance between gamma and lepton 
 -1  = drjjmax ! max distance between jets
 -1  = drbbmax ! max distance between b's
 -1  = drllmax ! max distance between leptons
 -1  = draamax ! max distance between gammas
 -1  = drbjmax ! max distance between b and jet
 -1  = drajmax ! max distance between gamma and jet
 -1  = drjlmax ! max distance between jet and lepton
 -1  = drabmax ! max distance between gamma and b
 -1  = drblmax ! max distance between b and lepton
 -1  = dralmax ! maxdistance between gamma and lepton
#*********************************************************************
# Minimum and maximum invariant mass for pairs                       *
# WARNING: for four lepton final state mmll cut require to have      *
#          different lepton masses for each flavor!                  *           
#*********************************************************************
 0   = mmjj    ! min invariant mass of a jet pair 
 0   = mmbb    ! min invariant mass of a b pair 
 0   = mmaa    ! min invariant mass of gamma gamma pair
 0   = mmll    ! min invariant mass of l+l- (same flavour) lepton pair
 -1  = mmjjmax ! max invariant mass of a jet pair
 -1  = mmbbmax ! max invariant mass of a b pair
 -1  = mmaamax ! max invariant mass of gamma gamma pair
 -1  = mmllmax ! max invariant mass of l+l- (same flavour) lepton pair
#*********************************************************************
# Minimum and maximum invariant mass for all letpons                 *
#*********************************************************************
 0   = mmnl    ! min invariant mass for all letpons (l+- and vl) 
 -1  = mmnlmax ! max invariant mass for all letpons (l+- and vl) 
#*********************************************************************
# Minimum and maximum pt for 4-momenta sum of leptons                *
#*********************************************************************
 0   = ptllmin  ! Minimum pt for 4-momenta sum of leptons(l and vl)
 -1  = ptllmax  ! Maximum pt for 4-momenta sum of leptons(l and vl)
#*********************************************************************
# Inclusive cuts                                                     *
#*********************************************************************
 0  = xptj ! minimum pt for at least one jet  
 0  = xptb ! minimum pt for at least one b 
 0  = xpta ! minimum pt for at least one photon 
 0  = xptl ! minimum pt for at least one charged lepton 
#*********************************************************************
# Control the pt's of the jets sorted by pt                          *
#*********************************************************************
 0   = ptj1min ! minimum pt for the leading jet in pt
 0   = ptj2min ! minimum pt for the second jet in pt
 0   = ptj3min ! minimum pt for the third jet in pt
 0   = ptj4min ! minimum pt for the fourth jet in pt
 -1  = ptj1max ! maximum pt for the leading jet in pt 
 -1  = ptj2max ! maximum pt for the second jet in pt
 -1  = ptj3max ! maximum pt for the third jet in pt
 -1  = ptj4max ! maximum pt for the fourth jet in pt
 0   = cutuse  ! reject event if fails any (0) / all (1) jet pt cuts
#*********************************************************************
# Control the pt's of leptons sorted by pt                           *
#*********************************************************************
 0   = ptl1min ! minimum pt for the leading lepton in pt
 0   = ptl2min ! minimum pt for the second lepton in pt
 0   = ptl3min ! minimum pt for the third lepton in pt
 0   = ptl4min ! minimum pt for the fourth lepton in pt
 -1  = ptl1max ! maximum pt for the leading lepton in pt 
 -1  = ptl2max ! maximum pt for the second lepton in pt
 -1  = ptl3max ! maximum pt for the third lepton in pt
 -1  = ptl4max ! maximum pt for the fourth lepton in pt
#*********************************************************************
# Control the Ht(k)=Sum of k leading jets                            *
#*********************************************************************
 0   = htjmin ! minimum jet HT=Sum(jet pt)
 -1  = htjmax ! maximum jet HT=Sum(jet pt)
 0   = ihtmin  !inclusive Ht for all partons (including b)
 -1  = ihtmax  !inclusive Ht for all partons (including b)
 0   = ht2min ! minimum Ht for the two leading jets
 0   = ht3min ! minimum Ht for the three leading jets
 0   = ht4min ! minimum Ht for the four leading jets
 -1  = ht2max ! maximum Ht for the two leading jets
 -1  = ht3max ! maximum Ht for the three leading jets
 -1  = ht4max ! maximum Ht for the four leading jets
#***********************************************************************
# Photon-isolation cuts, according to hep-ph/9801442                   *
# When ptgmin=0, all the other parameters are ignored                  *
# When ptgmin>0, pta and draj are not going to be used                 *
#***********************************************************************
   0 = ptgmin ! Min photon transverse momentum
 0.4 = R0gamma ! Radius of isolation code
 1.0 = xn ! n parameter of eq.(3.4) in hep-ph/9801442
 1.0 = epsgamma ! epsilon_gamma parameter of eq.(3.4) in hep-ph/9801442
 .true. = isoEM ! isolate photons from EM energy (photons and leptons)
#*********************************************************************
# WBF cuts                                                           *
#*********************************************************************
 0   = xetamin ! minimum rapidity for two jets in the WBF case  
 0   = deltaeta ! minimum rapidity for two jets in the WBF case 
#*********************************************************************
# KT DURHAM CUT                                                      *
#*********************************************************************
 -1    =  ktdurham        
 0.4  =  dparameter 
#*********************************************************************
# maximal pdg code for quark to be considered as a light jet         *
# (otherwise b cuts are applied)                                     *
#*********************************************************************
 4 = maxjetflavor    ! Maximum jet pdg code
#*********************************************************************
# Jet measure cuts                                                   *
#*********************************************************************
 0   = xqcut   ! minimum kt jet measure between partons
#*********************************************************************
#
#*********************************************************************
# Store info for systematics studies                                 *
# WARNING: If use_syst is T, matched Pythia output is                *
#          meaningful ONLY if plotted taking matchscale              *
#          reweighting into account!                                 *
#*********************************************************************
   F  = use_syst      ! Enable systematics studies
#
#**************************************
# Parameter of the systematics study
#  will be used by SysCalc (if installed)
#**************************************                                  
#
0.5 1 2 = sys_scalefact  # factorization/renormalization scale factor
0.5 1 2 = sys_alpsfact  # \alpha_s emission scale factors
30 50 = sys_matchscale # variation of merging scale
# PDF sets and number of members (0 or none for all members).
CT10nlo.LHgrid = sys_pdf # matching scales
# MSTW2008nlo68cl.LHgrid 1  = sys_pdf
</MGRunCard>
<slha>
######################################################################
## PARAM_CARD AUTOMATICALY GENERATED BY MG5 FOLLOWING UFO MODEL   ####
######################################################################
##                                                                  ##
##  Width set on Auto will be computed following the information    ##
##        present in the decay.py files of the model.               ##
##        See  arXiv:1402.1178 for more details.                    ##
##                                                                  ##
######################################################################

###################################
## INFORMATION FOR CKMBLOCK
###################################
Block ckmblock 
    1 2.277360e-01 # cabi 

###################################
## INFORMATION FOR FRBLOCK
###################################
Block frblock 
    1 6.000000e-01 # gz 

###################################
## INFORMATION FOR MASS
###################################
Block mass 
    1 5.040000e-03 # MD 
    2 2.550000e-03 # MU 
    3 1.010000e-01 # MS 
    4 1.270000e+00 # MC 
    5 4.700000e+00 # MB 
    6 1.720000e+02 # MT 
   11 5.110000e-04 # Me 
   13 1.056600e-01 # MM 
   15 1.777000e+00 # MTA 
   23 9.118760e+01 # MZ 
   25 1.200000e+02 # MH 
  10030 3.400000e+03 # MZph 
  10031 3.000000e+02 # MZpl 
## Dependent parameters, given by model restrictions.
## Those values should be edited following the 
## analytical expression. MG5 ignores those values 
## but they are important for interfacing the output of MG5
## to external program such as Pythia.
  12 0.000000 # ve : 0.0 
  14 0.000000 # vm : 0.0 
  16 0.000000 # vt : 0.0 
  21 0.000000 # g : 0.0 
  22 0.000000 # a : 0.0 
  24 79.824360 # w+ : cmath.sqrt(MZ__exp__2/2. + cmath.sqrt(MZ__exp__4/4. - (aEW*cmath.pi*MZ__exp__2)/(Gf*sqrt__2))) 

###################################
## INFORMATION FOR SMINPUTS
###################################
Block sminputs 
    1 1.279000e+02 # aEWM1 
    2 1.166370e-05 # Gf 
    3 1.184000e-01 # aS 

###################################
## INFORMATION FOR YUKAWA
###################################
Block yukawa 
    1 5.040000e-03 # ymdo 
    2 2.550000e-03 # ymup 
    3 1.010000e-01 # yms 
    4 1.270000e+00 # ymc 
    5 4.700000e+00 # ymb 
    6 1.720000e+02 # ymt 
   11 5.110000e-04 # yme 
   13 1.056600e-01 # ymm 
   15 1.777000e+00 # ymtau 

###################################
## INFORMATION FOR DECAY
###################################
DECAY   6 1.508336e+00 # WT 
DECAY  23 2.495200e+00 # WZ 
DECAY  24 2.085000e+00 # WW 
DECAY  25 5.753088e-03 # WH 
## Dependent parameters, given by model restrictions.
## Those values should be edited following the 
## analytical expression. MG5 ignores those values 
## but they are important for interfacing the output of MG5
## to external program such as Pythia.
DECAY  1 0.000000 # d : 0.0 
DECAY  2 0.000000 # u : 0.0 
DECAY  3 0.000000 # s : 0.0 
DECAY  4 0.000000 # c : 0.0 
DECAY  5 0.000000 # b : 0.0 
DECAY  11 0.000000 # e- : 0.0 
DECAY  12 0.000000 # ve : 0.0 
DECAY  13 0.000000 # mu- : 0.0 
DECAY  14 0.000000 # vm : 0.0 
DECAY  15 0.000000 # ta- : 0.0 
DECAY  16 0.000000 # vt : 0.0 
DECAY  21 0.000000 # g : 0.0 
DECAY  22 0.000000 # a : 0.0 
DECAY  10030 0.308725 # zph : (gz__exp__2*MZph*(5 + cmath.sqrt(1 - (4*MT__exp__2)/MZph__exp__2)))/(144.*cmath.pi) 
DECAY  10031 0.132629 # zpl : (5*gz__exp__2*MZpl)/(144.*cmath.pi) 
#===========================================================
# QUANTUM NUMBERS OF NEW STATE(S) (NON SM PDG CODE)
#===========================================================

Block QNUMBERS 10030  # zph 
        1 0  # 3 times electric charge
        2 3  # number of spin states (2S+1)
        3 1  # colour rep (1: singlet, 3: triplet, 8: octet)
        4 0  # Particle/Antiparticle distinction (0=own anti)
Block QNUMBERS 10031  # zpl 
        1 0  # 3 times electric charge
        2 3  # number of spin states (2S+1)
        3 1  # colour rep (1: singlet, 3: triplet, 8: octet)
        4 0  # Particle/Antiparticle distinction (0=own anti)
</slha>
## END BANNER##
<MGGenerationInfo>
#  Number of Events        :         3884
#  Integrated weight (pb)  :  0.11375E-03
#  Max wgt                 :  0.45217E-07
#  Average wgt             :  0.29287E-07
</MGGenerationInfo>
</header>
<init>
     2212     2212  0.40000000000E+04  0.40000000000E+04 0 0  247000  247000 2   1
  0.11379383165E-03  0.23200936647E-06  0.45217370000E-07   0
</init>
<event>
 5   0  0.4486226E-07  0.3415514E+04  0.7818609E-02  0.8134109E-01
       -2   -1    0    0    0  501  0.00000000000E+00  0.00000000000E+00  0.20627512658E+04  0.20627512658E+04  0.25500000920E-02 0.  1.
        2   -1    0    0  501    0  0.00000000000E+00  0.00000000000E+00 -0.14138564218E+04  0.14138564218E+04  0.25500000920E-02 0. -1.
    10030    2    1    2    0    0  0.00000000000E+00  0.00000000000E+00  0.64889484401E+03  0.34766076877E+04  0.34155140895E+04 0.  0.
        1    1    3    3  502    0 -0.10628788071E+04 -0.11108977206E+04 -0.43223988400E+03  0.15970712011E+04  0.50400001928E-02 0. -1.
       -1    1    3    3    0  502  0.10628788071E+04  0.11108977206E+04  0.10811347280E+04  0.18795364865E+04  0.50400001928E-02 0.  1.
</event>
<event>
 5   0  0.4486226E-07  0.3388534E+04  0.7818609E-02  0.8140726E-01
        2   -1    0    0  501    0  0.00000000000E+00  0.00000000000E+00  0.21207045675E+04  0.21207045675E+04  0.25500000920E-02 0.  1.
       -2   -1    0    0    0  501  0.00000000000E+00  0.00000000000E+00 -0.13535783786E+04  0.13535783786E+04  0.25500000920E-02 0. -1.
    10030    2    1    2    0    0  0.00000000000E+00  0.00000000000E+00  0.76712618893E+03  0.34742829462E+04  0.33885335177E+04 0.  0.
        1    1    3    3  502    0 -0.16245528778E+04 -0.31062901788E+02  0.87571295139E+03  0.18458088010E+04  0.50400001928E-02 0.  1.
       -1    1    3    3    0  502  0.16245528778E+04  0.31062901788E+02 -0.10858676247E+03  0.16284741452E+04  0.50400001928E-02 0. -1.
</event>
<event>
 5   0  0.4381939E-07  0.3357553E+04  0.7818609E-02  0.8148403E-01
        2   -1    0    0  501    0  0.00000000000E+00  0.00000000000E+00  0.29373975746E+04  0.29373975746E+04  0.25500000920E-02 0. -1.
       -2   -1    0    0    0  501  0.00000000000E+00  0.00000000000E+00 -0.95945157119E+03  0.95945157119E+03  0.25500000920E-02 0.  1.
    10030    2    1    2    0    0  0.00000000000E+00  0.00000000000E+00  0.19779460034E+04  0.38968491458E+04  0.33575531079E+04 0.  0.
        3    1    3    3  502    0 -0.82814802402E+03  0.29715094253E+03  0.26483629358E+04  0.27906906102E+04  0.10100000352E+00 0. -1.
       -3    1    3    3    0  502  0.82814802402E+03 -0.29715094253E+03 -0.67041693237E+03  0.11061585355E+04  0.10100000352E+00 0.  1.
</event>
<event>
 5   0  0.4486226E-07  0.3357369E+04  0.7818609E-02  0.8148449E-01
       -2   -1    0    0    0  501  0.00000000000E+00  0.00000000000E+00  0.12858501152E+04  0.12858501152E+04  0.25500000920E-02 0.  1.
        2   -1    0    0  501    0  0.00000000000E+00  0.00000000000E+00 -0.21915323193E+04  0.21915323193E+04  0.25500000920E-02 0. -1.
    10030    2    1    2    0    0  0.00000000000E+00  0.00000000000E+00 -0.90568220408E+03  0.34773824345E+04  0.33573692589E+04 0.  0.
        1    1    3    3  502    0  0.38013474426E+03 -0.15180164338E+04  0.17641692236E+03  0.15748013359E+04  0.50400001928E-02 0.  1.
       -1    1    3    3    0  502 -0.38013474426E+03  0.15180164338E+04 -0.10820991264E+04  0.19025810986E+04  0.50400001928E-02 0. -1.
</event>
<event>
 5   0  0.4381939E-07  0.3398008E+04  0.7818609E-02  0.8138395E-01
       -2   -1    0    0    0  501  0.00000000000E+00  0.00000000000E+00  0.17596966256E+04  0.17596966256E+04  0.25500000920E-02 0.  1.
        2   -1    0    0  501    0  0.00000000000E+00  0.00000000000E+00 -0.16404048539E+04  0.16404048539E+04  0.25500000920E-02 0. -1.
    10030    2    1    2    0    0  0.00000000000E+00  0.00000000000E+00  0.11929177167E+03  0.34001014795E+04  0.33980081730E+04 0.  0.
        3    1    3    3  502    0  0.55738924775E+03  0.13747450789E+04 -0.76912039387E+03  0.16709736671E+04  0.10100000352E+00 0. -1.
       -3    1    3    3    0  502 -0.55738924775E+03 -0.13747450789E+04  0.88841216554E+03  0.17291278124E+04  0.10100000352E+00 0.  1.
</event>
<event>
 5   0  0.1473755E-07  0.3156785E+04  0.7818609E-02  0.8200324E-01
        1   -1    0    0  501    0  0.00000000000E+00  0.00000000000E+00  0.11896459890E+04  0.11896459890E+04  0.50400001928E-02 0.  1.
       -1   -1    0    0    0  501  0.00000000000E+00  0.00000000000E+00 -0.20941715918E+04  0.20941715918E+04  0.50400001928E-02 0. -1.
    10030    2    1    2    0    0  0.00000000000E+00  0.00000000000E+00 -0.90452560276E+03  0.32838175808E+04  0.31567849686E+04 0.  0.
        1    1    3    3  502    0 -0.32522008717E+03 -0.71676318901E+03 -0.18754576247E+04  0.20339269594E+04  0.50400001928E-02 0. -1.
       -1    1    3    3    0  502  0.32522008717E+03  0.71676318901E+03  0.97093202191E+03  0.12498906214E+04  0.50400001928E-02 0.  1.
</event>
<event>
 5   0  0.1435806E-07  0.3374684E+04  0.7818609E-02  0.8144148E-01
       -1   -1    0    0    0  501  0.00000000000E+00  0.00000000000E+00  0.93634424148E+03  0.93634424150E+03  0.50400001928E-02 0. -1.
        1   -1    0    0  501    0  0.00000000000E+00  0.00000000000E+00 -0.30406803223E+04  0.30406803224E+04  0.50400001928E-02 0.  1.
    10030    2    1    2    0    0  0.00000000000E+00  0.00000000000E+00 -0.21043360809E+04  0.39770245639E+04  0.33746842875E+04 0.  0.
        3    1    3    3  502    0  0.10119262062E+03  0.12567910509E+04  0.26929466485E+03  0.12892956677E+04  0.10100000352E+00 0. -1.
       -3    1    3    3    0  502 -0.10119262062E+03 -0.12567910509E+04 -0.23736307457E+04  0.26877288962E+04  0.10100000352E+00 0.  1.
</event>
<event>
 5   0  0.4486226E-07  0.3401129E+04  0.7818609E-02  0.8137629E-01
       -2   -1    0    0    0  501  0.00000000000E+00  0.00000000000E+00  0.11181115030E+04  0.11181115030E+04  0.25500000920E-02 0. -1.
        2   -1    0    0  501    0  0.00000000000E+00  0.00000000000E+00 -0.25864316088E+04  0.25864316088E+04  0.25500000920E-02 0.  1.
    10030    2    1    2    0    0  0.00000000000E+00  0.00000000000E+00 -0.14683201058E+04  0.37045431118E+04  0.34011285971E+04 0.  0.
        1    1    3    3  502    0  0.13734915334E+04 -0.73403751656E+03 -0.14782019658E+04  0.21471774774E+04  0.50400001928E-02 0.  1.
       -1    1    3    3    0  502 -0.13734915334E+04  0.73403751656E+03  0.98818600114E+01  0.15573656344E+04  0.50400001928E-02 0. -1.
</event>
<event>
 5   0  0.1520084E-07  0.3404628E+04  0.7818609E-02  0.8136772E-01
        1   -1    0    0  501    0  0.00000000000E+00  0.00000000000E+00  0.22452810421E+04  0.22452810421E+04  0.50400001928E-02 0.  1.
       -1   -1    0    0    0  501  0.00000000000E+00  0.00000000000E+00 -0.12906500629E+04  0.12906500630E+04  0.50400001928E-02 0. -1.
    10030    2    1    2    0    0  0.00000000000E+00  0.00000000000E+00  0.95463097916E+03  0.35359311051E+04  0.34046275087E+04 0.  0.
        2    1    3    3  502    0  0.38871929135E+03 -0.73508275522E+02 -0.12422459548E+04  0.13037182082E+04  0.25500000920E-02 0. -1.
       -2    1    3    3    0  502 -0.38871929135E+03  0.73508275522E+02  0.21968769340E+04  0.22322128969E+04  0.25500000920E-02 0.  1.
</event>
<event>
 5   0  0.4486226E-07  0.3384244E+04  0.7818609E-02  0.8141784E-01
        2   -1    0    0  501    0  0.00000000000E+00  0.00000000000E+00  0.19310909644E+04  0.19310909644E+04  0.25500000920E-02 0.  1.
       -2   -1    0    0    0  501  0.00000000000E+00  0.00000000000E+00 -0.14827248996E+04  0.14827248996E+04  0.25500000920E-02 0. -1.
    10030    2    1    2    0    0  0.00000000000E+00  0.00000000000E+00  0.44836606486E+03  0.34138158640E+04  0.33842438779E+04 0.  0.
        1    1    3    3  502    0  0.97530050420E+03 -0.13827046507E+04  0.23821253806E+03  0.17087505487E+04  0.50400001928E-02 0.  1.
       -1    1    3    3    0  502 -0.97530050420E+03  0.13827046507E+04  0.21015352680E+03  0.17050653153E+04  0.50400001928E-02 0. -1.
</event>
<event>
 5   0  0.1520084E-07  0.3403396E+04  0.7818609E-02  0.8137073E-01
        1   -1    0    0  501    0  0.00000000000E+00  0.00000000000E+00  0.16776060109E+04  0.16776060109E+04  0.50400001928E-02 0.  1.
       -1   -1    0    0    0  501  0.00000000000E+00  0.00000000000E+00 -0.17261355876E+04  0.17261355876E+04  0.50400001928E-02 0. -1.
    10030    2    1    2    0    0  0.00000000000E+00  0.00000000000E+00 -0.48529576671E+02  0.34037415985E+04  0.34033956205E+04 0.  0.
        2    1    3    3  502    0  0.14605154366E+04 -0.62567482029E+03 -0.63358948838E+03  0.17105583770E+04  0.25500000920E-02 0.  1.
       -2    1    3    3    0  502 -0.14605154366E+04  0.62567482029E+03  0.58505991171E+03  0.16931832215E+04  0.25500000920E-02 0. -1.
</event>
<event>
 5   0  0.4447909E-07  0.3410945E+04  0.7818609E-02  0.8135225E-01
       -2   -1    0    0    0  501  0.00000000000E+00  0.00000000000E+00  0.13270929147E+04  0.13270929147E+04  0.25500000920E-02 0.  1.
        2   -1    0    0  501    0  0.00000000000E+00  0.00000000000E+00 -0.21917347298E+04  0.21917347298E+04  0.25500000920E-02 0. -1.
    10030    2    1    2    0    0  0.00000000000E+00  0.00000000000E+00 -0.86464181506E+03  0.35188276445E+04  0.34109445208E+04 0.  0.
        5    1    3    3  502    0  0.52051857865E+02  0.12375600189E+04  0.77708450919E+03  0.14622402746E+04  0.46999998093E+01 0.  1.
       -5    1    3    3    0  502 -0.52051857865E+02 -0.12375600189E+04 -0.16417263243E+04  0.20565873699E+04  0.46999998093E+01 0. -1.
</event>
<event>
 5   0  0.1421875E-07  0.3400344E+04  0.7818609E-02  0.8137822E-01
       -1   -1    0    0    0  501  0.00000000000E+00  0.00000000000E+00  0.18757102523E+04  0.18757102523E+04  0.50400001928E-02 0.  1.
        1   -1    0    0  501    0  0.00000000000E+00  0.00000000000E+00 -0.15410613152E+04  0.15410613152E+04  0.50400001928E-02 0. -1.
    10030    2    1    2    0    0  0.00000000000E+00  0.00000000000E+00  0.33464893711E+03  0.34167715675E+04  0.34003438111E+04 0.  0.
        5    1    3    3  502    0  0.10371065817E+04 -0.27674424256E+03  0.14921725891E+04  0.18381454141E+04  0.46999998093E+01 0.  1.
       -5    1    3    3    0  502 -0.10371065817E+04  0.27674424256E+03 -0.11575236520E+04  0.15786261535E+04  0.46999998093E+01 0. -1.
</event>
<event>
 5   0  0.1473755E-07  0.3400621E+04  0.7818609E-02  0.8137754E-01
        1   -1    0    0  501    0  0.00000000000E+00  0.00000000000E+00  0.13982400487E+04  0.13982400488E+04  0.50400001928E-02 0. -1.
       -1   -1    0    0    0  501  0.00000000000E+00  0.00000000000E+00 -0.20676395193E+04  0.20676395193E+04  0.50400001928E-02 0.  1.
    10030    2    1    2    0    0  0.00000000000E+00  0.00000000000E+00 -0.66939947057E+03  0.34658795681E+04  0.34006213446E+04 0.  0.
        1    1    3    3  502    0 -0.16840948405E+02  0.15536652699E+04 -0.10385292647E+04  0.18688773159E+04  0.50400001928E-02 0.  1.
       -1    1    3    3    0  502  0.16840948405E+02 -0.15536652699E+04  0.36912979411E+03  0.15970022521E+04  0.50400001928E-02 0. -1.
</event>
<event>
 5   0  0.1435806E-07  0.3399712E+04  0.7818609E-02  0.8137977E-01
       -1   -1    0    0    0  501  0.00000000000E+00  0.00000000000E+00  0.13859099775E+04  0.13859099775E+04  0.50400001928E-02 0. -1.
        1   -1    0    0  501    0  0.00000000000E+00  0.00000000000E+00 -0.20849190552E+04  0.20849190552E+04  0.50400001928E-02 0.  1.
    10030    2    1    2    0    0  0.00000000000E+00  0.00000000000E+00 -0.69900907765E+03  0.34708290327E+04  0.33997118236E+04 0.  0.
        3    1    3    3  502    0 -0.23972807930E+03  0.36048988457E+03  0.13286842996E+04  0.13974349671E+04  0.10100000352E+00 0. -1.
       -3    1    3    3    0  502  0.23972807930E+03 -0.36048988457E+03 -0.20276933773E+04  0.20733940656E+04  0.10100000352E+00 0.  1.
</event>
<event>
 5   0  0.1435806E-07  0.3401447E+04  0.7818609E-02  0.8137551E-01
        1   -1    0    0  501    0  0.00000000000E+00  0.00000000000E+00  0.26323031482E+04  0.26323031482E+04  0.50400001928E-02 0.  1.
       -1   -1    0    0    0  501  0.00000000000E+00  0.00000000000E+00 -0.10988324012E+04  0.10988324013E+04  0.50400001928E-02 0. -1.
    10030    2    1    2    0    0  0.00000000000E+00  0.00000000000E+00  0.15334707469E+04  0.37311355494E+04  0.34014467446E+04 0.  0.
        3    1    3    3  502    0  0.85795765580E+02 -0.11165241059E+04 -0.63736124677E+03  0.12884938345E+04  0.10100000352E+00 0. -1.
       -3    1    3    3    0  502 -0.85795765580E+02  0.11165241059E+04  0.21708319937E+04  0.24426417149E+04  0.10100000352E+00 0.  1.
</event>
<event>
 5   0  0.4486226E-07  0.3392210E+04  0.7818609E-02  0.8139821E-01
        2   -1    0    0  501    0  0.00000000000E+00  0.00000000000E+00  0.24443894225E+04  0.24443894225E+04  0.25500000920E-02 0.  1.
       -2   -1    0    0    0  501  0.00000000000E+00  0.00000000000E+00 -0.11768875223E+04  0.11768875223E+04  0.25500000920E-02 0. -1.
    10030    2    1    2    0    0  0.00000000000E+00  0.00000000000E+00  0.12675019001E+04  0.36212769448E+04  0.33922095519E+04 0.  0.
        1    1    3    3  502    0  0.16868637333E+04 -0.14075327885E+03  0.74798472487E+03  0.18506220276E+04  0.50400001928E-02 0.  1.
       -1    1    3    3    0  502 -0.16868637333E+04  0.14075327885E+03  0.51951717528E+03  0.17706549172E+04  0.50400001928E-02 0. -1.
</event>
<event>
 5   0  0.1523259E-07  0.3364637E+04  0.7818609E-02  0.8146640E-01
        1   -1    0    0  501    0  0.00000000000E+00  0.00000000000E+00  0.20853687568E+04  0.20853687569E+04  0.50400001928E-02 0.  1.
       -1   -1    0    0    0  501  0.00000000000E+00  0.00000000000E+00 -0.13571682317E+04  0.13571682317E+04  0.50400001928E-02 0. -1.
    10030    2    1    2    0    0  0.00000000000E+00  0.00000000000E+00  0.72820052517E+03  0.34425369885E+04  0.33646374118E+04 0.  0.
        4    1    3    3  502    0  0.10105471931E+04  0.51746770987E+03  0.16343003023E+04  0.19899541581E+04  0.12699999809E+01 0.  1.
       -4    1    3    3    0  502 -0.10105471931E+04 -0.51746770987E+03 -0.90609977717E+03  0.14525828304E+04  0.12699999809E+01 0. -1.
</event>
<event>
 5   0  0.1473755E-07  0.3417756E+04  0.7818609E-02  0.8133562E-01
       -1   -1    0    0    0  501  0.00000000000E+00  0.00000000000E+00  0.10290506807E+04  0.10290506807E+04  0.50400001928E-02 0.  1.
        1   -1    0    0  501    0  0.00000000000E+00  0.00000000000E+00 -0.28378226121E+04  0.28378226121E+04  0.50400001928E-02 0. -1.
    10030    2    1    2    0    0  0.00000000000E+00  0.00000000000E+00 -0.18087719314E+04  0.38668732929E+04  0.34177555740E+04 0.  0.
        1    1    3    3  502    0  0.64053113778E+03  0.89511999702E+03 -0.23833491362E+04  0.26252377135E+04  0.50400001928E-02 0. -1.
       -1    1    3    3    0  502 -0.64053113778E+03 -0.89511999702E+03  0.57457720481E+03  0.12416355793E+04  0.50400001928E-02 0.  1.
</event>
<event>
 5   0  0.4396257E-07  0.3399992E+04  0.7818609E-02  0.8137908E-01
        2   -1    0    0  501    0  0.00000000000E+00  0.00000000000E+00  0.14592632630E+04  0.14592632630E+04  0.25500000920E-02 0. -1.
       -2   -1    0    0    0  501  0.00000000000E+00  0.00000000000E+00 -0.19804424018E+04  0.19804424018E+04  0.25500000920E-02 0.  1.
    10030    2    1    2    0    0  0.00000000000E+00  0.00000000000E+00 -0.52117913878E+03  0.34397056648E+04  0.33999922596E+04 0.  0.
        2    1    3    3  502    0  0.67517678164E+03 -0.85288567243E+03  0.10610806858E+04  0.15195953009E+04  0.25500000920E-02 0. -1.
       -2    1    3    3    0  502 -0.67517678164E+03  0.85288567243E+03 -0.15822598246E+04  0.19201103638E+04  0.25500000920E-02 0.  1.
</event>
<event>
 5   0  0.1435806E-07  0.3395610E+04  0.7818609E-02  0.8138985E-01
       -1   -1    0    0    0  501  0.00000000000E+00  0.00000000000E+00  0.12868579258E+04  0.12868579258E+04  0.50400001928E-02 0. -1.
        1   -1    0    0  501    0  0.00000000000E+00  0.00000000000E+00 -0.22399847243E+04  0.22399847243E+04  0.50400001928E-02 0.  1.
    10030    2    1    2    0    0  0.00000000000E+00  0.00000000000E+00 -0.95312679850E+03  0.35268426500E+04  0.33956101637E+04 0.  0.
        3    1    3    3  502    0  0.37417302614E+03 -0.40221820927E+03  0.11919966017E+04  0.13124941333E+04  0.10100000352E+00 0. -1.
       -3    1    3    3    0  502 -0.37417302614E+03  0.40221820927E+03 -0.21451234002E+04  0.22143485167E+04  0.10100000352E+00 0.  1.
</event>
<event>
 5   0  0.4381939E-07  0.3404434E+04  0.7818609E-02  0.8136819E-01
        2   -1    0    0  501    0  0.00000000000E+00  0.00000000000E+00  0.15787273522E+04  0.15787273522E+04  0.25500000920E-02 0.  1.
       -2   -1    0    0    0  501  0.00000000000E+00  0.00000000000E+00 -0.18353655968E+04  0.18353655968E+04  0.25500000920E-02 0. -1.
    10030    2    1    2    0    0  0.00000000000E+00  0.00000000000E+00 -0.25663824456E+03  0.34140929490E+04  0.34044335029E+04 0.  0.
        3    1    3    3  502    0  0.58958540622E+03 -0.46505111830E+03 -0.16602851120E+04  0.18222047517E+04  0.10100000352E+00 0. -1.
       -3    1    3    3    0  502 -0.58958540622E+03  0.46505111830E+03  0.14036468674E+04  0.15918881972E+04  0.10100000352E+00 0.  1.
</event>
<event>
 5   0  0.1473755E-07  0.3387176E+04  0.7818609E-02  0.8141061E-01
       -1   -1    0    0    0  501  0.00000000000E+00  0.00000000000E+00  0.20811094672E+04  0.20811094673E+04  0.50400001928E-02 0. -1.
        1   -1    0    0  501    0  0.00000000000E+00  0.00000000000E+00 -0.13782266693E+04  0.13782266693E+04  0.50400001928E-02 0.  1.
    10030    2    1    2    0    0  0.00000000000E+00  0.00000000000E+00  0.70288279797E+03  0.34593361365E+04  0.33871761510E+04 0.  0.
        1    1    3    3  502    0 -0.27151909925E+03  0.30569928346E+03 -0.13270633352E+04  0.13886222556E+04  0.50400001928E-02 0.  1.
       -1    1    3    3    0  502  0.27151909925E+03 -0.30569928346E+03  0.20299461332E+04  0.20707138809E+04  0.50400001928E-02 0. -1.
</event>
<event>
 5   0  0.4396257E-07  0.3391104E+04  0.7818609E-02  0.8140093E-01
        2   -1    0    0  501    0  0.00000000000E+00  0.00000000000E+00  0.16378268673E+04  0.16378268673E+04  0.25500000920E-02 0. -1.
       -2   -1    0    0    0  501  0.00000000000E+00  0.00000000000E+00 -0.17553112008E+04  0.17553112008E+04  0.25500000920E-02 0.  1.
    10030    2    1    2    0    0  0.00000000000E+00  0.00000000000E+00 -0.11748433346E+03  0.33931380681E+04  0.33911035639E+04 0.  0.
        2    1    3    3  502    0 -0.14287380364E+04  0.52249651532E+03 -0.80792420771E+03  0.17225087839E+04  0.25500000920E-02 0.  1.
       -2    1    3    3    0  502  0.14287380364E+04 -0.52249651532E+03  0.69043987425E+03  0.16706292842E+04  0.25500000920E-02 0. -1.
</event>
<event>
 5   0  0.1520084E-07  0.3393504E+04  0.7818609E-02  0.8139503E-01
        1   -1    0    0  501    0  0.00000000000E+00  0.00000000000E+00  0.91071854976E+03  0.91071854977E+03  0.50400001928E-02 0. -1.
       -1   -1    0    0    0  501  0.00000000000E+00  0.00000000000E+00 -0.31612037969E+04  0.31612037969E+04  0.50400001928E-02 0.  1.
    10030    2    1    2    0    0  0.00000000000E+00  0.00000000000E+00 -0.22504852472E+04  0.40719223467E+04  0.33935037572E+04 0.  0.
        2    1    3    3  502    0  0.18323409276E+03  0.50658555343E+03  0.80537969696E+03  0.96893762027E+03  0.25500000920E-02 0. -1.
       -2    1    3    3    0  502 -0.18323409276E+03 -0.50658555343E+03 -0.30558649441E+04  0.31029847264E+04  0.25500000920E-02 0.  1.
</event>
<event>
 5   0  0.4381939E-07  0.3398111E+04  0.7818609E-02  0.8138370E-01
       -2   -1    0    0    0  501  0.00000000000E+00  0.00000000000E+00  0.12061860709E+04  0.12061860709E+04  0.25500000920E-02 0. -1.
        2   -1    0    0  501    0  0.00000000000E+00  0.00000000000E+00 -0.23933208346E+04  0.23933208346E+04  0.25500000920E-02 0.  1.
    10030    2    1    2    0    0  0.00000000000E+00  0.00000000000E+00 -0.11871347637E+04  0.35995069055E+04  0.33981113895E+04 0.  0.
        3    1    3    3  502    0  0.95206644956E+03 -0.13087962111E+04 -0.11413345604E+04  0.19804097140E+04  0.10100000352E+00 0. -1.
       -3    1    3    3    0  502 -0.95206644956E+03  0.13087962111E+04 -0.45800203277E+02  0.16190971914E+04  0.10100000352E+00 0.  1.
</event>
<event>
 5   0  0.4447909E-07  0.3416635E+04  0.7818609E-02  0.8133836E-01
        2   -1    0    0  501    0  0.00000000000E+00  0.00000000000E+00  0.22869297738E+04  0.22869297738E+04  0.25500000920E-02 0.  1.
       -2   -1    0    0    0  501  0.00000000000E+00  0.00000000000E+00 -0.12760990919E+04  0.12760990919E+04  0.25500000920E-02 0. -1.
    10030    2    1    2    0    0  0.00000000000E+00  0.00000000000E+00  0.10108306819E+04  0.35630288657E+04  0.34166351913E+04 0.  0.
        5    1    3    3  502    0  0.21644863240E+03 -0.51820346216E+03 -0.11770765630E+04  0.13041917665E+04  0.46999998093E+01 0. -1.
       -5    1    3    3    0  502 -0.21644863240E+03  0.51820346216E+03  0.21879072449E+04  0.22588370992E+04  0.46999998093E+01 0.  1.
</event>
<event>
 5   0  0.1520084E-07  0.3390244E+04  0.7818609E-02  0.8140305E-01
        1   -1    0    0  501    0  0.00000000000E+00  0.00000000000E+00  0.17036858456E+04  0.17036858457E+04  0.50400001928E-02 0.  1.
       -1   -1    0    0    0  501  0.00000000000E+00  0.00000000000E+00 -0.16866007479E+04  0.16866007479E+04  0.50400001928E-02 0. -1.
    10030    2    1    2    0    0  0.00000000000E+00  0.00000000000E+00  0.17085097784E+02  0.33902865935E+04  0.33902435437E+04 0.  0.
        2    1    3    3  502    0 -0.11856302512E+04  0.91061838593E+03  0.80761019272E+03  0.16991701389E+04  0.25500000920E-02 0. -1.
       -2    1    3    3    0  502  0.11856302512E+04 -0.91061838593E+03 -0.79052509493E+03  0.16911164546E+04  0.25500000920E-02 0.  1.
</event>
<event>
 5   0  0.4381939E-07  0.3407551E+04  0.7818609E-02  0.8136056E-01
        2   -1    0    0  501    0  0.00000000000E+00  0.00000000000E+00  0.16316177522E+04  0.16316177522E+04  0.25500000920E-02 0.  1.
       -2   -1    0    0    0  501  0.00000000000E+00  0.00000000000E+00 -0.17791241608E+04  0.17791241608E+04  0.25500000920E-02 0. -1.
    10030    2    1    2    0    0  0.00000000000E+00  0.00000000000E+00 -0.14750640860E+03  0.34107419130E+04  0.34075507709E+04 0.  0.
        3    1    3    3  502    0 -0.15399247414E+04 -0.71488088114E+03  0.69306045503E+02  0.16991839870E+04  0.10100000352E+00 0. -1.
       -3    1    3    3    0  502  0.15399247414E+04  0.71488088114E+03 -0.21681245411E+03  0.17115579260E+04  0.10100000352E+00 0.  1.
</event>
<event>
 5   0  0.4486226E-07  0.3399032E+04  0.7818609E-02  0.8138144E-01
        2   -1    0    0  501    0  0.00000000000E+00  0.00000000000E+00  0.21607675448E+04  0.21607675448E+04  0.25500000920E-02 0.  1.
       -2   -1    0    0    0  501  0.00000000000E+00  0.00000000000E+00 -0.13367262114E+04  0.13367262114E+04  0.25500000920E-02 0. -1.
    10030    2    1    2    0    0  0.00000000000E+00  0.00000000000E+00  0.82404133344E+03  0.34974937561E+04  0.33990319879E+04 0.  0.
        1    1    3    3  502    0 -0.11285110713E+04 -0.44718902693E+03 -0.81190561650E+03  0.14603787160E+04  0.50400001928E-02 0. -1.
       -1    1    3    3    0  502  0.11285110713E+04  0.44718902693E+03  0.16359469499E+04  0.20371150402E+04  0.50400001928E-02 0.  1.
</event>
<event>
 5   0  0.1421875E-07  0.3361447E+04  0.7818609E-02  0.8147434E-01
       -1   -1    0    0    0  501  0.00000000000E+00  0.00000000000E+00  0.20145938445E+04  0.20145938445E+04  0.50400001928E-02 0. -1.
        1   -1    0    0  501    0  0.00000000000E+00  0.00000000000E+00 -0.14021843651E+04  0.14021843651E+04  0.50400001928E-02 0.  1.
    10030    2    1    2    0    0  0.00000000000E+00  0.00000000000E+00  0.61240947938E+03  0.34167782097E+04  0.33614473019E+04 0.  0.
        5    1    3    3  502    0  0.14334532711E+03  0.36273703168E+03 -0.13555398652E+04  0.14105447363E+04  0.46999998093E+01 0.  1.
       -5    1    3    3    0  502 -0.14334532711E+03 -0.36273703168E+03  0.19679493446E+04  0.20062334734E+04  0.46999998093E+01 0. -1.
</event>
<event>
 5   0  0.4381939E-07  0.3406925E+04  0.7818609E-02  0.8136209E-01
        2   -1    0    0  501    0  0.00000000000E+00  0.00000000000E+00  0.19469447062E+04  0.19469447062E+04  0.25500000920E-02 0.  1.
       -2   -1    0    0    0  501  0.00000000000E+00  0.00000000000E+00 -0.14904297449E+04  0.14904297449E+04  0.25500000920E-02 0. -1.
    10030    2    1    2    0    0  0.00000000000E+00  0.00000000000E+00  0.45651496129E+03  0.34373744511E+04  0.34069248902E+04 0.  0.
        3    1    3    3  502    0  0.16634527795E+04 -0.33922910343E+03  0.36962672463E+03  0.17374623622E+04  0.10100000352E+00 0. -1.
       -3    1    3    3    0  502 -0.16634527795E+04  0.33922910343E+03  0.86888236668E+02  0.16999120889E+04  0.10100000352E+00 0.  1.
</event>
<event>
 5   0  0.1523259E-07  0.3406810E+04  0.7818609E-02  0.8136237E-01
       -1   -1    0    0    0  501  0.00000000000E+00  0.00000000000E+00  0.20435350566E+04  0.20435350566E+04  0.50400001928E-02 0. -1.
        1   -1    0    0  501    0  0.00000000000E+00  0.00000000000E+00 -0.14198869936E+04  0.14198869936E+04  0.50400001928E-02 0.  1.
    10030    2    1    2    0    0  0.00000000000E+00  0.00000000000E+00  0.62364806306E+03  0.34634220502E+04  0.34068101490E+04 0.  0.
        4    1    3    3  502    0  0.44990061603E+03 -0.14464542822E+04  0.11038378436E+04  0.18743265864E+04  0.12699999809E+01 0. -1.
       -4    1    3    3    0  502 -0.44990061603E+03  0.14464542822E+04 -0.48018978051E+03  0.15890954638E+04  0.12699999809E+01 0.  1.
</event>
<event>
 5   0  0.1473755E-07  0.3405928E+04  0.7818609E-02  0.8136453E-01
        1   -1    0    0  501    0  0.00000000000E+00  0.00000000000E+00  0.18120204655E+04  0.18120204655E+04  0.50400001928E-02 0. -1.
       -1   -1    0    0    0  501  0.00000000000E+00  0.00000000000E+00 -0.16004715683E+04  0.16004715683E+04  0.50400001928E-02 0.  1.
    10030    2    1    2    0    0  0.00000000000E+00  0.00000000000E+00  0.21154889719E+03  0.34124920339E+04  0.34059284997E+04 0.  0.
        1    1    3    3  502    0 -0.44160143602E+03 -0.51549181500E+03 -0.14590751703E+04  0.16092370839E+04  0.50400001928E-02 0.  1.
       -1    1    3    3    0  502  0.44160143602E+03  0.51549181500E+03  0.16706240675E+04  0.18032549500E+04  0.50400001928E-02 0. -1.
</event>
<event>
 5   0  0.1435806E-07  0.3404363E+04  0.7818609E-02  0.8136836E-01
       -1   -1    0    0    0  501  0.00000000000E+00  0.00000000000E+00  0.18902114252E+04  0.18902114252E+04  0.50400001928E-02 0. -1.
        1   -1    0    0  501    0  0.00000000000E+00  0.00000000000E+00 -0.15328561171E+04  0.15328561171E+04  0.50400001928E-02 0.  1.
    10030    2    1    2    0    0  0.00000000000E+00  0.00000000000E+00  0.35735530805E+03  0.34230675423E+04  0.34043631685E+04 0.  0.
        3    1    3    3  502    0 -0.32187719681E+03  0.16702586556E+04  0.11466288867E+03  0.17048508717E+04  0.10100000352E+00 0.  1.
       -3    1    3    3    0  502  0.32187719681E+03 -0.16702586556E+04  0.24269241938E+03  0.17182166706E+04  0.10100000352E+00 0. -1.
</event>
<event>
 5   0  0.4521737E-07  0.3413905E+04  0.7818609E-02  0.8134502E-01
       -2   -1    0    0    0  501  0.00000000000E+00  0.00000000000E+00  0.12192537813E+04  0.12192537814E+04  0.25500000920E-02 0. -1.
        2   -1    0    0  501    0  0.00000000000E+00  0.00000000000E+00 -0.23897299334E+04  0.23897299334E+04  0.25500000920E-02 0.  1.
    10030    2    1    2    0    0  0.00000000000E+00  0.00000000000E+00 -0.11704761521E+04  0.36089837148E+04  0.34139052463E+04 0.  0.
        4    1    3    3  502    0  0.15888518869E+04 -0.29809886945E+03 -0.58581223190E+01  0.16165856565E+04  0.12699999809E+01 0.  1.
       -4    1    3    3    0  502 -0.15888518869E+04  0.29809886945E+03 -0.11646180298E+04  0.19923980583E+04  0.12699999809E+01 0. -1.
</event>
<event>
 5   0  0.4521737E-07  0.3393429E+04  0.7818609E-02  0.8139521E-01
       -2   -1    0    0    0  501  0.00000000000E+00  0.00000000000E+00  0.15936106974E+04  0.15936106974E+04  0.25500000920E-02 0. -1.
        2   -1    0    0  501    0  0.00000000000E+00  0.00000000000E+00 -0.18064892686E+04  0.18064892686E+04  0.25500000920E-02 0.  1.
    10030    2    1    2    0    0  0.00000000000E+00  0.00000000000E+00 -0.21287857120E+03  0.34000999660E+04  0.33934293116E+04 0.  0.
        4    1    3    3  502    0  0.12859432417E+04 -0.10591413015E+04 -0.42864363816E+03  0.17202230376E+04  0.12699999809E+01 0.  1.
       -4    1    3    3    0  502 -0.12859432417E+04  0.10591413015E+04  0.21576506696E+03  0.16798769284E+04  0.12699999809E+01 0. -1.
</event>
<event>
 5   0  0.1520084E-07  0.3235288E+04  0.7818609E-02  0.8179559E-01
        1   -1    0    0  501    0  0.00000000000E+00  0.00000000000E+00  0.11343631634E+04  0.11343631634E+04  0.50400001928E-02 0. -1.
       -1   -1    0    0    0  501  0.00000000000E+00  0.00000000000E+00 -0.23068199255E+04  0.23068199255E+04  0.50400001928E-02 0.  1.
    10030    2    1    2    0    0  0.00000000000E+00  0.00000000000E+00 -0.11724567621E+04  0.34411830889E+04  0.32352876522E+04 0.  0.
        2    1    3    3  502    0  0.86909615700E+03 -0.91202903394E+03  0.49306358656E+03  0.13528624428E+04  0.25500000920E-02 0.  1.
       -2    1    3    3    0  502 -0.86909615700E+03  0.91202903394E+03 -0.16655203486E+04  0.20883206460E+04  0.25500000920E-02 0. -1.
</event>
<event>
 5   0  0.1421875E-07  0.3416463E+04  0.7818609E-02  0.8133878E-01
       -1   -1    0    0    0  501  0.00000000000E+00  0.00000000000E+00  0.12577860858E+04  0.12577860858E+04  0.50400001928E-02 0. -1.
        1   -1    0    0  501    0  0.00000000000E+00  0.00000000000E+00 -0.23199924492E+04  0.23199924492E+04  0.50400001928E-02 0.  1.
    10030    2    1    2    0    0  0.00000000000E+00  0.00000000000E+00 -0.10622063634E+04  0.35777785350E+04  0.34164626278E+04 0.  0.
        5    1    3    3  502    0  0.30414230917E+03  0.16633059985E+04 -0.27685845654E+03  0.17134065728E+04  0.46999998093E+01 0. -1.
       -5    1    3    3    0  502 -0.30414230917E+03 -0.16633059985E+04 -0.78534790691E+03  0.18643719622E+04  0.46999998093E+01 0.  1.
</event>
<event>
 5   0  0.1421875E-07  0.3397316E+04  0.7818609E-02  0.8138565E-01
        1   -1    0    0  501    0  0.00000000000E+00  0.00000000000E+00  0.21611863990E+04  0.21611863990E+04  0.50400001928E-02 0. -1.
       -1   -1    0    0    0  501  0.00000000000E+00  0.00000000000E+00 -0.13351179965E+04  0.13351179965E+04  0.50400001928E-02 0.  1.
    10030    2    1    2    0    0  0.00000000000E+00  0.00000000000E+00  0.82606840252E+03  0.34963043956E+04  0.33973159142E+04 0.  0.
        5    1    3    3  502    0 -0.14649824592E+04  0.58187271508E+03 -0.23839204729E+03  0.15942403584E+04  0.46999998093E+01 0.  1.
       -5    1    3    3    0  502  0.14649824592E+04 -0.58187271508E+03  0.10644604498E+04  0.19020640371E+04  0.46999998093E+01 0. -1.
</event>
<event>
 5   0  0.4396257E-07  0.3405515E+04  0.7818609E-02  0.8136554E-01
       -2   -1    0    0    0  501  0.00000000000E+00  0.00000000000E+00  0.10522154044E+04  0.10522154045E+04  0.25500000920E-02 0. -1.
        2   -1    0    0  501    0  0.00000000000E+00  0.00000000000E+00 -0.27555036726E+04  0.27555036726E+04  0.25500000920E-02 0.  1.
    10030    2    1    2    0    0  0.00000000000E+00  0.00000000000E+00 -0.17032882682E+04  0.38077190771E+04  0.34055151806E+04 0.  0.
        2    1    3    3  502    0  0.26873094253E+03  0.14873492302E+04 -0.17284537157E+04  0.22960784611E+04  0.25500000920E-02 0.  1.
       -2    1    3    3    0  502 -0.26873094253E+03 -0.14873492302E+04  0.25165447506E+02  0.15116406160E+04  0.25500000920E-02 0. -1.
</event>
<event>
 5   0  0.4381939E-07  0.3402447E+04  0.7818609E-02  0.8137306E-01
       -2   -1    0    0    0  501  0.00000000000E+00  0.00000000000E+00  0.13404769818E+04  0.13404769818E+04  0.25500000920E-02 0.  1.
        2   -1    0    0  501    0  0.00000000000E+00  0.00000000000E+00 -0.21590535775E+04  0.21590535775E+04  0.25500000920E-02 0. -1.
    10030    2    1    2    0    0  0.00000000000E+00  0.00000000000E+00 -0.81857659579E+03  0.34995305593E+04  0.34024471329E+04 0.  0.
        3    1    3    3  502    0  0.97965687532E+03 -0.68209306848E+03  0.83739563196E+03  0.14581529419E+04  0.10100000352E+00 0.  1.
       -3    1    3    3    0  502 -0.97965687532E+03  0.68209306848E+03 -0.16559722278E+04  0.20413776174E+04  0.10100000352E+00 0. -1.
</event>
<event>
 5   0  0.4486226E-07  0.3401469E+04  0.7818609E-02  0.8137546E-01
       -2   -1    0    0    0  501  0.00000000000E+00  0.00000000000E+00  0.13658015560E+04  0.13658015560E+04  0.25500000920E-02 0. -1.
        2   -1    0    0  501    0  0.00000000000E+00  0.00000000000E+00 -0.21178023932E+04  0.21178023932E+04  0.25500000920E-02 0.  1.
    10030    2    1    2    0    0  0.00000000000E+00  0.00000000000E+00 -0.75200083721E+03  0.34836039492E+04  0.34014689791E+04 0.  0.
        1    1    3    3  502    0  0.29451771497E+03 -0.62446837183E+03 -0.19678147924E+04  0.20854247742E+04  0.50400001928E-02 0.  1.
       -1    1    3    3    0  502 -0.29451771497E+03  0.62446837183E+03  0.12158139552E+04  0.13981791750E+04  0.50400001928E-02 0. -1.
</event>
<event>
 5   0  0.4396257E-07  0.3398067E+04  0.7818609E-02  0.8138381E-01
        2   -1    0    0  501    0  0.00000000000E+00  0.00000000000E+00  0.19331502809E+04  0.19331502809E+04  0.25500000920E-02 0.  1.
       -2   -1    0    0    0  501  0.00000000000E+00  0.00000000000E+00 -0.14932696518E+04  0.14932696518E+04  0.25500000920E-02 0. -1.
    10030    2    1    2    0    0  0.00000000000E+00  0.00000000000E+00  0.43988062916E+03  0.34264199327E+04  0.33980668898E+04 0.  0.
        2    1    3    3  502    0 -0.13060861326E+04  0.10807025621E+04  0.33462423005E+03  0.17279329816E+04  0.25500000920E-02 0. -1.
       -2    1    3    3    0  502  0.13060861326E+04 -0.10807025621E+04  0.10525639912E+03  0.16984869511E+04  0.25500000920E-02 0.  1.
</event>
<event>
 5   0  0.4381939E-07  0.3386548E+04  0.7818609E-02  0.8141216E-01
       -2   -1    0    0    0  501  0.00000000000E+00  0.00000000000E+00  0.17091995014E+04  0.17091995014E+04  0.25500000920E-02 0. -1.
        2   -1    0    0  501    0  0.00000000000E+00  0.00000000000E+00 -0.16774973426E+04  0.16774973426E+04  0.25500000920E-02 0.  1.
    10030    2    1    2    0    0  0.00000000000E+00  0.00000000000E+00  0.31702158872E+02  0.33866968440E+04  0.33865484621E+04 0.  0.
        3    1    3    3  502    0 -0.55436273477E+03  0.99756341869E+02  0.16127642567E+04  0.17082967913E+04  0.10100000352E+00 0. -1.
       -3    1    3    3    0  502  0.55436273477E+03 -0.99756341869E+02 -0.15810620978E+04  0.16784000527E+04  0.10100000352E+00 0.  1.
</event>
<event>
 5   0  0.1421875E-07  0.3403792E+04  0.7818609E-02  0.8136976E-01
        1   -1    0    0  501    0  0.00000000000E+00  0.00000000000E+00  0.19198455715E+04  0.19198455715E+04  0.50400001928E-02 0.  1.
       -1   -1    0    0    0  501  0.00000000000E+00  0.00000000000E+00 -0.15086890411E+04  0.15086890412E+04  0.50400001928E-02 0. -1.
    10030    2    1    2    0    0  0.00000000000E+00  0.00000000000E+00  0.41115653032E+03  0.34285346126E+04  0.34037919880E+04 0.  0.
        5    1    3    3  502    0 -0.10855735853E+04 -0.26434580627E+03 -0.10875290297E+04  0.15591953678E+04  0.46999998093E+01 0. -1.
       -5    1    3    3    0  502  0.10855735853E+04  0.26434580627E+03  0.14986855601E+04  0.18693392448E+04  0.46999998093E+01 0.  1.
</event>
<event>
 5   0  0.4447909E-07  0.3404402E+04  0.7818609E-02  0.8136827E-01
       -2   -1    0    0    0  501  0.00000000000E+00  0.00000000000E+00  0.18788809693E+04  0.18788809693E+04  0.25500000920E-02 0. -1.
        2   -1    0    0  501    0  0.00000000000E+00  0.00000000000E+00 -0.15421346640E+04  0.15421346640E+04  0.25500000920E-02 0.  1.
    10030    2    1    2    0    0  0.00000000000E+00  0.00000000000E+00  0.33674630533E+03  0.34210156333E+04  0.34044015464E+04 0.  0.
        5    1    3    3  502    0 -0.15267478897E+04  0.67906406540E+03 -0.15783122793E+03  0.16783980190E+04  0.46999998093E+01 0. -1.
       -5    1    3    3    0  502  0.15267478897E+04 -0.67906406540E+03  0.49457753326E+03  0.17426176144E+04  0.46999998093E+01 0.  1.
</event>
<event>
 5   0  0.1421875E-07  0.3403468E+04  0.7818609E-02  0.8137056E-01
        1   -1    0    0  501    0  0.00000000000E+00  0.00000000000E+00  0.24730644393E+04  0.24730644393E+04  0.50400001928E-02 0.  1.
       -1   -1    0    0    0  501  0.00000000000E+00  0.00000000000E+00 -0.11709757909E+04  0.11709757909E+04  0.50400001928E-02 0. -1.
    10030    2    1    2    0    0  0.00000000000E+00  0.00000000000E+00  0.13020886484E+04  0.36440402302E+04  0.34034679888E+04 0.  0.
        5    1    3    3  502    0 -0.83741183228E+03  0.38032124954E+03  0.21840213066E+04  0.23697835318E+04  0.46999998093E+01 0.  1.
       -5    1    3    3    0  502  0.83741183228E+03 -0.38032124954E+03 -0.88193265826E+03  0.12742566984E+04  0.46999998093E+01 0. -1.
</event>
<event>
 5   0  0.1435806E-07  0.3407324E+04  0.7818609E-02  0.8136111E-01
        1   -1    0    0  501    0  0.00000000000E+00  0.00000000000E+00  0.21221622652E+04  0.21221622652E+04  0.50400001928E-02 0. -1.
       -1   -1    0    0    0  501  0.00000000000E+00  0.00000000000E+00 -0.13676921165E+04  0.13676921165E+04  0.50400001928E-02 0.  1.
    10030    2    1    2    0    0  0.00000000000E+00  0.00000000000E+00  0.75447014872E+03  0.34898543816E+04  0.34073242287E+04 0.  0.
        3    1    3    3  502    0 -0.64266948758E+03  0.12873693481E+04 -0.55706633163E+03  0.15429409634E+04  0.10100000352E+00 0.  1.
       -3    1    3    3    0  502  0.64266948758E+03 -0.12873693481E+04  0.13115364803E+04  0.19469134182E+04  0.10100000352E+00 0. -1.
</event>
<event>
 5   0  0.4381939E-07  0.3408185E+04  0.7818609E-02  0.8135900E-01
        2   -1    0    0  501    0  0.00000000000E+00  0.00000000000E+00  0.21868778042E+04  0.21868778042E+04  0.25500000920E-02 0. -1.
       -2   -1    0    0    0  501  0.00000000000E+00  0.00000000000E+00 -0.13278893977E+04  0.13278893977E+04  0.25500000920E-02 0.  1.
    10030    2    1    2    0    0  0.00000000000E+00  0.00000000000E+00  0.85898840650E+03  0.35147672018E+04  0.34081853530E+04 0.  0.
        3    1    3    3  502    0  0.40506271254E+03  0.13707910248E+04 -0.52730644909E+03  0.15235471559E+04  0.10100000352E+00 0.  1.
       -3    1    3    3    0  502 -0.40506271254E+03 -0.13707910248E+04  0.13862948556E+04  0.19912200460E+04  0.10100000352E+00 0. -1.
</event>
<event>
 5   0  0.1473755E-07  0.3333487E+04  0.7818609E-02  0.8154427E-01
        1   -1    0    0  501    0  0.00000000000E+00  0.00000000000E+00  0.21850248019E+04  0.21850248019E+04  0.50400001928E-02 0.  1.
       -1   -1    0    0    0  501  0.00000000000E+00  0.00000000000E+00 -0.12713966226E+04  0.12713966226E+04  0.50400001928E-02 0. -1.
    10030    2    1    2    0    0  0.00000000000E+00  0.00000000000E+00  0.91362817928E+03  0.34564214245E+04  0.33334865552E+04 0.  0.
        1    1    3    3  502    0 -0.63260813080E+03  0.89337468557E+03 -0.84640755146E+03  0.13837330375E+04  0.50400001928E-02 0. -1.
       -1    1    3    3    0  502  0.63260813080E+03 -0.89337468557E+03  0.17600357307E+04  0.20726883870E+04  0.50400001928E-02 0.  1.
</event>
<event>
 5   0  0.1435806E-07  0.3403770E+04  0.7818609E-02  0.8136982E-01
       -1   -1    0    0    0  501  0.00000000000E+00  0.00000000000E+00  0.22452613507E+04  0.22452613507E+04  0.50400001928E-02 0. -1.
        1   -1    0    0  501    0  0.00000000000E+00  0.00000000000E+00 -0.12900109919E+04  0.12900109919E+04  0.50400001928E-02 0.  1.
    10030    2    1    2    0    0  0.00000000000E+00  0.00000000000E+00  0.95525035880E+03  0.35352723426E+04  0.34037695704E+04 0.  0.
        3    1    3    3  502    0  0.12719128166E+04 -0.10943967679E+04  0.77312592337E+03  0.18474821250E+04  0.10100000352E+00 0. -1.
       -3    1    3    3    0  502 -0.12719128166E+04  0.10943967679E+04  0.18212443543E+03  0.16877902176E+04  0.10100000352E+00 0.  1.
</event>
<event>
 5   0  0.1523259E-07  0.3409732E+04  0.7818609E-02  0.8135522E-01
       -1   -1    0    0    0  501  0.00000000000E+00  0.00000000000E+00  0.13675332485E+04  0.13675332485E+04  0.50400001928E-02 0. -1.
        1   -1    0    0  501    0  0.00000000000E+00  0.00000000000E+00 -0.21254095773E+04  0.21254095773E+04  0.50400001928E-02 0.  1.
    10030    2    1    2    0    0  0.00000000000E+00  0.00000000000E+00 -0.75787632881E+03  0.34929428258E+04  0.34097321089E+04 0.  0.
        4    1    3    3  502    0 -0.98559167396E+03 -0.17693294306E+03 -0.17924189616E+04  0.20531594095E+04  0.12699999809E+01 0.  1.
       -4    1    3    3    0  502  0.98559167396E+03  0.17693294306E+03  0.10345426327E+04  0.14397834163E+04  0.12699999809E+01 0. -1.
</event>
<event>
 5   0  0.1421875E-07  0.3427507E+04  0.7818609E-02  0.8131188E-01
        1   -1    0    0  501    0  0.00000000000E+00  0.00000000000E+00  0.23938891291E+04  0.23938891291E+04  0.50400001928E-02 0.  1.
       -1   -1    0    0    0  501  0.00000000000E+00  0.00000000000E+00 -0.12268536489E+04  0.12268536489E+04  0.50400001928E-02 0. -1.
    10030    2    1    2    0    0  0.00000000000E+00  0.00000000000E+00  0.11670354802E+04  0.36207427781E+04  0.34275073235E+04 0.  0.
        5    1    3    3  502    0  0.14586868848E+04 -0.33400486667E+02  0.15331106409E+04  0.21164435612E+04  0.46999998093E+01 0.  1.
       -5    1    3    3    0  502 -0.14586868848E+04  0.33400486667E+02 -0.36607516073E+03  0.15042992168E+04  0.46999998093E+01 0. -1.
</event>
<event>
 5   0  0.4521737E-07  0.3395806E+04  0.7818609E-02  0.8138937E-01
       -2   -1    0    0    0  501  0.00000000000E+00  0.00000000000E+00  0.12571953235E+04  0.12571953235E+04  0.25500000920E-02 0.  1.
        2   -1    0    0  501    0  0.00000000000E+00  0.00000000000E+00 -0.22930993660E+04  0.22930993660E+04  0.25500000920E-02 0. -1.
    10030    2    1    2    0    0  0.00000000000E+00  0.00000000000E+00 -0.10359040425E+04  0.35502946895E+04  0.33958055299E+04 0.  0.
        4    1    3    3  502    0  0.86690459914E+03  0.69620368796E+03  0.82364508414E+03  0.13836964973E+04  0.12699999809E+01 0.  1.
       -4    1    3    3    0  502 -0.86690459914E+03 -0.69620368796E+03 -0.18595491266E+04  0.21665981922E+04  0.12699999809E+01 0. -1.
</event>
<event>
 5   0  0.4486226E-07  0.3296654E+04  0.7818609E-02  0.8163747E-01
        2   -1    0    0  501    0  0.00000000000E+00  0.00000000000E+00  0.20471110616E+04  0.20471110616E+04  0.25500000920E-02 0.  1.
       -2   -1    0    0    0  501  0.00000000000E+00  0.00000000000E+00 -0.13272270595E+04  0.13272270595E+04  0.25500000920E-02 0. -1.
    10030    2    1    2    0    0  0.00000000000E+00  0.00000000000E+00  0.71988400206E+03  0.33743381211E+04  0.32966535728E+04 0.  0.
        1    1    3    3  502    0  0.11788985839E+04  0.87716897209E+03  0.11243700273E+04  0.18502527490E+04  0.50400001928E-02 0.  1.
       -1    1    3    3    0  502 -0.11788985839E+04 -0.87716897209E+03 -0.40448602528E+03  0.15240853721E+04  0.50400001928E-02 0. -1.
</event>
<event>
 5   0  0.1523259E-07  0.3396083E+04  0.7818609E-02  0.8138868E-01
        1   -1    0    0  501    0  0.00000000000E+00  0.00000000000E+00  0.15243607451E+04  0.15243607451E+04  0.50400001928E-02 0.  1.
       -1   -1    0    0    0  501  0.00000000000E+00  0.00000000000E+00 -0.18915112507E+04  0.18915112507E+04  0.50400001928E-02 0. -1.
    10030    2    1    2    0    0  0.00000000000E+00  0.00000000000E+00 -0.36715050558E+03  0.34158719959E+04  0.33960833321E+04 0.  0.
        4    1    3    3  502    0 -0.81850683485E+03  0.61257032676E+03 -0.15472584604E+04  0.18545096927E+04  0.12699999809E+01 0. -1.
       -4    1    3    3    0  502  0.81850683485E+03 -0.61257032676E+03  0.11801079548E+04  0.15613623032E+04  0.12699999809E+01 0.  1.
</event>
<event>
 5   0  0.4396257E-07  0.3220137E+04  0.7818609E-02  0.8183519E-01
        2   -1    0    0  501    0  0.00000000000E+00  0.00000000000E+00  0.17801582851E+04  0.17801582851E+04  0.25500000920E-02 0.  1.
       -2   -1    0    0    0  501  0.00000000000E+00  0.00000000000E+00 -0.14562300332E+04  0.14562300332E+04  0.25500000920E-02 0. -1.
    10030    2    1    2    0    0  0.00000000000E+00  0.00000000000E+00  0.32392825193E+03  0.32363883182E+04  0.32201366173E+04 0.  0.
        2    1    3    3  502    0 -0.10281165034E+03 -0.13418478477E+04  0.10502766770E+04  0.17071048532E+04  0.25500000920E-02 0.  1.
       -2    1    3    3    0  502  0.10281165034E+03  0.13418478477E+04 -0.72634842507E+03  0.15292834650E+04  0.25500000920E-02 0. -1.
</event>
<event>
 5   0  0.1421875E-07  0.3414022E+04  0.7818609E-02  0.8134473E-01
        1   -1    0    0  501    0  0.00000000000E+00  0.00000000000E+00  0.19537180128E+04  0.19537180128E+04  0.50400001928E-02 0.  1.
       -1   -1    0    0    0  501  0.00000000000E+00  0.00000000000E+00 -0.14914571511E+04  0.14914571511E+04  0.50400001928E-02 0. -1.
    10030    2    1    2    0    0  0.00000000000E+00  0.00000000000E+00  0.46226086175E+03  0.34451751639E+04  0.34140220863E+04 0.  0.
        5    1    3    3  502    0 -0.12307258799E+04  0.11518168699E+04 -0.40577901713E+02  0.16861307628E+04  0.46999998093E+01 0.  1.
       -5    1    3    3    0  502  0.12307258799E+04 -0.11518168699E+04  0.50283876346E+03  0.17590444011E+04  0.46999998093E+01 0. -1.
</event>
<event>
 5   0  0.4396257E-07  0.3318541E+04  0.7818609E-02  0.8158193E-01
        2   -1    0    0  501    0  0.00000000000E+00  0.00000000000E+00  0.14861978579E+04  0.14861978579E+04  0.25500000920E-02 0.  1.
       -2   -1    0    0    0  501  0.00000000000E+00  0.00000000000E+00 -0.18524985247E+04  0.18524985247E+04  0.25500000920E-02 0. -1.
    10030    2    1    2    0    0  0.00000000000E+00  0.00000000000E+00 -0.36630066685E+03  0.33386963826E+04  0.33185414502E+04 0.  0.
        2    1    3    3  502    0  0.14714160100E+04 -0.33463721986E+03 -0.87736447234E+03  0.17455129792E+04  0.25500000920E-02 0.  1.
       -2    1    3    3    0  502 -0.14714160100E+04  0.33463721986E+03  0.51106380549E+03  0.15931834033E+04  0.25500000920E-02 0. -1.
</event>
<event>
 5   0  0.1523259E-07  0.3402116E+04  0.7818609E-02  0.8137387E-01
       -1   -1    0    0    0  501  0.00000000000E+00  0.00000000000E+00  0.24624897117E+04  0.24624897117E+04  0.50400001928E-02 0. -1.
        1   -1    0    0  501    0  0.00000000000E+00  0.00000000000E+00 -0.11750699651E+04  0.11750699652E+04  0.50400001928E-02 0.  1.
    10030    2    1    2    0    0  0.00000000000E+00  0.00000000000E+00  0.12874197466E+04  0.36375596769E+04  0.34021156357E+04 0.  0.
        4    1    3    3  502    0  0.41179130302E+03 -0.11444702581E+03 -0.11167246569E+04  0.11957197712E+04  0.12699999809E+01 0.  1.
       -4    1    3    3    0  502 -0.41179130302E+03  0.11444702581E+03  0.24041444035E+04  0.24418399057E+04  0.12699999809E+01 0. -1.
</event>
<event>
 5   0  0.1523259E-07  0.3406563E+04  0.7818609E-02  0.8136297E-01
       -1   -1    0    0    0  501  0.00000000000E+00  0.00000000000E+00  0.18177111622E+04  0.18177111622E+04  0.50400001928E-02 0. -1.
        1   -1    0    0  501    0  0.00000000000E+00  0.00000000000E+00 -0.15960555527E+04  0.15960555527E+04  0.50400001928E-02 0.  1.
    10030    2    1    2    0    0  0.00000000000E+00  0.00000000000E+00  0.22165560944E+03  0.34137667149E+04  0.34065630736E+04 0.  0.
        4    1    3    3  502    0  0.43422825780E+03 -0.85526782578E+03 -0.12996744961E+04  0.16152995519E+04  0.12699999809E+01 0.  1.
       -4    1    3    3    0  502 -0.43422825780E+03  0.85526782578E+03  0.15213301055E+04  0.17984671630E+04  0.12699999809E+01 0. -1.
</event>
<event>
 5   0  0.1523259E-07  0.3406528E+04  0.7818609E-02  0.8136306E-01
        1   -1    0    0  501    0  0.00000000000E+00  0.00000000000E+00  0.23156900729E+04  0.23156900729E+04  0.50400001928E-02 0.  1.
       -1   -1    0    0    0  501  0.00000000000E+00  0.00000000000E+00 -0.12528051529E+04  0.12528051529E+04  0.50400001928E-02 0. -1.
    10030    2    1    2    0    0  0.00000000000E+00  0.00000000000E+00  0.10628849200E+04  0.35684952259E+04  0.34065281187E+04 0.  0.
        4    1    3    3  502    0 -0.63566894336E+03  0.14663304625E+04 -0.85549572883E+02  0.16004750461E+04  0.12699999809E+01 0.  1.
       -4    1    3    3    0  502  0.63566894336E+03 -0.14663304625E+04  0.11484344929E+04  0.19680201798E+04  0.12699999809E+01 0. -1.
</event>
<event>
 5   0  0.4396257E-07  0.3403589E+04  0.7818609E-02  0.8137026E-01
        2   -1    0    0  501    0  0.00000000000E+00  0.00000000000E+00  0.22957214939E+04  0.22957214939E+04  0.25500000920E-02 0.  1.
       -2   -1    0    0    0  501  0.00000000000E+00  0.00000000000E+00 -0.12615228663E+04  0.12615228663E+04  0.25500000920E-02 0. -1.
    10030    2    1    2    0    0  0.00000000000E+00  0.00000000000E+00  0.10341986276E+04  0.35572443603E+04  0.34035893755E+04 0.  0.
        2    1    3    3  502    0 -0.31108999262E+03 -0.13509446561E+04 -0.51451581155E+03  0.14787004321E+04  0.25500000920E-02 0. -1.
       -2    1    3    3    0  502  0.31108999262E+03  0.13509446561E+04  0.15487144391E+04  0.20785439282E+04  0.25500000920E-02 0.  1.
</event>
<event>
 5   0  0.1421875E-07  0.3395354E+04  0.7818609E-02  0.8139048E-01
       -3   -1    0    0    0  501  0.00000000000E+00  0.00000000000E+00  0.16203851930E+04  0.16203851962E+04  0.10100000352E+00 0. -1.
        3   -1    0    0  501    0  0.00000000000E+00  0.00000000000E+00 -0.17786555538E+04  0.17786555566E+04  0.10100000352E+00 0.  1.
    10030    2    1    2    0    0  0.00000000000E+00  0.00000000000E+00 -0.15827036077E+03  0.33990407528E+04  0.33953539627E+04 0.  0.
        3    1    3    3  502    0  0.75364654449E+03 -0.23020727761E+03  0.14262025571E+04  0.16294269694E+04  0.10100000352E+00 0. -1.
       -3    1    3    3    0  502 -0.75364654449E+03  0.23020727761E+03 -0.15844729178E+04  0.17696137834E+04  0.10100000352E+00 0.  1.
</event>
<event>
 5   0  0.4447909E-07  0.3406347E+04  0.7818609E-02  0.8136350E-01
       -2   -1    0    0    0  501  0.00000000000E+00  0.00000000000E+00  0.10066647120E+04  0.10066647120E+04  0.25500000920E-02 0. -1.
        2   -1    0    0  501    0  0.00000000000E+00  0.00000000000E+00 -0.28815955724E+04  0.28815955724E+04  0.25500000920E-02 0.  1.
    10030    2    1    2    0    0  0.00000000000E+00  0.00000000000E+00 -0.18749308605E+04  0.38882602844E+04  0.34063473557E+04 0.  0.
        5    1    3    3  502    0  0.58778161206E+03 -0.88141332316E+02 -0.27593690563E+04  0.28226575769E+04  0.46999998093E+01 0.  1.
       -5    1    3    3    0  502 -0.58778161206E+03  0.88141332316E+02  0.88443819579E+03  0.10656027074E+04  0.46999998093E+01 0. -1.
</event>
<event>
 5   0  0.4447909E-07  0.3406186E+04  0.7818609E-02  0.8136390E-01
        2   -1    0    0  501    0  0.00000000000E+00  0.00000000000E+00  0.11882844207E+04  0.11882844207E+04  0.25500000920E-02 0.  1.
       -2   -1    0    0    0  501  0.00000000000E+00  0.00000000000E+00 -0.24409358241E+04  0.24409358241E+04  0.25500000920E-02 0. -1.
    10030    2    1    2    0    0  0.00000000000E+00  0.00000000000E+00 -0.12526514035E+04  0.36292202448E+04  0.34061861439E+04 0.  0.
        5    1    3    3  502    0  0.16848922505E+04  0.40897274957E+02 -0.88724724567E+03  0.19046690651E+04  0.46999998093E+01 0.  1.
       -5    1    3    3    0  502 -0.16848922505E+04 -0.40897274957E+02 -0.36540415778E+03  0.17245511797E+04  0.46999998093E+01 0. -1.
</event>
<event>
 5   0  0.4521737E-07  0.3399433E+04  0.7818609E-02  0.8138046E-01
        2   -1    0    0  501    0  0.00000000000E+00  0.00000000000E+00  0.18068154057E+04  0.18068154057E+04  0.25500000920E-02 0. -1.
       -2   -1    0    0    0  501  0.00000000000E+00  0.00000000000E+00 -0.15989658067E+04  0.15989658067E+04  0.25500000920E-02 0.  1.
    10030    2    1    2    0    0  0.00000000000E+00  0.00000000000E+00  0.20784959898E+03  0.34057812124E+04  0.33994329249E+04 0.  0.
        4    1    3    3  502    0 -0.15505040073E+03  0.16466565537E+04 -0.28861807841E+03  0.16789343170E+04  0.12699999809E+01 0.  1.
       -4    1    3    3    0  502  0.15505040073E+03 -0.16466565537E+04  0.49646767739E+03  0.17268468954E+04  0.12699999809E+01 0. -1.
</event>
<event>
 5   0  0.1473755E-07  0.3390175E+04  0.7818609E-02  0.8140322E-01
        1   -1    0    0  501    0  0.00000000000E+00  0.00000000000E+00  0.18789102121E+04  0.18789102121E+04  0.50400001928E-02 0.  1.
       -1   -1    0    0    0  501  0.00000000000E+00  0.00000000000E+00 -0.15292494047E+04  0.15292494047E+04  0.50400001928E-02 0. -1.
    10030    2    1    2    0    0  0.00000000000E+00  0.00000000000E+00  0.34966080747E+03  0.34081596168E+04  0.33901754074E+04 0.  0.
        1    1    3    3  502    0 -0.11605903925E+04 -0.48728038269E+03 -0.96649391026E+03  0.15869854155E+04  0.50400001928E-02 0. -1.
       -1    1    3    3    0  502  0.11605903925E+04  0.48728038269E+03  0.13161547177E+04  0.18211742013E+04  0.50400001928E-02 0.  1.
</event>
<event>
 5   0  0.1520084E-07  0.3404320E+04  0.7818609E-02  0.8136847E-01
       -1   -1    0    0    0  501  0.00000000000E+00  0.00000000000E+00  0.99195104119E+03  0.99195104121E+03  0.50400001928E-02 0. -1.
        1   -1    0    0  501    0  0.00000000000E+00  0.00000000000E+00 -0.29208587316E+04  0.29208587317E+04  0.50400001928E-02 0.  1.
    10030    2    1    2    0    0  0.00000000000E+00  0.00000000000E+00 -0.19289076905E+04  0.39128097729E+04  0.34043201143E+04 0.  0.
        2    1    3    3  502    0 -0.13988397330E+04 -0.35298962327E+03 -0.20027039479E+04  0.24682336550E+04  0.25500000920E-02 0.  1.
       -2    1    3    3    0  502  0.13988397330E+04  0.35298962327E+03  0.73796257402E+02  0.14445761179E+04  0.25500000920E-02 0. -1.
</event>
<event>
 5   0  0.4396257E-07  0.3403851E+04  0.7818609E-02  0.8136962E-01
       -2   -1    0    0    0  501  0.00000000000E+00  0.00000000000E+00  0.12168942083E+04  0.12168942083E+04  0.25500000920E-02 0. -1.
        2   -1    0    0  501    0  0.00000000000E+00  0.00000000000E+00 -0.23802817386E+04  0.23802817386E+04  0.25500000920E-02 0.  1.
    10030    2    1    2    0    0  0.00000000000E+00  0.00000000000E+00 -0.11633875303E+04  0.35971759469E+04  0.34038513844E+04 0.  0.
        2    1    3    3  502    0  0.40493560599E+03  0.63889084206E+03  0.10294942272E+04  0.12775025311E+04  0.25500000920E-02 0. -1.
       -2    1    3    3    0  502 -0.40493560599E+03 -0.63889084206E+03 -0.21928817576E+04  0.23196734158E+04  0.25500000920E-02 0.  1.
</event>
<event>
 5   0  0.1520084E-07  0.3423903E+04  0.7818609E-02  0.8132064E-01
       -1   -1    0    0    0  501  0.00000000000E+00  0.00000000000E+00  0.14408718786E+04  0.14408718786E+04  0.50400001928E-02 0. -1.
        1   -1    0    0  501    0  0.00000000000E+00  0.00000000000E+00 -0.20340314481E+04  0.20340314482E+04  0.50400001928E-02 0.  1.
    10030    2    1    2    0    0  0.00000000000E+00  0.00000000000E+00 -0.59315956955E+03  0.34749033268E+04  0.34239034530E+04 0.  0.
        2    1    3    3  502    0 -0.15926497395E+04  0.49179575925E+03  0.99596701807E+02  0.16698250700E+04  0.25500000920E-02 0. -1.
       -2    1    3    3    0  502  0.15926497395E+04 -0.49179575925E+03 -0.69275627136E+03  0.18050782567E+04  0.25500000920E-02 0.  1.
</event>
<event>
 5   0  0.4381939E-07  0.3391817E+04  0.7818609E-02  0.8139918E-01
       -2   -1    0    0    0  501  0.00000000000E+00  0.00000000000E+00  0.14285054016E+04  0.14285054016E+04  0.25500000920E-02 0. -1.
        2   -1    0    0  501    0  0.00000000000E+00  0.00000000000E+00 -0.20133669411E+04  0.20133669411E+04  0.25500000920E-02 0.  1.
    10030    2    1    2    0    0  0.00000000000E+00  0.00000000000E+00 -0.58486153944E+03  0.34418723427E+04  0.33918169472E+04 0.  0.
        3    1    3    3  502    0 -0.22740711169E+02  0.97210388340E+03  0.11175356782E+04  0.14813470567E+04  0.10100000352E+00 0. -1.
       -3    1    3    3    0  502  0.22740711169E+02 -0.97210388340E+03 -0.17023972177E+04  0.19605252860E+04  0.10100000352E+00 0.  1.
</event>
<event>
 5   0  0.4447909E-07  0.3395107E+04  0.7818609E-02  0.8139108E-01
        2   -1    0    0  501    0  0.00000000000E+00  0.00000000000E+00  0.22090631381E+04  0.22090631381E+04  0.25500000920E-02 0. -1.
       -2   -1    0    0    0  501  0.00000000000E+00  0.00000000000E+00 -0.13044842414E+04  0.13044842414E+04  0.25500000920E-02 0.  1.
    10030    2    1    2    0    0  0.00000000000E+00  0.00000000000E+00  0.90457889668E+03  0.35135473795E+04  0.33951070982E+04 0.  0.
        5    1    3    3  502    0 -0.65100835463E+02 -0.97005938625E+03  0.18923849342E+04  0.21275328813E+04  0.46999998093E+01 0. -1.
       -5    1    3    3    0  502  0.65100835463E+02  0.97005938625E+03 -0.98780603753E+03  0.13860144983E+04  0.46999998093E+01 0.  1.
</event>
<event>
 5   0  0.1421875E-07  0.3391584E+04  0.7818609E-02  0.8139975E-01
        1   -1    0    0  501    0  0.00000000000E+00  0.00000000000E+00  0.18305732192E+04  0.18305732192E+04  0.50400001928E-02 0. -1.
       -1   -1    0    0    0  501  0.00000000000E+00  0.00000000000E+00 -0.15709343120E+04  0.15709343120E+04  0.50400001928E-02 0.  1.
    10030    2    1    2    0    0  0.00000000000E+00  0.00000000000E+00  0.25963890713E+03  0.34015075312E+04  0.33915838664E+04 0.  0.
        5    1    3    3  502    0  0.25381545515E+03 -0.66134708648E+03 -0.14154307162E+04  0.15828039855E+04  0.46999998093E+01 0.  1.
       -5    1    3    3    0  502 -0.25381545515E+03  0.66134708648E+03  0.16750696234E+04  0.18187035457E+04  0.46999998093E+01 0. -1.
</event>
<event>
 5   0  0.1435806E-07  0.3388797E+04  0.7818609E-02  0.8140661E-01
        1   -1    0    0  501    0  0.00000000000E+00  0.00000000000E+00  0.12795034862E+04  0.12795034862E+04  0.50400001928E-02 0.  1.
       -1   -1    0    0    0  501  0.00000000000E+00  0.00000000000E+00 -0.22438282887E+04  0.22438282887E+04  0.50400001928E-02 0. -1.
    10030    2    1    2    0    0  0.00000000000E+00  0.00000000000E+00 -0.96432480252E+03  0.35233317750E+04  0.33887969063E+04 0.  0.
        3    1    3    3  502    0 -0.10303177897E+03  0.61055319592E+03  0.11576639731E+04  0.13128505770E+04  0.10100000352E+00 0.  1.
       -3    1    3    3    0  502  0.10303177897E+03 -0.61055319592E+03 -0.21219887757E+04  0.22104811980E+04  0.10100000352E+00 0. -1.
</event>
<event>
 5   0  0.4381939E-07  0.3405427E+04  0.7818609E-02  0.8136576E-01
       -2   -1    0    0    0  501  0.00000000000E+00  0.00000000000E+00  0.16662707391E+04  0.16662707391E+04  0.25500000920E-02 0.  1.
        2   -1    0    0  501    0  0.00000000000E+00  0.00000000000E+00 -0.17399529510E+04  0.17399529510E+04  0.25500000920E-02 0. -1.
    10030    2    1    2    0    0  0.00000000000E+00  0.00000000000E+00 -0.73682211836E+02  0.34062236901E+04  0.34054266633E+04 0.  0.
        3    1    3    3  502    0  0.78355485130E+03 -0.24617136321E+03  0.14550421365E+04  0.16708399607E+04  0.10100000352E+00 0.  1.
       -3    1    3    3    0  502 -0.78355485130E+03  0.24617136321E+03 -0.15287243483E+04  0.17353837294E+04  0.10100000352E+00 0. -1.
</event>
<event>
 5   0  0.4486226E-07  0.3348432E+04  0.7818609E-02  0.8150680E-01
        2   -1    0    0  501    0  0.00000000000E+00  0.00000000000E+00  0.18877765868E+04  0.18877765868E+04  0.25500000920E-02 0.  1.
       -2   -1    0    0    0  501  0.00000000000E+00  0.00000000000E+00 -0.14848147303E+04  0.14848147303E+04  0.25500000920E-02 0. -1.
    10030    2    1    2    0    0  0.00000000000E+00  0.00000000000E+00  0.40296185650E+03  0.33725913172E+04  0.33484315634E+04 0.  0.
        1    1    3    3  502    0  0.10794916066E+04 -0.54468449262E+03  0.13678584302E+04  0.18256560493E+04  0.50400001928E-02 0.  1.
       -1    1    3    3    0  502 -0.10794916066E+04  0.54468449262E+03 -0.96489657368E+03  0.15469352679E+04  0.50400001928E-02 0. -1.
</event>
<event>
 5   0  0.4486226E-07  0.3407296E+04  0.7818609E-02  0.8136118E-01
       -2   -1    0    0    0  501  0.00000000000E+00  0.00000000000E+00  0.13700486033E+04  0.13700486033E+04  0.25500000920E-02 0.  1.
        2   -1    0    0  501    0  0.00000000000E+00  0.00000000000E+00 -0.21184774913E+04  0.21184774913E+04  0.25500000920E-02 0. -1.
    10030    2    1    2    0    0  0.00000000000E+00  0.00000000000E+00 -0.74842888799E+03  0.34885260947E+04  0.34072963641E+04 0.  0.
        1    1    3    3  502    0 -0.11545967185E+04 -0.16612267695E+03  0.89704963978E+03  0.14715258687E+04  0.50400001928E-02 0.  1.
       -1    1    3    3    0  502  0.11545967185E+04  0.16612267695E+03 -0.16454785278E+04  0.20170002259E+04  0.50400001928E-02 0. -1.
</event>
<event>
 5   0  0.4396257E-07  0.3411225E+04  0.7818609E-02  0.8135157E-01
        2   -1    0    0  501    0  0.00000000000E+00  0.00000000000E+00  0.19130376436E+04  0.19130376436E+04  0.25500000920E-02 0.  1.
       -2   -1    0    0    0  501  0.00000000000E+00  0.00000000000E+00 -0.15206780112E+04  0.15206780112E+04  0.25500000920E-02 0. -1.
    10030    2    1    2    0    0  0.00000000000E+00  0.00000000000E+00  0.39235963238E+03  0.34337156547E+04  0.34112251636E+04 0.  0.
        2    1    3    3  502    0  0.40259184366E+03  0.94499472644E+03  0.15667807972E+04  0.18734719886E+04  0.25500000920E-02 0.  1.
       -2    1    3    3    0  502 -0.40259184366E+03 -0.94499472644E+03 -0.11744211648E+04  0.15602436662E+04  0.25500000920E-02 0. -1.
</event>
<event>
 5   0  0.1473755E-07  0.3403361E+04  0.7818609E-02  0.8137082E-01
       -1   -1    0    0    0  501  0.00000000000E+00  0.00000000000E+00  0.19576730093E+04  0.19576730093E+04  0.50400001928E-02 0. -1.
        1   -1    0    0  501    0  0.00000000000E+00  0.00000000000E+00 -0.14791628629E+04  0.14791628629E+04  0.50400001928E-02 0.  1.
    10030    2    1    2    0    0  0.00000000000E+00  0.00000000000E+00  0.47851014635E+03  0.34368358722E+04  0.34033614049E+04 0.  0.
        1    1    3    3  502    0 -0.71529677660E+02 -0.11318904396E+04 -0.10418538647E+04  0.15400493296E+04  0.50400001928E-02 0.  1.
       -1    1    3    3    0  502  0.71529677660E+02  0.11318904396E+04  0.15203640110E+04  0.18967865426E+04  0.50400001928E-02 0. -1.
</event>
<event>
 5   0  0.4486226E-07  0.3398325E+04  0.7818609E-02  0.8138318E-01
        2   -1    0    0  501    0  0.00000000000E+00  0.00000000000E+00  0.11884661203E+04  0.11884661203E+04  0.25500000920E-02 0. -1.
       -2   -1    0    0    0  501  0.00000000000E+00  0.00000000000E+00 -0.24293101612E+04  0.24293101612E+04  0.25500000920E-02 0.  1.
    10030    2    1    2    0    0  0.00000000000E+00  0.00000000000E+00 -0.12408440409E+04  0.36177762815E+04  0.33983247769E+04 0.  0.
        1    1    3    3  502    0 -0.56508135381E+03 -0.95828069400E+03 -0.19877020190E+04  0.22778450652E+04  0.50400001928E-02 0.  1.
       -1    1    3    3    0  502  0.56508135381E+03  0.95828069400E+03  0.74685797806E+03  0.13399312163E+04  0.50400001928E-02 0. -1.
</event>
<event>
 5   0  0.4521737E-07  0.3389570E+04  0.7818609E-02  0.8140471E-01
        2   -1    0    0  501    0  0.00000000000E+00  0.00000000000E+00  0.16324664726E+04  0.16324664726E+04  0.25500000920E-02 0. -1.
       -2   -1    0    0    0  501  0.00000000000E+00  0.00000000000E+00 -0.17594825964E+04  0.17594825964E+04  0.25500000920E-02 0.  1.
    10030    2    1    2    0    0  0.00000000000E+00  0.00000000000E+00 -0.12701612382E+03  0.33919490689E+04  0.33895700893E+04 0.  0.
        4    1    3    3  502    0  0.33878005230E+02 -0.16934798369E+04 -0.12075885654E+03  0.16981183680E+04  0.12699999809E+01 0.  1.
       -4    1    3    3    0  502 -0.33878005230E+02  0.16934798369E+04 -0.62572672789E+01  0.16938307010E+04  0.12699999809E+01 0. -1.
</event>
<event>
 5   0  0.4381939E-07  0.3408840E+04  0.7818609E-02  0.8135740E-01
        2   -1    0    0  501    0  0.00000000000E+00  0.00000000000E+00  0.25639914840E+04  0.25639914840E+04  0.25500000920E-02 0. -1.
       -2   -1    0    0    0  501  0.00000000000E+00  0.00000000000E+00 -0.11330177815E+04  0.11330177815E+04  0.25500000920E-02 0.  1.
    10030    2    1    2    0    0  0.00000000000E+00  0.00000000000E+00  0.14309737025E+04  0.36970092655E+04  0.34088402385E+04 0.  0.
        3    1    3    3  502    0  0.15742896129E+04 -0.23416346737E+03  0.13768115055E+04  0.21044786163E+04  0.10100000352E+00 0. -1.
       -3    1    3    3    0  502 -0.15742896129E+04  0.23416346737E+03  0.54162197034E+02  0.15925306492E+04  0.10100000352E+00 0.  1.
</event>
<event>
 5   0  0.1421875E-07  0.3403441E+04  0.7818609E-02  0.8137062E-01
        1   -1    0    0  501    0  0.00000000000E+00  0.00000000000E+00  0.13854909729E+04  0.13854909729E+04  0.50400001928E-02 0.  1.
       -1   -1    0    0    0  501  0.00000000000E+00  0.00000000000E+00 -0.20901268989E+04  0.20901268989E+04  0.50400001928E-02 0. -1.
    10030    2    1    2    0    0  0.00000000000E+00  0.00000000000E+00 -0.70463592608E+03  0.34756178718E+04  0.34034405831E+04 0.  0.
        5    1    3    3  502    0 -0.35808180380E+03  0.16513289867E+04 -0.14624691160E+03  0.16960307337E+04  0.46999998093E+01 0. -1.
       -5    1    3    3    0  502  0.35808180380E+03 -0.16513289867E+04 -0.55838901448E+03  0.17795871381E+04  0.46999998093E+01 0.  1.
</event>
<event>
 5   0  0.1520084E-07  0.3390255E+04  0.7818609E-02  0.8140302E-01
        1   -1    0    0  501    0  0.00000000000E+00  0.00000000000E+00  0.19906701150E+04  0.19906701150E+04  0.50400001928E-02 0.  1.
       -1   -1    0    0    0  501  0.00000000000E+00  0.00000000000E+00 -0.14434624153E+04  0.14434624153E+04  0.50400001928E-02 0. -1.
    10030    2    1    2    0    0  0.00000000000E+00  0.00000000000E+00  0.54720769969E+03  0.34341325302E+04  0.33902551480E+04 0.  0.
        2    1    3    3  502    0 -0.90803663002E+02  0.38470444126E+03  0.19433353619E+04  0.19831276159E+04  0.25500000920E-02 0.  1.
       -2    1    3    3    0  502  0.90803663002E+02 -0.38470444126E+03 -0.13961276622E+04  0.14510049143E+04  0.25500000920E-02 0. -1.
</event>
<event>
 5   0  0.4486226E-07  0.3394677E+04  0.7818609E-02  0.8139214E-01
        2   -1    0    0  501    0  0.00000000000E+00  0.00000000000E+00  0.13715547720E+04  0.13715547720E+04  0.25500000920E-02 0.  1.
       -2   -1    0    0    0  501  0.00000000000E+00  0.00000000000E+00 -0.21005053469E+04  0.21005053469E+04  0.25500000920E-02 0. -1.
    10030    2    1    2    0    0  0.00000000000E+00  0.00000000000E+00 -0.72895057492E+03  0.34720601190E+04  0.33946770876E+04 0.  0.
        1    1    3    3  502    0 -0.11811777979E+04 -0.91396253166E+03 -0.11893644611E+04  0.19092135346E+04  0.50400001928E-02 0. -1.
       -1    1    3    3    0  502  0.11811777979E+04  0.91396253166E+03  0.46041388618E+03  0.15628465843E+04  0.50400001928E-02 0.  1.
</event>
<event>
 5   0  0.4521737E-07  0.3402286E+04  0.7818609E-02  0.8137345E-01
        2   -1    0    0  501    0  0.00000000000E+00  0.00000000000E+00  0.17796151513E+04  0.17796151513E+04  0.25500000920E-02 0. -1.
       -2   -1    0    0    0  501  0.00000000000E+00  0.00000000000E+00 -0.16261315431E+04  0.16261315431E+04  0.25500000920E-02 0.  1.
    10030    2    1    2    0    0  0.00000000000E+00  0.00000000000E+00  0.15348360812E+03  0.34057466944E+04  0.34022864853E+04 0.  0.
        4    1    3    3  502    0  0.38941419706E+03  0.13931531749E+04 -0.81935996672E+03  0.16624895649E+04  0.12699999809E+01 0.  1.
       -4    1    3    3    0  502 -0.38941419706E+03 -0.13931531749E+04  0.97284357483E+03  0.17432571295E+04  0.12699999809E+01 0. -1.
</event>
<event>
 5   0  0.4381939E-07  0.3409551E+04  0.7818609E-02  0.8135566E-01
        2   -1    0    0  501    0  0.00000000000E+00  0.00000000000E+00  0.12206436176E+04  0.12206436176E+04  0.25500000920E-02 0.  1.
       -2   -1    0    0    0  501  0.00000000000E+00  0.00000000000E+00 -0.23809243385E+04  0.23809243385E+04  0.25500000920E-02 0. -1.
    10030    2    1    2    0    0  0.00000000000E+00  0.00000000000E+00 -0.11602807209E+04  0.36015679562E+04  0.34095513475E+04 0.  0.
        3    1    3    3  502    0  0.12592016794E+04  0.11481364357E+04 -0.63246745546E+03  0.18176416690E+04  0.10100000352E+00 0. -1.
       -3    1    3    3    0  502 -0.12592016794E+04 -0.11481364357E+04 -0.52781326541E+03  0.17839262871E+04  0.10100000352E+00 0.  1.
</event>
<event>
 5   0  0.1435806E-07  0.3396282E+04  0.7818609E-02  0.8138819E-01
       -1   -1    0    0    0  501  0.00000000000E+00  0.00000000000E+00  0.13419442163E+04  0.13419442164E+04  0.50400001928E-02 0. -1.
        1   -1    0    0  501    0  0.00000000000E+00  0.00000000000E+00 -0.21488843680E+04  0.21488843680E+04  0.50400001928E-02 0.  1.
    10030    2    1    2    0    0  0.00000000000E+00  0.00000000000E+00 -0.80694015163E+03  0.34908285843E+04  0.33962820550E+04 0.  0.
        3    1    3    3  502    0 -0.85235503482E+03 -0.78273176791E+03 -0.16808479992E+04  0.20406930520E+04  0.10100000352E+00 0.  1.
       -3    1    3    3    0  502  0.85235503482E+03  0.78273176791E+03  0.87390784758E+03  0.14501355323E+04  0.10100000352E+00 0. -1.
</event>
<event>
 5   0  0.4396257E-07  0.3404472E+04  0.7818609E-02  0.8136810E-01
       -2   -1    0    0    0  501  0.00000000000E+00  0.00000000000E+00  0.10711758792E+04  0.10711758792E+04  0.25500000920E-02 0. -1.
        2   -1    0    0  501    0  0.00000000000E+00  0.00000000000E+00 -0.27050718945E+04  0.27050718945E+04  0.25500000920E-02 0.  1.
    10030    2    1    2    0    0  0.00000000000E+00  0.00000000000E+00 -0.16338960154E+04  0.37762477737E+04  0.34044722145E+04 0.  0.
        2    1    3    3  502    0  0.11353103767E+04  0.15159080564E+03  0.57980937038E+03  0.12837789256E+04  0.25500000920E-02 0. -1.
       -2    1    3    3    0  502 -0.11353103767E+04 -0.15159080564E+03 -0.22137053857E+04  0.24924688481E+04  0.25500000920E-02 0.  1.
</event>
<event>
 5   0  0.1473755E-07  0.3406027E+04  0.7818609E-02  0.8136429E-01
       -1   -1    0    0    0  501  0.00000000000E+00  0.00000000000E+00  0.27763431390E+04  0.27763431390E+04  0.50400001928E-02 0.  1.
        1   -1    0    0  501    0  0.00000000000E+00  0.00000000000E+00 -0.10446310850E+04  0.10446310850E+04  0.50400001928E-02 0. -1.
    10030    2    1    2    0    0  0.00000000000E+00  0.00000000000E+00  0.17317120540E+04  0.38209742240E+04  0.34060266268E+04 0.  0.
        1    1    3    3  502    0 -0.85555253931E+03  0.38972876115E+03 -0.72713727430E+03  0.11885231468E+04  0.50400001928E-02 0. -1.
       -1    1    3    3    0  502  0.85555253931E+03 -0.38972876115E+03  0.24588493283E+04  0.26324510772E+04  0.50400001928E-02 0.  1.
</event>
<event>
 5   0  0.1520084E-07  0.3376724E+04  0.7818609E-02  0.8143643E-01
        1   -1    0    0  501    0  0.00000000000E+00  0.00000000000E+00  0.13628991442E+04  0.13628991442E+04  0.50400001928E-02 0.  1.
       -1   -1    0    0    0  501  0.00000000000E+00  0.00000000000E+00 -0.20915457169E+04  0.20915457169E+04  0.50400001928E-02 0. -1.
    10030    2    1    2    0    0  0.00000000000E+00  0.00000000000E+00 -0.72864657274E+03  0.34544448611E+04  0.33767237776E+04 0.  0.
        2    1    3    3  502    0  0.24134584323E+03 -0.16630129407E+04 -0.19714216400E+03  0.16919588913E+04  0.25500000920E-02 0. -1.
       -2    1    3    3    0  502 -0.24134584323E+03  0.16630129407E+04 -0.53150440873E+03  0.17624859698E+04  0.25500000920E-02 0.  1.
</event>
<event>
 5   0  0.4447909E-07  0.3390401E+04  0.7818609E-02  0.8140266E-01
        2   -1    0    0  501    0  0.00000000000E+00  0.00000000000E+00  0.32990127363E+04  0.32990127363E+04  0.25500000920E-02 0.  1.
       -2   -1    0    0    0  501  0.00000000000E+00  0.00000000000E+00 -0.87108035422E+03  0.87108035422E+03  0.25500000920E-02 0. -1.
    10030    2    1    2    0    0  0.00000000000E+00  0.00000000000E+00  0.24279323821E+04  0.41700930905E+04  0.33904012641E+04 0.  0.
        5    1    3    3  502    0  0.62280177528E+03  0.10755433985E+04  0.26319078256E+04  0.29106075905E+04  0.46999998093E+01 0.  1.
       -5    1    3    3    0  502 -0.62280177528E+03 -0.10755433985E+04 -0.20397544352E+03  0.12594855000E+04  0.46999998093E+01 0. -1.
</event>
<event>
 5   0  0.1473755E-07  0.3395810E+04  0.7818609E-02  0.8138935E-01
       -1   -1    0    0    0  501  0.00000000000E+00  0.00000000000E+00  0.15314279544E+04  0.15314279545E+04  0.50400001928E-02 0. -1.
        1   -1    0    0  501    0  0.00000000000E+00  0.00000000000E+00 -0.18824791037E+04  0.18824791037E+04  0.50400001928E-02 0.  1.
    10030    2    1    2    0    0  0.00000000000E+00  0.00000000000E+00 -0.35105114923E+03  0.34139070581E+04  0.33958098434E+04 0.  0.
        1    1    3    3  502    0  0.12779580772E+04 -0.25144367840E+03 -0.12705873160E+04  0.18195584349E+04  0.50400001928E-02 0.  1.
       -1    1    3    3    0  502 -0.12779580772E+04  0.25144367840E+03  0.91953616674E+03  0.15943486232E+04  0.50400001928E-02 0. -1.
</event>
<event>
 5   0  0.4521737E-07  0.3398590E+04  0.7818609E-02  0.8138253E-01
       -2   -1    0    0    0  501  0.00000000000E+00  0.00000000000E+00  0.13771383366E+04  0.13771383366E+04  0.25500000920E-02 0.  1.
        2   -1    0    0  501    0  0.00000000000E+00  0.00000000000E+00 -0.20968138097E+04  0.20968138097E+04  0.25500000920E-02 0. -1.
    10030    2    1    2    0    0  0.00000000000E+00  0.00000000000E+00 -0.71967547308E+03  0.34739521463E+04  0.33985895204E+04 0.  0.
        4    1    3    3  502    0 -0.68233025604E+03 -0.51506660437E+03 -0.18609849965E+04  0.20479587289E+04  0.12699999809E+01 0. -1.
       -4    1    3    3    0  502  0.68233025604E+03  0.51506660437E+03  0.11413095234E+04  0.14259934174E+04  0.12699999809E+01 0.  1.
</event>
<event>
 5   0  0.1421875E-07  0.3418987E+04  0.7818609E-02  0.8133262E-01
       -3   -1    0    0    0  501  0.00000000000E+00  0.00000000000E+00  0.19829902897E+04  0.19829902923E+04  0.10100000352E+00 0. -1.
        3   -1    0    0  501    0  0.00000000000E+00  0.00000000000E+00 -0.14737175922E+04  0.14737175956E+04  0.10100000352E+00 0.  1.
    10030    2    1    2    0    0  0.00000000000E+00  0.00000000000E+00  0.50927269757E+03  0.34567078879E+04  0.34189868005E+04 0.  0.
        5    1    3    3  502    0 -0.51278958761E+03 -0.78849635774E+03 -0.11885810250E+04  0.15157264299E+04  0.46999998093E+01 0.  1.
       -5    1    3    3    0  502  0.51278958761E+03  0.78849635774E+03  0.16978537225E+04  0.19409814580E+04  0.46999998093E+01 0. -1.
</event>
<event>
 5   0  0.4381939E-07  0.3392890E+04  0.7818609E-02  0.8139654E-01
       -2   -1    0    0    0  501  0.00000000000E+00  0.00000000000E+00  0.15047213379E+04  0.15047213379E+04  0.25500000920E-02 0.  1.
        2   -1    0    0  501    0  0.00000000000E+00  0.00000000000E+00 -0.19125967150E+04  0.19125967150E+04  0.25500000920E-02 0. -1.
    10030    2    1    2    0    0  0.00000000000E+00  0.00000000000E+00 -0.40787537706E+03  0.34173180529E+04  0.33928896757E+04 0.  0.
        3    1    3    3  502    0 -0.56326704884E+03  0.89212603064E+03 -0.15419474524E+04  0.18683577225E+04  0.10100000352E+00 0. -1.
       -3    1    3    3    0  502  0.56326704884E+03 -0.89212603064E+03  0.11340720754E+04  0.15489603304E+04  0.10100000352E+00 0.  1.
</event>
<event>
 5   0  0.4381939E-07  0.3413131E+04  0.7818609E-02  0.8134691E-01
        2   -1    0    0  501    0  0.00000000000E+00  0.00000000000E+00  0.19574290919E+04  0.19574290919E+04  0.25500000920E-02 0.  1.
       -2   -1    0    0    0  501  0.00000000000E+00  0.00000000000E+00 -0.14878522042E+04  0.14878522042E+04  0.25500000920E-02 0. -1.
    10030    2    1    2    0    0  0.00000000000E+00  0.00000000000E+00  0.46957688775E+03  0.34452812961E+04  0.34131306386E+04 0.  0.
        3    1    3    3  502    0 -0.80868425564E+03  0.14916413918E+04  0.50307744696E+02  0.16974967294E+04  0.10100000352E+00 0.  1.
       -3    1    3    3    0  502  0.80868425564E+03 -0.14916413918E+04  0.41926914305E+03  0.17477845667E+04  0.10100000352E+00 0. -1.
</event>
<event>
 5   0  0.1435806E-07  0.3406074E+04  0.7818609E-02  0.8136417E-01
       -1   -1    0    0    0  501  0.00000000000E+00  0.00000000000E+00  0.19042170659E+04  0.19042170659E+04  0.50400001928E-02 0.  1.
        1   -1    0    0  501    0  0.00000000000E+00  0.00000000000E+00 -0.15231115544E+04  0.15231115544E+04  0.50400001928E-02 0. -1.
    10030    2    1    2    0    0  0.00000000000E+00  0.00000000000E+00  0.38110551150E+03  0.34273286203E+04  0.34060739952E+04 0.  0.
        3    1    3    3  502    0 -0.59094147441E+03  0.61376629958E+03  0.16743439783E+04  0.18786560794E+04  0.10100000352E+00 0.  1.
       -3    1    3    3    0  502  0.59094147441E+03 -0.61376629958E+03 -0.12932384668E+04  0.15486725409E+04  0.10100000352E+00 0. -1.
</event>
<event>
 5   0  0.4396257E-07  0.3466622E+04  0.7818609E-02  0.8121746E-01
       -2   -1    0    0    0  501  0.00000000000E+00  0.00000000000E+00  0.13063349336E+04  0.13063349336E+04  0.25500000920E-02 0.  1.
        2   -1    0    0  501    0  0.00000000000E+00  0.00000000000E+00 -0.22998441653E+04  0.22998441653E+04  0.25500000920E-02 0. -1.
    10030    2    1    2    0    0  0.00000000000E+00  0.00000000000E+00 -0.99350923170E+03  0.36061790989E+04  0.34666218571E+04 0.  0.
        2    1    3    3  502    0 -0.18759728720E+03  0.83918432879E+03 -0.20623139292E+04  0.22344041314E+04  0.25500000920E-02 0. -1.
       -2    1    3    3    0  502  0.18759728720E+03 -0.83918432879E+03  0.10688046975E+04  0.13717749675E+04  0.25500000920E-02 0.  1.
</event>
<event>
 5   0  0.4521737E-07  0.3418172E+04  0.7818609E-02  0.8133461E-01
       -2   -1    0    0    0  501  0.00000000000E+00  0.00000000000E+00  0.17681976376E+04  0.17681976376E+04  0.25500000920E-02 0.  1.
        2   -1    0    0  501    0  0.00000000000E+00  0.00000000000E+00 -0.16519501277E+04  0.16519501277E+04  0.25500000920E-02 0. -1.
    10030    2    1    2    0    0  0.00000000000E+00  0.00000000000E+00  0.11624750995E+03  0.34201477653E+04  0.34181716242E+04 0.  0.
        4    1    3    3  502    0  0.16365793367E+04 -0.11539492404E+03  0.53721659774E+03  0.17263577843E+04  0.12699999809E+01 0.  1.
       -4    1    3    3    0  502 -0.16365793367E+04  0.11539492404E+03 -0.42096908779E+03  0.16937899809E+04  0.12699999809E+01 0. -1.
</event>
<event>
 5   0  0.4521737E-07  0.3406703E+04  0.7818609E-02  0.8136263E-01
        2   -1    0    0  501    0  0.00000000000E+00  0.00000000000E+00  0.17555390473E+04  0.17555390473E+04  0.25500000920E-02 0.  1.
       -2   -1    0    0    0  501  0.00000000000E+00  0.00000000000E+00 -0.16527148950E+04  0.16527148950E+04  0.25500000920E-02 0. -1.
    10030    2    1    2    0    0  0.00000000000E+00  0.00000000000E+00  0.10282415232E+03  0.34082539423E+04  0.34067025302E+04 0.  0.
        4    1    3    3  502    0  0.10072576734E+03 -0.13017090960E+04  0.11458991582E+04  0.17371467251E+04  0.12699999809E+01 0.  1.
       -4    1    3    3    0  502 -0.10072576734E+03  0.13017090960E+04 -0.10430750059E+04  0.16711072172E+04  0.12699999809E+01 0. -1.
</event>
<event>
 5   0  0.1523259E-07  0.3402505E+04  0.7818609E-02  0.8137292E-01
        1   -1    0    0  501    0  0.00000000000E+00  0.00000000000E+00  0.18504124000E+04  0.18504124000E+04  0.50400001928E-02 0. -1.
       -1   -1    0    0    0  501  0.00000000000E+00  0.00000000000E+00 -0.15641159082E+04  0.15641159082E+04  0.50400001928E-02 0.  1.
    10030    2    1    2    0    0  0.00000000000E+00  0.00000000000E+00  0.28629649177E+03  0.34145283082E+04  0.34025046489E+04 0.  0.
        4    1    3    3  502    0  0.53616705507E+03 -0.67709306733E+03 -0.13277487366E+04  0.15839344851E+04  0.12699999809E+01 0.  1.
       -4    1    3    3    0  502 -0.53616705507E+03  0.67709306733E+03  0.16140452284E+04  0.18305938230E+04  0.12699999809E+01 0. -1.
</event>
<event>
 5   0  0.1421875E-07  0.3400487E+04  0.7818609E-02  0.8137787E-01
        1   -1    0    0  501    0  0.00000000000E+00  0.00000000000E+00  0.19749468294E+04  0.19749468294E+04  0.50400001928E-02 0. -1.
       -1   -1    0    0    0  501  0.00000000000E+00  0.00000000000E+00 -0.14637494286E+04  0.14637494286E+04  0.50400001928E-02 0.  1.
    10030    2    1    2    0    0  0.00000000000E+00  0.00000000000E+00  0.51119740077E+03  0.34386962580E+04  0.34004866081E+04 0.  0.
        5    1    3    3  502    0 -0.14585336027E+04  0.25018077391E+03 -0.59100288474E+03  0.15934921367E+04  0.46999998093E+01 0.  1.
       -5    1    3    3    0  502  0.14585336027E+04 -0.25018077391E+03  0.11022002855E+04  0.18452041213E+04  0.46999998093E+01 0. -1.
</event>
<event>
 5   0  0.1473755E-07  0.3385905E+04  0.7818609E-02  0.8141374E-01
       -1   -1    0    0    0  501  0.00000000000E+00  0.00000000000E+00  0.14070336324E+04  0.14070336324E+04  0.50400001928E-02 0.  1.
        1   -1    0    0  501    0  0.00000000000E+00  0.00000000000E+00 -0.20369724862E+04  0.20369724862E+04  0.50400001928E-02 0. -1.
    10030    2    1    2    0    0  0.00000000000E+00  0.00000000000E+00 -0.62993885379E+03  0.34440061186E+04  0.33859053716E+04 0.  0.
        1    1    3    3  502    0 -0.68865626096E+02 -0.16877161039E+04 -0.19917093608E+03  0.17008225021E+04  0.50400001928E-02 0. -1.
       -1    1    3    3    0  502  0.68865626096E+02  0.16877161039E+04 -0.43076791771E+03  0.17431836165E+04  0.50400001928E-02 0.  1.
</event>
<event>
 5   0  0.1523259E-07  0.3397734E+04  0.7818609E-02  0.8138463E-01
       -1   -1    0    0    0  501  0.00000000000E+00  0.00000000000E+00  0.19137148737E+04  0.19137148738E+04  0.50400001928E-02 0.  1.
        1   -1    0    0  501    0  0.00000000000E+00  0.00000000000E+00 -0.15081395206E+04  0.15081395206E+04  0.50400001928E-02 0. -1.
    10030    2    1    2    0    0  0.00000000000E+00  0.00000000000E+00  0.40557535316E+03  0.34218543944E+04  0.33977339697E+04 0.  0.
        4    1    3    3  502    0 -0.15526439985E+04 -0.68609723941E+03  0.13363721114E+03  0.17027311370E+04  0.12699999809E+01 0.  1.
       -4    1    3    3    0  502  0.15526439985E+04  0.68609723941E+03  0.27193814202E+03  0.17191232573E+04  0.12699999809E+01 0. -1.
</event>
<event>
 5   0  0.1473755E-07  0.3397600E+04  0.7818609E-02  0.8138496E-01
       -1   -1    0    0    0  501  0.00000000000E+00  0.00000000000E+00  0.10337321769E+04  0.10337321769E+04  0.50400001928E-02 0. -1.
        1   -1    0    0  501    0  0.00000000000E+00  0.00000000000E+00 -0.27917492165E+04  0.27917492165E+04  0.50400001928E-02 0.  1.
    10030    2    1    2    0    0  0.00000000000E+00  0.00000000000E+00 -0.17580170396E+04  0.38254813933E+04  0.33975997379E+04 0.  0.
        1    1    3    3  502    0  0.11129958912E+04  0.28466380476E+03  0.53004490312E+03  0.12652039104E+04  0.50400001928E-02 0. -1.
       -1    1    3    3    0  502 -0.11129958912E+04 -0.28466380476E+03 -0.22880619427E+04  0.25602774829E+04  0.50400001928E-02 0.  1.
</event>
<event>
 5   0  0.4396257E-07  0.3353991E+04  0.7818609E-02  0.8149292E-01
        2   -1    0    0  501    0  0.00000000000E+00  0.00000000000E+00  0.14686463406E+04  0.14686463406E+04  0.25500000920E-02 0.  1.
       -2   -1    0    0    0  501  0.00000000000E+00  0.00000000000E+00 -0.19149018765E+04  0.19149018765E+04  0.25500000920E-02 0. -1.
    10030    2    1    2    0    0  0.00000000000E+00  0.00000000000E+00 -0.44625553584E+03  0.33835482171E+04  0.33539908369E+04 0.  0.
        2    1    3    3  502    0 -0.66739239664E+03  0.10838986282E+04 -0.13245667108E+04  0.18370426829E+04  0.25500000920E-02 0. -1.
       -2    1    3    3    0  502  0.66739239664E+03 -0.10838986282E+04  0.87831117494E+03  0.15465055342E+04  0.25500000920E-02 0.  1.
</event>
<event>
 5   0  0.1523259E-07  0.3405740E+04  0.7818609E-02  0.8136499E-01
       -1   -1    0    0    0  501  0.00000000000E+00  0.00000000000E+00  0.14844516519E+04  0.14844516519E+04  0.50400001928E-02 0.  1.
        1   -1    0    0  501    0  0.00000000000E+00  0.00000000000E+00 -0.19534254756E+04  0.19534254756E+04  0.50400001928E-02 0. -1.
    10030    2    1    2    0    0  0.00000000000E+00  0.00000000000E+00 -0.46897382375E+03  0.34378771275E+04  0.34057396695E+04 0.  0.
        4    1    3    3  502    0 -0.14661774802E+03 -0.31176193340E+03 -0.19178779192E+04  0.19485762990E+04  0.12699999809E+01 0. -1.
       -4    1    3    3    0  502  0.14661774802E+03  0.31176193340E+03  0.14489040954E+04  0.14893008285E+04  0.12699999809E+01 0.  1.
</event>
<event>
 5   0  0.4396257E-07  0.3402130E+04  0.7818609E-02  0.8137384E-01
        2   -1    0    0  501    0  0.00000000000E+00  0.00000000000E+00  0.24161421304E+04  0.24161421304E+04  0.25500000920E-02 0.  1.
       -2   -1    0    0    0  501  0.00000000000E+00  0.00000000000E+00 -0.11976209926E+04  0.11976209926E+04  0.25500000920E-02 0. -1.
    10030    2    1    2    0    0  0.00000000000E+00  0.00000000000E+00  0.12185211378E+04  0.36137631231E+04  0.34021302365E+04 0.  0.
        2    1    3    3  502    0 -0.31880555605E+02  0.16885141428E+04  0.82571656137E+03  0.18798681390E+04  0.25500000920E-02 0.  1.
       -2    1    3    3    0  502  0.31880555605E+02 -0.16885141428E+04  0.39280457645E+03  0.17338949840E+04  0.25500000920E-02 0. -1.
</event>
<event>
 5   0  0.1473755E-07  0.3415172E+04  0.7818609E-02  0.8134193E-01
       -1   -1    0    0    0  501  0.00000000000E+00  0.00000000000E+00  0.15352695932E+04  0.15352695932E+04  0.50400001928E-02 0.  1.
        1   -1    0    0  501    0  0.00000000000E+00  0.00000000000E+00 -0.18992426216E+04  0.18992426216E+04  0.50400001928E-02 0. -1.
    10030    2    1    2    0    0  0.00000000000E+00  0.00000000000E+00 -0.36397302838E+03  0.34345122148E+04  0.34151717070E+04 0.  0.
        1    1    3    3  502    0 -0.72603399132E+02 -0.17048565863E+04 -0.24592497232E+03  0.17240319966E+04  0.50400001928E-02 0.  1.
       -1    1    3    3    0  502  0.72603399132E+02  0.17048565863E+04 -0.11804805605E+03  0.17104802182E+04  0.50400001928E-02 0. -1.
</event>
<event>
 5   0  0.1435806E-07  0.3398335E+04  0.7818609E-02  0.8138315E-01
       -1   -1    0    0    0  501  0.00000000000E+00  0.00000000000E+00  0.16186463225E+04  0.16186463225E+04  0.50400001928E-02 0. -1.
        1   -1    0    0  501    0  0.00000000000E+00  0.00000000000E+00 -0.17836946575E+04  0.17836946575E+04  0.50400001928E-02 0.  1.
    10030    2    1    2    0    0  0.00000000000E+00  0.00000000000E+00 -0.16504833502E+03  0.34023409799E+04  0.33983353559E+04 0.  0.
        3    1    3    3  502    0  0.43678977264E+03  0.45691919563E+03 -0.16615992412E+04  0.17777717811E+04  0.10100000352E+00 0.  1.
       -3    1    3    3    0  502 -0.43678977264E+03 -0.45691919563E+03  0.14965509062E+04  0.16245691989E+04  0.10100000352E+00 0. -1.
</event>
<event>
 5   0  0.4396257E-07  0.3443200E+04  0.7818609E-02  0.8127384E-01
       -2   -1    0    0    0  501  0.00000000000E+00  0.00000000000E+00  0.24707499896E+04  0.24707499896E+04  0.25500000920E-02 0.  1.
        2   -1    0    0  501    0  0.00000000000E+00  0.00000000000E+00 -0.11995978099E+04  0.11995978099E+04  0.25500000920E-02 0. -1.
    10030    2    1    2    0    0  0.00000000000E+00  0.00000000000E+00  0.12711521797E+04  0.36703477995E+04  0.34431998352E+04 0.  0.
        2    1    3    3  502    0  0.58338459637E+03 -0.65285950902E+03 -0.94455796454E+03  0.12879258031E+04  0.25500000920E-02 0. -1.
       -2    1    3    3    0  502 -0.58338459637E+03  0.65285950902E+03  0.22157101442E+04  0.23824219964E+04  0.25500000920E-02 0.  1.
</event>
<event>
 5   0  0.4486226E-07  0.3392984E+04  0.7818609E-02  0.8139630E-01
       -2   -1    0    0    0  501  0.00000000000E+00  0.00000000000E+00  0.12716864592E+04  0.12716864592E+04  0.25500000920E-02 0. -1.
        2   -1    0    0  501    0  0.00000000000E+00  0.00000000000E+00 -0.22632037652E+04  0.22632037652E+04  0.25500000920E-02 0.  1.
    10030    2    1    2    0    0  0.00000000000E+00  0.00000000000E+00 -0.99151730606E+03  0.35348902244E+04  0.33929842809E+04 0.  0.
        1    1    3    3  502    0  0.13662924981E+03  0.16829752314E+04 -0.32453030068E+03  0.17194164992E+04  0.50400001928E-02 0. -1.
       -1    1    3    3    0  502 -0.13662924981E+03 -0.16829752314E+04 -0.66698700538E+03  0.18154737252E+04  0.50400001928E-02 0.  1.
</event>
<event>
 5   0  0.4447909E-07  0.3404472E+04  0.7818609E-02  0.8136810E-01
        2   -1    0    0  501    0  0.00000000000E+00  0.00000000000E+00  0.29263600756E+04  0.29263600756E+04  0.25500000920E-02 0.  1.
       -2   -1    0    0    0  501  0.00000000000E+00  0.00000000000E+00 -0.99017471405E+03  0.99017471406E+03  0.25500000920E-02 0. -1.
    10030    2    1    2    0    0  0.00000000000E+00  0.00000000000E+00  0.19361853616E+04  0.39165347897E+04  0.34044722064E+04 0.  0.
        5    1    3    3  502    0 -0.12728209452E+04  0.79172965547E+03  0.40120817335E+02  0.14995135130E+04  0.46999998093E+01 0. -1.
       -5    1    3    3    0  502  0.12728209452E+04 -0.79172965547E+03  0.18960645442E+04  0.24170212766E+04  0.46999998093E+01 0.  1.
</event>
<event>
 5   0  0.1523259E-07  0.3325394E+04  0.7818609E-02  0.8156464E-01
        1   -1    0    0  501    0  0.00000000000E+00  0.00000000000E+00  0.12957324144E+04  0.12957324144E+04  0.50400001928E-02 0.  1.
       -1   -1    0    0    0  501  0.00000000000E+00  0.00000000000E+00 -0.21335893715E+04  0.21335893715E+04  0.50400001928E-02 0. -1.
    10030    2    1    2    0    0  0.00000000000E+00  0.00000000000E+00 -0.83785695714E+03  0.34293217859E+04  0.33253937557E+04 0.  0.
        4    1    3    3  502    0  0.82764147942E+03 -0.11951690067E+04 -0.12510798304E+04  0.19179733387E+04  0.12699999809E+01 0. -1.
       -4    1    3    3    0  502 -0.82764147942E+03  0.11951690067E+04  0.41322287327E+03  0.15113484472E+04  0.12699999809E+01 0.  1.
</event>
<event>
 5   0  0.1473755E-07  0.3418349E+04  0.7818609E-02  0.8133417E-01
       -1   -1    0    0    0  501  0.00000000000E+00  0.00000000000E+00  0.22725706637E+04  0.22725706637E+04  0.50400001928E-02 0.  1.
        1   -1    0    0  501    0  0.00000000000E+00  0.00000000000E+00 -0.12854509864E+04  0.12854509864E+04  0.50400001928E-02 0. -1.
    10030    2    1    2    0    0  0.00000000000E+00  0.00000000000E+00  0.98711967731E+03  0.35580216501E+04  0.34183494270E+04 0.  0.
        1    1    3    3  502    0  0.12252242482E+04  0.50297744884E+03  0.16180338149E+04  0.20909792439E+04  0.50400001928E-02 0.  1.
       -1    1    3    3    0  502 -0.12252242482E+04 -0.50297744884E+03 -0.63091413759E+03  0.14670424061E+04  0.50400001928E-02 0. -1.
</event>
<event>
 5   0  0.1421875E-07  0.3384448E+04  0.7818609E-02  0.8141734E-01
        1   -1    0    0  501    0  0.00000000000E+00  0.00000000000E+00  0.23920705718E+04  0.23920705718E+04  0.50400001928E-02 0.  1.
       -1   -1    0    0    0  501  0.00000000000E+00  0.00000000000E+00 -0.11971312180E+04  0.11971312180E+04  0.50400001928E-02 0. -1.
    10030    2    1    2    0    0  0.00000000000E+00  0.00000000000E+00  0.11949393538E+04  0.35892017898E+04  0.33844481720E+04 0.  0.
        5    1    3    3  502    0 -0.56444043338E+02 -0.16746933838E+04  0.34692167227E+03  0.17111868970E+04  0.46999998093E+01 0. -1.
       -5    1    3    3    0  502  0.56444043338E+02  0.16746933838E+04  0.84801768148E+03  0.18780148929E+04  0.46999998093E+01 0.  1.
</event>
<event>
 5   0  0.4381939E-07  0.3386678E+04  0.7818609E-02  0.8141184E-01
       -2   -1    0    0    0  501  0.00000000000E+00  0.00000000000E+00  0.12209665869E+04  0.12209665869E+04  0.25500000920E-02 0.  1.
        2   -1    0    0  501    0  0.00000000000E+00  0.00000000000E+00 -0.23484650848E+04  0.23484650848E+04  0.25500000920E-02 0. -1.
    10030    2    1    2    0    0  0.00000000000E+00  0.00000000000E+00 -0.11274984979E+04  0.35694316717E+04  0.33866782540E+04 0.  0.
        3    1    3    3  502    0 -0.12873904130E+04  0.33644968864E+03 -0.16675578869E+04  0.21333827094E+04  0.10100000352E+00 0. -1.
       -3    1    3    3    0  502  0.12873904130E+04 -0.33644968864E+03  0.54005938895E+03  0.14360489623E+04  0.10100000352E+00 0.  1.
</event>
<event>
 5   0  0.4396257E-07  0.3381099E+04  0.7818609E-02  0.8142561E-01
       -2   -1    0    0    0  501  0.00000000000E+00  0.00000000000E+00  0.15124968403E+04  0.15124968403E+04  0.25500000920E-02 0.  1.
        2   -1    0    0  501    0  0.00000000000E+00  0.00000000000E+00 -0.18895628626E+04  0.18895628626E+04  0.25500000920E-02 0. -1.
    10030    2    1    2    0    0  0.00000000000E+00  0.00000000000E+00 -0.37706602221E+03  0.34020597029E+04  0.33810991463E+04 0.  0.
        2    1    3    3  502    0 -0.16706968328E+04  0.15160747110E+03  0.21916957157E+02  0.16777047075E+04  0.25500000920E-02 0.  1.
       -2    1    3    3    0  502  0.16706968328E+04 -0.15160747110E+03 -0.39898297937E+03  0.17243549954E+04  0.25500000920E-02 0. -1.
</event>
<event>
 5   0  0.1520084E-07  0.3408493E+04  0.7818609E-02  0.8135825E-01
        1   -1    0    0  501    0  0.00000000000E+00  0.00000000000E+00  0.84291979590E+03  0.84291979592E+03  0.50400001928E-02 0.  1.
       -1   -1    0    0    0  501  0.00000000000E+00  0.00000000000E+00 -0.34457078250E+04  0.34457078250E+04  0.50400001928E-02 0. -1.
    10030    2    1    2    0    0  0.00000000000E+00  0.00000000000E+00 -0.26027880291E+04  0.42886276209E+04  0.34084925329E+04 0.  0.
        2    1    3    3  502    0 -0.51900358083E+03 -0.11245553147E+03  0.73616001560E+03  0.90771280262E+03  0.25500000920E-02 0.  1.
       -2    1    3    3    0  502  0.51900358083E+03  0.11245553147E+03 -0.33389480447E+04  0.33809148183E+04  0.25500000920E-02 0. -1.
</event>
<event>
 5   0  0.1520084E-07  0.3382332E+04  0.7818609E-02  0.8142256E-01
        1   -1    0    0  501    0  0.00000000000E+00  0.00000000000E+00  0.21004388969E+04  0.21004388969E+04  0.50400001928E-02 0. -1.
       -1   -1    0    0    0  501  0.00000000000E+00  0.00000000000E+00 -0.13616407128E+04  0.13616407128E+04  0.50400001928E-02 0.  1.
    10030    2    1    2    0    0  0.00000000000E+00  0.00000000000E+00  0.73879818417E+03  0.34620796097E+04  0.33823324005E+04 0.  0.
        2    1    3    3  502    0 -0.95346355613E+03  0.42315508119E+02 -0.10596412294E+04  0.14260865647E+04  0.25500000920E-02 0.  1.
       -2    1    3    3    0  502  0.95346355613E+03 -0.42315508119E+02  0.17984394135E+04  0.20359930450E+04  0.25500000920E-02 0. -1.
</event>
<event>
 5   0  0.4521737E-07  0.3299472E+04  0.7818609E-02  0.8163030E-01
       -2   -1    0    0    0  501  0.00000000000E+00  0.00000000000E+00  0.19329637467E+04  0.19329637467E+04  0.25500000920E-02 0.  1.
        2   -1    0    0  501    0  0.00000000000E+00  0.00000000000E+00 -0.14080086255E+04  0.14080086255E+04  0.25500000920E-02 0. -1.
    10030    2    1    2    0    0  0.00000000000E+00  0.00000000000E+00  0.52495512122E+03  0.33409723721E+04  0.32994724597E+04 0.  0.
        4    1    3    3  502    0 -0.10020981689E+04 -0.68845029328E+03 -0.86665489784E+03  0.14930696137E+04  0.12699999809E+01 0. -1.
       -4    1    3    3    0  502  0.10020981689E+04  0.68845029328E+03  0.13916100191E+04  0.18479027584E+04  0.12699999809E+01 0.  1.
</event>
<event>
 5   0  0.1435806E-07  0.3417133E+04  0.7818609E-02  0.8133714E-01
        1   -1    0    0  501    0  0.00000000000E+00  0.00000000000E+00  0.15652766441E+04  0.15652766441E+04  0.50400001928E-02 0.  1.
       -1   -1    0    0    0  501  0.00000000000E+00  0.00000000000E+00 -0.18649736469E+04  0.18649736469E+04  0.50400001928E-02 0. -1.
    10030    2    1    2    0    0  0.00000000000E+00  0.00000000000E+00 -0.29969700285E+03  0.34302502910E+04  0.34171331208E+04 0.  0.
        3    1    3    3  502    0  0.12239587688E+03 -0.67751568256E+03  0.14198648220E+04  0.15779811069E+04  0.10100000352E+00 0.  1.
       -3    1    3    3    0  502 -0.12239587688E+03  0.67751568256E+03 -0.17195618248E+04  0.18522691841E+04  0.10100000352E+00 0. -1.
</event>
<event>
 5   0  0.4486226E-07  0.3397492E+04  0.7818609E-02  0.8138522E-01
       -2   -1    0    0    0  501  0.00000000000E+00  0.00000000000E+00  0.18615190952E+04  0.18615190952E+04  0.25500000920E-02 0. -1.
        2   -1    0    0  501    0  0.00000000000E+00  0.00000000000E+00 -0.15502056531E+04  0.15502056531E+04  0.25500000920E-02 0.  1.
    10030    2    1    2    0    0  0.00000000000E+00  0.00000000000E+00  0.31131344216E+03  0.34117247483E+04  0.33974916775E+04 0.  0.
        1    1    3    3  502    0  0.25725584365E+03 -0.39185319077E+03 -0.14839749665E+04  0.15562490782E+04  0.50400001928E-02 0.  1.
       -1    1    3    3    0  502 -0.25725584365E+03  0.39185319077E+03  0.17952884086E+04  0.18554756701E+04  0.50400001928E-02 0. -1.
</event>
<event>
 5   0  0.1520084E-07  0.3400110E+04  0.7818609E-02  0.8137879E-01
       -1   -1    0    0    0  501  0.00000000000E+00  0.00000000000E+00  0.96719739047E+03  0.96719739048E+03  0.50400001928E-02 0.  1.
        1   -1    0    0  501    0  0.00000000000E+00  0.00000000000E+00 -0.29882077448E+04  0.29882077448E+04  0.50400001928E-02 0. -1.
    10030    2    1    2    0    0  0.00000000000E+00  0.00000000000E+00 -0.20210103544E+04  0.39554051353E+04  0.34001098412E+04 0.  0.
        2    1    3    3  502    0 -0.50969629180E+03 -0.16138697259E+04 -0.11974373155E+04  0.20732153594E+04  0.25500000920E-02 0.  1.
       -2    1    3    3    0  502  0.50969629180E+03  0.16138697259E+04 -0.82357303891E+03  0.18821897759E+04  0.25500000920E-02 0. -1.
</event>
<event>
 5   0  0.1523259E-07  0.3365657E+04  0.7818609E-02  0.8146387E-01
        1   -1    0    0  501    0  0.00000000000E+00  0.00000000000E+00  0.18471376012E+04  0.18471376012E+04  0.50400001928E-02 0. -1.
       -1   -1    0    0    0  501  0.00000000000E+00  0.00000000000E+00 -0.15331353602E+04  0.15331353602E+04  0.50400001928E-02 0.  1.
    10030    2    1    2    0    0  0.00000000000E+00  0.00000000000E+00  0.31400224099E+03  0.33802729613E+04  0.33656571254E+04 0.  0.
        4    1    3    3  502    0  0.12597602445E+04  0.94215411561E+03  0.75730916518E+03  0.17459006374E+04  0.12699999809E+01 0. -1.
       -4    1    3    3    0  502 -0.12597602445E+04 -0.94215411561E+03 -0.44330692418E+03  0.16343723239E+04  0.12699999809E+01 0.  1.
</event>
<event>
 5   0  0.4521737E-07  0.3401372E+04  0.7818609E-02  0.8137570E-01
        2   -1    0    0  501    0  0.00000000000E+00  0.00000000000E+00  0.18899252211E+04  0.18899252211E+04  0.25500000920E-02 0. -1.
       -2   -1    0    0    0  501  0.00000000000E+00  0.00000000000E+00 -0.15303954422E+04  0.15303954422E+04  0.25500000920E-02 0.  1.
    10030    2    1    2    0    0  0.00000000000E+00  0.00000000000E+00  0.35952977892E+03  0.34203206632E+04  0.34013720434E+04 0.  0.
        4    1    3    3  502    0  0.31659039476E+03  0.15828225268E+04  0.71826166217E+03  0.17667648564E+04  0.12699999809E+01 0.  1.
       -4    1    3    3    0  502 -0.31659039476E+03 -0.15828225268E+04 -0.35873188325E+03  0.16535558069E+04  0.12699999809E+01 0. -1.
</event>
<event>
 5   0  0.4396257E-07  0.3414892E+04  0.7818609E-02  0.8134261E-01
       -2   -1    0    0    0  501  0.00000000000E+00  0.00000000000E+00  0.13851287826E+04  0.13851287826E+04  0.25500000920E-02 0.  1.
        2   -1    0    0  501    0  0.00000000000E+00  0.00000000000E+00 -0.21047653998E+04  0.21047653998E+04  0.25500000920E-02 0. -1.
    10030    2    1    2    0    0  0.00000000000E+00  0.00000000000E+00 -0.71963661716E+03  0.34898941824E+04  0.34148915859E+04 0.  0.
        2    1    3    3  502    0 -0.96427374043E+03  0.80984839747E+03  0.81863127466E+03  0.15019438862E+04  0.25500000920E-02 0.  1.
       -2    1    3    3    0  502  0.96427374043E+03 -0.80984839747E+03 -0.15382678918E+04  0.19879502963E+04  0.25500000920E-02 0. -1.
</event>
<event>
 5   0  0.1421875E-07  0.3402640E+04  0.7818609E-02  0.8137259E-01
       -1   -1    0    0    0  501  0.00000000000E+00  0.00000000000E+00  0.23225625746E+04  0.23225625746E+04  0.50400001928E-02 0.  1.
        1   -1    0    0  501    0  0.00000000000E+00  0.00000000000E+00 -0.12462483594E+04  0.12462483594E+04  0.50400001928E-02 0. -1.
    10030    2    1    2    0    0  0.00000000000E+00  0.00000000000E+00  0.10763142152E+04  0.35688109340E+04  0.34026400329E+04 0.  0.
        5    1    3    3  502    0  0.48199893121E+03 -0.56800313719E+03 -0.10660877374E+04  0.13005828260E+04  0.46999998093E+01 0. -1.
       -5    1    3    3    0  502 -0.48199893121E+03  0.56800313719E+03  0.21424019526E+04  0.22682281080E+04  0.46999998093E+01 0.  1.
</event>
<event>
 5   0  0.4447909E-07  0.3344745E+04  0.7818609E-02  0.8151602E-01
        2   -1    0    0  501    0  0.00000000000E+00  0.00000000000E+00  0.17104536229E+04  0.17104536229E+04  0.25500000920E-02 0. -1.
       -2   -1    0    0    0  501  0.00000000000E+00  0.00000000000E+00 -0.16351391469E+04  0.16351391469E+04  0.25500000920E-02 0.  1.
    10030    2    1    2    0    0  0.00000000000E+00  0.00000000000E+00  0.75314476008E+02  0.33455927697E+04  0.33447449396E+04 0.  0.
        5    1    3    3  502    0 -0.14575247467E+04  0.10591836227E+03  0.85101186694E+03  0.16911062576E+04  0.46999998093E+01 0. -1.
       -5    1    3    3    0  502  0.14575247467E+04 -0.10591836227E+03 -0.77569739093E+03  0.16544865122E+04  0.46999998093E+01 0.  1.
</event>
<event>
 5   0  0.4396257E-07  0.3436974E+04  0.7818609E-02  0.8128891E-01
       -2   -1    0    0    0  501  0.00000000000E+00  0.00000000000E+00  0.10264667860E+04  0.10264667860E+04  0.25500000920E-02 0. -1.
        2   -1    0    0  501    0  0.00000000000E+00  0.00000000000E+00 -0.28770510687E+04  0.28770510687E+04  0.25500000920E-02 0.  1.
    10030    2    1    2    0    0  0.00000000000E+00  0.00000000000E+00 -0.18505842827E+04  0.39035178547E+04  0.34369738804E+04 0.  0.
        2    1    3    3  502    0 -0.75986403469E+03  0.28640145001E+03 -0.26453998850E+04  0.27672296062E+04  0.25500000920E-02 0.  1.
       -2    1    3    3    0  502  0.75986403469E+03 -0.28640145001E+03  0.79481560236E+03  0.11362882484E+04  0.25500000920E-02 0. -1.
</event>
<event>
 5   0  0.1421875E-07  0.3401335E+04  0.7818609E-02  0.8137579E-01
       -4   -1    0    0    0  501  0.00000000000E+00  0.00000000000E+00  0.15741954762E+04  0.15741959885E+04  0.12699999809E+01 0.  1.
        4   -1    0    0  501    0  0.00000000000E+00  0.00000000000E+00 -0.18372990002E+04  0.18372994391E+04  0.12699999809E+01 0. -1.
    10030    2    1    2    0    0  0.00000000000E+00  0.00000000000E+00 -0.26310352396E+03  0.34114954276E+04  0.34013346775E+04 0.  0.
        1    1    3    3  502    0 -0.58761324987E+03  0.14984705957E+04  0.41923890282E+03  0.16632692852E+04  0.50400001928E-02 0. -1.
       -1    1    3    3    0  502  0.58761324987E+03 -0.14984705957E+04 -0.68234242677E+03  0.17482261424E+04  0.50400001928E-02 0.  1.
</event>
<event>
 5   0  0.1435806E-07  0.3397231E+04  0.7818609E-02  0.8138586E-01
        1   -1    0    0  501    0  0.00000000000E+00  0.00000000000E+00  0.82059028363E+03  0.82059028364E+03  0.50400001928E-02 0.  1.
       -1   -1    0    0    0  501  0.00000000000E+00  0.00000000000E+00 -0.35161200422E+04  0.35161200422E+04  0.50400001928E-02 0. -1.
    10030    2    1    2    0    0  0.00000000000E+00  0.00000000000E+00 -0.26955297586E+04  0.43367103259E+04  0.33972306032E+04 0.  0.
        3    1    3    3  502    0  0.86301870578E+02 -0.46576749505E+03  0.73456820127E+03  0.87405825025E+03  0.10100000352E+00 0.  1.
       -3    1    3    3    0  502 -0.86301870578E+02  0.46576749505E+03 -0.34300979599E+04  0.34626520756E+04  0.10100000352E+00 0. -1.
</event>
<event>
 5   0  0.4486226E-07  0.3399970E+04  0.7818609E-02  0.8137914E-01
        2   -1    0    0  501    0  0.00000000000E+00  0.00000000000E+00  0.15135365072E+04  0.15135365072E+04  0.25500000920E-02 0. -1.
       -2   -1    0    0    0  501  0.00000000000E+00  0.00000000000E+00 -0.19094017286E+04  0.19094017286E+04  0.25500000920E-02 0.  1.
    10030    2    1    2    0    0  0.00000000000E+00  0.00000000000E+00 -0.39586522148E+03  0.34229382358E+04  0.33999701311E+04 0.  0.
        1    1    3    3  502    0 -0.16501672964E+04  0.16790275066E+03  0.17701556583E+03  0.16681060968E+04  0.50400001928E-02 0. -1.
       -1    1    3    3    0  502  0.16501672964E+04 -0.16790275066E+03 -0.57288078731E+03  0.17548321390E+04  0.50400001928E-02 0.  1.
</event>
<event>
 5   0  0.1435806E-07  0.3357311E+04  0.7818609E-02  0.8148464E-01
        1   -1    0    0  501    0  0.00000000000E+00  0.00000000000E+00  0.18099068515E+04  0.18099068515E+04  0.50400001928E-02 0.  1.
       -1   -1    0    0    0  501  0.00000000000E+00  0.00000000000E+00 -0.15569226975E+04  0.15569226975E+04  0.50400001928E-02 0. -1.
    10030    2    1    2    0    0  0.00000000000E+00  0.00000000000E+00  0.25298415398E+03  0.33668295490E+04  0.33573114586E+04 0.  0.
        3    1    3    3  502    0 -0.60831184667E+03  0.65820437920E+03  0.15498851704E+04  0.17903687775E+04  0.10100000352E+00 0.  1.
       -3    1    3    3    0  502  0.60831184667E+03 -0.65820437920E+03 -0.12969010164E+04  0.15764607715E+04  0.10100000352E+00 0. -1.
</event>
<event>
 5   0  0.4396257E-07  0.3166246E+04  0.7818609E-02  0.8197789E-01
       -2   -1    0    0    0  501  0.00000000000E+00  0.00000000000E+00  0.14429966668E+04  0.14429966668E+04  0.25500000920E-02 0. -1.
        2   -1    0    0  501    0  0.00000000000E+00  0.00000000000E+00 -0.17368571869E+04  0.17368571869E+04  0.25500000920E-02 0.  1.
    10030    2    1    2    0    0  0.00000000000E+00  0.00000000000E+00 -0.29386052013E+03  0.31798538537E+04  0.31662464410E+04 0.  0.
        2    1    3    3  502    0  0.69973283521E+03  0.77581407004E+03 -0.13414812548E+04  0.17003192256E+04  0.25500000920E-02 0.  1.
       -2    1    3    3    0  502 -0.69973283521E+03 -0.77581407004E+03  0.10476207347E+04  0.14795346281E+04  0.25500000920E-02 0. -1.
</event>
<event>
 5   0  0.4381939E-07  0.3400408E+04  0.7818609E-02  0.8137806E-01
       -2   -1    0    0    0  501  0.00000000000E+00  0.00000000000E+00  0.22452756575E+04  0.22452756575E+04  0.25500000920E-02 0.  1.
        2   -1    0    0  501    0  0.00000000000E+00  0.00000000000E+00 -0.12874556696E+04  0.12874556696E+04  0.25500000920E-02 0. -1.
    10030    2    1    2    0    0  0.00000000000E+00  0.00000000000E+00  0.95781998796E+03  0.35327313271E+04  0.34004075491E+04 0.  0.
        3    1    3    3  502    0 -0.75189635143E+03  0.55545328370E+03  0.19543203212E+04  0.21663897160E+04  0.10100000352E+00 0.  1.
       -3    1    3    3    0  502  0.75189635143E+03 -0.55545328370E+03 -0.99650033325E+03  0.13663416110E+04  0.10100000352E+00 0. -1.
</event>
<event>
 5   0  0.4486226E-07  0.3397518E+04  0.7818609E-02  0.8138516E-01
       -2   -1    0    0    0  501  0.00000000000E+00  0.00000000000E+00  0.14535676790E+04  0.14535676790E+04  0.25500000920E-02 0. -1.
        2   -1    0    0  501    0  0.00000000000E+00  0.00000000000E+00 -0.19853095132E+04  0.19853095132E+04  0.25500000920E-02 0.  1.
    10030    2    1    2    0    0  0.00000000000E+00  0.00000000000E+00 -0.53174183422E+03  0.34388771921E+04  0.33975177651E+04 0.  0.
        1    1    3    3  502    0 -0.80946818188E+03 -0.48097096499E+03  0.11652757090E+04  0.14981452816E+04  0.50400001928E-02 0. -1.
       -1    1    3    3    0  502  0.80946818188E+03  0.48097096499E+03 -0.16970175432E+04  0.19407319106E+04  0.50400001928E-02 0.  1.
</event>
<event>
 5   0  0.4447909E-07  0.3406904E+04  0.7818609E-02  0.8136214E-01
       -2   -1    0    0    0  501  0.00000000000E+00  0.00000000000E+00  0.13586516536E+04  0.13586516536E+04  0.25500000920E-02 0. -1.
        2   -1    0    0  501    0  0.00000000000E+00  0.00000000000E+00 -0.21357559216E+04  0.21357559216E+04  0.25500000920E-02 0.  1.
    10030    2    1    2    0    0  0.00000000000E+00  0.00000000000E+00 -0.77710426799E+03  0.34944075752E+04  0.34069037641E+04 0.  0.
        5    1    3    3  502    0 -0.15885582194E+04  0.58436089501E+03 -0.58512888454E+03  0.17909195330E+04  0.46999998093E+01 0.  1.
       -5    1    3    3    0  502  0.15885582194E+04 -0.58436089501E+03 -0.19197538346E+03  0.17034880422E+04  0.46999998093E+01 0. -1.
</event>
<event>
 5   0  0.1523259E-07  0.3413051E+04  0.7818609E-02  0.8134710E-01
        1   -1    0    0  501    0  0.00000000000E+00  0.00000000000E+00  0.20767604875E+04  0.20767604875E+04  0.50400001928E-02 0. -1.
       -1   -1    0    0    0  501  0.00000000000E+00  0.00000000000E+00 -0.14022945734E+04  0.14022945734E+04  0.50400001928E-02 0.  1.
    10030    2    1    2    0    0  0.00000000000E+00  0.00000000000E+00  0.67446591404E+03  0.34790550609E+04  0.34130513984E+04 0.  0.
        4    1    3    3  502    0  0.51163786466E+03  0.11806764412E+04 -0.80536250172E+03  0.15180186216E+04  0.12699999809E+01 0.  1.
       -4    1    3    3    0  502 -0.51163786466E+03 -0.11806764412E+04  0.14798284158E+04  0.19610364393E+04  0.12699999809E+01 0. -1.
</event>
<event>
 5   0  0.1421875E-07  0.3399243E+04  0.7818609E-02  0.8138092E-01
       -1   -1    0    0    0  501  0.00000000000E+00  0.00000000000E+00  0.15020626410E+04  0.15020626410E+04  0.50400001928E-02 0.  1.
        1   -1    0    0  501    0  0.00000000000E+00  0.00000000000E+00 -0.19231644550E+04  0.19231644550E+04  0.50400001928E-02 0. -1.
    10030    2    1    2    0    0  0.00000000000E+00  0.00000000000E+00 -0.42110181403E+03  0.34252270960E+04  0.33992431395E+04 0.  0.
        5    1    3    3  502    0 -0.10136552946E+04 -0.41410335541E+03  0.10992750154E+04  0.15515818685E+04  0.46999998093E+01 0.  1.
       -5    1    3    3    0  502  0.10136552946E+04  0.41410335541E+03 -0.15203768294E+04  0.18736452275E+04  0.46999998093E+01 0. -1.
</event>
<event>
 5   0  0.4521737E-07  0.3393355E+04  0.7818609E-02  0.8139539E-01
        2   -1    0    0  501    0  0.00000000000E+00  0.00000000000E+00  0.29552178103E+04  0.29552178103E+04  0.25500000920E-02 0. -1.
       -2   -1    0    0    0  501  0.00000000000E+00  0.00000000000E+00 -0.97411239331E+03  0.97411239332E+03  0.25500000920E-02 0.  1.
    10030    2    1    2    0    0  0.00000000000E+00  0.00000000000E+00  0.19811054170E+04  0.39293302036E+04  0.33933548556E+04 0.  0.
        4    1    3    3  502    0 -0.13356087363E+04 -0.98945412028E+03  0.59643743762E+03  0.17659584883E+04  0.12699999809E+01 0. -1.
       -4    1    3    3    0  502  0.13356087363E+04  0.98945412028E+03  0.13846679793E+04  0.21633717153E+04  0.12699999809E+01 0.  1.
</event>
<event>
 5   0  0.1523259E-07  0.3400573E+04  0.7818609E-02  0.8137766E-01
        1   -1    0    0  501    0  0.00000000000E+00  0.00000000000E+00  0.15910466833E+04  0.15910466833E+04  0.50400001928E-02 0. -1.
       -1   -1    0    0    0  501  0.00000000000E+00  0.00000000000E+00 -0.18170267058E+04  0.18170267058E+04  0.50400001928E-02 0.  1.
    10030    2    1    2    0    0  0.00000000000E+00  0.00000000000E+00 -0.22598002252E+03  0.34080733892E+04  0.34005730775E+04 0.  0.
        4    1    3    3  502    0 -0.10504778632E+04 -0.11737000892E+04 -0.75463414496E+03  0.17465823617E+04  0.12699999809E+01 0.  1.
       -4    1    3    3    0  502  0.10504778632E+04  0.11737000892E+04  0.52865412244E+03  0.16614910275E+04  0.12699999809E+01 0. -1.
</event>
<event>
 5   0  0.1435806E-07  0.3392814E+04  0.7818609E-02  0.8139672E-01
        1   -1    0    0  501    0  0.00000000000E+00  0.00000000000E+00  0.18523202943E+04  0.18523202943E+04  0.50400001928E-02 0.  1.
       -1   -1    0    0    0  501  0.00000000000E+00  0.00000000000E+00 -0.15536174443E+04  0.15536174443E+04  0.50400001928E-02 0. -1.
    10030    2    1    2    0    0  0.00000000000E+00  0.00000000000E+00  0.29870284999E+03  0.34059377386E+04  0.33928142429E+04 0.  0.
        3    1    3    3  502    0  0.11329759324E+03 -0.94907719364E+03  0.15562764029E+04  0.18263570616E+04  0.10100000352E+00 0.  1.
       -3    1    3    3    0  502 -0.11329759324E+03  0.94907719364E+03 -0.12575735529E+04  0.15795806770E+04  0.10100000352E+00 0. -1.
</event>
<event>
 5   0  0.4486226E-07  0.3335460E+04  0.7818609E-02  0.8153931E-01
       -2   -1    0    0    0  501  0.00000000000E+00  0.00000000000E+00  0.15945073843E+04  0.15945073843E+04  0.25500000920E-02 0.  1.
        2   -1    0    0  501    0  0.00000000000E+00  0.00000000000E+00 -0.17443146633E+04  0.17443146633E+04  0.25500000920E-02 0. -1.
    10030    2    1    2    0    0  0.00000000000E+00  0.00000000000E+00 -0.14980727905E+03  0.33388220476E+04  0.33354595553E+04 0.  0.
        1    1    3    3  502    0  0.12280090762E+03  0.74800479040E+03 -0.15619082989E+04  0.17361303993E+04  0.50400001928E-02 0. -1.
       -1    1    3    3    0  502 -0.12280090762E+03 -0.74800479040E+03  0.14121010198E+04  0.16026916483E+04  0.50400001928E-02 0.  1.
</event>
<event>
 5   0  0.1421875E-07  0.3365665E+04  0.7818609E-02  0.8146385E-01
       -1   -1    0    0    0  501  0.00000000000E+00  0.00000000000E+00  0.15785944396E+04  0.15785944396E+04  0.50400001928E-02 0. -1.
        1   -1    0    0  501    0  0.00000000000E+00  0.00000000000E+00 -0.17939541330E+04  0.17939541330E+04  0.50400001928E-02 0.  1.
    10030    2    1    2    0    0  0.00000000000E+00  0.00000000000E+00 -0.21535969336E+03  0.33725485726E+04  0.33656654731E+04 0.  0.
        5    1    3    3  502    0 -0.11532968795E+03  0.10603764033E+04  0.11965983349E+04  0.16029874356E+04  0.46999998093E+01 0. -1.
       -5    1    3    3    0  502  0.11532968795E+03 -0.10603764033E+04 -0.14119580283E+04  0.17695611369E+04  0.46999998093E+01 0.  1.
</event>
<event>
 5   0  0.4521737E-07  0.3389437E+04  0.7818609E-02  0.8140504E-01
        2   -1    0    0  501    0  0.00000000000E+00  0.00000000000E+00  0.17251715298E+04  0.17251715298E+04  0.25500000920E-02 0. -1.
       -2   -1    0    0    0  501  0.00000000000E+00  0.00000000000E+00 -0.16648032505E+04  0.16648032505E+04  0.25500000920E-02 0.  1.
    10030    2    1    2    0    0  0.00000000000E+00  0.00000000000E+00  0.60368279326E+02  0.33899747802E+04  0.33894372220E+04 0.  0.
        4    1    3    3  502    0  0.12736497704E+04 -0.88753887450E+03 -0.64974760199E+03  0.16828792442E+04  0.12699999809E+01 0.  1.
       -4    1    3    3    0  502 -0.12736497704E+04  0.88753887450E+03  0.71011588132E+03  0.17070955360E+04  0.12699999809E+01 0. -1.
</event>
<event>
 5   0  0.4486226E-07  0.3399420E+04  0.7818609E-02  0.8138049E-01
       -2   -1    0    0    0  501  0.00000000000E+00  0.00000000000E+00  0.90419049792E+03  0.90419049792E+03  0.25500000920E-02 0.  1.
        2   -1    0    0  501    0  0.00000000000E+00  0.00000000000E+00 -0.31951388232E+04  0.31951388232E+04  0.25500000920E-02 0. -1.
    10030    2    1    2    0    0  0.00000000000E+00  0.00000000000E+00 -0.22909483252E+04  0.40993293211E+04  0.33994200467E+04 0.  0.
        1    1    3    3  502    0 -0.43782113503E+03  0.14588467492E+04 -0.20551770891E+04  0.25580606035E+04  0.50400001928E-02 0. -1.
       -1    1    3    3    0  502  0.43782113503E+03 -0.14588467492E+04 -0.23577123615E+03  0.15412687175E+04  0.50400001928E-02 0.  1.
</event>
<event>
 5   0  0.4381939E-07  0.3397151E+04  0.7818609E-02  0.8138606E-01
       -2   -1    0    0    0  501  0.00000000000E+00  0.00000000000E+00  0.11103694999E+04  0.11103694999E+04  0.25500000920E-02 0. -1.
        2   -1    0    0  501    0  0.00000000000E+00  0.00000000000E+00 -0.25983775441E+04  0.25983775441E+04  0.25500000920E-02 0.  1.
    10030    2    1    2    0    0  0.00000000000E+00  0.00000000000E+00 -0.14880080442E+04  0.37087470440E+04  0.33971512620E+04 0.  0.
        3    1    3    3  502    0 -0.13852376617E+04  0.63714250426E+03  0.73203604729E+02  0.15264968812E+04  0.10100000352E+00 0. -1.
       -3    1    3    3    0  502  0.13852376617E+04 -0.63714250426E+03 -0.15612116489E+04  0.21822501628E+04  0.10100000352E+00 0.  1.
</event>
<event>
 5   0  0.4396257E-07  0.3401876E+04  0.7818609E-02  0.8137446E-01
        2   -1    0    0  501    0  0.00000000000E+00  0.00000000000E+00  0.17163866184E+04  0.17163866184E+04  0.25500000920E-02 0. -1.
       -2   -1    0    0    0  501  0.00000000000E+00  0.00000000000E+00 -0.16856288710E+04  0.16856288710E+04  0.25500000920E-02 0.  1.
    10030    2    1    2    0    0  0.00000000000E+00  0.00000000000E+00  0.30757747375E+02  0.34020154895E+04  0.34018764457E+04 0.  0.
        2    1    3    3  502    0  0.44954889312E+03  0.15756580604E+04 -0.44114641940E+03  0.16968802827E+04  0.25500000920E-02 0.  1.
       -2    1    3    3    0  502 -0.44954889312E+03 -0.15756580604E+04  0.47190416678E+03  0.17051352067E+04  0.25500000920E-02 0. -1.
</event>
<event>
 5   0  0.4486226E-07  0.3408065E+04  0.7818609E-02  0.8135930E-01
       -2   -1    0    0    0  501  0.00000000000E+00  0.00000000000E+00  0.17824173258E+04  0.17824173258E+04  0.25500000920E-02 0. -1.
        2   -1    0    0  501    0  0.00000000000E+00  0.00000000000E+00 -0.16290947895E+04  0.16290947895E+04  0.25500000920E-02 0.  1.
    10030    2    1    2    0    0  0.00000000000E+00  0.00000000000E+00  0.15332253627E+03  0.34115121153E+04  0.34080650101E+04 0.  0.
        1    1    3    3  502    0  0.16595408004E+03 -0.11407930824E+03  0.17704637367E+04  0.17818800993E+04  0.50400001928E-02 0. -1.
       -1    1    3    3    0  502 -0.16595408004E+03  0.11407930824E+03 -0.16171412005E+04  0.16296320160E+04  0.50400001928E-02 0.  1.
</event>
<event>
 5   0  0.4447909E-07  0.3413063E+04  0.7818609E-02  0.8134708E-01
        2   -1    0    0  501    0  0.00000000000E+00  0.00000000000E+00  0.26972446855E+04  0.26972446855E+04  0.25500000920E-02 0.  1.
       -2   -1    0    0    0  501  0.00000000000E+00  0.00000000000E+00 -0.10797128950E+04  0.10797128950E+04  0.25500000920E-02 0. -1.
    10030    2    1    2    0    0  0.00000000000E+00  0.00000000000E+00  0.16175317905E+04  0.37769575804E+04  0.34130630629E+04 0.  0.
        5    1    3    3  502    0 -0.12045617315E+04 -0.12087024249E+04  0.82784537703E+03  0.18966498294E+04  0.46999998093E+01 0.  1.
       -5    1    3    3    0  502  0.12045617315E+04  0.12087024249E+04  0.78968641349E+03  0.18803077511E+04  0.46999998093E+01 0. -1.
</event>
<event>
 5   0  0.4396257E-07  0.3403055E+04  0.7818609E-02  0.8137157E-01
        2   -1    0    0  501    0  0.00000000000E+00  0.00000000000E+00  0.12000777432E+04  0.12000777432E+04  0.25500000920E-02 0. -1.
       -2   -1    0    0    0  501  0.00000000000E+00  0.00000000000E+00 -0.24125065446E+04  0.24125065446E+04  0.25500000920E-02 0.  1.
    10030    2    1    2    0    0  0.00000000000E+00  0.00000000000E+00 -0.12124288015E+04  0.36125842878E+04  0.34030547509E+04 0.  0.
        2    1    3    3  502    0  0.89601895742E+03  0.65439681486E+03 -0.19756452266E+04  0.22658903824E+04  0.25500000920E-02 0.  1.
       -2    1    3    3    0  502 -0.89601895742E+03 -0.65439681486E+03  0.76321642516E+03  0.13466939055E+04  0.25500000920E-02 0. -1.
</event>
<event>
 5   0  0.1435806E-07  0.3391348E+04  0.7818609E-02  0.8140033E-01
        1   -1    0    0  501    0  0.00000000000E+00  0.00000000000E+00  0.18939369482E+04  0.18939369482E+04  0.50400001928E-02 0.  1.
       -1   -1    0    0    0  501  0.00000000000E+00  0.00000000000E+00 -0.15181658731E+04  0.15181658731E+04  0.50400001928E-02 0. -1.
    10030    2    1    2    0    0  0.00000000000E+00  0.00000000000E+00  0.37577107513E+03  0.34121028213E+04  0.33913480745E+04 0.  0.
        3    1    3    3  502    0 -0.50434940577E+03 -0.11207095861E+04  0.13633471587E+04  0.18355036869E+04  0.10100000352E+00 0.  1.
       -3    1    3    3    0  502  0.50434940577E+03  0.11207095861E+04 -0.98757608353E+03  0.15765991344E+04  0.10100000352E+00 0. -1.
</event>
<event>
 5   0  0.1473755E-07  0.3538479E+04  0.7818609E-02  0.8104731E-01
       -1   -1    0    0    0  501  0.00000000000E+00  0.00000000000E+00  0.14754125044E+04  0.14754125044E+04  0.50400001928E-02 0. -1.
        1   -1    0    0  501    0  0.00000000000E+00  0.00000000000E+00 -0.21215818300E+04  0.21215818300E+04  0.50400001928E-02 0.  1.
    10030    2    1    2    0    0  0.00000000000E+00  0.00000000000E+00 -0.64616932568E+03  0.35969943344E+04  0.35384789733E+04 0.  0.
        1    1    3    3  502    0  0.11055434194E+04  0.10805446982E+04 -0.11977821591E+04  0.19556291054E+04  0.50400001928E-02 0.  1.
       -1    1    3    3    0  502 -0.11055434194E+04 -0.10805446982E+04  0.55161283342E+03  0.16413652290E+04  0.50400001928E-02 0. -1.
</event>
<event>
 5   0  0.4396257E-07  0.3451617E+04  0.7818609E-02  0.8125353E-01
       -2   -1    0    0    0  501  0.00000000000E+00  0.00000000000E+00  0.16710306943E+04  0.16710306943E+04  0.25500000920E-02 0.  1.
        2   -1    0    0  501    0  0.00000000000E+00  0.00000000000E+00 -0.17823824759E+04  0.17823824759E+04  0.25500000920E-02 0. -1.
    10030    2    1    2    0    0  0.00000000000E+00  0.00000000000E+00 -0.11135178158E+03  0.34534131702E+04  0.34516174911E+04 0.  0.
        2    1    3    3  502    0  0.10210629534E+04  0.85407039188E+03  0.10432625132E+04  0.16912724383E+04  0.25500000920E-02 0.  1.
       -2    1    3    3    0  502 -0.10210629534E+04 -0.85407039188E+03 -0.11546142948E+04  0.17621407319E+04  0.25500000920E-02 0. -1.
</event>
<event>
 5   0  0.4447909E-07  0.3403729E+04  0.7818609E-02  0.8136992E-01
       -2   -1    0    0    0  501  0.00000000000E+00  0.00000000000E+00  0.21094016376E+04  0.21094016376E+04  0.25500000920E-02 0.  1.
        2   -1    0    0  501    0  0.00000000000E+00  0.00000000000E+00 -0.13730637412E+04  0.13730637412E+04  0.25500000920E-02 0. -1.
    10030    2    1    2    0    0  0.00000000000E+00  0.00000000000E+00  0.73633789643E+03  0.34824653787E+04  0.34037290751E+04 0.  0.
        5    1    3    3  502    0  0.27967335361E+03 -0.15097200777E+04  0.11192128600E+04  0.19000345823E+04  0.46999998093E+01 0.  1.
       -5    1    3    3    0  502 -0.27967335361E+03  0.15097200777E+04 -0.38287496357E+03  0.15824307965E+04  0.46999998093E+01 0. -1.
</event>
<event>
 5   0  0.4447909E-07  0.3409139E+04  0.7818609E-02  0.8135667E-01
        2   -1    0    0  501    0  0.00000000000E+00  0.00000000000E+00  0.19424661669E+04  0.19424661669E+04  0.25500000920E-02 0.  1.
       -2   -1    0    0    0  501  0.00000000000E+00  0.00000000000E+00 -0.14958083409E+04  0.14958083409E+04  0.25500000920E-02 0. -1.
    10030    2    1    2    0    0  0.00000000000E+00  0.00000000000E+00  0.44665782597E+03  0.34382745078E+04  0.34091389496E+04 0.  0.
        5    1    3    3  502    0  0.54044750721E+03  0.10462947493E+04 -0.10195663374E+04  0.15576757740E+04  0.46999998093E+01 0. -1.
       -5    1    3    3    0  502 -0.54044750721E+03 -0.10462947493E+04  0.14662241634E+04  0.18805987338E+04  0.46999998093E+01 0.  1.
</event>
<event>
 5   0  0.1523259E-07  0.3404387E+04  0.7818609E-02  0.8136830E-01
       -1   -1    0    0    0  501  0.00000000000E+00  0.00000000000E+00  0.12980253155E+04  0.12980253155E+04  0.50400001928E-02 0.  1.
        1   -1    0    0  501    0  0.00000000000E+00  0.00000000000E+00 -0.22322080380E+04  0.22322080380E+04  0.50400001928E-02 0. -1.
    10030    2    1    2    0    0  0.00000000000E+00  0.00000000000E+00 -0.93418272246E+03  0.35302333535E+04  0.34043869009E+04 0.  0.
        4    1    3    3  502    0 -0.17674880283E+01  0.10122638529E+04 -0.18861745310E+04  0.21406394386E+04  0.12699999809E+01 0. -1.
       -4    1    3    3    0  502  0.17674880283E+01 -0.10122638529E+04  0.95199180851E+03  0.13895939149E+04  0.12699999809E+01 0.  1.
</event>
<event>
 5   0  0.1421875E-07  0.3374264E+04  0.7818609E-02  0.8144252E-01
       -1   -1    0    0    0  501  0.00000000000E+00  0.00000000000E+00  0.10247811938E+04  0.10247811938E+04  0.50400001928E-02 0. -1.
        1   -1    0    0  501    0  0.00000000000E+00  0.00000000000E+00 -0.27775825667E+04  0.27775825667E+04  0.50400001928E-02 0.  1.
    10030    2    1    2    0    0  0.00000000000E+00  0.00000000000E+00 -0.17528013729E+04  0.38023637605E+04  0.33742639960E+04 0.  0.
        5    1    3    3  502    0  0.64313909420E+03  0.13610739343E+04 -0.17347799886E+04  0.22968748003E+04  0.46999998093E+01 0.  1.
       -5    1    3    3    0  502 -0.64313909420E+03 -0.13610739343E+04 -0.18021384251E+02  0.15054889602E+04  0.46999998093E+01 0. -1.
</event>
<event>
 5   0  0.4486226E-07  0.3388457E+04  0.7818609E-02  0.8140745E-01
       -2   -1    0    0    0  501  0.00000000000E+00  0.00000000000E+00  0.11373539317E+04  0.11373539317E+04  0.25500000920E-02 0. -1.
        2   -1    0    0  501    0  0.00000000000E+00  0.00000000000E+00 -0.25237619740E+04  0.25237619740E+04  0.25500000920E-02 0.  1.
    10030    2    1    2    0    0  0.00000000000E+00  0.00000000000E+00 -0.13864080424E+04  0.36611159057E+04  0.33884572323E+04 0.  0.
        1    1    3    3  502    0 -0.11368564027E+04 -0.11709512714E+04 -0.20180980624E+03  0.16444745539E+04  0.50400001928E-02 0. -1.
       -1    1    3    3    0  502  0.11368564027E+04  0.11709512714E+04 -0.11845982361E+04  0.20166413518E+04  0.50400001928E-02 0.  1.
</event>
<event>
 5   0  0.4521737E-07  0.3405646E+04  0.7818609E-02  0.8136522E-01
        2   -1    0    0  501    0  0.00000000000E+00  0.00000000000E+00  0.22846302439E+04  0.22846302439E+04  0.25500000920E-02 0.  1.
       -2   -1    0    0    0  501  0.00000000000E+00  0.00000000000E+00 -0.12691795189E+04  0.12691795189E+04  0.25500000920E-02 0. -1.
    10030    2    1    2    0    0  0.00000000000E+00  0.00000000000E+00  0.10154507251E+04  0.35538097628E+04  0.34056458499E+04 0.  0.
        4    1    3    3  502    0 -0.16550583603E+04  0.11955856189E+03  0.10887708244E+03  0.16629396435E+04  0.12699999809E+01 0. -1.
       -4    1    3    3    0  502  0.16550583603E+04 -0.11955856189E+03  0.90657364263E+03  0.18908701193E+04  0.12699999809E+01 0.  1.
</event>
<event>
 5   0  0.4396257E-07  0.3401340E+04  0.7818609E-02  0.8137577E-01
       -2   -1    0    0    0  501  0.00000000000E+00  0.00000000000E+00  0.20743201366E+04  0.20743201366E+04  0.25500000920E-02 0. -1.
        2   -1    0    0  501    0  0.00000000000E+00  0.00000000000E+00 -0.13943261055E+04  0.13943261055E+04  0.25500000920E-02 0.  1.
    10030    2    1    2    0    0  0.00000000000E+00  0.00000000000E+00  0.67999403107E+03  0.34686462421E+04  0.34013401580E+04 0.  0.
        2    1    3    3  502    0  0.81940647558E+03  0.82965944211E+02 -0.11773875131E+04  0.14368547860E+04  0.25500000920E-02 0.  1.
       -2    1    3    3    0  502 -0.81940647558E+03 -0.82965944211E+02  0.18573815442E+04  0.20317914560E+04  0.25500000920E-02 0. -1.
</event>
<event>
 5   0  0.4396257E-07  0.3405792E+04  0.7818609E-02  0.8136486E-01
        2   -1    0    0  501    0  0.00000000000E+00  0.00000000000E+00  0.85434451850E+03  0.85434451851E+03  0.25500000920E-02 0. -1.
       -2   -1    0    0    0  501  0.00000000000E+00  0.00000000000E+00 -0.33942442605E+04  0.33942442605E+04  0.25500000920E-02 0.  1.
    10030    2    1    2    0    0  0.00000000000E+00  0.00000000000E+00 -0.25398997420E+04  0.42485887791E+04  0.34057915253E+04 0.  0.
        2    1    3    3  502    0 -0.10340218184E+04  0.21248999039E+03 -0.29368388276E+04  0.31207972405E+04  0.25500000920E-02 0.  1.
       -2    1    3    3    0  502  0.10340218184E+04 -0.21248999039E+03  0.39693908554E+03  0.11277915386E+04  0.25500000920E-02 0. -1.
</event>
<event>
 5   0  0.1520084E-07  0.3389559E+04  0.7818609E-02  0.8140474E-01
       -1   -1    0    0    0  501  0.00000000000E+00  0.00000000000E+00  0.24263171907E+04  0.24263171907E+04  0.50400001928E-02 0.  1.
        1   -1    0    0  501    0  0.00000000000E+00  0.00000000000E+00 -0.11838013383E+04  0.11838013383E+04  0.50400001928E-02 0. -1.
    10030    2    1    2    0    0  0.00000000000E+00  0.00000000000E+00  0.12425158524E+04  0.36101185290E+04  0.33895589905E+04 0.  0.
        2    1    3    3  502    0  0.59092670618E+03 -0.33322345014E+03  0.22753930908E+04  0.23743727503E+04  0.25500000920E-02 0.  1.
       -2    1    3    3    0  502 -0.59092670618E+03  0.33322345014E+03 -0.10328772384E+04  0.12357457787E+04  0.25500000920E-02 0. -1.
</event>
<event>
 5   0  0.1435806E-07  0.3423384E+04  0.7818609E-02  0.8132191E-01
        1   -1    0    0  501    0  0.00000000000E+00  0.00000000000E+00  0.23224723494E+04  0.23224723494E+04  0.50400001928E-02 0. -1.
       -1   -1    0    0    0  501  0.00000000000E+00  0.00000000000E+00 -0.12615389539E+04  0.12615389540E+04  0.50400001928E-02 0.  1.
    10030    2    1    2    0    0  0.00000000000E+00  0.00000000000E+00  0.10609333955E+04  0.35840113034E+04  0.34233839039E+04 0.  0.
        3    1    3    3  502    0  0.16372292482E+04  0.40930579077E+03  0.82996375583E+03  0.18806623003E+04  0.10100000352E+00 0. -1.
       -3    1    3    3    0  502 -0.16372292482E+04 -0.40930579077E+03  0.23096963967E+03  0.17033490031E+04  0.10100000352E+00 0.  1.
</event>
<event>
 5   0  0.4447909E-07  0.3418577E+04  0.7818609E-02  0.8133362E-01
       -2   -1    0    0    0  501  0.00000000000E+00  0.00000000000E+00  0.11266575719E+04  0.11266575719E+04  0.25500000920E-02 0.  1.
        2   -1    0    0  501    0  0.00000000000E+00  0.00000000000E+00 -0.25932159098E+04  0.25932159098E+04  0.25500000920E-02 0. -1.
    10030    2    1    2    0    0  0.00000000000E+00  0.00000000000E+00 -0.14665583379E+04  0.37198734817E+04  0.34185765110E+04 0.  0.
        5    1    3    3  502    0 -0.48344593066E+03 -0.15906318332E+04 -0.11655505942E+04  0.20303595431E+04  0.46999998093E+01 0. -1.
       -5    1    3    3    0  502  0.48344593066E+03  0.15906318332E+04 -0.30100774374E+03  0.16895139386E+04  0.46999998093E+01 0.  1.
</event>
<event>
 5   0  0.4486226E-07  0.3406827E+04  0.7818609E-02  0.8136233E-01
        2   -1    0    0  501    0  0.00000000000E+00  0.00000000000E+00  0.19243821371E+04  0.19243821371E+04  0.25500000920E-02 0.  1.
       -2   -1    0    0    0  501  0.00000000000E+00  0.00000000000E+00 -0.15078179267E+04  0.15078179267E+04  0.25500000920E-02 0. -1.
    10030    2    1    2    0    0  0.00000000000E+00  0.00000000000E+00  0.41656421043E+03  0.34322000638E+04  0.34068271950E+04 0.  0.
        1    1    3    3  502    0 -0.47921980592E+03 -0.10819160684E+04  0.14427339402E+04  0.18659247637E+04  0.50400001928E-02 0.  1.
       -1    1    3    3    0  502  0.47921980592E+03  0.10819160684E+04 -0.10261697297E+04  0.15662753001E+04  0.50400001928E-02 0. -1.
</event>
<event>
 5   0  0.1523259E-07  0.3378633E+04  0.7818609E-02  0.8143171E-01
        1   -1    0    0  501    0  0.00000000000E+00  0.00000000000E+00  0.18482853400E+04  0.18482853400E+04  0.50400001928E-02 0.  1.
       -1   -1    0    0    0  501  0.00000000000E+00  0.00000000000E+00 -0.15440199917E+04  0.15440199917E+04  0.50400001928E-02 0. -1.
    10030    2    1    2    0    0  0.00000000000E+00  0.00000000000E+00  0.30426534836E+03  0.33923053317E+04  0.33786325727E+04 0.  0.
        4    1    3    3  502    0  0.11224725927E+04  0.90504622193E+03 -0.73161935333E+03  0.16168864760E+04  0.12699999809E+01 0. -1.
       -4    1    3    3    0  502 -0.11224725927E+04 -0.90504622193E+03  0.10358847017E+04  0.17754188557E+04  0.12699999809E+01 0.  1.
</event>
<event>
 5   0  0.1435806E-07  0.3399745E+04  0.7818609E-02  0.8137969E-01
        1   -1    0    0  501    0  0.00000000000E+00  0.00000000000E+00  0.12597190963E+04  0.12597190963E+04  0.50400001928E-02 0. -1.
       -1   -1    0    0    0  501  0.00000000000E+00  0.00000000000E+00 -0.22938175809E+04  0.22938175809E+04  0.50400001928E-02 0.  1.
    10030    2    1    2    0    0  0.00000000000E+00  0.00000000000E+00 -0.10340984846E+04  0.35535366772E+04  0.33997445845E+04 0.  0.
        3    1    3    3  502    0  0.10169417590E+04  0.17260674951E+03  0.89522026783E+03  0.13657902362E+04  0.10100000352E+00 0. -1.
       -3    1    3    3    0  502 -0.10169417590E+04 -0.17260674951E+03 -0.19293187524E+04  0.21877464409E+04  0.10100000352E+00 0.  1.
</event>
<event>
 5   0  0.4447909E-07  0.3407931E+04  0.7818609E-02  0.8135963E-01
       -2   -1    0    0    0  501  0.00000000000E+00  0.00000000000E+00  0.19453788811E+04  0.19453788811E+04  0.25500000920E-02 0.  1.
        2   -1    0    0  501    0  0.00000000000E+00  0.00000000000E+00 -0.14925100972E+04  0.14925100972E+04  0.25500000920E-02 0. -1.
    10030    2    1    2    0    0  0.00000000000E+00  0.00000000000E+00  0.45286878393E+03  0.34378889783E+04  0.34079305292E+04 0.  0.
        5    1    3    3  502    0 -0.75868128481E+03  0.66779382992E+03  0.16103283268E+04  0.19012430937E+04  0.46999998093E+01 0.  1.
       -5    1    3    3    0  502  0.75868128481E+03 -0.66779382992E+03 -0.11574595429E+04  0.15366458846E+04  0.46999998093E+01 0. -1.
</event>
<event>
 5   0  0.4447909E-07  0.3394808E+04  0.7818609E-02  0.8139182E-01
       -2   -1    0    0    0  501  0.00000000000E+00  0.00000000000E+00  0.30324237899E+04  0.30324237899E+04  0.25500000920E-02 0.  1.
        2   -1    0    0  501    0  0.00000000000E+00  0.00000000000E+00 -0.95012477375E+03  0.95012477376E+03  0.25500000920E-02 0. -1.
    10030    2    1    2    0    0  0.00000000000E+00  0.00000000000E+00  0.20822990161E+04  0.39825485636E+04  0.33948083700E+04 0.  0.
        5    1    3    3  502    0  0.13155380055E+04  0.10709637006E+04  0.11110997387E+04  0.20278481727E+04  0.46999998093E+01 0.  1.
       -5    1    3    3    0  502 -0.13155380055E+04 -0.10709637006E+04  0.97119927745E+03  0.19547003910E+04  0.46999998093E+01 0. -1.
</event>
<event>
 5   0  0.4396257E-07  0.3408427E+04  0.7818609E-02  0.8135841E-01
        2   -1    0    0  501    0  0.00000000000E+00  0.00000000000E+00  0.22015378905E+04  0.22015378905E+04  0.25500000920E-02 0.  1.
       -2   -1    0    0    0  501  0.00000000000E+00  0.00000000000E+00 -0.13192342071E+04  0.13192342071E+04  0.25500000920E-02 0. -1.
    10030    2    1    2    0    0  0.00000000000E+00  0.00000000000E+00  0.88230368339E+03  0.35207720976E+04  0.34084272581E+04 0.  0.
        2    1    3    3  502    0  0.11843953760E+04  0.12125988390E+04  0.25882402284E+03  0.17146947908E+04  0.25500000920E-02 0.  1.
       -2    1    3    3    0  502 -0.11843953760E+04 -0.12125988390E+04  0.62347966055E+03  0.18060773068E+04  0.25500000920E-02 0. -1.
</event>
<event>
 5   0  0.4521737E-07  0.3405380E+04  0.7818609E-02  0.8136587E-01
       -2   -1    0    0    0  501  0.00000000000E+00  0.00000000000E+00  0.17867048283E+04  0.17867048283E+04  0.25500000920E-02 0.  1.
        2   -1    0    0  501    0  0.00000000000E+00  0.00000000000E+00 -0.16226256052E+04  0.16226256052E+04  0.25500000920E-02 0. -1.
    10030    2    1    2    0    0  0.00000000000E+00  0.00000000000E+00  0.16407922310E+03  0.34093304336E+04  0.34053798634E+04 0.  0.
        4    1    3    3  502    0 -0.33383746000E+03  0.85585104331E+03 -0.13532283821E+04  0.16355907572E+04  0.12699999809E+01 0. -1.
       -4    1    3    3    0  502  0.33383746000E+03 -0.85585104331E+03  0.15173076052E+04  0.17737396764E+04  0.12699999809E+01 0.  1.
</event>
<event>
 5   0  0.1473755E-07  0.3391808E+04  0.7818609E-02  0.8139920E-01
        1   -1    0    0  501    0  0.00000000000E+00  0.00000000000E+00  0.17971907431E+04  0.17971907431E+04  0.50400001928E-02 0.  1.
       -1   -1    0    0    0  501  0.00000000000E+00  0.00000000000E+00 -0.16003255707E+04  0.16003255707E+04  0.50400001928E-02 0. -1.
    10030    2    1    2    0    0  0.00000000000E+00  0.00000000000E+00  0.19686517240E+03  0.33975163138E+04  0.33918079554E+04 0.  0.
        1    1    3    3  502    0  0.96047757252E+01 -0.12923095369E+04 -0.10015658965E+04  0.16350200109E+04  0.50400001928E-02 0. -1.
       -1    1    3    3    0  502 -0.96047757252E+01  0.12923095369E+04  0.11984310689E+04  0.17624963029E+04  0.50400001928E-02 0.  1.
</event>
<event>
 5   0  0.1473755E-07  0.3386279E+04  0.7818609E-02  0.8141282E-01
        1   -1    0    0  501    0  0.00000000000E+00  0.00000000000E+00  0.20258231685E+04  0.20258231685E+04  0.50400001928E-02 0. -1.
       -1   -1    0    0    0  501  0.00000000000E+00  0.00000000000E+00 -0.14150897183E+04  0.14150897183E+04  0.50400001928E-02 0.  1.
    10030    2    1    2    0    0  0.00000000000E+00  0.00000000000E+00  0.61073345018E+03  0.34409128868E+04  0.33862791007E+04 0.  0.
        1    1    3    3  502    0 -0.34524244416E+03  0.60685709406E+03 -0.12620024466E+04  0.14422614372E+04  0.50400001928E-02 0.  1.
       -1    1    3    3    0  502  0.34524244416E+03 -0.60685709406E+03  0.18727358968E+04  0.19986514496E+04  0.50400001928E-02 0. -1.
</event>
<event>
 5   0  0.1421875E-07  0.3395256E+04  0.7818609E-02  0.8139072E-01
       -1   -1    0    0    0  501  0.00000000000E+00  0.00000000000E+00  0.11173942442E+04  0.11173942443E+04  0.50400001928E-02 0. -1.
        1   -1    0    0  501    0  0.00000000000E+00  0.00000000000E+00 -0.25791616791E+04  0.25791616791E+04  0.50400001928E-02 0.  1.
    10030    2    1    2    0    0  0.00000000000E+00  0.00000000000E+00 -0.14617674349E+04  0.36965559234E+04  0.33952557578E+04 0.  0.
        5    1    3    3  502    0 -0.16536771807E+04 -0.12416353487E+03 -0.11262236256E+04  0.20046113205E+04  0.46999998093E+01 0. -1.
       -5    1    3    3    0  502  0.16536771807E+04  0.12416353487E+03 -0.33554380925E+03  0.16919446029E+04  0.46999998093E+01 0.  1.
</event>
<event>
 5   0  0.4486226E-07  0.3403680E+04  0.7818609E-02  0.8137004E-01
        2   -1    0    0  501    0  0.00000000000E+00  0.00000000000E+00  0.19283867276E+04  0.19283867276E+04  0.25500000920E-02 0. -1.
       -2   -1    0    0    0  501  0.00000000000E+00  0.00000000000E+00 -0.15019075317E+04  0.15019075317E+04  0.25500000920E-02 0.  1.
    10030    2    1    2    0    0  0.00000000000E+00  0.00000000000E+00  0.42647919588E+03  0.34302942593E+04  0.34036795091E+04 0.  0.
        1    1    3    3  502    0 -0.11045383996E+04 -0.11472847522E+04  0.81792382637E+03  0.17903258822E+04  0.50400001928E-02 0.  1.
       -1    1    3    3    0  502  0.11045383996E+04  0.11472847522E+04 -0.39144463049E+03  0.16399683770E+04  0.50400001928E-02 0. -1.
</event>
<event>
 5   0  0.4521737E-07  0.3400160E+04  0.7818609E-02  0.8137867E-01
       -2   -1    0    0    0  501  0.00000000000E+00  0.00000000000E+00  0.14657835199E+04  0.14657835199E+04  0.25500000920E-02 0.  1.
        2   -1    0    0  501    0  0.00000000000E+00  0.00000000000E+00 -0.19718268393E+04  0.19718268393E+04  0.25500000920E-02 0. -1.
    10030    2    1    2    0    0  0.00000000000E+00  0.00000000000E+00 -0.50604331934E+03  0.34376103592E+04  0.34001595757E+04 0.  0.
        4    1    3    3  502    0  0.14990218629E+04 -0.61233146453E+03  0.27061481435E+03  0.16417217665E+04  0.12699999809E+01 0. -1.
       -4    1    3    3    0  502 -0.14990218629E+04  0.61233146453E+03 -0.77665813369E+03  0.17958885927E+04  0.12699999809E+01 0.  1.
</event>
<event>
 5   0  0.1523259E-07  0.3384620E+04  0.7818609E-02  0.8141692E-01
       -1   -1    0    0    0  501  0.00000000000E+00  0.00000000000E+00  0.16420174414E+04  0.16420174414E+04  0.50400001928E-02 0. -1.
        1   -1    0    0  501    0  0.00000000000E+00  0.00000000000E+00 -0.17441424567E+04  0.17441424567E+04  0.50400001928E-02 0.  1.
    10030    2    1    2    0    0  0.00000000000E+00  0.00000000000E+00 -0.10212501524E+03  0.33861598981E+04  0.33846195261E+04 0.  0.
        4    1    3    3  502    0 -0.42929006268E+03  0.10204520858E+04 -0.13316053038E+04  0.17317005271E+04  0.12699999809E+01 0.  1.
       -4    1    3    3    0  502  0.42929006268E+03 -0.10204520858E+04  0.12294802886E+04  0.16544593710E+04  0.12699999809E+01 0. -1.
</event>
<event>
 5   0  0.1421875E-07  0.3399448E+04  0.7818609E-02  0.8138042E-01
        1   -1    0    0  501    0  0.00000000000E+00  0.00000000000E+00  0.16477574383E+04  0.16477574383E+04  0.50400001928E-02 0.  1.
       -1   -1    0    0    0  501  0.00000000000E+00  0.00000000000E+00 -0.17533293683E+04  0.17533293683E+04  0.50400001928E-02 0. -1.
    10030    2    1    2    0    0  0.00000000000E+00  0.00000000000E+00 -0.10557192996E+03  0.34010868066E+04  0.33994479013E+04 0.  0.
        5    1    3    3  502    0 -0.16894703331E+04  0.14734653592E+03  0.61367291192E+02  0.16970000125E+04  0.46999998093E+01 0. -1.
       -5    1    3    3    0  502  0.16894703331E+04 -0.14734653592E+03 -0.16693922116E+03  0.17040867940E+04  0.46999998093E+01 0.  1.
</event>
<event>
 5   0  0.4486226E-07  0.3401548E+04  0.7818609E-02  0.8137527E-01
        2   -1    0    0  501    0  0.00000000000E+00  0.00000000000E+00  0.22328326519E+04  0.22328326519E+04  0.25500000920E-02 0.  1.
       -2   -1    0    0    0  501  0.00000000000E+00  0.00000000000E+00 -0.12954988302E+04  0.12954988302E+04  0.25500000920E-02 0. -1.
    10030    2    1    2    0    0  0.00000000000E+00  0.00000000000E+00  0.93733382175E+03  0.35283314821E+04  0.34015479350E+04 0.  0.
        1    1    3    3  502    0 -0.62822433521E+03  0.12074988578E+04  0.15264369031E+04  0.20451721018E+04  0.50400001928E-02 0.  1.
       -1    1    3    3    0  502  0.62822433521E+03 -0.12074988578E+04 -0.58910308139E+03  0.14831593803E+04  0.50400001928E-02 0. -1.
</event>
<event>
 5   0  0.1435806E-07  0.3427561E+04  0.7818609E-02  0.8131175E-01
        1   -1    0    0  501    0  0.00000000000E+00  0.00000000000E+00  0.26395315102E+04  0.26395315102E+04  0.50400001928E-02 0.  1.
       -1   -1    0    0    0  501  0.00000000000E+00  0.00000000000E+00 -0.11127140376E+04  0.11127140376E+04  0.50400001928E-02 0. -1.
    10030    2    1    2    0    0  0.00000000000E+00  0.00000000000E+00  0.15268174727E+04  0.37522455478E+04  0.34275610945E+04 0.  0.
        3    1    3    3  502    0  0.10632051904E+04  0.12795469162E+04  0.31284067991E+03  0.16927831783E+04  0.10100000352E+00 0.  1.
       -3    1    3    3    0  502 -0.10632051904E+04 -0.12795469162E+04  0.12139767928E+04  0.20594623695E+04  0.10100000352E+00 0. -1.
</event>
<event>
 5   0  0.4396257E-07  0.3401935E+04  0.7818609E-02  0.8137431E-01
       -2   -1    0    0    0  501  0.00000000000E+00  0.00000000000E+00  0.14368482219E+04  0.14368482219E+04  0.25500000920E-02 0.  1.
        2   -1    0    0  501    0  0.00000000000E+00  0.00000000000E+00 -0.20136372312E+04  0.20136372312E+04  0.25500000920E-02 0. -1.
    10030    2    1    2    0    0  0.00000000000E+00  0.00000000000E+00 -0.57678900924E+03  0.34504854531E+04  0.34019353758E+04 0.  0.
        2    1    3    3  502    0 -0.34364268704E+01  0.47046111566E+02 -0.20129736867E+04  0.20135263119E+04  0.25500000920E-02 0. -1.
       -2    1    3    3    0  502  0.34364268704E+01 -0.47046111566E+02  0.14361846774E+04  0.14369591412E+04  0.25500000920E-02 0.  1.
</event>
<event>
 5   0  0.4396257E-07  0.3401400E+04  0.7818609E-02  0.8137563E-01
        2   -1    0    0  501    0  0.00000000000E+00  0.00000000000E+00  0.26366159646E+04  0.26366159646E+04  0.25500000920E-02 0.  1.
       -2   -1    0    0    0  501  0.00000000000E+00  0.00000000000E+00 -0.10970050331E+04  0.10970050331E+04  0.25500000920E-02 0. -1.
    10030    2    1    2    0    0  0.00000000000E+00  0.00000000000E+00  0.15396109315E+04  0.37336209977E+04  0.34014002902E+04 0.  0.
        2    1    3    3  502    0  0.13848948400E+04 -0.28587698394E+03 -0.26731812077E+03  0.14391380564E+04  0.25500000920E-02 0. -1.
       -2    1    3    3    0  502 -0.13848948400E+04  0.28587698394E+03  0.18069290523E+04  0.22944829413E+04  0.25500000920E-02 0.  1.
</event>
<event>
 5   0  0.4521737E-07  0.3408177E+04  0.7818609E-02  0.8135902E-01
        2   -1    0    0  501    0  0.00000000000E+00  0.00000000000E+00  0.19214465890E+04  0.19214465890E+04  0.25500000920E-02 0.  1.
       -2   -1    0    0    0  501  0.00000000000E+00  0.00000000000E+00 -0.15113186054E+04  0.15113186054E+04  0.25500000920E-02 0. -1.
    10030    2    1    2    0    0  0.00000000000E+00  0.00000000000E+00  0.41012798360E+03  0.34327651944E+04  0.34081772133E+04 0.  0.
        4    1    3    3  502    0  0.46802371284E+03 -0.40148199054E+03  0.18051350786E+04  0.19075503268E+04  0.12699999809E+01 0.  1.
       -4    1    3    3    0  502 -0.46802371284E+03  0.40148199054E+03 -0.13950070950E+04  0.15252148676E+04  0.12699999809E+01 0. -1.
</event>
<event>
 5   0  0.4381939E-07  0.3408624E+04  0.7818609E-02  0.8135793E-01
       -2   -1    0    0    0  501  0.00000000000E+00  0.00000000000E+00  0.11566066929E+04  0.11566066929E+04  0.25500000920E-02 0.  1.
        2   -1    0    0  501    0  0.00000000000E+00  0.00000000000E+00 -0.25113808823E+04  0.25113808823E+04  0.25500000920E-02 0. -1.
    10030    2    1    2    0    0  0.00000000000E+00  0.00000000000E+00 -0.13547741894E+04  0.36679875751E+04  0.34086243189E+04 0.  0.
        3    1    3    3  502    0  0.11483334370E+04 -0.12117224635E+04 -0.10466270871E+04  0.19703728786E+04  0.10100000352E+00 0. -1.
       -3    1    3    3    0  502 -0.11483334370E+04  0.12117224635E+04 -0.30814710226E+03  0.16976146965E+04  0.10100000352E+00 0.  1.
</event>
<event>
 5   0  0.4486226E-07  0.3459453E+04  0.7818609E-02  0.8123467E-01
       -2   -1    0    0    0  501  0.00000000000E+00  0.00000000000E+00  0.10122575085E+04  0.10122575085E+04  0.25500000920E-02 0.  1.
        2   -1    0    0  501    0  0.00000000000E+00  0.00000000000E+00 -0.29557231042E+04  0.29557231042E+04  0.25500000920E-02 0. -1.
    10030    2    1    2    0    0  0.00000000000E+00  0.00000000000E+00 -0.19434655957E+04  0.39679806126E+04  0.34594525030E+04 0.  0.
        1    1    3    3  502    0 -0.16246900997E+04 -0.50659593859E+03 -0.61691285754E+03  0.18102040876E+04  0.50400001928E-02 0.  1.
       -1    1    3    3    0  502  0.16246900997E+04  0.50659593859E+03 -0.13265527381E+04  0.21577765250E+04  0.50400001928E-02 0. -1.
</event>
<event>
 5   0  0.4447909E-07  0.3385964E+04  0.7818609E-02  0.8141360E-01
       -2   -1    0    0    0  501  0.00000000000E+00  0.00000000000E+00  0.12693530539E+04  0.12693530539E+04  0.25500000920E-02 0.  1.
        2   -1    0    0  501    0  0.00000000000E+00  0.00000000000E+00 -0.22579917456E+04  0.22579917456E+04  0.25500000920E-02 0. -1.
    10030    2    1    2    0    0  0.00000000000E+00  0.00000000000E+00 -0.98863869167E+03  0.35273447996E+04  0.33859643932E+04 0.  0.
        5    1    3    3  502    0  0.10369218950E+04  0.49720907193E+03  0.80003442426E+03  0.14008929465E+04  0.46999998093E+01 0.  1.
       -5    1    3    3    0  502 -0.10369218950E+04 -0.49720907193E+03 -0.17886731159E+04  0.21264518530E+04  0.46999998093E+01 0. -1.
</event>
<event>
 5   0  0.1523259E-07  0.3269010E+04  0.7818609E-02  0.8170826E-01
       -1   -1    0    0    0  501  0.00000000000E+00  0.00000000000E+00  0.25192782808E+04  0.25192782808E+04  0.50400001928E-02 0. -1.
        1   -1    0    0  501    0  0.00000000000E+00  0.00000000000E+00 -0.10604649567E+04  0.10604649567E+04  0.50400001928E-02 0.  1.
    10030    2    1    2    0    0  0.00000000000E+00  0.00000000000E+00  0.14588133241E+04  0.35797432375E+04  0.32690098397E+04 0.  0.
        4    1    3    3  502    0  0.10118729422E+04 -0.31209281700E+03 -0.63406386963E+03  0.12342314942E+04  0.12699999809E+01 0.  1.
       -4    1    3    3    0  502 -0.10118729422E+04  0.31209281700E+03  0.20928771937E+04  0.23455117434E+04  0.12699999809E+01 0. -1.
</event>
<event>
 5   0  0.1421875E-07  0.3398669E+04  0.7818609E-02  0.8138233E-01
        1   -1    0    0  501    0  0.00000000000E+00  0.00000000000E+00  0.22471053885E+04  0.22471053885E+04  0.50400001928E-02 0.  1.
       -1   -1    0    0    0  501  0.00000000000E+00  0.00000000000E+00 -0.12850925937E+04  0.12850925937E+04  0.50400001928E-02 0. -1.
    10030    2    1    2    0    0  0.00000000000E+00  0.00000000000E+00  0.96201279481E+03  0.35321979822E+04  0.33986694409E+04 0.  0.
        5    1    3    3  502    0  0.11305972275E+04 -0.12461753628E+04  0.23394132437E+03  0.16988095123E+04  0.46999998093E+01 0.  1.
       -5    1    3    3    0  502 -0.11305972275E+04  0.12461753628E+04  0.72807147043E+03  0.18333884700E+04  0.46999998093E+01 0. -1.
</event>
<event>
 5   0  0.4521737E-07  0.3405920E+04  0.7818609E-02  0.8136455E-01
       -2   -1    0    0    0  501  0.00000000000E+00  0.00000000000E+00  0.13070959009E+04  0.13070959009E+04  0.25500000920E-02 0. -1.
        2   -1    0    0  501    0  0.00000000000E+00  0.00000000000E+00 -0.22187140670E+04  0.22187140670E+04  0.25500000920E-02 0.  1.
    10030    2    1    2    0    0  0.00000000000E+00  0.00000000000E+00 -0.91161816616E+03  0.35258099679E+04  0.34059195893E+04 0.  0.
        4    1    3    3  502    0  0.14762477240E+04  0.15646067450E+03 -0.13196175524E+04  0.19862475634E+04  0.12699999809E+01 0.  1.
       -4    1    3    3    0  502 -0.14762477240E+04 -0.15646067450E+03  0.40799938628E+03  0.15395624045E+04  0.12699999809E+01 0. -1.
</event>
<event>
 5   0  0.4396257E-07  0.3384980E+04  0.7818609E-02  0.8141603E-01
       -2   -1    0    0    0  501  0.00000000000E+00  0.00000000000E+00  0.11109733664E+04  0.11109733664E+04  0.25500000920E-02 0. -1.
        2   -1    0    0  501    0  0.00000000000E+00  0.00000000000E+00 -0.25783898333E+04  0.25783898333E+04  0.25500000920E-02 0.  1.
    10030    2    1    2    0    0  0.00000000000E+00  0.00000000000E+00 -0.14674164669E+04  0.36893631997E+04  0.33849800195E+04 0.  0.
        2    1    3    3  502    0  0.97567126098E+01  0.10370537001E+04 -0.21914950635E+04  0.24245053483E+04  0.25500000920E-02 0.  1.
       -2    1    3    3    0  502 -0.97567126098E+01 -0.10370537001E+04  0.72407859661E+03  0.12648578515E+04  0.25500000920E-02 0. -1.
</event>
<event>
 5   0  0.1421875E-07  0.3394235E+04  0.7818609E-02  0.8139323E-01
        1   -1    0    0  501    0  0.00000000000E+00  0.00000000000E+00  0.10992885819E+04  0.10992885819E+04  0.50400001928E-02 0. -1.
       -1   -1    0    0    0  501  0.00000000000E+00  0.00000000000E+00 -0.26200657684E+04  0.26200657684E+04  0.50400001928E-02 0.  1.
    10030    2    1    2    0    0  0.00000000000E+00  0.00000000000E+00 -0.15207771865E+04  0.37193543503E+04  0.33942353384E+04 0.  0.
        5    1    3    3  502    0 -0.90074017224E+03 -0.12163857066E+04 -0.16015489747E+04  0.22036125462E+04  0.46999998093E+01 0.  1.
       -5    1    3    3    0  502  0.90074017224E+03  0.12163857066E+04  0.80771788199E+02  0.15157418042E+04  0.46999998093E+01 0. -1.
</event>
<event>
 5   0  0.1523259E-07  0.3388970E+04  0.7818609E-02  0.8140619E-01
       -1   -1    0    0    0  501  0.00000000000E+00  0.00000000000E+00  0.11037682425E+04  0.11037682425E+04  0.50400001928E-02 0.  1.
        1   -1    0    0  501    0  0.00000000000E+00  0.00000000000E+00 -0.26013423897E+04  0.26013423897E+04  0.50400001928E-02 0. -1.
    10030    2    1    2    0    0  0.00000000000E+00  0.00000000000E+00 -0.14975741472E+04  0.37051106323E+04  0.33889698244E+04 0.  0.
        4    1    3    3  502    0 -0.13840055766E+04 -0.74705063736E+03 -0.59305021222E+02  0.15738725455E+04  0.12699999809E+01 0.  1.
       -4    1    3    3    0  502  0.13840055766E+04  0.74705063736E+03 -0.14382691260E+04  0.21312380868E+04  0.12699999809E+01 0. -1.
</event>
<event>
 5   0  0.4447909E-07  0.3390405E+04  0.7818609E-02  0.8140265E-01
       -2   -1    0    0    0  501  0.00000000000E+00  0.00000000000E+00  0.90662847733E+03  0.90662847734E+03  0.25500000920E-02 0.  1.
        2   -1    0    0  501    0  0.00000000000E+00  0.00000000000E+00 -0.31696680171E+04  0.31696680171E+04  0.25500000920E-02 0. -1.
    10030    2    1    2    0    0  0.00000000000E+00  0.00000000000E+00 -0.22630395398E+04  0.40762964944E+04  0.33904048655E+04 0.  0.
        5    1    3    3  502    0 -0.80758262676E+03  0.12924417818E+04 -0.20240582348E+04  0.25336592680E+04  0.46999998093E+01 0.  1.
       -5    1    3    3    0  502  0.80758262676E+03 -0.12924417818E+04 -0.23898130501E+03  0.15426372265E+04  0.46999998093E+01 0. -1.
</event>
<event>
 5   0  0.1520084E-07  0.3403402E+04  0.7818609E-02  0.8137072E-01
       -1   -1    0    0    0  501  0.00000000000E+00  0.00000000000E+00  0.12395773752E+04  0.12395773752E+04  0.50400001928E-02 0.  1.
        1   -1    0    0  501    0  0.00000000000E+00  0.00000000000E+00 -0.23361080154E+04  0.23361080154E+04  0.50400001928E-02 0. -1.
    10030    2    1    2    0    0  0.00000000000E+00  0.00000000000E+00 -0.10965306402E+04  0.35756853905E+04  0.34034022047E+04 0.  0.
        2    1    3    3  502    0  0.13650604012E+04  0.97272653197E+03 -0.85672559834E+03  0.18824360695E+04  0.25500000920E-02 0. -1.
       -2    1    3    3    0  502 -0.13650604012E+04 -0.97272653197E+03 -0.23980504188E+03  0.16932493210E+04  0.25500000920E-02 0.  1.
</event>
<event>
 5   0  0.1435806E-07  0.3394955E+04  0.7818609E-02  0.8139146E-01
        1   -1    0    0  501    0  0.00000000000E+00  0.00000000000E+00  0.28526969520E+04  0.28526969520E+04  0.50400001928E-02 0. -1.
       -1   -1    0    0    0  501  0.00000000000E+00  0.00000000000E+00 -0.10100721450E+04  0.10100721451E+04  0.50400001928E-02 0.  1.
    10030    2    1    2    0    0  0.00000000000E+00  0.00000000000E+00  0.18426248069E+04  0.38627690970E+04  0.33949549213E+04 0.  0.
        3    1    3    3  502    0  0.57613700137E+03  0.30745906002E+03 -0.86142497799E+03  0.10809800742E+04  0.10100000352E+00 0.  1.
       -3    1    3    3    0  502 -0.57613700137E+03 -0.30745906002E+03  0.27040497849E+04  0.27817890228E+04  0.10100000352E+00 0. -1.
</event>
<event>
 5   0  0.1473755E-07  0.3397574E+04  0.7818609E-02  0.8138502E-01
        1   -1    0    0  501    0  0.00000000000E+00  0.00000000000E+00  0.14407133889E+04  0.14407133889E+04  0.50400001928E-02 0. -1.
       -1   -1    0    0    0  501  0.00000000000E+00  0.00000000000E+00 -0.20030887564E+04  0.20030887564E+04  0.50400001928E-02 0.  1.
    10030    2    1    2    0    0  0.00000000000E+00  0.00000000000E+00 -0.56237536755E+03  0.34438021453E+04  0.33975737169E+04 0.  0.
        1    1    3    3  502    0  0.63198554769E+03 -0.12223599114E+04 -0.12908877811E+04  0.18867858248E+04  0.50400001928E-02 0.  1.
       -1    1    3    3    0  502 -0.63198554769E+03  0.12223599114E+04  0.72851241353E+03  0.15570163205E+04  0.50400001928E-02 0. -1.
</event>
<event>
 5   0  0.4486226E-07  0.3405416E+04  0.7818609E-02  0.8136578E-01
        2   -1    0    0  501    0  0.00000000000E+00  0.00000000000E+00  0.14812455675E+04  0.14812455675E+04  0.25500000920E-02 0.  1.
       -2   -1    0    0    0  501  0.00000000000E+00  0.00000000000E+00 -0.19572811683E+04  0.19572811683E+04  0.25500000920E-02 0. -1.
    10030    2    1    2    0    0  0.00000000000E+00  0.00000000000E+00 -0.47603560084E+03  0.34385267357E+04  0.34054157190E+04 0.  0.
        1    1    3    3  502    0  0.15050592482E+03 -0.28997065689E+03 -0.19253369295E+04  0.19528587525E+04  0.50400001928E-02 0. -1.
       -1    1    3    3    0  502 -0.15050592482E+03  0.28997065689E+03  0.14493013286E+04  0.14856679832E+04  0.50400001928E-02 0.  1.
</event>
<event>
 5   0  0.4381939E-07  0.3385454E+04  0.7818609E-02  0.8141486E-01
       -2   -1    0    0    0  501  0.00000000000E+00  0.00000000000E+00  0.12536417649E+04  0.12536417649E+04  0.25500000920E-02 0.  1.
        2   -1    0    0  501    0  0.00000000000E+00  0.00000000000E+00 -0.22856002218E+04  0.22856002218E+04  0.25500000920E-02 0. -1.
    10030    2    1    2    0    0  0.00000000000E+00  0.00000000000E+00 -0.10319584568E+04  0.35392419867E+04  0.33854535270E+04 0.  0.
        3    1    3    3  502    0 -0.16305949787E+04  0.41154372089E+03 -0.31457339983E+03  0.17108958627E+04  0.10100000352E+00 0.  1.
       -3    1    3    3    0  502  0.16305949787E+04 -0.41154372089E+03 -0.71738505700E+03  0.18283461240E+04  0.10100000352E+00 0. -1.
</event>
<event>
 5   0  0.4447909E-07  0.3404884E+04  0.7818609E-02  0.8136709E-01
        2   -1    0    0  501    0  0.00000000000E+00  0.00000000000E+00  0.17775576591E+04  0.17775576591E+04  0.25500000920E-02 0.  1.
       -2   -1    0    0    0  501  0.00000000000E+00  0.00000000000E+00 -0.16305001723E+04  0.16305001723E+04  0.25500000920E-02 0. -1.
    10030    2    1    2    0    0  0.00000000000E+00  0.00000000000E+00  0.14705748680E+03  0.34080578313E+04  0.34048835923E+04 0.  0.
        5    1    3    3  502    0  0.52852902568E+03  0.12693309213E+04  0.10783281726E+04  0.17473859495E+04  0.46999998093E+01 0.  1.
       -5    1    3    3    0  502 -0.52852902568E+03 -0.12693309213E+04 -0.93127068578E+03  0.16606718818E+04  0.46999998093E+01 0. -1.
</event>
<event>
 5   0  0.4521737E-07  0.3400149E+04  0.7818609E-02  0.8137870E-01
        2   -1    0    0  501    0  0.00000000000E+00  0.00000000000E+00  0.19862897612E+04  0.19862897612E+04  0.25500000920E-02 0. -1.
       -2   -1    0    0    0  501  0.00000000000E+00  0.00000000000E+00 -0.14551012192E+04  0.14551012192E+04  0.25500000920E-02 0.  1.
    10030    2    1    2    0    0  0.00000000000E+00  0.00000000000E+00  0.53118854202E+03  0.34413909804E+04  0.34001486163E+04 0.  0.
        4    1    3    3  502    0 -0.12379466222E+04 -0.90182445303E+03 -0.48122558777E+03  0.16054217087E+04  0.12699999809E+01 0.  1.
       -4    1    3    3    0  502  0.12379466222E+04  0.90182445303E+03  0.10124141298E+04  0.18359692717E+04  0.12699999809E+01 0. -1.
</event>
<event>
 5   0  0.4486226E-07  0.3396426E+04  0.7818609E-02  0.8138784E-01
       -2   -1    0    0    0  501  0.00000000000E+00  0.00000000000E+00  0.33042419491E+04  0.33042419491E+04  0.25500000920E-02 0. -1.
        2   -1    0    0  501    0  0.00000000000E+00  0.00000000000E+00 -0.87279525641E+03  0.87279525642E+03  0.25500000920E-02 0.  1.
    10030    2    1    2    0    0  0.00000000000E+00  0.00000000000E+00  0.24314466927E+04  0.41770372056E+04  0.33964255913E+04 0.  0.
        1    1    3    3  502    0 -0.84141573378E+03  0.11210012413E+04  0.23948907215E+04  0.27749100504E+04  0.50400001928E-02 0. -1.
       -1    1    3    3    0  502  0.84141573378E+03 -0.11210012413E+04  0.36555971222E+02  0.14021271551E+04  0.50400001928E-02 0.  1.
</event>
<event>
 5   0  0.1520084E-07  0.3405875E+04  0.7818609E-02  0.8136466E-01
        1   -1    0    0  501    0  0.00000000000E+00  0.00000000000E+00  0.12225574924E+04  0.12225574924E+04  0.50400001928E-02 0.  1.
       -1   -1    0    0    0  501  0.00000000000E+00  0.00000000000E+00 -0.23720728497E+04  0.23720728497E+04  0.50400001928E-02 0. -1.
    10030    2    1    2    0    0  0.00000000000E+00  0.00000000000E+00 -0.11495153572E+04  0.35946303421E+04  0.34058745925E+04 0.  0.
        2    1    3    3  502    0  0.73122143942E+03 -0.38760436386E+02 -0.21974332829E+04  0.23162254204E+04  0.25500000920E-02 0. -1.
       -2    1    3    3    0  502 -0.73122143942E+03  0.38760436386E+02  0.10479179257E+04  0.12784049217E+04  0.25500000920E-02 0.  1.
</event>
<event>
 5   0  0.1435806E-07  0.3399792E+04  0.7818609E-02  0.8137957E-01
       -1   -1    0    0    0  501  0.00000000000E+00  0.00000000000E+00  0.13055187386E+04  0.13055187386E+04  0.50400001928E-02 0. -1.
        1   -1    0    0  501    0  0.00000000000E+00  0.00000000000E+00 -0.22134085145E+04  0.22134085145E+04  0.50400001928E-02 0.  1.
    10030    2    1    2    0    0  0.00000000000E+00  0.00000000000E+00 -0.90788977589E+03  0.35189272531E+04  0.33997919300E+04 0.  0.
        3    1    3    3  502    0 -0.38157186028E+03  0.85596011264E+03 -0.19218743053E+04  0.21381921463E+04  0.10100000352E+00 0.  1.
       -3    1    3    3    0  502  0.38157186028E+03 -0.85596011264E+03  0.10139845294E+04  0.13807351068E+04  0.10100000352E+00 0. -1.
</event>
<event>
 5   0  0.4381939E-07  0.3373025E+04  0.7818609E-02  0.8144559E-01
       -2   -1    0    0    0  501  0.00000000000E+00  0.00000000000E+00  0.24507898900E+04  0.24507898900E+04  0.25500000920E-02 0.  1.
        2   -1    0    0  501    0  0.00000000000E+00  0.00000000000E+00 -0.11605742323E+04  0.11605742323E+04  0.25500000920E-02 0. -1.
    10030    2    1    2    0    0  0.00000000000E+00  0.00000000000E+00  0.12902156577E+04  0.36113641224E+04  0.33730245153E+04 0.  0.
        3    1    3    3  502    0  0.46926932424E+03  0.11392623113E+04  0.18780845135E+04  0.22461820413E+04  0.10100000352E+00 0.  1.
       -3    1    3    3    0  502 -0.46926932424E+03 -0.11392623113E+04 -0.58786885578E+03  0.13651820811E+04  0.10100000352E+00 0. -1.
</event>
<event>
 5   0  0.4381939E-07  0.3410346E+04  0.7818609E-02  0.8135372E-01
        2   -1    0    0  501    0  0.00000000000E+00  0.00000000000E+00  0.12173586156E+04  0.12173586156E+04  0.25500000920E-02 0.  1.
       -2   -1    0    0    0  501  0.00000000000E+00  0.00000000000E+00 -0.23884621891E+04  0.23884621891E+04  0.25500000920E-02 0. -1.
    10030    2    1    2    0    0  0.00000000000E+00  0.00000000000E+00 -0.11711035735E+04  0.36058208047E+04  0.34103460376E+04 0.  0.
        3    1    3    3  502    0 -0.10731972002E+04  0.12113842916E+04 -0.11533728693E+04  0.19873281355E+04  0.10100000352E+00 0. -1.
       -3    1    3    3    0  502  0.10731972002E+04 -0.12113842916E+04 -0.17730704173E+02  0.16184926692E+04  0.10100000352E+00 0.  1.
</event>
<event>
 5   0  0.1523259E-07  0.3425439E+04  0.7818609E-02  0.8131691E-01
       -1   -1    0    0    0  501  0.00000000000E+00  0.00000000000E+00  0.99686784271E+03  0.99686784272E+03  0.50400001928E-02 0.  1.
        1   -1    0    0  501    0  0.00000000000E+00  0.00000000000E+00 -0.29426240681E+04  0.29426240681E+04  0.50400001928E-02 0. -1.
    10030    2    1    2    0    0  0.00000000000E+00  0.00000000000E+00 -0.19457562254E+04  0.39394919108E+04  0.34254385452E+04 0.  0.
        4    1    3    3  502    0  0.11347508361E+04  0.54454594566E+03 -0.23087498617E+04  0.26295469731E+04  0.12699999809E+01 0. -1.
       -4    1    3    3    0  502 -0.11347508361E+04 -0.54454594566E+03  0.36299363631E+03  0.13099449377E+04  0.12699999809E+01 0.  1.
</event>
<event>
 5   0  0.1473755E-07  0.3418365E+04  0.7818609E-02  0.8133414E-01
        1   -1    0    0  501    0  0.00000000000E+00  0.00000000000E+00  0.24064040001E+04  0.24064040001E+04  0.50400001928E-02 0.  1.
       -1   -1    0    0    0  501  0.00000000000E+00  0.00000000000E+00 -0.12139708045E+04  0.12139708045E+04  0.50400001928E-02 0. -1.
    10030    2    1    2    0    0  0.00000000000E+00  0.00000000000E+00  0.11924331956E+04  0.36203748046E+04  0.34183646382E+04 0.  0.
        1    1    3    3  502    0  0.74590656092E+03 -0.83846926462E+02  0.22225050895E+04  0.23458337063E+04  0.50400001928E-02 0.  1.
       -1    1    3    3    0  502 -0.74590656092E+03  0.83846926462E+02 -0.10300718939E+04  0.12745410983E+04  0.50400001928E-02 0. -1.
</event>
<event>
 5   0  0.4447909E-07  0.3366429E+04  0.7818609E-02  0.8146195E-01
       -2   -1    0    0    0  501  0.00000000000E+00  0.00000000000E+00  0.13435134101E+04  0.13435134101E+04  0.25500000920E-02 0.  1.
        2   -1    0    0  501    0  0.00000000000E+00  0.00000000000E+00 -0.21088071665E+04  0.21088071665E+04  0.25500000920E-02 0. -1.
    10030    2    1    2    0    0  0.00000000000E+00  0.00000000000E+00 -0.76529375648E+03  0.34523205766E+04  0.33664287947E+04 0.  0.
        5    1    3    3  502    0  0.91773417607E+03  0.20964968065E+03 -0.18135973964E+04  0.20433664901E+04  0.46999998093E+01 0. -1.
       -5    1    3    3    0  502 -0.91773417607E+03 -0.20964968065E+03  0.10483036399E+04  0.14089540865E+04  0.46999998093E+01 0.  1.
</event>
<event>
 5   0  0.1473755E-07  0.3392637E+04  0.7818609E-02  0.8139716E-01
        1   -1    0    0  501    0  0.00000000000E+00  0.00000000000E+00  0.16548199326E+04  0.16548199327E+04  0.50400001928E-02 0. -1.
       -1   -1    0    0    0  501  0.00000000000E+00  0.00000000000E+00 -0.17388576252E+04  0.17388576252E+04  0.50400001928E-02 0.  1.
    10030    2    1    2    0    0  0.00000000000E+00  0.00000000000E+00 -0.84037692505E+02  0.33936775578E+04  0.33926368849E+04 0.  0.
        1    1    3    3  502    0  0.45000112078E+03  0.11673459103E+04 -0.11879263380E+04  0.17252149047E+04  0.50400001928E-02 0.  1.
       -1    1    3    3    0  502 -0.45000112078E+03 -0.11673459103E+04  0.11038886455E+04  0.16684626531E+04  0.50400001928E-02 0. -1.
</event>
<event>
 5   0  0.1473755E-07  0.3425476E+04  0.7818609E-02  0.8131682E-01
        1   -1    0    0  501    0  0.00000000000E+00  0.00000000000E+00  0.21500266393E+04  0.21500266393E+04  0.50400001928E-02 0.  1.
       -1   -1    0    0    0  501  0.00000000000E+00  0.00000000000E+00 -0.13643882384E+04  0.13643882384E+04  0.50400001928E-02 0. -1.
    10030    2    1    2    0    0  0.00000000000E+00  0.00000000000E+00  0.78563840088E+03  0.35144148776E+04  0.34254757677E+04 0.  0.
        1    1    3    3  502    0 -0.57046998446E+03 -0.55723164166E+03 -0.11622958738E+04  0.14095654664E+04  0.50400001928E-02 0. -1.
       -1    1    3    3    0  502  0.57046998446E+03  0.55723164166E+03  0.19479342747E+04  0.21048494113E+04  0.50400001928E-02 0.  1.
</event>
<event>
 5   0  0.4521737E-07  0.3413351E+04  0.7818609E-02  0.8134637E-01
        2   -1    0    0  501    0  0.00000000000E+00  0.00000000000E+00  0.15216603061E+04  0.15216603061E+04  0.25500000920E-02 0.  1.
       -2   -1    0    0    0  501  0.00000000000E+00  0.00000000000E+00 -0.19141866770E+04  0.19141866770E+04  0.25500000920E-02 0. -1.
    10030    2    1    2    0    0  0.00000000000E+00  0.00000000000E+00 -0.39252637084E+03  0.34358469831E+04  0.34133513648E+04 0.  0.
        4    1    3    3  502    0  0.95837314195E+03  0.47361962999E+03  0.11428977803E+04  0.15649318140E+04  0.12699999809E+01 0.  1.
       -4    1    3    3    0  502 -0.95837314195E+03 -0.47361962999E+03 -0.15354241512E+04  0.18709151691E+04  0.12699999809E+01 0. -1.
</event>
<event>
 5   0  0.1435806E-07  0.3419246E+04  0.7818609E-02  0.8133199E-01
        1   -1    0    0  501    0  0.00000000000E+00  0.00000000000E+00  0.24352860358E+04  0.24352860358E+04  0.50400001928E-02 0. -1.
       -1   -1    0    0    0  501  0.00000000000E+00  0.00000000000E+00 -0.12001921718E+04  0.12001921718E+04  0.50400001928E-02 0.  1.
    10030    2    1    2    0    0  0.00000000000E+00  0.00000000000E+00  0.12350938640E+04  0.36354782077E+04  0.34192462540E+04 0.  0.
        3    1    3    3  502    0  0.14954130646E+04 -0.74607107299E+02  0.14949514493E+04  0.21158228424E+04  0.10100000352E+00 0. -1.
       -3    1    3    3    0  502 -0.14954130646E+04  0.74607107299E+02 -0.25985758532E+03  0.15196553653E+04  0.10100000352E+00 0.  1.
</event>
<event>
 5   0  0.1435806E-07  0.3395964E+04  0.7818609E-02  0.8138898E-01
        1   -1    0    0  501    0  0.00000000000E+00  0.00000000000E+00  0.18869756966E+04  0.18869756966E+04  0.50400001928E-02 0. -1.
       -1   -1    0    0    0  501  0.00000000000E+00  0.00000000000E+00 -0.15279172225E+04  0.15279172225E+04  0.50400001928E-02 0.  1.
    10030    2    1    2    0    0  0.00000000000E+00  0.00000000000E+00  0.35905847405E+03  0.34148929191E+04  0.33959638781E+04 0.  0.
        3    1    3    3  502    0 -0.22680185071E+03 -0.11927714398E+04  0.13731586285E+04  0.18329504675E+04  0.10100000352E+00 0. -1.
       -3    1    3    3    0  502  0.22680185071E+03  0.11927714398E+04 -0.10141001544E+04  0.15819424517E+04  0.10100000352E+00 0.  1.
</event>
<event>
 5   0  0.1473755E-07  0.3400497E+04  0.7818609E-02  0.8137784E-01
       -1   -1    0    0    0  501  0.00000000000E+00  0.00000000000E+00  0.15200069515E+04  0.15200069515E+04  0.50400001928E-02 0. -1.
        1   -1    0    0  501    0  0.00000000000E+00  0.00000000000E+00 -0.19018627865E+04  0.19018627865E+04  0.50400001928E-02 0.  1.
    10030    2    1    2    0    0  0.00000000000E+00  0.00000000000E+00 -0.38185583499E+03  0.34218697381E+04  0.34004968204E+04 0.  0.
        1    1    3    3  502    0  0.15886946938E+04 -0.50076498482E+03  0.15198990112E+03  0.16726677286E+04  0.50400001928E-02 0. -1.
       -1    1    3    3    0  502 -0.15886946938E+04  0.50076498482E+03 -0.53384573611E+03  0.17492020095E+04  0.50400001928E-02 0.  1.
</event>
<event>
 5   0  0.1421875E-07  0.3405470E+04  0.7818609E-02  0.8136565E-01
       -1   -1    0    0    0  501  0.00000000000E+00  0.00000000000E+00  0.12629540370E+04  0.12629540370E+04  0.50400001928E-02 0.  1.
        1   -1    0    0  501    0  0.00000000000E+00  0.00000000000E+00 -0.22956545974E+04  0.22956545974E+04  0.50400001928E-02 0. -1.
    10030    2    1    2    0    0  0.00000000000E+00  0.00000000000E+00 -0.10327005604E+04  0.35586086344E+04  0.34054698597E+04 0.  0.
        5    1    3    3  502    0  0.14881043599E+04  0.62551917082E+03  0.49821441516E+02  0.16150025031E+04  0.46999998093E+01 0.  1.
       -5    1    3    3    0  502 -0.14881043599E+04 -0.62551917082E+03 -0.10825220019E+04  0.19436061313E+04  0.46999998093E+01 0. -1.
</event>
<event>
 5   0  0.1421875E-07  0.3379551E+04  0.7818609E-02  0.8142943E-01
       -1   -1    0    0    0  501  0.00000000000E+00  0.00000000000E+00  0.27716436978E+04  0.27716436979E+04  0.50400001928E-02 0.  1.
        1   -1    0    0  501    0  0.00000000000E+00  0.00000000000E+00 -0.10301980358E+04  0.10301980358E+04  0.50400001928E-02 0. -1.
    10030    2    1    2    0    0  0.00000000000E+00  0.00000000000E+00  0.17414456620E+04  0.38018417337E+04  0.33795513865E+04 0.  0.
        5    1    3    3  502    0 -0.31769467746E+03  0.22155146998E+03 -0.97958115442E+03  0.10533832589E+04  0.46999998093E+01 0. -1.
       -5    1    3    3    0  502  0.31769467746E+03 -0.22155146998E+03  0.27210268165E+04  0.27484584748E+04  0.46999998093E+01 0.  1.
</event>
<event>
 5   0  0.1520084E-07  0.3402274E+04  0.7818609E-02  0.8137348E-01
       -1   -1    0    0    0  501  0.00000000000E+00  0.00000000000E+00  0.15325196222E+04  0.15325196222E+04  0.50400001928E-02 0.  1.
        1   -1    0    0  501    0  0.00000000000E+00  0.00000000000E+00 -0.18883066040E+04  0.18883066040E+04  0.50400001928E-02 0. -1.
    10030    2    1    2    0    0  0.00000000000E+00  0.00000000000E+00 -0.35578698179E+03  0.34208262263E+04  0.34022739005E+04 0.  0.
        2    1    3    3  502    0  0.14704643431E+03 -0.15468624113E+04  0.51831346858E+03  0.16380033044E+04  0.25500000920E-02 0.  1.
       -2    1    3    3    0  502 -0.14704643431E+03  0.15468624113E+04 -0.87410045037E+03  0.17828229219E+04  0.25500000920E-02 0. -1.
</event>
<event>
 5   0  0.1520084E-07  0.3397545E+04  0.7818609E-02  0.8138509E-01
       -1   -1    0    0    0  501  0.00000000000E+00  0.00000000000E+00  0.17470750336E+04  0.17470750336E+04  0.50400001928E-02 0. -1.
        1   -1    0    0  501    0  0.00000000000E+00  0.00000000000E+00 -0.16518052476E+04  0.16518052477E+04  0.50400001928E-02 0.  1.
    10030    2    1    2    0    0  0.00000000000E+00  0.00000000000E+00  0.95269785938E+02  0.33988802813E+04  0.33975448245E+04 0.  0.
        2    1    3    3  502    0 -0.66124633013E+03  0.91639826498E+03 -0.12212465794E+04  0.16638737022E+04  0.25500000920E-02 0.  1.
       -2    1    3    3    0  502  0.66124633013E+03 -0.91639826498E+03  0.13165163653E+04  0.17350065791E+04  0.25500000920E-02 0. -1.
</event>
<event>
 5   0  0.1520084E-07  0.3399944E+04  0.7818609E-02  0.8137920E-01
       -1   -1    0    0    0  501  0.00000000000E+00  0.00000000000E+00  0.25349897634E+04  0.25349897634E+04  0.50400001928E-02 0. -1.
        1   -1    0    0  501    0  0.00000000000E+00  0.00000000000E+00 -0.11400064171E+04  0.11400064171E+04  0.50400001928E-02 0.  1.
    10030    2    1    2    0    0  0.00000000000E+00  0.00000000000E+00  0.13949833463E+04  0.36749961805E+04  0.33999438805E+04 0.  0.
        2    1    3    3  502    0 -0.26948530309E+03  0.12133252186E+04 -0.55612954372E+03  0.13616388964E+04  0.25500000920E-02 0.  1.
       -2    1    3    3    0  502  0.26948530309E+03 -0.12133252186E+04  0.19511128900E+04  0.23133572842E+04  0.25500000920E-02 0. -1.
</event>
<event>
 5   0  0.4447909E-07  0.3397919E+04  0.7818609E-02  0.8138417E-01
        2   -1    0    0  501    0  0.00000000000E+00  0.00000000000E+00  0.13389341521E+04  0.13389341521E+04  0.25500000920E-02 0. -1.
       -2   -1    0    0    0  501  0.00000000000E+00  0.00000000000E+00 -0.21557914012E+04  0.21557914012E+04  0.25500000920E-02 0.  1.
    10030    2    1    2    0    0  0.00000000000E+00  0.00000000000E+00 -0.81685724906E+03  0.34947255533E+04  0.33979186170E+04 0.  0.
        5    1    3    3  502    0  0.17195619725E+03  0.14028286373E+04  0.56127091072E+03  0.15207051800E+04  0.46999998093E+01 0. -1.
       -5    1    3    3    0  502 -0.17195619725E+03 -0.14028286373E+04 -0.13781281598E+04  0.19740203733E+04  0.46999998093E+01 0.  1.
</event>
<event>
 5   0  0.1473755E-07  0.3385486E+04  0.7818609E-02  0.8141478E-01
        1   -1    0    0  501    0  0.00000000000E+00  0.00000000000E+00  0.20283332335E+04  0.20283332335E+04  0.50400001928E-02 0. -1.
       -1   -1    0    0    0  501  0.00000000000E+00  0.00000000000E+00 -0.14126764765E+04  0.14126764765E+04  0.50400001928E-02 0.  1.
    10030    2    1    2    0    0  0.00000000000E+00  0.00000000000E+00  0.61565675701E+03  0.34410097100E+04  0.33854858709E+04 0.  0.
        1    1    3    3  502    0 -0.64278532056E+03  0.88615124655E+03  0.16201040906E+04  0.19552939074E+04  0.50400001928E-02 0. -1.
       -1    1    3    3    0  502  0.64278532056E+03 -0.88615124655E+03 -0.10044473336E+04  0.14857158026E+04  0.50400001928E-02 0.  1.
</event>
<event>
 5   0  0.4381939E-07  0.3381139E+04  0.7818609E-02  0.8142551E-01
       -2   -1    0    0    0  501  0.00000000000E+00  0.00000000000E+00  0.12774059812E+04  0.12774059812E+04  0.25500000920E-02 0. -1.
        2   -1    0    0  501    0  0.00000000000E+00  0.00000000000E+00 -0.22373661012E+04  0.22373661012E+04  0.25500000920E-02 0.  1.
    10030    2    1    2    0    0  0.00000000000E+00  0.00000000000E+00 -0.95996012001E+03  0.35147720824E+04  0.33811387666E+04 0.  0.
        3    1    3    3  502    0  0.22403320506E+03 -0.28160698358E+03  0.12371320682E+04  0.12884056561E+04  0.10100000352E+00 0. -1.
       -3    1    3    3    0  502 -0.22403320506E+03  0.28160698358E+03 -0.21970921882E+04  0.22263664263E+04  0.10100000352E+00 0.  1.
</event>
<event>
 5   0  0.1523259E-07  0.3407435E+04  0.7818609E-02  0.8136084E-01
        1   -1    0    0  501    0  0.00000000000E+00  0.00000000000E+00  0.14898197524E+04  0.14898197524E+04  0.50400001928E-02 0.  1.
       -1   -1    0    0    0  501  0.00000000000E+00  0.00000000000E+00 -0.19483247275E+04  0.19483247275E+04  0.50400001928E-02 0. -1.
    10030    2    1    2    0    0  0.00000000000E+00  0.00000000000E+00 -0.45850497506E+03  0.34381444799E+04  0.34074346146E+04 0.  0.
        4    1    3    3  502    0  0.20227260101E+03 -0.12655466211E+04  0.90341914908E+03  0.15680211182E+04  0.12699999809E+01 0.  1.
       -4    1    3    3    0  502 -0.20227260101E+03  0.12655466211E+04 -0.13619241241E+04  0.18701233617E+04  0.12699999809E+01 0. -1.
</event>
<event>
 5   0  0.4521737E-07  0.3380191E+04  0.7818609E-02  0.8142785E-01
        2   -1    0    0  501    0  0.00000000000E+00  0.00000000000E+00  0.29656567604E+04  0.29656567604E+04  0.25500000920E-02 0.  1.
       -2   -1    0    0    0  501  0.00000000000E+00  0.00000000000E+00 -0.96316721396E+03  0.96316721397E+03  0.25500000920E-02 0. -1.
    10030    2    1    2    0    0  0.00000000000E+00  0.00000000000E+00  0.20024895464E+04  0.39288239744E+04  0.33801913316E+04 0.  0.
        4    1    3    3  502    0 -0.53113499384E+03  0.16041812996E+04  0.96599552711E+03  0.19464457338E+04  0.12699999809E+01 0.  1.
       -4    1    3    3    0  502  0.53113499384E+03 -0.16041812996E+04  0.10364940193E+04  0.19823782405E+04  0.12699999809E+01 0. -1.
</event>
<event>
 5   0  0.4486226E-07  0.3420694E+04  0.7818609E-02  0.8132846E-01
        2   -1    0    0  501    0  0.00000000000E+00  0.00000000000E+00  0.18337028230E+04  0.18337028230E+04  0.25500000920E-02 0.  1.
       -2   -1    0    0    0  501  0.00000000000E+00  0.00000000000E+00 -0.15952892210E+04  0.15952892210E+04  0.25500000920E-02 0. -1.
    10030    2    1    2    0    0  0.00000000000E+00  0.00000000000E+00  0.23841360207E+03  0.34289920440E+04  0.34206937004E+04 0.  0.
        1    1    3    3  502    0 -0.12754018678E+04 -0.11193621400E+04  0.33341849688E+03  0.17293898979E+04  0.50400001928E-02 0. -1.
       -1    1    3    3    0  502  0.12754018678E+04  0.11193621400E+04 -0.95004894808E+02  0.16996021461E+04  0.50400001928E-02 0.  1.
</event>
<event>
 5   0  0.1435806E-07  0.3401065E+04  0.7818609E-02  0.8137645E-01
        1   -1    0    0  501    0  0.00000000000E+00  0.00000000000E+00  0.15174444550E+04  0.15174444550E+04  0.50400001928E-02 0. -1.
       -1   -1    0    0    0  501  0.00000000000E+00  0.00000000000E+00 -0.19057106707E+04  0.19057106707E+04  0.50400001928E-02 0.  1.
    10030    2    1    2    0    0  0.00000000000E+00  0.00000000000E+00 -0.38826621573E+03  0.34231551258E+04  0.34010645923E+04 0.  0.
        3    1    3    3  502    0  0.12996087608E+04  0.10961880221E+04 -0.15928207135E+03  0.17076246365E+04  0.10100000352E+00 0. -1.
       -3    1    3    3    0  502 -0.12996087608E+04 -0.10961880221E+04 -0.22898414438E+03  0.17155304892E+04  0.10100000352E+00 0.  1.
</event>
<event>
 5   0  0.4381939E-07  0.3399627E+04  0.7818609E-02  0.8137998E-01
        2   -1    0    0  501    0  0.00000000000E+00  0.00000000000E+00  0.17665158850E+04  0.17665158850E+04  0.25500000920E-02 0.  1.
       -2   -1    0    0    0  501  0.00000000000E+00  0.00000000000E+00 -0.16356297354E+04  0.16356297354E+04  0.25500000920E-02 0. -1.
    10030    2    1    2    0    0  0.00000000000E+00  0.00000000000E+00  0.13088614963E+03  0.34021456204E+04  0.33996269852E+04 0.  0.
        3    1    3    3  502    0  0.14505893403E+04 -0.38989045744E+03 -0.73084856666E+03  0.16704381583E+04  0.10100000352E+00 0. -1.
       -3    1    3    3    0  502 -0.14505893403E+04  0.38989045744E+03  0.86173471629E+03  0.17317074622E+04  0.10100000352E+00 0.  1.
</event>
<event>
 5   0  0.1473755E-07  0.3323942E+04  0.7818609E-02  0.8156830E-01
        1   -1    0    0  501    0  0.00000000000E+00  0.00000000000E+00  0.16216858937E+04  0.16216858937E+04  0.50400001928E-02 0.  1.
       -1   -1    0    0    0  501  0.00000000000E+00  0.00000000000E+00 -0.17032567543E+04  0.17032567543E+04  0.50400001928E-02 0. -1.
    10030    2    1    2    0    0  0.00000000000E+00  0.00000000000E+00 -0.81570860546E+02  0.33249426480E+04  0.33239419079E+04 0.  0.
        1    1    3    3  502    0  0.62125504349E+03 -0.75193232931E+03 -0.13868455729E+04  0.16954942347E+04  0.50400001928E-02 0. -1.
       -1    1    3    3    0  502 -0.62125504349E+03  0.75193232931E+03  0.13052747123E+04  0.16294484133E+04  0.50400001928E-02 0.  1.
</event>
<event>
 5   0  0.4396257E-07  0.3390265E+04  0.7818609E-02  0.8140300E-01
       -2   -1    0    0    0  501  0.00000000000E+00  0.00000000000E+00  0.18917494896E+04  0.18917494896E+04  0.25500000920E-02 0.  1.
        2   -1    0    0  501    0  0.00000000000E+00  0.00000000000E+00 -0.15189510055E+04  0.15189510055E+04  0.25500000920E-02 0. -1.
    10030    2    1    2    0    0  0.00000000000E+00  0.00000000000E+00  0.37279848408E+03  0.34107004951E+04  0.33902653521E+04 0.  0.
        2    1    3    3  502    0  0.23303167053E+03 -0.50891970990E+03  0.17960973897E+04  0.18812944649E+04  0.25500000920E-02 0.  1.
       -2    1    3    3    0  502 -0.23303167053E+03  0.50891970990E+03 -0.14232989056E+04  0.15294060302E+04  0.25500000920E-02 0. -1.
</event>
<event>
 5   0  0.1523259E-07  0.3398345E+04  0.7818609E-02  0.8138313E-01
        1   -1    0    0  501    0  0.00000000000E+00  0.00000000000E+00  0.20726121131E+04  0.20726121131E+04  0.50400001928E-02 0. -1.
       -1   -1    0    0    0  501  0.00000000000E+00  0.00000000000E+00 -0.13930182826E+04  0.13930182826E+04  0.50400001928E-02 0.  1.
    10030    2    1    2    0    0  0.00000000000E+00  0.00000000000E+00  0.67959383049E+03  0.34656303957E+04  0.33983446360E+04 0.  0.
        4    1    3    3  502    0  0.15756803856E+04 -0.57700423400E+03  0.67141356718E+02  0.16793487244E+04  0.12699999809E+01 0.  1.
       -4    1    3    3    0  502 -0.15756803856E+04  0.57700423400E+03  0.61245247377E+03  0.17862816713E+04  0.12699999809E+01 0. -1.
</event>
<event>
 5   0  0.1473755E-07  0.3399154E+04  0.7818609E-02  0.8138114E-01
        1   -1    0    0  501    0  0.00000000000E+00  0.00000000000E+00  0.22204912838E+04  0.22204912838E+04  0.50400001928E-02 0.  1.
       -1   -1    0    0    0  501  0.00000000000E+00  0.00000000000E+00 -0.13008657926E+04  0.13008657926E+04  0.50400001928E-02 0. -1.
    10030    2    1    2    0    0  0.00000000000E+00  0.00000000000E+00  0.91962549118E+03  0.35213570764E+04  0.33991535145E+04 0.  0.
        1    1    3    3  502    0 -0.16976524131E+04  0.45163949848E+02  0.52928835935E+03  0.17788225503E+04  0.50400001928E-02 0. -1.
       -1    1    3    3    0  502  0.16976524131E+04 -0.45163949848E+02  0.39033713183E+03  0.17425345261E+04  0.50400001928E-02 0.  1.
</event>
<event>
 5   0  0.1520084E-07  0.3400877E+04  0.7818609E-02  0.8137691E-01
       -1   -1    0    0    0  501  0.00000000000E+00  0.00000000000E+00  0.18327296013E+04  0.18327296014E+04  0.50400001928E-02 0. -1.
        1   -1    0    0  501    0  0.00000000000E+00  0.00000000000E+00 -0.15776962795E+04  0.15776962796E+04  0.50400001928E-02 0.  1.
    10030    2    1    2    0    0  0.00000000000E+00  0.00000000000E+00  0.25503332181E+03  0.34104258809E+04  0.34008767537E+04 0.  0.
        2    1    3    3  502    0 -0.40547558583E+03 -0.11765485165E+04  0.12895688189E+04  0.17921117714E+04  0.25500000920E-02 0. -1.
       -2    1    3    3    0  502  0.40547558583E+03  0.11765485165E+04 -0.10345354971E+04  0.16183141095E+04  0.25500000920E-02 0.  1.
</event>
<event>
 5   0  0.4396257E-07  0.3399445E+04  0.7818609E-02  0.8138043E-01
       -2   -1    0    0    0  501  0.00000000000E+00  0.00000000000E+00  0.12477334122E+04  0.12477334122E+04  0.25500000920E-02 0.  1.
        2   -1    0    0  501    0  0.00000000000E+00  0.00000000000E+00 -0.23154438098E+04  0.23154438098E+04  0.25500000920E-02 0. -1.
    10030    2    1    2    0    0  0.00000000000E+00  0.00000000000E+00 -0.10677103976E+04  0.35631772220E+04  0.33994450168E+04 0.  0.
        2    1    3    3  502    0 -0.15684566194E+04 -0.16560558691E+03  0.13036619501E+03  0.15825538607E+04  0.25500000920E-02 0.  1.
       -2    1    3    3    0  502  0.15684566194E+04  0.16560558691E+03 -0.11980765926E+04  0.19806233612E+04  0.25500000920E-02 0. -1.
</event>
<event>
 5   0  0.4486226E-07  0.3403970E+04  0.7818609E-02  0.8136933E-01
        2   -1    0    0  501    0  0.00000000000E+00  0.00000000000E+00  0.23780366857E+04  0.23780366857E+04  0.25500000920E-02 0.  1.
       -2   -1    0    0    0  501  0.00000000000E+00  0.00000000000E+00 -0.12181281423E+04  0.12181281423E+04  0.25500000920E-02 0. -1.
    10030    2    1    2    0    0  0.00000000000E+00  0.00000000000E+00  0.11599085435E+04  0.35961648280E+04  0.34039702761E+04 0.  0.
        1    1    3    3  502    0 -0.10109302094E+04  0.13683998310E+04  0.52978151433E+03  0.17818996713E+04  0.50400001928E-02 0. -1.
       -1    1    3    3    0  502  0.10109302094E+04 -0.13683998310E+04  0.63012702915E+03  0.18142651567E+04  0.50400001928E-02 0.  1.
</event>
<event>
 5   0  0.1421875E-07  0.3398849E+04  0.7818609E-02  0.8138189E-01
       -4   -1    0    0    0  501  0.00000000000E+00  0.00000000000E+00  0.14735439310E+04  0.14735444783E+04  0.12699999809E+01 0.  1.
        4   -1    0    0  501    0  0.00000000000E+00  0.00000000000E+00 -0.19599298043E+04  0.19599302157E+04  0.12699999809E+01 0. -1.
    10030    2    1    2    0    0  0.00000000000E+00  0.00000000000E+00 -0.48638587330E+03  0.34334746940E+04  0.33988494019E+04 0.  0.
        2    1    3    3  502    0 -0.16978984457E+04 -0.54687655010E+02 -0.29051504082E+03  0.17234409942E+04  0.25500000920E-02 0. -1.
       -2    1    3    3    0  502  0.16978984457E+04  0.54687655010E+02 -0.19587083247E+03  0.17100336998E+04  0.25500000920E-02 0.  1.
</event>
<event>
 5   0  0.4486226E-07  0.3378331E+04  0.7818609E-02  0.8143245E-01
        2   -1    0    0  501    0  0.00000000000E+00  0.00000000000E+00  0.99016583405E+03  0.99016583406E+03  0.25500000920E-02 0.  1.
       -2   -1    0    0    0  501  0.00000000000E+00  0.00000000000E+00 -0.28816183312E+04  0.28816183312E+04  0.25500000920E-02 0. -1.
    10030    2    1    2    0    0  0.00000000000E+00  0.00000000000E+00 -0.18914524971E+04  0.38717841652E+04  0.33783309597E+04 0.  0.
        1    1    3    3  502    0  0.36640510285E+03 -0.71112948533E+03  0.75930076314E+03  0.11029485451E+04  0.50400001928E-02 0.  1.
       -1    1    3    3    0  502 -0.36640510285E+03  0.71112948533E+03 -0.26507532603E+04  0.27688356201E+04  0.50400001928E-02 0. -1.
</event>
<event>
 5   0  0.1473755E-07  0.3365289E+04  0.7818609E-02  0.8146478E-01
       -1   -1    0    0    0  501  0.00000000000E+00  0.00000000000E+00  0.20407836157E+04  0.20407836157E+04  0.50400001928E-02 0.  1.
        1   -1    0    0  501    0  0.00000000000E+00  0.00000000000E+00 -0.13873557754E+04  0.13873557754E+04  0.50400001928E-02 0. -1.
    10030    2    1    2    0    0  0.00000000000E+00  0.00000000000E+00  0.65342784026E+03  0.34281393912E+04  0.33652892510E+04 0.  0.
        1    1    3    3  502    0  0.29168133968E+03 -0.10556507065E+04 -0.97456902080E+03  0.14660358776E+04  0.50400001928E-02 0. -1.
       -1    1    3    3    0  502 -0.29168133968E+03  0.10556507065E+04  0.16279968611E+04  0.19621035135E+04  0.50400001928E-02 0.  1.
</event>
<event>
 5   0  0.4447909E-07  0.3211058E+04  0.7818609E-02  0.8185903E-01
       -2   -1    0    0    0  501  0.00000000000E+00  0.00000000000E+00  0.11575181210E+04  0.11575181210E+04  0.25500000920E-02 0. -1.
        2   -1    0    0  501    0  0.00000000000E+00  0.00000000000E+00 -0.22269402186E+04  0.22269402186E+04  0.25500000920E-02 0.  1.
    10030    2    1    2    0    0  0.00000000000E+00  0.00000000000E+00 -0.10694220976E+04  0.33844583397E+04  0.32110581792E+04 0.  0.
        5    1    3    3  502    0 -0.12517322220E+04 -0.21612717006E+03  0.50022827950E+03  0.13652087499E+04  0.46999998093E+01 0. -1.
       -5    1    3    3    0  502  0.12517322220E+04  0.21612717006E+03 -0.15696503771E+04  0.20192495897E+04  0.46999998093E+01 0.  1.
</event>
<event>
 5   0  0.4521737E-07  0.3395150E+04  0.7818609E-02  0.8139098E-01
        2   -1    0    0  501    0  0.00000000000E+00  0.00000000000E+00  0.14194372018E+04  0.14194372018E+04  0.25500000920E-02 0.  1.
       -2   -1    0    0    0  501  0.00000000000E+00  0.00000000000E+00 -0.20302137626E+04  0.20302137626E+04  0.25500000920E-02 0. -1.
    10030    2    1    2    0    0  0.00000000000E+00  0.00000000000E+00 -0.61077656081E+03  0.34496509644E+04  0.33951500363E+04 0.  0.
        4    1    3    3  502    0  0.96063756002E+03 -0.12551647162E+04  0.32382343133E+03  0.16134206562E+04  0.12699999809E+01 0.  1.
       -4    1    3    3    0  502 -0.96063756002E+03  0.12551647162E+04 -0.93459999214E+03  0.18362303082E+04  0.12699999809E+01 0. -1.
</event>
<event>
 5   0  0.4521737E-07  0.3414919E+04  0.7818609E-02  0.8134254E-01
        2   -1    0    0  501    0  0.00000000000E+00  0.00000000000E+00  0.24656785669E+04  0.24656785669E+04  0.25500000920E-02 0. -1.
       -2   -1    0    0    0  501  0.00000000000E+00  0.00000000000E+00 -0.11823998308E+04  0.11823998308E+04  0.25500000920E-02 0.  1.
    10030    2    1    2    0    0  0.00000000000E+00  0.00000000000E+00  0.12832787361E+04  0.36480783976E+04  0.34149189860E+04 0.  0.
        4    1    3    3  502    0 -0.35750049811E+03  0.14415126645E+03  0.24185885367E+04  0.24491137818E+04  0.12699999809E+01 0. -1.
       -4    1    3    3    0  502  0.35750049811E+03 -0.14415126645E+03 -0.11353098006E+04  0.11989646158E+04  0.12699999809E+01 0.  1.
</event>
<event>
 5   0  0.1520084E-07  0.3394460E+04  0.7818609E-02  0.8139267E-01
       -1   -1    0    0    0  501  0.00000000000E+00  0.00000000000E+00  0.19076471887E+04  0.19076471887E+04  0.50400001928E-02 0. -1.
        1   -1    0    0  501    0  0.00000000000E+00  0.00000000000E+00 -0.15100218945E+04  0.15100218945E+04  0.50400001928E-02 0.  1.
    10030    2    1    2    0    0  0.00000000000E+00  0.00000000000E+00  0.39762529424E+03  0.34176690832E+04  0.33944596165E+04 0.  0.
        2    1    3    3  502    0  0.16724887548E+04  0.17637141159E+03 -0.31362621764E+02  0.16820550300E+04  0.25500000920E-02 0.  1.
       -2    1    3    3    0  502 -0.16724887548E+04 -0.17637141159E+03  0.42898791600E+03  0.17356140533E+04  0.25500000920E-02 0. -1.
</event>
<event>
 5   0  0.1435806E-07  0.3419389E+04  0.7818609E-02  0.8133164E-01
        1   -1    0    0  501    0  0.00000000000E+00  0.00000000000E+00  0.21338013101E+04  0.21338013101E+04  0.50400001928E-02 0.  1.
       -1   -1    0    0    0  501  0.00000000000E+00  0.00000000000E+00 -0.13698815960E+04  0.13698815960E+04  0.50400001928E-02 0. -1.
    10030    2    1    2    0    0  0.00000000000E+00  0.00000000000E+00  0.76391971409E+03  0.35036829061E+04  0.34193889186E+04 0.  0.
        3    1    3    3  502    0 -0.13106538433E+04 -0.51841768151E+03  0.13735373212E+04  0.19680384073E+04  0.10100000352E+00 0.  1.
       -3    1    3    3    0  502  0.13106538433E+04  0.51841768151E+03 -0.60961760716E+03  0.15356444988E+04  0.10100000352E+00 0. -1.
</event>
<event>
 5   0  0.1421875E-07  0.3408874E+04  0.7818609E-02  0.8135732E-01
       -1   -1    0    0    0  501  0.00000000000E+00  0.00000000000E+00  0.21178887811E+04  0.21178887811E+04  0.50400001928E-02 0. -1.
        1   -1    0    0  501    0  0.00000000000E+00  0.00000000000E+00 -0.13716991114E+04  0.13716991114E+04  0.50400001928E-02 0.  1.
    10030    2    1    2    0    0  0.00000000000E+00  0.00000000000E+00  0.74618966973E+03  0.34895878925E+04  0.34088743943E+04 0.  0.
        5    1    3    3  502    0 -0.33456130545E+03 -0.53744347337E+03  0.19930647649E+04  0.20911972650E+04  0.46999998093E+01 0. -1.
       -5    1    3    3    0  502  0.33456130545E+03  0.53744347337E+03 -0.12468750951E+04  0.13983906275E+04  0.46999998093E+01 0.  1.
</event>
<event>
 5   0  0.4521737E-07  0.3403981E+04  0.7818609E-02  0.8136930E-01
       -2   -1    0    0    0  501  0.00000000000E+00  0.00000000000E+00  0.16786371936E+04  0.16786371936E+04  0.25500000920E-02 0. -1.
        2   -1    0    0  501    0  0.00000000000E+00  0.00000000000E+00 -0.17256685794E+04  0.17256685794E+04  0.25500000920E-02 0.  1.
    10030    2    1    2    0    0  0.00000000000E+00  0.00000000000E+00 -0.47031385765E+02  0.34043057729E+04  0.34039808819E+04 0.  0.
        4    1    3    3  502    0  0.14928886207E+03  0.13823645370E+04  0.95818431761E+03  0.16885904409E+04  0.12699999809E+01 0. -1.
       -4    1    3    3    0  502 -0.14928886207E+03 -0.13823645370E+04 -0.10052157034E+04  0.17157153321E+04  0.12699999809E+01 0.  1.
</event>
<event>
 5   0  0.4447909E-07  0.3405209E+04  0.7818609E-02  0.8136629E-01
        2   -1    0    0  501    0  0.00000000000E+00  0.00000000000E+00  0.12864330410E+04  0.12864330410E+04  0.25500000920E-02 0. -1.
       -2   -1    0    0    0  501  0.00000000000E+00  0.00000000000E+00 -0.22534109382E+04  0.22534109382E+04  0.25500000920E-02 0.  1.
    10030    2    1    2    0    0  0.00000000000E+00  0.00000000000E+00 -0.96697789714E+03  0.35398439792E+04  0.34052091189E+04 0.  0.
        5    1    3    3  502    0 -0.43097263511E+03  0.15782882655E+04 -0.97340689350E+03  0.19037526971E+04  0.46999998093E+01 0.  1.
       -5    1    3    3    0  502  0.43097263511E+03 -0.15782882655E+04  0.64289963621E+01  0.16360912821E+04  0.46999998093E+01 0. -1.
</event>
<event>
 5   0  0.4486226E-07  0.3376302E+04  0.7818609E-02  0.8143747E-01
       -2   -1    0    0    0  501  0.00000000000E+00  0.00000000000E+00  0.22663543975E+04  0.22663543975E+04  0.25500000920E-02 0.  1.
        2   -1    0    0  501    0  0.00000000000E+00  0.00000000000E+00 -0.12574614911E+04  0.12574614911E+04  0.25500000920E-02 0. -1.
    10030    2    1    2    0    0  0.00000000000E+00  0.00000000000E+00  0.10088929065E+04  0.35238158886E+04  0.33763017520E+04 0.  0.
        1    1    3    3  502    0  0.78401113947E+03  0.93800255440E+03  0.17194978827E+04  0.21097855880E+04  0.50400001928E-02 0.  1.
       -1    1    3    3    0  502 -0.78401113947E+03 -0.93800255440E+03 -0.71060497622E+03  0.14140303006E+04  0.50400001928E-02 0. -1.
</event>
<event>
 5   0  0.4486226E-07  0.3396579E+04  0.7818609E-02  0.8138746E-01
       -2   -1    0    0    0  501  0.00000000000E+00  0.00000000000E+00  0.21511637557E+04  0.21511637557E+04  0.25500000920E-02 0.  1.
        2   -1    0    0  501    0  0.00000000000E+00  0.00000000000E+00 -0.13407566078E+04  0.13407566078E+04  0.25500000920E-02 0. -1.
    10030    2    1    2    0    0  0.00000000000E+00  0.00000000000E+00  0.81040714788E+03  0.34919203635E+04  0.33965788787E+04 0.  0.
        1    1    3    3  502    0 -0.15589640412E+04  0.64961986735E+03  0.58856975770E+03  0.17885159249E+04  0.50400001928E-02 0. -1.
       -1    1    3    3    0  502  0.15589640412E+04 -0.64961986735E+03  0.22183739018E+03  0.17034044386E+04  0.50400001928E-02 0.  1.
</event>
<event>
 5   0  0.1421875E-07  0.3410878E+04  0.7818609E-02  0.8135242E-01
        3   -1    0    0  501    0  0.00000000000E+00  0.00000000000E+00  0.11152000867E+04  0.11152000912E+04  0.10100000352E+00 0.  1.
       -3   -1    0    0    0  501  0.00000000000E+00  0.00000000000E+00 -0.26080726509E+04  0.26080726529E+04  0.10100000352E+00 0. -1.
    10030    2    1    2    0    0  0.00000000000E+00  0.00000000000E+00 -0.14928725643E+04  0.37232727441E+04  0.34108783963E+04 0.  0.
        1    1    3    3  502    0 -0.16104281234E+04 -0.17338461046E+03 -0.13291661112E+04  0.20952860222E+04  0.50400001928E-02 0.  1.
       -1    1    3    3    0  502  0.16104281234E+04  0.17338461046E+03 -0.16370645307E+03  0.16279867219E+04  0.50400001928E-02 0. -1.
</event>
<event>
 5   0  0.1421875E-07  0.3401038E+04  0.7818609E-02  0.8137652E-01
        3   -1    0    0  501    0  0.00000000000E+00  0.00000000000E+00  0.17319952846E+04  0.17319952875E+04  0.10100000352E+00 0.  1.
       -3   -1    0    0    0  501  0.00000000000E+00  0.00000000000E+00 -0.16696146179E+04  0.16696146210E+04  0.10100000352E+00 0. -1.
    10030    2    1    2    0    0  0.00000000000E+00  0.00000000000E+00  0.62380666667E+02  0.34016099085E+04  0.34010378742E+04 0.  0.
        3    1    3    3  502    0  0.91176370376E+03 -0.18671691880E+03 -0.13922807156E+04  0.16747005286E+04  0.10100000352E+00 0. -1.
       -3    1    3    3    0  502 -0.91176370376E+03  0.18671691880E+03  0.14546613822E+04  0.17269093799E+04  0.10100000352E+00 0.  1.
</event>
<event>
 5   0  0.4521737E-07  0.3403546E+04  0.7818609E-02  0.8137037E-01
       -2   -1    0    0    0  501  0.00000000000E+00  0.00000000000E+00  0.17623751834E+04  0.17623751834E+04  0.25500000920E-02 0.  1.
        2   -1    0    0  501    0  0.00000000000E+00  0.00000000000E+00 -0.16432548363E+04  0.16432548363E+04  0.25500000920E-02 0. -1.
    10030    2    1    2    0    0  0.00000000000E+00  0.00000000000E+00  0.11912034705E+03  0.34056300197E+04  0.34035461175E+04 0.  0.
        4    1    3    3  502    0 -0.11510139628E+04 -0.79117399955E+03  0.10323902393E+04  0.17368421515E+04  0.12699999809E+01 0.  1.
       -4    1    3    3    0  502  0.11510139628E+04  0.79117399955E+03 -0.91326989220E+03  0.16687878682E+04  0.12699999809E+01 0. -1.
</event>
<event>
 5   0  0.1523259E-07  0.3390727E+04  0.7818609E-02  0.8140186E-01
       -1   -1    0    0    0  501  0.00000000000E+00  0.00000000000E+00  0.12242396072E+04  0.12242396072E+04  0.50400001928E-02 0. -1.
        1   -1    0    0  501    0  0.00000000000E+00  0.00000000000E+00 -0.23477896511E+04  0.23477896511E+04  0.50400001928E-02 0.  1.
    10030    2    1    2    0    0  0.00000000000E+00  0.00000000000E+00 -0.11235500439E+04  0.35720292583E+04  0.33907268130E+04 0.  0.
        4    1    3    3  502    0  0.16118975474E+04  0.56848124963E+02 -0.11120153195E+04  0.19590878225E+04  0.12699999809E+01 0. -1.
       -4    1    3    3    0  502 -0.16118975474E+04 -0.56848124963E+02 -0.11534724411E+02  0.16129414358E+04  0.12699999809E+01 0.  1.
</event>
<event>
 5   0  0.4521737E-07  0.3425405E+04  0.7818609E-02  0.8131699E-01
       -2   -1    0    0    0  501  0.00000000000E+00  0.00000000000E+00  0.33199343126E+04  0.33199343126E+04  0.25500000920E-02 0. -1.
        2   -1    0    0  501    0  0.00000000000E+00  0.00000000000E+00 -0.88355657052E+03  0.88355657053E+03  0.25500000920E-02 0.  1.
    10030    2    1    2    0    0  0.00000000000E+00  0.00000000000E+00  0.24363777421E+04  0.42034908831E+04  0.34254049545E+04 0.  0.
        4    1    3    3  502    0  0.15712667929E+04  0.68131038475E+03  0.12389051317E+04  0.21137527559E+04  0.12699999809E+01 0.  1.
       -4    1    3    3    0  502 -0.15712667929E+04 -0.68131038475E+03  0.11974726104E+04  0.20897381272E+04  0.12699999809E+01 0. -1.
</event>
<event>
 5   0  0.1435806E-07  0.3209484E+04  0.7818609E-02  0.8186317E-01
        1   -1    0    0  501    0  0.00000000000E+00  0.00000000000E+00  0.20930553731E+04  0.20930553731E+04  0.50400001928E-02 0.  1.
       -1   -1    0    0    0  501  0.00000000000E+00  0.00000000000E+00 -0.12303530181E+04  0.12303530181E+04  0.50400001928E-02 0. -1.
    10030    2    1    2    0    0  0.00000000000E+00  0.00000000000E+00  0.86270235495E+03  0.33234083912E+04  0.32094840678E+04 0.  0.
        3    1    3    3  502    0 -0.14726912815E+04  0.63669166533E+03  0.46411441139E+03  0.16702089942E+04  0.10100000352E+00 0.  1.
       -3    1    3    3    0  502  0.14726912815E+04 -0.63669166533E+03  0.39858794356E+03  0.16531993970E+04  0.10100000352E+00 0. -1.
</event>
<event>
 5   0  0.1523259E-07  0.3401759E+04  0.7818609E-02  0.8137475E-01
        1   -1    0    0  501    0  0.00000000000E+00  0.00000000000E+00  0.29170183741E+04  0.29170183741E+04  0.50400001928E-02 0. -1.
       -1   -1    0    0    0  501  0.00000000000E+00  0.00000000000E+00 -0.99176296863E+03  0.99176296864E+03  0.50400001928E-02 0.  1.
    10030    2    1    2    0    0  0.00000000000E+00  0.00000000000E+00  0.19252554054E+04  0.39087813427E+04  0.34017588405E+04 0.  0.
        4    1    3    3  502    0  0.47341239378E+03 -0.74219895684E+03 -0.70962505006E+03  0.11307289289E+04  0.12699999809E+01 0.  1.
       -4    1    3    3    0  502 -0.47341239378E+03  0.74219895684E+03  0.26348804555E+04  0.27780524138E+04  0.12699999809E+01 0. -1.
</event>
<event>
 5   0  0.1520084E-07  0.3397319E+04  0.7818609E-02  0.8138565E-01
       -1   -1    0    0    0  501  0.00000000000E+00  0.00000000000E+00  0.14070512342E+04  0.14070512342E+04  0.50400001928E-02 0. -1.
        1   -1    0    0  501    0  0.00000000000E+00  0.00000000000E+00 -0.20507028314E+04  0.20507028314E+04  0.50400001928E-02 0.  1.
    10030    2    1    2    0    0  0.00000000000E+00  0.00000000000E+00 -0.64365159713E+03  0.34577540656E+04  0.33973189134E+04 0.  0.
        2    1    3    3  502    0  0.44010652154E+03 -0.29612862776E+03  0.13205899973E+04  0.14231457604E+04  0.25500000920E-02 0. -1.
       -2    1    3    3    0  502 -0.44010652154E+03  0.29612862776E+03 -0.19642415944E+04  0.20346083052E+04  0.25500000920E-02 0.  1.
</event>
<event>
 5   0  0.4486226E-07  0.3420261E+04  0.7818609E-02  0.8132952E-01
        2   -1    0    0  501    0  0.00000000000E+00  0.00000000000E+00  0.17979166908E+04  0.17979166908E+04  0.25500000920E-02 0. -1.
       -2   -1    0    0    0  501  0.00000000000E+00  0.00000000000E+00 -0.16266302584E+04  0.16266302584E+04  0.25500000920E-02 0.  1.
    10030    2    1    2    0    0  0.00000000000E+00  0.00000000000E+00  0.17128643239E+03  0.34245469492E+04  0.34202606283E+04 0.  0.
        1    1    3    3  502    0 -0.26002438872E+02  0.17082416064E+04  0.95204508727E+01  0.17084660230E+04  0.50400001928E-02 0.  1.
       -1    1    3    3    0  502  0.26002438872E+02 -0.17082416064E+04  0.16176598152E+03  0.17160809262E+04  0.50400001928E-02 0. -1.
</event>
<event>
 5   0  0.1435806E-07  0.3404153E+04  0.7818609E-02  0.8136888E-01
        1   -1    0    0  501    0  0.00000000000E+00  0.00000000000E+00  0.20380075823E+04  0.20380075823E+04  0.50400001928E-02 0. -1.
       -1   -1    0    0    0  501  0.00000000000E+00  0.00000000000E+00 -0.14215180727E+04  0.14215180727E+04  0.50400001928E-02 0.  1.
    10030    2    1    2    0    0  0.00000000000E+00  0.00000000000E+00  0.61648950956E+03  0.34595256550E+04  0.34041531167E+04 0.  0.
        3    1    3    3  502    0  0.85953808596E+03 -0.34827262604E+03  0.17586830541E+04  0.19882317868E+04  0.10100000352E+00 0. -1.
       -3    1    3    3    0  502 -0.85953808596E+03  0.34827262604E+03 -0.11421935445E+04  0.14712938682E+04  0.10100000352E+00 0.  1.
</event>
<event>
 5   0  0.4486226E-07  0.3394353E+04  0.7818609E-02  0.8139294E-01
        2   -1    0    0  501    0  0.00000000000E+00  0.00000000000E+00  0.15500198870E+04  0.15500198870E+04  0.25500000920E-02 0. -1.
       -2   -1    0    0    0  501  0.00000000000E+00  0.00000000000E+00 -0.18583038274E+04  0.18583038274E+04  0.25500000920E-02 0.  1.
    10030    2    1    2    0    0  0.00000000000E+00  0.00000000000E+00 -0.30828394038E+03  0.34083237145E+04  0.33943528919E+04 0.  0.
        1    1    3    3  502    0  0.46403386062E+03 -0.13210323475E+04 -0.11172320317E+04  0.17912736529E+04  0.50400001928E-02 0.  1.
       -1    1    3    3    0  502 -0.46403386062E+03  0.13210323475E+04  0.80894809134E+03  0.16170500615E+04  0.50400001928E-02 0. -1.
</event>
<event>
 5   0  0.4396257E-07  0.3397013E+04  0.7818609E-02  0.8138640E-01
       -2   -1    0    0    0  501  0.00000000000E+00  0.00000000000E+00  0.28744837569E+04  0.28744837569E+04  0.25500000920E-02 0. -1.
        2   -1    0    0  501    0  0.00000000000E+00  0.00000000000E+00 -0.10036322822E+04  0.10036322822E+04  0.25500000920E-02 0.  1.
    10030    2    1    2    0    0  0.00000000000E+00  0.00000000000E+00  0.18708514747E+04  0.38781160391E+04  0.33970132135E+04 0.  0.
        2    1    3    3  502    0  0.14026229221E+04  0.92348510823E+03  0.12259214422E+04  0.20791967654E+04  0.25500000920E-02 0. -1.
       -2    1    3    3    0  502 -0.14026229221E+04 -0.92348510823E+03  0.64493003242E+03  0.17989192737E+04  0.25500000920E-02 0.  1.
</event>
<event>
 5   0  0.4521737E-07  0.3305347E+04  0.7818609E-02  0.8161536E-01
       -2   -1    0    0    0  501  0.00000000000E+00  0.00000000000E+00  0.22226237709E+04  0.22226237709E+04  0.25500000920E-02 0. -1.
        2   -1    0    0  501    0  0.00000000000E+00  0.00000000000E+00 -0.12288763483E+04  0.12288763483E+04  0.25500000920E-02 0.  1.
    10030    2    1    2    0    0  0.00000000000E+00  0.00000000000E+00  0.99374742253E+03  0.34515001192E+04  0.33053470518E+04 0.  0.
        4    1    3    3  502    0  0.10478644181E+04 -0.58389936853E+03 -0.69021790335E+03  0.13839655625E+04  0.12699999809E+01 0.  1.
       -4    1    3    3    0  502 -0.10478644181E+04  0.58389936853E+03  0.16839653259E+04  0.20675345567E+04  0.12699999809E+01 0. -1.
</event>
<event>
 5   0  0.1523259E-07  0.3399549E+04  0.7818609E-02  0.8138017E-01
        1   -1    0    0  501    0  0.00000000000E+00  0.00000000000E+00  0.28771745383E+04  0.28771745383E+04  0.50400001928E-02 0.  1.
       -1   -1    0    0    0  501  0.00000000000E+00  0.00000000000E+00 -0.10041910060E+04  0.10041910060E+04  0.50400001928E-02 0. -1.
    10030    2    1    2    0    0  0.00000000000E+00  0.00000000000E+00  0.18729835322E+04  0.38813655443E+04  0.33995486725E+04 0.  0.
        4    1    3    3  502    0  0.14996166088E+04 -0.72854566089E+03  0.13144757255E+04  0.21230819106E+04  0.12699999809E+01 0.  1.
       -4    1    3    3    0  502 -0.14996166088E+04  0.72854566089E+03  0.55850780676E+03  0.17582836337E+04  0.12699999809E+01 0. -1.
</event>
<event>
 5   0  0.1473755E-07  0.3430537E+04  0.7818609E-02  0.8130452E-01
       -1   -1    0    0    0  501  0.00000000000E+00  0.00000000000E+00  0.92471329550E+03  0.92471329552E+03  0.50400001928E-02 0.  1.
        1   -1    0    0  501    0  0.00000000000E+00  0.00000000000E+00 -0.31816854302E+04  0.31816854303E+04  0.50400001928E-02 0. -1.
    10030    2    1    2    0    0  0.00000000000E+00  0.00000000000E+00 -0.22569721347E+04  0.41063987258E+04  0.34305374620E+04 0.  0.
        1    1    3    3  502    0 -0.20532115494E+03  0.12270353778E+04  0.28499053296E+03  0.12763197871E+04  0.50400001928E-02 0.  1.
       -1    1    3    3    0  502  0.20532115494E+03 -0.12270353778E+04 -0.25419626677E+04  0.28300789387E+04  0.50400001928E-02 0. -1.
</event>
<event>
 5   0  0.4521737E-07  0.3392976E+04  0.7818609E-02  0.8139632E-01
       -2   -1    0    0    0  501  0.00000000000E+00  0.00000000000E+00  0.11562893236E+04  0.11562893236E+04  0.25500000920E-02 0. -1.
        2   -1    0    0  501    0  0.00000000000E+00  0.00000000000E+00 -0.24890578863E+04  0.24890578863E+04  0.25500000920E-02 0.  1.
    10030    2    1    2    0    0  0.00000000000E+00  0.00000000000E+00 -0.13327685626E+04  0.36453472099E+04  0.33929757204E+04 0.  0.
        4    1    3    3  502    0 -0.55579207717E+03 -0.64629831268E+03  0.90950281541E+03  0.12465164765E+04  0.12699999809E+01 0. -1.
       -4    1    3    3    0  502  0.55579207717E+03  0.64629831268E+03 -0.22422713780E+04  0.23988307334E+04  0.12699999809E+01 0.  1.
</event>
<event>
 5   0  0.4447909E-07  0.3397456E+04  0.7818609E-02  0.8138531E-01
       -2   -1    0    0    0  501  0.00000000000E+00  0.00000000000E+00  0.95446073060E+03  0.95446073060E+03  0.25500000920E-02 0.  1.
        2   -1    0    0  501    0  0.00000000000E+00  0.00000000000E+00 -0.30233581349E+04  0.30233581349E+04  0.25500000920E-02 0. -1.
    10030    2    1    2    0    0  0.00000000000E+00  0.00000000000E+00 -0.20688974043E+04  0.39778188655E+04  0.33974558801E+04 0.  0.
        5    1    3    3  502    0 -0.80530996369E+03  0.12562809450E+04 -0.19848284338E+04  0.24832100096E+04  0.46999998093E+01 0. -1.
       -5    1    3    3    0  502  0.80530996369E+03 -0.12562809450E+04 -0.84068970513E+02  0.14946088559E+04  0.46999998093E+01 0.  1.
</event>
<event>
 5   0  0.1520084E-07  0.3390465E+04  0.7818609E-02  0.8140250E-01
       -1   -1    0    0    0  501  0.00000000000E+00  0.00000000000E+00  0.13835121962E+04  0.13835121963E+04  0.50400001928E-02 0.  1.
        1   -1    0    0  501    0  0.00000000000E+00  0.00000000000E+00 -0.20771872708E+04  0.20771872708E+04  0.50400001928E-02 0. -1.
    10030    2    1    2    0    0  0.00000000000E+00  0.00000000000E+00 -0.69367507451E+03  0.34606994670E+04  0.33904654094E+04 0.  0.
        2    1    3    3  502    0  0.16387315235E+04  0.34182268204E+03 -0.61982908430E+03  0.17850691431E+04  0.25500000920E-02 0. -1.
       -2    1    3    3    0  502 -0.16387315235E+04 -0.34182268204E+03 -0.73845990210E+02  0.16756303239E+04  0.25500000920E-02 0.  1.
</event>
<event>
 5   0  0.1435806E-07  0.3433953E+04  0.7818609E-02  0.8129623E-01
       -1   -1    0    0    0  501  0.00000000000E+00  0.00000000000E+00  0.25728755636E+04  0.25728755636E+04  0.50400001928E-02 0. -1.
        1   -1    0    0  501    0  0.00000000000E+00  0.00000000000E+00 -0.11458029065E+04  0.11458029065E+04  0.50400001928E-02 0.  1.
    10030    2    1    2    0    0  0.00000000000E+00  0.00000000000E+00  0.14270726571E+04  0.37186784701E+04  0.34339529984E+04 0.  0.
        3    1    3    3  502    0 -0.10648628454E+04 -0.13467614454E+04  0.73257279403E+03  0.18666446312E+04  0.10100000352E+00 0. -1.
       -3    1    3    3    0  502  0.10648628454E+04  0.13467614454E+04  0.69449986306E+03  0.18520338389E+04  0.10100000352E+00 0.  1.
</event>
<event>
 5   0  0.4396257E-07  0.3403599E+04  0.7818609E-02  0.8137024E-01
       -2   -1    0    0    0  501  0.00000000000E+00  0.00000000000E+00  0.11362914236E+04  0.11362914236E+04  0.25500000920E-02 0. -1.
        2   -1    0    0  501    0  0.00000000000E+00  0.00000000000E+00 -0.25487491462E+04  0.25487491462E+04  0.25500000920E-02 0.  1.
    10030    2    1    2    0    0  0.00000000000E+00  0.00000000000E+00 -0.14124577225E+04  0.36850405698E+04  0.34035991514E+04 0.  0.
        2    1    3    3  502    0 -0.77441202964E+03  0.81682438357E+03  0.67571955117E+03  0.13128263317E+04  0.25500000920E-02 0. -1.
       -2    1    3    3    0  502  0.77441202964E+03 -0.81682438357E+03 -0.20881772737E+04  0.23722142381E+04  0.25500000920E-02 0.  1.
</event>
<event>
 5   0  0.4521737E-07  0.3399007E+04  0.7818609E-02  0.8138150E-01
       -2   -1    0    0    0  501  0.00000000000E+00  0.00000000000E+00  0.19579115986E+04  0.19579115986E+04  0.25500000920E-02 0.  1.
        2   -1    0    0  501    0  0.00000000000E+00  0.00000000000E+00 -0.14752002609E+04  0.14752002609E+04  0.25500000920E-02 0. -1.
    10030    2    1    2    0    0  0.00000000000E+00  0.00000000000E+00  0.48271133777E+03  0.34331118595E+04  0.33990067379E+04 0.  0.
        4    1    3    3  502    0 -0.15670296272E+04  0.48961554014E+03  0.68508695381E+03  0.17789465919E+04  0.12699999809E+01 0.  1.
       -4    1    3    3    0  502  0.15670296272E+04 -0.48961554014E+03 -0.20237561604E+03  0.16541652676E+04  0.12699999809E+01 0. -1.
</event>
<event>
 5   0  0.1473755E-07  0.3355016E+04  0.7818609E-02  0.8149036E-01
       -1   -1    0    0    0  501  0.00000000000E+00  0.00000000000E+00  0.23077794963E+04  0.23077794963E+04  0.50400001928E-02 0.  1.
        1   -1    0    0  501    0  0.00000000000E+00  0.00000000000E+00 -0.12193685932E+04  0.12193685933E+04  0.50400001928E-02 0. -1.
    10030    2    1    2    0    0  0.00000000000E+00  0.00000000000E+00  0.10884109031E+04  0.35271480896E+04  0.33550164458E+04 0.  0.
        1    1    3    3  502    0  0.29915482192E+03  0.75675678875E+03  0.20863887161E+04  0.22394625068E+04  0.50400001928E-02 0.  1.
       -1    1    3    3    0  502 -0.29915482192E+03 -0.75675678875E+03 -0.99797781301E+03  0.12876855828E+04  0.50400001928E-02 0. -1.
</event>
<event>
 5   0  0.1473755E-07  0.3394401E+04  0.7818609E-02  0.8139282E-01
        1   -1    0    0  501    0  0.00000000000E+00  0.00000000000E+00  0.14990264354E+04  0.14990264354E+04  0.50400001928E-02 0. -1.
       -1   -1    0    0    0  501  0.00000000000E+00  0.00000000000E+00 -0.19215730877E+04  0.19215730877E+04  0.50400001928E-02 0.  1.
    10030    2    1    2    0    0  0.00000000000E+00  0.00000000000E+00 -0.42254665228E+03  0.34205995232E+04  0.33944005987E+04 0.  0.
        1    1    3    3  502    0  0.62032177539E+02 -0.11979423314E+04 -0.14211964081E+04  0.18597615575E+04  0.50400001928E-02 0. -1.
       -1    1    3    3    0  502 -0.62032177539E+02  0.11979423314E+04  0.99864975579E+03  0.15608379657E+04  0.50400001928E-02 0.  1.
</event>
<event>
 5   0  0.4381939E-07  0.3399213E+04  0.7818609E-02  0.8138100E-01
        2   -1    0    0  501    0  0.00000000000E+00  0.00000000000E+00  0.20954562566E+04  0.20954562566E+04  0.25500000920E-02 0. -1.
       -2   -1    0    0    0  501  0.00000000000E+00  0.00000000000E+00 -0.13785359988E+04  0.13785359988E+04  0.25500000920E-02 0.  1.
    10030    2    1    2    0    0  0.00000000000E+00  0.00000000000E+00  0.71692025787E+03  0.34739922554E+04  0.33992127816E+04 0.  0.
        3    1    3    3  502    0 -0.83275119357E+03  0.26729370665E+03 -0.11309054453E+04  0.14296389798E+04  0.10100000352E+00 0.  1.
       -3    1    3    3    0  502  0.83275119357E+03 -0.26729370665E+03  0.18478257032E+04  0.20443532756E+04  0.10100000352E+00 0. -1.
</event>
<event>
 5   0  0.1473755E-07  0.3409915E+04  0.7818609E-02  0.8135477E-01
       -1   -1    0    0    0  501  0.00000000000E+00  0.00000000000E+00  0.13472055775E+04  0.13472055775E+04  0.50400001928E-02 0.  1.
        1   -1    0    0  501    0  0.00000000000E+00  0.00000000000E+00 -0.21577113710E+04  0.21577113710E+04  0.50400001928E-02 0. -1.
    10030    2    1    2    0    0  0.00000000000E+00  0.00000000000E+00 -0.81050579352E+03  0.35049169485E+04  0.34099154205E+04 0.  0.
        1    1    3    3  502    0  0.29229347572E+03  0.14051640627E+04  0.54069102000E+03  0.15337106305E+04  0.50400001928E-02 0.  1.
       -1    1    3    3    0  502 -0.29229347572E+03 -0.14051640627E+04 -0.13511968135E+04  0.19712063180E+04  0.50400001928E-02 0. -1.
</event>
<event>
 5   0  0.1435806E-07  0.3336649E+04  0.7818609E-02  0.8153632E-01
        1   -1    0    0  501    0  0.00000000000E+00  0.00000000000E+00  0.23258589870E+04  0.23258589870E+04  0.50400001928E-02 0.  1.
       -1   -1    0    0    0  501  0.00000000000E+00  0.00000000000E+00 -0.11966789001E+04  0.11966789002E+04  0.50400001928E-02 0. -1.
    10030    2    1    2    0    0  0.00000000000E+00  0.00000000000E+00  0.11291800868E+04  0.35225378871E+04  0.33366488424E+04 0.  0.
        3    1    3    3  502    0 -0.29559869057E+03  0.94618644386E+03  0.19812346325E+04  0.22153866596E+04  0.10100000352E+00 0.  1.
       -3    1    3    3    0  502  0.29559869057E+03 -0.94618644386E+03 -0.85205454572E+03  0.13071512275E+04  0.10100000352E+00 0. -1.
</event>
<event>
 5   0  0.1473755E-07  0.3365188E+04  0.7818609E-02  0.8146503E-01
        1   -1    0    0  501    0  0.00000000000E+00  0.00000000000E+00  0.24416697820E+04  0.24416697820E+04  0.50400001928E-02 0.  1.
       -1   -1    0    0    0  501  0.00000000000E+00  0.00000000000E+00 -0.11595029619E+04  0.11595029619E+04  0.50400001928E-02 0. -1.
    10030    2    1    2    0    0  0.00000000000E+00  0.00000000000E+00  0.12821668201E+04  0.36011727440E+04  0.33651884609E+04 0.  0.
        1    1    3    3  502    0 -0.10956011286E+04  0.10257857286E+03 -0.72107245423E+03  0.13156024023E+04  0.50400001928E-02 0. -1.
       -1    1    3    3    0  502  0.10956011286E+04 -0.10257857286E+03  0.20032392744E+04  0.22855703417E+04  0.50400001928E-02 0.  1.
</event>
<event>
 5   0  0.1435806E-07  0.3426126E+04  0.7818609E-02  0.8131524E-01
        1   -1    0    0  501    0  0.00000000000E+00  0.00000000000E+00  0.23173702945E+04  0.23173702945E+04  0.50400001928E-02 0. -1.
       -1   -1    0    0    0  501  0.00000000000E+00  0.00000000000E+00 -0.12663425770E+04  0.12663425770E+04  0.50400001928E-02 0.  1.
    10030    2    1    2    0    0  0.00000000000E+00  0.00000000000E+00  0.10510277174E+04  0.35837128715E+04  0.34261259000E+04 0.  0.
        3    1    3    3  502    0 -0.72668205733E+03  0.56245358820E+03 -0.98672380522E+03  0.13483488900E+04  0.10100000352E+00 0.  1.
       -3    1    3    3    0  502  0.72668205733E+03 -0.56245358820E+03  0.20377515227E+04  0.22353639815E+04  0.10100000352E+00 0. -1.
</event>
<event>
 5   0  0.4447909E-07  0.3355201E+04  0.7818609E-02  0.8148990E-01
        2   -1    0    0  501    0  0.00000000000E+00  0.00000000000E+00  0.18274982784E+04  0.18274982784E+04  0.25500000920E-02 0. -1.
       -2   -1    0    0    0  501  0.00000000000E+00  0.00000000000E+00 -0.15399980739E+04  0.15399980739E+04  0.25500000920E-02 0.  1.
    10030    2    1    2    0    0  0.00000000000E+00  0.00000000000E+00  0.28750020445E+03  0.33674963523E+04  0.33552012332E+04 0.  0.
        5    1    3    3  502    0 -0.12358229435E+04  0.79177083358E+03  0.95923126496E+03  0.17533699297E+04  0.46999998093E+01 0.  1.
       -5    1    3    3    0  502  0.12358229435E+04 -0.79177083358E+03 -0.67173106051E+03  0.16141264227E+04  0.46999998093E+01 0. -1.
</event>
<event>
 5   0  0.1523259E-07  0.3412705E+04  0.7818609E-02  0.8134795E-01
        1   -1    0    0  501    0  0.00000000000E+00  0.00000000000E+00  0.25660652048E+04  0.25660652048E+04  0.50400001928E-02 0. -1.
       -1   -1    0    0    0  501  0.00000000000E+00  0.00000000000E+00 -0.11346708162E+04  0.11346708162E+04  0.50400001928E-02 0.  1.
    10030    2    1    2    0    0  0.00000000000E+00  0.00000000000E+00  0.14313943885E+04  0.37007360210E+04  0.34127052615E+04 0.  0.
        4    1    3    3  502    0 -0.96740659188E+03  0.27596326982E+03 -0.77888960729E+03  0.12722821517E+04  0.12699999809E+01 0.  1.
       -4    1    3    3    0  502  0.96740659188E+03 -0.27596326982E+03  0.22102839958E+04  0.24284538693E+04  0.12699999809E+01 0. -1.
</event>
<event>
 5   0  0.1473755E-07  0.3399995E+04  0.7818609E-02  0.8137908E-01
        1   -1    0    0  501    0  0.00000000000E+00  0.00000000000E+00  0.27346858515E+04  0.27346858515E+04  0.50400001928E-02 0.  1.
       -1   -1    0    0    0  501  0.00000000000E+00  0.00000000000E+00 -0.10567909275E+04  0.10567909275E+04  0.50400001928E-02 0. -1.
    10030    2    1    2    0    0  0.00000000000E+00  0.00000000000E+00  0.16778949240E+04  0.37914767789E+04  0.33999948220E+04 0.  0.
        1    1    3    3  502    0  0.13562017592E+04  0.66581661646E+02  0.19795991345E+04  0.24005268302E+04  0.50400001928E-02 0.  1.
       -1    1    3    3    0  502 -0.13562017592E+04 -0.66581661646E+02 -0.30170421045E+03  0.13909499488E+04  0.50400001928E-02 0. -1.
</event>
<event>
 5   0  0.1435806E-07  0.3395352E+04  0.7818609E-02  0.8139048E-01
       -1   -1    0    0    0  501  0.00000000000E+00  0.00000000000E+00  0.21737547450E+04  0.21737547450E+04  0.50400001928E-02 0.  1.
        1   -1    0    0  501    0  0.00000000000E+00  0.00000000000E+00 -0.13258639590E+04  0.13258639590E+04  0.50400001928E-02 0. -1.
    10030    2    1    2    0    0  0.00000000000E+00  0.00000000000E+00  0.84789078597E+03  0.34996187039E+04  0.33953515706E+04 0.  0.
        3    1    3    3  502    0 -0.60844308141E+03 -0.56063417004E+03  0.19518957896E+04  0.21200025565E+04  0.10100000352E+00 0.  1.
       -3    1    3    3    0  502  0.60844308141E+03  0.56063417004E+03 -0.11040050036E+04  0.13796161474E+04  0.10100000352E+00 0. -1.
</event>
<event>
 5   0  0.4447909E-07  0.3402869E+04  0.7818609E-02  0.8137203E-01
        2   -1    0    0  501    0  0.00000000000E+00  0.00000000000E+00  0.26967154371E+04  0.26967154371E+04  0.25500000920E-02 0. -1.
       -2   -1    0    0    0  501  0.00000000000E+00  0.00000000000E+00 -0.10734834589E+04  0.10734834589E+04  0.25500000920E-02 0.  1.
    10030    2    1    2    0    0  0.00000000000E+00  0.00000000000E+00  0.16232319783E+04  0.37701988960E+04  0.34028690337E+04 0.  0.
        5    1    3    3  502    0  0.54781709854E+02  0.46796442312E+03  0.26229877258E+04  0.26649725021E+04  0.46999998093E+01 0. -1.
       -5    1    3    3    0  502 -0.54781709854E+02 -0.46796442312E+03 -0.99975574756E+03  0.11052263939E+04  0.46999998093E+01 0.  1.
</event>
<event>
 5   0  0.4521737E-07  0.3415446E+04  0.7818609E-02  0.8134126E-01
        2   -1    0    0  501    0  0.00000000000E+00  0.00000000000E+00  0.23806943418E+04  0.23806943418E+04  0.25500000920E-02 0.  1.
       -2   -1    0    0    0  501  0.00000000000E+00  0.00000000000E+00 -0.12249861653E+04  0.12249861653E+04  0.25500000920E-02 0. -1.
    10030    2    1    2    0    0  0.00000000000E+00  0.00000000000E+00  0.11557081765E+04  0.36056805071E+04  0.34154458757E+04 0.  0.
        4    1    3    3  502    0 -0.43285865417E+03 -0.14071365161E+04 -0.33574667928E+03  0.15100090182E+04  0.12699999809E+01 0. -1.
       -4    1    3    3    0  502  0.43285865417E+03  0.14071365161E+04  0.14914548558E+04  0.20956714889E+04  0.12699999809E+01 0.  1.
</event>
<event>
 5   0  0.1421875E-07  0.3391266E+04  0.7818609E-02  0.8140053E-01
        1   -1    0    0  501    0  0.00000000000E+00  0.00000000000E+00  0.17511591394E+04  0.17511591394E+04  0.50400001928E-02 0.  1.
       -1   -1    0    0    0  501  0.00000000000E+00  0.00000000000E+00 -0.16418672603E+04  0.16418672603E+04  0.50400001928E-02 0. -1.
    10030    2    1    2    0    0  0.00000000000E+00  0.00000000000E+00  0.10929187916E+03  0.33930263997E+04  0.33912657570E+04 0.  0.
        5    1    3    3  502    0  0.15541138187E+04  0.61234017217E+03 -0.23691317604E+03  0.16871218660E+04  0.46999998093E+01 0.  1.
       -5    1    3    3    0  502 -0.15541138187E+04 -0.61234017217E+03  0.34620505520E+03  0.17059045337E+04  0.46999998093E+01 0. -1.
</event>
<event>
 5   0  0.4521737E-07  0.3408205E+04  0.7818609E-02  0.8135896E-01
        2   -1    0    0  501    0  0.00000000000E+00  0.00000000000E+00  0.10334940442E+04  0.10334940442E+04  0.25500000920E-02 0. -1.
       -2   -1    0    0    0  501  0.00000000000E+00  0.00000000000E+00 -0.28098518216E+04  0.28098518216E+04  0.25500000920E-02 0.  1.
    10030    2    1    2    0    0  0.00000000000E+00  0.00000000000E+00 -0.17763577774E+04  0.38433458659E+04  0.34082048782E+04 0.  0.
        4    1    3    3  502    0  0.26625832856E+03 -0.15302411098E+04 -0.97653975360E+02  0.15562998630E+04  0.12699999809E+01 0.  1.
       -4    1    3    3    0  502 -0.26625832856E+03  0.15302411098E+04 -0.16787038020E+04  0.22870460029E+04  0.12699999809E+01 0. -1.
</event>
<event>
 5   0  0.1421875E-07  0.3426971E+04  0.7818609E-02  0.8131318E-01
        1   -1    0    0  501    0  0.00000000000E+00  0.00000000000E+00  0.18828666041E+04  0.18828666041E+04  0.50400001928E-02 0.  1.
       -1   -1    0    0    0  501  0.00000000000E+00  0.00000000000E+00 -0.15593416979E+04  0.15593416980E+04  0.50400001928E-02 0. -1.
    10030    2    1    2    0    0  0.00000000000E+00  0.00000000000E+00  0.32352490612E+03  0.34422083020E+04  0.34269709117E+04 0.  0.
        5    1    3    3  502    0 -0.80357698815E+03 -0.68744182745E+03 -0.11924524949E+04  0.15938247346E+04  0.46999998093E+01 0. -1.
       -5    1    3    3    0  502  0.80357698815E+03  0.68744182745E+03  0.15159774010E+04  0.18483835674E+04  0.46999998093E+01 0.  1.
</event>
<event>
 5   0  0.4396257E-07  0.3404854E+04  0.7818609E-02  0.8136716E-01
       -2   -1    0    0    0  501  0.00000000000E+00  0.00000000000E+00  0.16023409230E+04  0.16023409230E+04  0.25500000920E-02 0. -1.
        2   -1    0    0  501    0  0.00000000000E+00  0.00000000000E+00 -0.18087646738E+04  0.18087646738E+04  0.25500000920E-02 0.  1.
    10030    2    1    2    0    0  0.00000000000E+00  0.00000000000E+00 -0.20642375083E+03  0.34111055968E+04  0.34048539803E+04 0.  0.
        2    1    3    3  502    0 -0.28094722150E+03 -0.47259253016E+03 -0.17173755227E+04  0.18032342407E+04  0.25500000920E-02 0.  1.
       -2    1    3    3    0  502  0.28094722150E+03  0.47259253016E+03  0.15109517719E+04  0.16078713561E+04  0.25500000920E-02 0. -1.
</event>
<event>
 5   0  0.4486226E-07  0.3423116E+04  0.7818609E-02  0.8132256E-01
        2   -1    0    0  501    0  0.00000000000E+00  0.00000000000E+00  0.21122813410E+04  0.21122813410E+04  0.25500000920E-02 0. -1.
       -2   -1    0    0    0  501  0.00000000000E+00  0.00000000000E+00 -0.13868566782E+04  0.13868566782E+04  0.25500000920E-02 0.  1.
    10030    2    1    2    0    0  0.00000000000E+00  0.00000000000E+00  0.72542466283E+03  0.34991380192E+04  0.34231164070E+04 0.  0.
        1    1    3    3  502    0  0.25956918140E+03  0.39902956867E+03  0.20432522339E+04  0.20979705546E+04  0.50400001928E-02 0. -1.
       -1    1    3    3    0  502 -0.25956918140E+03 -0.39902956867E+03 -0.13178275711E+04  0.14011674646E+04  0.50400001928E-02 0.  1.
</event>
<event>
 5   0  0.1523259E-07  0.3413965E+04  0.7818609E-02  0.8134487E-01
        1   -1    0    0  501    0  0.00000000000E+00  0.00000000000E+00  0.19678993496E+04  0.19678993496E+04  0.50400001928E-02 0.  1.
       -1   -1    0    0    0  501  0.00000000000E+00  0.00000000000E+00 -0.14806598710E+04  0.14806598710E+04  0.50400001928E-02 0. -1.
    10030    2    1    2    0    0  0.00000000000E+00  0.00000000000E+00  0.48723947867E+03  0.34485592206E+04  0.34139652003E+04 0.  0.
        4    1    3    3  502    0  0.14895875964E+04 -0.64011921131E+03  0.78303853940E+03  0.18004929267E+04  0.12699999809E+01 0.  1.
       -4    1    3    3    0  502 -0.14895875964E+04  0.64011921131E+03 -0.29579906073E+03  0.16480662939E+04  0.12699999809E+01 0. -1.
</event>
<event>
 5   0  0.4486226E-07  0.3390097E+04  0.7818609E-02  0.8140341E-01
        2   -1    0    0  501    0  0.00000000000E+00  0.00000000000E+00  0.15889113326E+04  0.15889113326E+04  0.25500000920E-02 0. -1.
       -2   -1    0    0    0  501  0.00000000000E+00  0.00000000000E+00 -0.18082754362E+04  0.18082754362E+04  0.25500000920E-02 0.  1.
    10030    2    1    2    0    0  0.00000000000E+00  0.00000000000E+00 -0.21936410356E+03  0.33971867688E+04  0.33900969503E+04 0.  0.
        1    1    3    3  502    0 -0.13794098391E+04 -0.98469325384E+03 -0.81391384445E+02  0.16967665914E+04  0.50400001928E-02 0.  1.
       -1    1    3    3    0  502  0.13794098391E+04  0.98469325384E+03 -0.13797271911E+03  0.17004201774E+04  0.50400001928E-02 0. -1.
</event>
<event>
 5   0  0.1520084E-07  0.3397962E+04  0.7818609E-02  0.8138407E-01
        1   -1    0    0  501    0  0.00000000000E+00  0.00000000000E+00  0.16272937868E+04  0.16272937868E+04  0.50400001928E-02 0. -1.
       -1   -1    0    0    0  501  0.00000000000E+00  0.00000000000E+00 -0.17738261778E+04  0.17738261778E+04  0.50400001928E-02 0.  1.
    10030    2    1    2    0    0  0.00000000000E+00  0.00000000000E+00 -0.14653239103E+03  0.34011199646E+04  0.33979619292E+04 0.  0.
        2    1    3    3  502    0  0.71709106334E+03 -0.42974436326E+03 -0.15537069192E+04  0.17643426543E+04  0.25500000920E-02 0.  1.
       -2    1    3    3    0  502 -0.71709106334E+03  0.42974436326E+03  0.14071745282E+04  0.16367773104E+04  0.25500000920E-02 0. -1.
</event>
<event>
 5   0  0.4521737E-07  0.3386265E+04  0.7818609E-02  0.8141285E-01
        2   -1    0    0  501    0  0.00000000000E+00  0.00000000000E+00  0.25343043282E+04  0.25343043282E+04  0.25500000920E-02 0. -1.
       -2   -1    0    0    0  501  0.00000000000E+00  0.00000000000E+00 -0.11311578927E+04  0.11311578927E+04  0.25500000920E-02 0.  1.
    10030    2    1    2    0    0  0.00000000000E+00  0.00000000000E+00  0.14031464355E+04  0.36654622209E+04  0.33862654021E+04 0.  0.
        4    1    3    3  502    0  0.14220741206E+04  0.16881331871E+03  0.16793219975E+04  0.22070153432E+04  0.12699999809E+01 0. -1.
       -4    1    3    3    0  502 -0.14220741206E+04 -0.16881331871E+03 -0.27617556207E+03  0.14584468776E+04  0.12699999809E+01 0.  1.
</event>
<event>
 5   0  0.4381939E-07  0.3332905E+04  0.7818609E-02  0.8154573E-01
       -2   -1    0    0    0  501  0.00000000000E+00  0.00000000000E+00  0.14050185066E+04  0.14050185066E+04  0.25500000920E-02 0.  1.
        2   -1    0    0  501    0  0.00000000000E+00  0.00000000000E+00 -0.19765320372E+04  0.19765320372E+04  0.25500000920E-02 0. -1.
    10030    2    1    2    0    0  0.00000000000E+00  0.00000000000E+00 -0.57151353061E+03  0.33815505438E+04  0.33329050939E+04 0.  0.
        3    1    3    3  502    0 -0.84545505793E+03 -0.10831498502E+04 -0.12424166218E+04  0.18524596960E+04  0.10100000352E+00 0. -1.
       -3    1    3    3    0  502  0.84545505793E+03  0.10831498502E+04  0.67090309120E+03  0.15290908478E+04  0.10100000352E+00 0.  1.
</event>
<event>
 5   0  0.1520084E-07  0.3377968E+04  0.7818609E-02  0.8143335E-01
       -1   -1    0    0    0  501  0.00000000000E+00  0.00000000000E+00  0.26979069593E+04  0.26979069593E+04  0.50400001928E-02 0. -1.
        1   -1    0    0  501    0  0.00000000000E+00  0.00000000000E+00 -0.10573632001E+04  0.10573632001E+04  0.50400001928E-02 0.  1.
    10030    2    1    2    0    0  0.00000000000E+00  0.00000000000E+00  0.16405437592E+04  0.37552701594E+04  0.33779683457E+04 0.  0.
        2    1    3    3  502    0  0.14088778634E+04 -0.71646976644E+03  0.14820822305E+04  0.21667564465E+04  0.25500000920E-02 0. -1.
       -2    1    3    3    0  502 -0.14088778634E+04  0.71646976644E+03  0.15846152860E+03  0.15885137130E+04  0.25500000920E-02 0.  1.
</event>
<event>
 5   0  0.1523259E-07  0.3408797E+04  0.7818609E-02  0.8135751E-01
        1   -1    0    0  501    0  0.00000000000E+00  0.00000000000E+00  0.22097116932E+04  0.22097116932E+04  0.50400001928E-02 0.  1.
       -1   -1    0    0    0  501  0.00000000000E+00  0.00000000000E+00 -0.13146393614E+04  0.13146393614E+04  0.50400001928E-02 0. -1.
    10030    2    1    2    0    0  0.00000000000E+00  0.00000000000E+00  0.89507233184E+03  0.35243510546E+04  0.34087968372E+04 0.  0.
        4    1    3    3  502    0  0.91093053141E+02  0.27456849714E+03  0.21841435463E+04  0.22032182025E+04  0.12699999809E+01 0.  1.
       -4    1    3    3    0  502 -0.91093053141E+02 -0.27456849714E+03 -0.12890712145E+04  0.13211328521E+04  0.12699999809E+01 0. -1.
</event>
<event>
 5   0  0.1435806E-07  0.3412733E+04  0.7818609E-02  0.8134788E-01
        1   -1    0    0  501    0  0.00000000000E+00  0.00000000000E+00  0.10638879956E+04  0.10638879956E+04  0.50400001928E-02 0. -1.
       -1   -1    0    0    0  501  0.00000000000E+00  0.00000000000E+00 -0.27368361517E+04  0.27368361517E+04  0.50400001928E-02 0.  1.
    10030    2    1    2    0    0  0.00000000000E+00  0.00000000000E+00 -0.16729481562E+04  0.38007241473E+04  0.34127332903E+04 0.  0.
        3    1    3    3  502    0  0.14783460177E+04 -0.42363345196E+03 -0.13010408080E+02  0.15379016648E+04  0.10100000352E+00 0. -1.
       -3    1    3    3    0  502 -0.14783460177E+04  0.42363345196E+03 -0.16599377481E+04  0.22628224825E+04  0.10100000352E+00 0.  1.
</event>
<event>
 5   0  0.1435806E-07  0.3450012E+04  0.7818609E-02  0.8125740E-01
        1   -1    0    0  501    0  0.00000000000E+00  0.00000000000E+00  0.18050100463E+04  0.18050100463E+04  0.50400001928E-02 0.  1.
       -1   -1    0    0    0  501  0.00000000000E+00  0.00000000000E+00 -0.16485481272E+04  0.16485481272E+04  0.50400001928E-02 0. -1.
    10030    2    1    2    0    0  0.00000000000E+00  0.00000000000E+00  0.15646191906E+03  0.34535581735E+04  0.34500121341E+04 0.  0.
        3    1    3    3  502    0  0.94631212642E+03 -0.13449460170E+04  0.59959206062E+03  0.17503991198E+04  0.10100000352E+00 0.  1.
       -3    1    3    3    0  502 -0.94631212642E+03  0.13449460170E+04 -0.44313014157E+03  0.17031590536E+04  0.10100000352E+00 0. -1.
</event>
<event>
 5   0  0.4486226E-07  0.3405944E+04  0.7818609E-02  0.8136449E-01
       -2   -1    0    0    0  501  0.00000000000E+00  0.00000000000E+00  0.17606515320E+04  0.17606515320E+04  0.25500000920E-02 0.  1.
        2   -1    0    0  501    0  0.00000000000E+00  0.00000000000E+00 -0.16471822851E+04  0.16471822851E+04  0.25500000920E-02 0. -1.
    10030    2    1    2    0    0  0.00000000000E+00  0.00000000000E+00  0.11346924681E+03  0.34078338171E+04  0.34059442237E+04 0.  0.
        1    1    3    3  502    0 -0.15277467724E+04  0.49961380932E+03  0.61962104583E+03  0.17226591072E+04  0.50400001928E-02 0.  1.
       -1    1    3    3    0  502  0.15277467724E+04 -0.49961380932E+03 -0.50615179902E+03  0.16851747099E+04  0.50400001928E-02 0. -1.
</event>
<event>
 5   0  0.4447909E-07  0.3421671E+04  0.7818609E-02  0.8132608E-01
        2   -1    0    0  501    0  0.00000000000E+00  0.00000000000E+00  0.20811830114E+04  0.20811830114E+04  0.25500000920E-02 0. -1.
       -2   -1    0    0    0  501  0.00000000000E+00  0.00000000000E+00 -0.14063916333E+04  0.14063916333E+04  0.25500000920E-02 0.  1.
    10030    2    1    2    0    0  0.00000000000E+00  0.00000000000E+00  0.67479137818E+03  0.34875746447E+04  0.34216711558E+04 0.  0.
        5    1    3    3  502    0 -0.13440309251E+04 -0.10309156924E+04  0.58229411393E+03  0.17911713535E+04  0.46999998093E+01 0. -1.
       -5    1    3    3    0  502  0.13440309251E+04  0.10309156924E+04  0.92497264257E+02  0.16964032912E+04  0.46999998093E+01 0.  1.
</event>
<event>
 5   0  0.4396257E-07  0.3418289E+04  0.7818609E-02  0.8133432E-01
       -2   -1    0    0    0  501  0.00000000000E+00  0.00000000000E+00  0.14848603638E+04  0.14848603638E+04  0.25500000920E-02 0.  1.
        2   -1    0    0  501    0  0.00000000000E+00  0.00000000000E+00 -0.19673056469E+04  0.19673056469E+04  0.25500000920E-02 0. -1.
    10030    2    1    2    0    0  0.00000000000E+00  0.00000000000E+00 -0.48244528314E+03  0.34521660107E+04  0.34182885651E+04 0.  0.
        2    1    3    3  502    0  0.10610255534E+04 -0.56651814053E+03 -0.14675287194E+04  0.18974610854E+04  0.25500000920E-02 0. -1.
       -2    1    3    3    0  502 -0.10610255534E+04  0.56651814053E+03  0.98508343622E+03  0.15547049253E+04  0.25500000920E-02 0.  1.
</event>
<event>
 5   0  0.1435806E-07  0.3399854E+04  0.7818609E-02  0.8137942E-01
        1   -1    0    0  501    0  0.00000000000E+00  0.00000000000E+00  0.15392269451E+04  0.15392269451E+04  0.50400001928E-02 0. -1.
       -1   -1    0    0    0  501  0.00000000000E+00  0.00000000000E+00 -0.18774044870E+04  0.18774044871E+04  0.50400001928E-02 0.  1.
    10030    2    1    2    0    0  0.00000000000E+00  0.00000000000E+00 -0.33817754193E+03  0.34166314322E+04  0.33998538636E+04 0.  0.
        3    1    3    3  502    0 -0.16026896320E+04 -0.22750796417E+03 -0.69066603021E+03  0.17599413359E+04  0.10100000352E+00 0.  1.
       -3    1    3    3    0  502  0.16026896320E+04  0.22750796417E+03  0.35248848829E+03  0.16566900963E+04  0.10100000352E+00 0. -1.
</event>
<event>
 5   0  0.4396257E-07  0.3389280E+04  0.7818609E-02  0.8140542E-01
       -2   -1    0    0    0  501  0.00000000000E+00  0.00000000000E+00  0.15851414082E+04  0.15851414082E+04  0.25500000920E-02 0. -1.
        2   -1    0    0  501    0  0.00000000000E+00  0.00000000000E+00 -0.18117020341E+04  0.18117020341E+04  0.25500000920E-02 0.  1.
    10030    2    1    2    0    0  0.00000000000E+00  0.00000000000E+00 -0.22656062589E+03  0.33968434423E+04  0.33892795185E+04 0.  0.
        2    1    3    3  502    0  0.14381382506E+04  0.55806778118E+03  0.58979980236E+03  0.16515281055E+04  0.25500000920E-02 0. -1.
       -2    1    3    3    0  502 -0.14381382506E+04 -0.55806778118E+03 -0.81636042825E+03  0.17453153368E+04  0.25500000920E-02 0.  1.
</event>
<event>
 5   0  0.1473755E-07  0.3405917E+04  0.7818609E-02  0.8136456E-01
       -1   -1    0    0    0  501  0.00000000000E+00  0.00000000000E+00  0.22958291444E+04  0.22958291444E+04  0.50400001928E-02 0.  1.
        1   -1    0    0  501    0  0.00000000000E+00  0.00000000000E+00 -0.12631897485E+04  0.12631897485E+04  0.50400001928E-02 0. -1.
    10030    2    1    2    0    0  0.00000000000E+00  0.00000000000E+00  0.10326393960E+04  0.35590188929E+04  0.34059171097E+04 0.  0.
        1    1    3    3  502    0 -0.19947291629E+03  0.66957328732E+03  0.21391771354E+04  0.22503770014E+04  0.50400001928E-02 0.  1.
       -1    1    3    3    0  502  0.19947291629E+03 -0.66957328732E+03 -0.11065377395E+04  0.13086418916E+04  0.50400001928E-02 0. -1.
</event>
<event>
 5   0  0.1421875E-07  0.3409375E+04  0.7818609E-02  0.8135609E-01
        1   -1    0    0  501    0  0.00000000000E+00  0.00000000000E+00  0.17635692681E+04  0.17635692681E+04  0.50400001928E-02 0. -1.
       -1   -1    0    0    0  501  0.00000000000E+00  0.00000000000E+00 -0.16477712580E+04  0.16477712580E+04  0.50400001928E-02 0.  1.
    10030    2    1    2    0    0  0.00000000000E+00  0.00000000000E+00  0.11579801009E+03  0.34113405261E+04  0.34093745769E+04 0.  0.
        5    1    3    3  502    0 -0.66406007460E+03  0.10791265297E+04 -0.10831299160E+04  0.16669380176E+04  0.46999998093E+01 0.  1.
       -5    1    3    3    0  502  0.66406007460E+03 -0.10791265297E+04  0.11989279260E+04  0.17444025085E+04  0.46999998093E+01 0. -1.
</event>
<event>
 5   0  0.4521737E-07  0.3417055E+04  0.7818609E-02  0.8133733E-01
        2   -1    0    0  501    0  0.00000000000E+00  0.00000000000E+00  0.18970956275E+04  0.18970956275E+04  0.25500000920E-02 0.  1.
       -2   -1    0    0    0  501  0.00000000000E+00  0.00000000000E+00 -0.15387031232E+04  0.15387031232E+04  0.25500000920E-02 0. -1.
    10030    2    1    2    0    0  0.00000000000E+00  0.00000000000E+00  0.35839250431E+03  0.34357987508E+04  0.34170554383E+04 0.  0.
        4    1    3    3  502    0  0.22329706392E+03 -0.16882494677E+04  0.40535829114E+02  0.17034355316E+04  0.12699999809E+01 0. -1.
       -4    1    3    3    0  502 -0.22329706392E+03  0.16882494677E+04  0.31785667519E+03  0.17323632191E+04  0.12699999809E+01 0.  1.
</event>
<event>
 5   0  0.1435806E-07  0.3398394E+04  0.7818609E-02  0.8138301E-01
       -1   -1    0    0    0  501  0.00000000000E+00  0.00000000000E+00  0.12561432932E+04  0.12561432932E+04  0.50400001928E-02 0.  1.
        1   -1    0    0  501    0  0.00000000000E+00  0.00000000000E+00 -0.22985198323E+04  0.22985198323E+04  0.50400001928E-02 0. -1.
    10030    2    1    2    0    0  0.00000000000E+00  0.00000000000E+00 -0.10423765390E+04  0.35546631255E+04  0.33983938981E+04 0.  0.
        3    1    3    3  502    0 -0.16983529695E+04  0.49759973226E+02 -0.54188176006E+03  0.17833997634E+04  0.10100000352E+00 0. -1.
       -3    1    3    3    0  502  0.16983529695E+04 -0.49759973226E+02 -0.50049477897E+03  0.17712633621E+04  0.10100000352E+00 0.  1.
</event>
<event>
 5   0  0.1473755E-07  0.3402538E+04  0.7818609E-02  0.8137284E-01
        1   -1    0    0  501    0  0.00000000000E+00  0.00000000000E+00  0.19277214255E+04  0.19277214255E+04  0.50400001928E-02 0.  1.
       -1   -1    0    0    0  501  0.00000000000E+00  0.00000000000E+00 -0.15014183985E+04  0.15014183985E+04  0.50400001928E-02 0. -1.
    10030    2    1    2    0    0  0.00000000000E+00  0.00000000000E+00  0.42630302705E+03  0.34291398240E+04  0.34025381206E+04 0.  0.
        1    1    3    3  502    0 -0.13078219650E+04  0.22397575366E+03 -0.85995150413E+03  0.15811641344E+04  0.50400001928E-02 0. -1.
       -1    1    3    3    0  502  0.13078219650E+04 -0.22397575366E+03  0.12862545312E+04  0.18479756896E+04  0.50400001928E-02 0.  1.
</event>
<event>
 5   0  0.1520084E-07  0.3396758E+04  0.7818609E-02  0.8138702E-01
        1   -1    0    0  501    0  0.00000000000E+00  0.00000000000E+00  0.24527239646E+04  0.24527239646E+04  0.50400001928E-02 0.  1.
       -1   -1    0    0    0  501  0.00000000000E+00  0.00000000000E+00 -0.11760359334E+04  0.11760359334E+04  0.50400001928E-02 0. -1.
    10030    2    1    2    0    0  0.00000000000E+00  0.00000000000E+00  0.12766880312E+04  0.36287598980E+04  0.33967581704E+04 0.  0.
        2    1    3    3  502    0 -0.11989383749E+04  0.20940906752E+03  0.19038122462E+04  0.22596031628E+04  0.25500000920E-02 0.  1.
       -2    1    3    3    0  502  0.11989383749E+04 -0.20940906752E+03 -0.62712421502E+03  0.13691567352E+04  0.25500000920E-02 0. -1.
</event>
<event>
 5   0  0.1523259E-07  0.3165711E+04  0.7818609E-02  0.8197932E-01
        1   -1    0    0  501    0  0.00000000000E+00  0.00000000000E+00  0.81654732750E+03  0.81654732752E+03  0.50400001928E-02 0. -1.
       -1   -1    0    0    0  501  0.00000000000E+00  0.00000000000E+00 -0.30683242839E+04  0.30683242839E+04  0.50400001928E-02 0.  1.
    10030    2    1    2    0    0  0.00000000000E+00  0.00000000000E+00 -0.22517769564E+04  0.38848716114E+04  0.31657112907E+04 0.  0.
        4    1    3    3  502    0 -0.27388804438E+03  0.43960402518E+03  0.70961105601E+03  0.87853049094E+03  0.12699999809E+01 0. -1.
       -4    1    3    3    0  502  0.27388804438E+03 -0.43960402518E+03 -0.29613880124E+04  0.30063411205E+04  0.12699999809E+01 0.  1.
</event>
<event>
 5   0  0.1421875E-07  0.3397214E+04  0.7818609E-02  0.8138590E-01
        3   -1    0    0  501    0  0.00000000000E+00  0.00000000000E+00  0.15097339268E+04  0.15097339302E+04  0.10100000352E+00 0.  1.
       -3   -1    0    0    0  501  0.00000000000E+00  0.00000000000E+00 -0.19111090796E+04  0.19111090823E+04  0.10100000352E+00 0. -1.
    10030    2    1    2    0    0  0.00000000000E+00  0.00000000000E+00 -0.40137515277E+03  0.34208430124E+04  0.33972142856E+04 0.  0.
        1    1    3    3  502    0  0.80336455049E+03  0.14960895545E+04 -0.24081028459E+03  0.17151291932E+04  0.50400001928E-02 0. -1.
       -1    1    3    3    0  502 -0.80336455049E+03 -0.14960895545E+04 -0.16056486819E+03  0.17057138192E+04  0.50400001928E-02 0.  1.
</event>
<event>
 5   0  0.4486226E-07  0.3389448E+04  0.7818609E-02  0.8140501E-01
       -2   -1    0    0    0  501  0.00000000000E+00  0.00000000000E+00  0.21186516730E+04  0.21186516730E+04  0.25500000920E-02 0. -1.
        2   -1    0    0  501    0  0.00000000000E+00  0.00000000000E+00 -0.13556213796E+04  0.13556213796E+04  0.25500000920E-02 0.  1.
    10030    2    1    2    0    0  0.00000000000E+00  0.00000000000E+00  0.76303029337E+03  0.34742730526E+04  0.33894480399E+04 0.  0.
        1    1    3    3  502    0 -0.10141817528E+04 -0.48338822952E+03  0.16820713231E+04  0.20227685839E+04  0.50400001928E-02 0. -1.
       -1    1    3    3    0  502  0.10141817528E+04  0.48338822952E+03 -0.91904102975E+03  0.14515044687E+04  0.50400001928E-02 0.  1.
</event>
<event>
 5   0  0.1520084E-07  0.3365060E+04  0.7818609E-02  0.8146535E-01
        1   -1    0    0  501    0  0.00000000000E+00  0.00000000000E+00  0.17593621708E+04  0.17593621708E+04  0.50400001928E-02 0. -1.
       -1   -1    0    0    0  501  0.00000000000E+00  0.00000000000E+00 -0.16090526713E+04  0.16090526714E+04  0.50400001928E-02 0.  1.
    10030    2    1    2    0    0  0.00000000000E+00  0.00000000000E+00  0.15030949948E+03  0.33684148422E+04  0.33650595245E+04 0.  0.
        2    1    3    3  502    0 -0.10555938969E+04  0.33778573655E+03  0.13423272297E+04  0.17407527310E+04  0.25500000920E-02 0. -1.
       -2    1    3    3    0  502  0.10555938969E+04 -0.33778573655E+03 -0.11920177302E+04  0.16276621112E+04  0.25500000920E-02 0.  1.
</event>
<event>
 5   0  0.4381939E-07  0.3352628E+04  0.7818609E-02  0.8149632E-01
        2   -1    0    0  501    0  0.00000000000E+00  0.00000000000E+00  0.19505206401E+04  0.19505206401E+04  0.25500000920E-02 0.  1.
       -2   -1    0    0    0  501  0.00000000000E+00  0.00000000000E+00 -0.14406553230E+04  0.14406553230E+04  0.25500000920E-02 0. -1.
    10030    2    1    2    0    0  0.00000000000E+00  0.00000000000E+00  0.50986531713E+03  0.33911759631E+04  0.33526275920E+04 0.  0.
        3    1    3    3  502    0  0.18805304225E+03  0.34618199465E+03 -0.13931641382E+04  0.14477956508E+04  0.10100000352E+00 0. -1.
       -3    1    3    3    0  502 -0.18805304225E+03 -0.34618199465E+03  0.19030294554E+04  0.19433803123E+04  0.10100000352E+00 0.  1.
</event>
<event>
 5   0  0.1523259E-07  0.3392276E+04  0.7818609E-02  0.8139805E-01
        1   -1    0    0  501    0  0.00000000000E+00  0.00000000000E+00  0.20758245280E+04  0.20758245280E+04  0.50400001928E-02 0. -1.
       -1   -1    0    0    0  501  0.00000000000E+00  0.00000000000E+00 -0.13858994387E+04  0.13858994387E+04  0.50400001928E-02 0.  1.
    10030    2    1    2    0    0  0.00000000000E+00  0.00000000000E+00  0.68992508930E+03  0.34617239667E+04  0.33922759606E+04 0.  0.
        4    1    3    3  502    0 -0.71107372766E+03  0.67128028689E+03 -0.10692808959E+04  0.14490018347E+04  0.12699999809E+01 0.  1.
       -4    1    3    3    0  502  0.71107372766E+03 -0.67128028689E+03  0.17592059852E+04  0.20127221320E+04  0.12699999809E+01 0. -1.
</event>
<event>
 5   0  0.4486226E-07  0.3363052E+04  0.7818609E-02  0.8147035E-01
        2   -1    0    0  501    0  0.00000000000E+00  0.00000000000E+00  0.26957476199E+04  0.26957476199E+04  0.25500000920E-02 0.  1.
       -2   -1    0    0    0  501  0.00000000000E+00  0.00000000000E+00 -0.10488852391E+04  0.10488852391E+04  0.25500000920E-02 0. -1.
    10030    2    1    2    0    0  0.00000000000E+00  0.00000000000E+00  0.16468623809E+04  0.37446328590E+04  0.33630521178E+04 0.  0.
        1    1    3    3  502    0 -0.80179481683E+03 -0.12719205753E+04 -0.14905619243E+02  0.15036219790E+04  0.50400001928E-02 0. -1.
       -1    1    3    3    0  502  0.80179481683E+03  0.12719205753E+04  0.16617680001E+04  0.22410108800E+04  0.50400001928E-02 0.  1.
</event>
<event>
 5   0  0.1435806E-07  0.3371291E+04  0.7818609E-02  0.8144989E-01
       -1   -1    0    0    0  501  0.00000000000E+00  0.00000000000E+00  0.15255119364E+04  0.15255119364E+04  0.50400001928E-02 0. -1.
        1   -1    0    0  501    0  0.00000000000E+00  0.00000000000E+00 -0.18625885443E+04  0.18625885443E+04  0.50400001928E-02 0.  1.
    10030    2    1    2    0    0  0.00000000000E+00  0.00000000000E+00 -0.33707660787E+03  0.33881004807E+04  0.33712911811E+04 0.  0.
        3    1    3    3  502    0  0.16263204238E+03  0.50298353141E+03  0.14400545740E+04  0.15340139505E+04  0.10100000352E+00 0. -1.
       -3    1    3    3    0  502 -0.16263204238E+03 -0.50298353141E+03 -0.17771311818E+04  0.18540865303E+04  0.10100000352E+00 0.  1.
</event>
<event>
 5   0  0.4521737E-07  0.3404429E+04  0.7818609E-02  0.8136820E-01
        2   -1    0    0  501    0  0.00000000000E+00  0.00000000000E+00  0.23298221730E+04  0.23298221730E+04  0.25500000920E-02 0. -1.
       -2   -1    0    0    0  501  0.00000000000E+00  0.00000000000E+00 -0.12436721355E+04  0.12436721355E+04  0.25500000920E-02 0.  1.
    10030    2    1    2    0    0  0.00000000000E+00  0.00000000000E+00  0.10861500375E+04  0.35734943084E+04  0.34044294189E+04 0.  0.
        4    1    3    3  502    0 -0.10056675151E+04 -0.51482286902E+03 -0.79338761137E+03  0.13805344082E+04  0.12699999809E+01 0. -1.
       -4    1    3    3    0  502  0.10056675151E+04  0.51482286902E+03  0.18795376489E+04  0.21929599002E+04  0.12699999809E+01 0.  1.
</event>
<event>
 5   0  0.4521737E-07  0.3475318E+04  0.7818609E-02  0.8119664E-01
        2   -1    0    0  501    0  0.00000000000E+00  0.00000000000E+00  0.22033297531E+04  0.22033297531E+04  0.25500000920E-02 0.  1.
       -2   -1    0    0    0  501  0.00000000000E+00  0.00000000000E+00 -0.13704068958E+04  0.13704068958E+04  0.25500000920E-02 0. -1.
    10030    2    1    2    0    0  0.00000000000E+00  0.00000000000E+00  0.83292285728E+03  0.35737366489E+04  0.34753177049E+04 0.  0.
        4    1    3    3  502    0 -0.91155032331E+03 -0.81021192136E+03 -0.85636761437E+03  0.14902128886E+04  0.12699999809E+01 0. -1.
       -4    1    3    3    0  502  0.91155032331E+03  0.81021192136E+03  0.16892904717E+04  0.20835237604E+04  0.12699999809E+01 0.  1.
</event>
<event>
 5   0  0.4447909E-07  0.3400221E+04  0.7818609E-02  0.8137852E-01
       -2   -1    0    0    0  501  0.00000000000E+00  0.00000000000E+00  0.20476605237E+04  0.20476605237E+04  0.25500000920E-02 0.  1.
        2   -1    0    0  501    0  0.00000000000E+00  0.00000000000E+00 -0.14115502082E+04  0.14115502082E+04  0.25500000920E-02 0. -1.
    10030    2    1    2    0    0  0.00000000000E+00  0.00000000000E+00  0.63611031550E+03  0.34592107319E+04  0.34002209567E+04 0.  0.
        5    1    3    3  502    0 -0.14390212851E+04  0.43814406647E+03 -0.48790155427E+03  0.15813989056E+04  0.46999998093E+01 0.  1.
       -5    1    3    3    0  502  0.14390212851E+04 -0.43814406647E+03  0.11240118698E+04  0.18778118264E+04  0.46999998093E+01 0. -1.
</event>
<event>
 5   0  0.4396257E-07  0.3392121E+04  0.7818609E-02  0.8139843E-01
       -2   -1    0    0    0  501  0.00000000000E+00  0.00000000000E+00  0.18632357146E+04  0.18632357146E+04  0.25500000920E-02 0. -1.
        2   -1    0    0  501    0  0.00000000000E+00  0.00000000000E+00 -0.15438849294E+04  0.15438849294E+04  0.25500000920E-02 0.  1.
    10030    2    1    2    0    0  0.00000000000E+00  0.00000000000E+00  0.31935078514E+03  0.34071206440E+04  0.33921211887E+04 0.  0.
        2    1    3    3  502    0 -0.14860072636E+04  0.81689611663E+03  0.12659517600E+03  0.17004597000E+04  0.25500000920E-02 0.  1.
       -2    1    3    3    0  502  0.14860072636E+04 -0.81689611663E+03  0.19275560915E+03  0.17066609440E+04  0.25500000920E-02 0. -1.
</event>
<event>
 5   0  0.4381939E-07  0.3387511E+04  0.7818609E-02  0.8140978E-01
        2   -1    0    0  501    0  0.00000000000E+00  0.00000000000E+00  0.20453150597E+04  0.20453150597E+04  0.25500000920E-02 0.  1.
       -2   -1    0    0    0  501  0.00000000000E+00  0.00000000000E+00 -0.14026239924E+04  0.14026239924E+04  0.25500000920E-02 0. -1.
    10030    2    1    2    0    0  0.00000000000E+00  0.00000000000E+00  0.64269106731E+03  0.34479390521E+04  0.33875111659E+04 0.  0.
        3    1    3    3  502    0  0.72010141890E+03 -0.12903675235E+04 -0.52119697417E+03  0.15669207687E+04  0.10100000352E+00 0.  1.
       -3    1    3    3    0  502 -0.72010141890E+03  0.12903675235E+04  0.11638880415E+04  0.18810182834E+04  0.10100000352E+00 0. -1.
</event>
<event>
 5   0  0.4381939E-07  0.3389124E+04  0.7818609E-02  0.8140581E-01
        2   -1    0    0  501    0  0.00000000000E+00  0.00000000000E+00  0.21522912829E+04  0.21522912829E+04  0.25500000920E-02 0.  1.
       -2   -1    0    0    0  501  0.00000000000E+00  0.00000000000E+00 -0.13341784914E+04  0.13341784914E+04  0.25500000920E-02 0. -1.
    10030    2    1    2    0    0  0.00000000000E+00  0.00000000000E+00  0.81811279153E+03  0.34864697743E+04  0.33891242154E+04 0.  0.
        3    1    3    3  502    0  0.73292558971E+03 -0.11759499438E+04 -0.59441129322E+03  0.15077675504E+04  0.10100000352E+00 0. -1.
       -3    1    3    3    0  502 -0.73292558971E+03  0.11759499438E+04  0.14125240848E+04  0.19787022238E+04  0.10100000352E+00 0.  1.
</event>
<event>
 5   0  0.4396257E-07  0.3403825E+04  0.7818609E-02  0.8136968E-01
        2   -1    0    0  501    0  0.00000000000E+00  0.00000000000E+00  0.17863864387E+04  0.17863864387E+04  0.25500000920E-02 0. -1.
       -2   -1    0    0    0  501  0.00000000000E+00  0.00000000000E+00 -0.16214328716E+04  0.16214328716E+04  0.25500000920E-02 0.  1.
    10030    2    1    2    0    0  0.00000000000E+00  0.00000000000E+00  0.16495356708E+03  0.34078193104E+04  0.34038247271E+04 0.  0.
        2    1    3    3  502    0 -0.36326923366E+03 -0.48975245734E+03  0.16732668032E+04  0.17809109467E+04  0.25500000920E-02 0. -1.
       -2    1    3    3    0  502  0.36326923366E+03  0.48975245734E+03 -0.15083132361E+04  0.16269083637E+04  0.25500000920E-02 0.  1.
</event>
<event>
 5   0  0.1421875E-07  0.3302565E+04  0.7818609E-02  0.8162243E-01
        4   -1    0    0  501    0  0.00000000000E+00  0.00000000000E+00  0.16489047867E+04  0.16489052758E+04  0.12699999809E+01 0. -1.
       -4   -1    0    0    0  501  0.00000000000E+00  0.00000000000E+00 -0.16536629181E+04  0.16536634057E+04  0.12699999809E+01 0.  1.
    10030    2    1    2    0    0  0.00000000000E+00  0.00000000000E+00 -0.47581313678E+01  0.33025686815E+04  0.33025652539E+04 0.  0.
        2    1    3    3  502    0  0.11213531590E+04 -0.11462943819E+04  0.39171599824E+03  0.16507165536E+04  0.25500000920E-02 0. -1.
       -2    1    3    3    0  502 -0.11213531590E+04  0.11462943819E+04 -0.39647412961E+03  0.16518521279E+04  0.25500000920E-02 0.  1.
</event>
<event>
 5   0  0.4381939E-07  0.3397935E+04  0.7818609E-02  0.8138413E-01
       -2   -1    0    0    0  501  0.00000000000E+00  0.00000000000E+00  0.21421358464E+04  0.21421358464E+04  0.25500000920E-02 0. -1.
        2   -1    0    0  501    0  0.00000000000E+00  0.00000000000E+00 -0.13474827662E+04  0.13474827662E+04  0.25500000920E-02 0.  1.
    10030    2    1    2    0    0  0.00000000000E+00  0.00000000000E+00  0.79465308019E+03  0.34896186125E+04  0.33979353353E+04 0.  0.
        3    1    3    3  502    0 -0.40090559428E+03  0.16479836704E+04  0.29506237002E+03  0.17215217936E+04  0.10100000352E+00 0. -1.
       -3    1    3    3    0  502  0.40090559428E+03 -0.16479836704E+04  0.49959071017E+03  0.17680968190E+04  0.10100000352E+00 0.  1.
</event>
<event>
 5   0  0.1473755E-07  0.3403233E+04  0.7818609E-02  0.8137113E-01
       -1   -1    0    0    0  501  0.00000000000E+00  0.00000000000E+00  0.15770407327E+04  0.15770407327E+04  0.50400001928E-02 0. -1.
        1   -1    0    0  501    0  0.00000000000E+00  0.00000000000E+00 -0.18360331119E+04  0.18360331119E+04  0.50400001928E-02 0.  1.
    10030    2    1    2    0    0  0.00000000000E+00  0.00000000000E+00 -0.25899237913E+03  0.34130738446E+04  0.34032331710E+04 0.  0.
        1    1    3    3  502    0 -0.11212901445E+03 -0.16576413267E+04 -0.49818853865E+03  0.17345141982E+04  0.50400001928E-02 0.  1.
       -1    1    3    3    0  502  0.11212901445E+03  0.16576413267E+04  0.23919615952E+03  0.16785596464E+04  0.50400001928E-02 0. -1.
</event>
<event>
 5   0  0.4486226E-07  0.3409650E+04  0.7818609E-02  0.8135542E-01
       -2   -1    0    0    0  501  0.00000000000E+00  0.00000000000E+00  0.25659597195E+04  0.25659597195E+04  0.25500000920E-02 0.  1.
        2   -1    0    0  501    0  0.00000000000E+00  0.00000000000E+00 -0.11326866867E+04  0.11326866867E+04  0.25500000920E-02 0. -1.
    10030    2    1    2    0    0  0.00000000000E+00  0.00000000000E+00  0.14332730328E+04  0.36986464062E+04  0.34096500776E+04 0.  0.
        1    1    3    3  502    0  0.48156583180E+03  0.16831270076E+03  0.24812265037E+04  0.25331245091E+04  0.50400001928E-02 0.  1.
       -1    1    3    3    0  502 -0.48156583180E+03 -0.16831270076E+03 -0.10479534709E+04  0.11655218972E+04  0.50400001928E-02 0. -1.
</event>
<event>
 5   0  0.4396257E-07  0.3401943E+04  0.7818609E-02  0.8137430E-01
        2   -1    0    0  501    0  0.00000000000E+00  0.00000000000E+00  0.16301453914E+04  0.16301453914E+04  0.25500000920E-02 0. -1.
       -2   -1    0    0    0  501  0.00000000000E+00  0.00000000000E+00 -0.17748747419E+04  0.17748747419E+04  0.25500000920E-02 0.  1.
    10030    2    1    2    0    0  0.00000000000E+00  0.00000000000E+00 -0.14472935050E+03  0.34050201334E+04  0.34019429043E+04 0.  0.
        2    1    3    3  502    0  0.10244921880E+04  0.13308169757E+04 -0.34213735358E+03  0.17139766728E+04  0.25500000920E-02 0.  1.
       -2    1    3    3    0  502 -0.10244921880E+04 -0.13308169757E+04  0.19740800308E+03  0.16910434606E+04  0.25500000920E-02 0. -1.
</event>
<event>
 5   0  0.1520084E-07  0.3394148E+04  0.7818609E-02  0.8139344E-01
        1   -1    0    0  501    0  0.00000000000E+00  0.00000000000E+00  0.18237144546E+04  0.18237144546E+04  0.50400001928E-02 0. -1.
       -1   -1    0    0    0  501  0.00000000000E+00  0.00000000000E+00 -0.15792277728E+04  0.15792277728E+04  0.50400001928E-02 0.  1.
    10030    2    1    2    0    0  0.00000000000E+00  0.00000000000E+00  0.24448668177E+03  0.34029422274E+04  0.33941482091E+04 0.  0.
        2    1    3    3  502    0  0.73829900800E+03 -0.15095359061E+04 -0.11559785471E+03  0.16843832524E+04  0.25500000920E-02 0.  1.
       -2    1    3    3    0  502 -0.73829900800E+03  0.15095359061E+04  0.36008453648E+03  0.17185589750E+04  0.25500000920E-02 0. -1.
</event>
<event>
 5   0  0.4447909E-07  0.3412444E+04  0.7818609E-02  0.8134859E-01
       -2   -1    0    0    0  501  0.00000000000E+00  0.00000000000E+00  0.28866761191E+04  0.28866761191E+04  0.25500000920E-02 0. -1.
        2   -1    0    0  501    0  0.00000000000E+00  0.00000000000E+00 -0.10084930188E+04  0.10084930189E+04  0.25500000920E-02 0.  1.
    10030    2    1    2    0    0  0.00000000000E+00  0.00000000000E+00  0.18781831002E+04  0.38951691379E+04  0.34124435314E+04 0.  0.
        5    1    3    3  502    0 -0.88676811071E+01  0.14853390759E+04 -0.19232138865E+02  0.14854974828E+04  0.46999998093E+01 0.  1.
       -5    1    3    3    0  502  0.88676811071E+01 -0.14853390759E+04  0.18974152391E+04  0.24096716552E+04  0.46999998093E+01 0. -1.
</event>
<event>
 5   0  0.1435806E-07  0.3406145E+04  0.7818609E-02  0.8136400E-01
        1   -1    0    0  501    0  0.00000000000E+00  0.00000000000E+00  0.27046108559E+04  0.27046108559E+04  0.50400001928E-02 0.  1.
       -1   -1    0    0    0  501  0.00000000000E+00  0.00000000000E+00 -0.10724113864E+04  0.10724113864E+04  0.50400001928E-02 0. -1.
    10030    2    1    2    0    0  0.00000000000E+00  0.00000000000E+00  0.16321994695E+04  0.37770222424E+04  0.34061447284E+04 0.  0.
        3    1    3    3  502    0  0.10356394971E+04  0.96185855056E+03 -0.23747766951E+03  0.14332189969E+04  0.10100000352E+00 0. -1.
       -3    1    3    3    0  502 -0.10356394971E+04 -0.96185855056E+03  0.18696771390E+04  0.23438032455E+04  0.10100000352E+00 0.  1.
</event>
<event>
 5   0  0.1435806E-07  0.3398250E+04  0.7818609E-02  0.8138336E-01
        1   -1    0    0  501    0  0.00000000000E+00  0.00000000000E+00  0.13127702632E+04  0.13127702633E+04  0.50400001928E-02 0. -1.
       -1   -1    0    0    0  501  0.00000000000E+00  0.00000000000E+00 -0.21991858078E+04  0.21991858078E+04  0.50400001928E-02 0.  1.
    10030    2    1    2    0    0  0.00000000000E+00  0.00000000000E+00 -0.88641554451E+03  0.35119560710E+04  0.33982499801E+04 0.  0.
        3    1    3    3  502    0 -0.12069214308E+04  0.48307870304E+03 -0.15738913168E+04  0.20413618642E+04  0.10100000352E+00 0.  1.
       -3    1    3    3    0  502  0.12069214308E+04 -0.48307870304E+03  0.68747577229E+03  0.14705942068E+04  0.10100000352E+00 0. -1.
</event>
<event>
 5   0  0.1523259E-07  0.3416291E+04  0.7818609E-02  0.8133920E-01
       -1   -1    0    0    0  501  0.00000000000E+00  0.00000000000E+00  0.19219827892E+04  0.19219827893E+04  0.50400001928E-02 0. -1.
        1   -1    0    0  501    0  0.00000000000E+00  0.00000000000E+00 -0.15180993741E+04  0.15180993741E+04  0.50400001928E-02 0.  1.
    10030    2    1    2    0    0  0.00000000000E+00  0.00000000000E+00  0.40388341518E+03  0.34400821633E+04  0.34162908947E+04 0.  0.
        4    1    3    3  502    0 -0.41118193176E+03 -0.15866972852E+04  0.68599761853E+03  0.17768717459E+04  0.12699999809E+01 0. -1.
       -4    1    3    3    0  502  0.41118193176E+03  0.15866972852E+04 -0.28211420335E+03  0.16632104174E+04  0.12699999809E+01 0.  1.
</event>
<event>
 5   0  0.4521737E-07  0.3404866E+04  0.7818609E-02  0.8136713E-01
       -2   -1    0    0    0  501  0.00000000000E+00  0.00000000000E+00  0.13714104036E+04  0.13714104036E+04  0.25500000920E-02 0.  1.
        2   -1    0    0  501    0  0.00000000000E+00  0.00000000000E+00 -0.21133560122E+04  0.21133560122E+04  0.25500000920E-02 0. -1.
    10030    2    1    2    0    0  0.00000000000E+00  0.00000000000E+00 -0.74194560861E+03  0.34847664157E+04  0.34048661774E+04 0.  0.
        4    1    3    3  502    0 -0.11960799592E+04 -0.46539177445E+03 -0.15157373546E+04  0.19861163394E+04  0.12699999809E+01 0. -1.
       -4    1    3    3    0  502  0.11960799592E+04  0.46539177445E+03  0.77379174599E+03  0.14986500764E+04  0.12699999809E+01 0.  1.
</event>
<event>
 5   0  0.4396257E-07  0.3290560E+04  0.7818609E-02  0.8165301E-01
       -2   -1    0    0    0  501  0.00000000000E+00  0.00000000000E+00  0.16644530341E+04  0.16644530341E+04  0.25500000920E-02 0.  1.
        2   -1    0    0  501    0  0.00000000000E+00  0.00000000000E+00 -0.16263282300E+04  0.16263282300E+04  0.25500000920E-02 0. -1.
    10030    2    1    2    0    0  0.00000000000E+00  0.00000000000E+00  0.38124804125E+02  0.32907812642E+04  0.32905604124E+04 0.  0.
        2    1    3    3  502    0 -0.45752208156E+03  0.12737108960E+04  0.95468975912E+03  0.16562301887E+04  0.25500000920E-02 0.  1.
       -2    1    3    3    0  502  0.45752208156E+03 -0.12737108960E+04 -0.91656495499E+03  0.16345510755E+04  0.25500000920E-02 0. -1.
</event>
<event>
 5   0  0.4521737E-07  0.3391580E+04  0.7818609E-02  0.8139976E-01
       -2   -1    0    0    0  501  0.00000000000E+00  0.00000000000E+00  0.14794119667E+04  0.14794119667E+04  0.25500000920E-02 0.  1.
        2   -1    0    0  501    0  0.00000000000E+00  0.00000000000E+00 -0.19438157229E+04  0.19438157229E+04  0.25500000920E-02 0. -1.
    10030    2    1    2    0    0  0.00000000000E+00  0.00000000000E+00 -0.46440375626E+03  0.34232276896E+04  0.33915803051E+04 0.  0.
        4    1    3    3  502    0  0.60093500635E+03  0.50130479057E+03  0.12862540007E+04  0.15056162666E+04  0.12699999809E+01 0.  1.
       -4    1    3    3    0  502 -0.60093500635E+03 -0.50130479057E+03 -0.17506577570E+04  0.19176114231E+04  0.12699999809E+01 0. -1.
</event>
<event>
 5   0  0.4486226E-07  0.3424970E+04  0.7818609E-02  0.8131805E-01
       -2   -1    0    0    0  501  0.00000000000E+00  0.00000000000E+00  0.12733791528E+04  0.12733791528E+04  0.25500000920E-02 0.  1.
        2   -1    0    0  501    0  0.00000000000E+00  0.00000000000E+00 -0.23030094107E+04  0.23030094107E+04  0.25500000920E-02 0. -1.
    10030    2    1    2    0    0  0.00000000000E+00  0.00000000000E+00 -0.10296302579E+04  0.35763885636E+04  0.34249695896E+04 0.  0.
        1    1    3    3  502    0  0.73236952015E+03  0.12562726505E+04  0.42961412418E+03  0.15162962712E+04  0.50400001928E-02 0.  1.
       -1    1    3    3    0  502 -0.73236952015E+03 -0.12562726505E+04 -0.14592443821E+04  0.20600922924E+04  0.50400001928E-02 0. -1.
</event>
<event>
 5   0  0.4381939E-07  0.3386350E+04  0.7818609E-02  0.8141265E-01
       -2   -1    0    0    0  501  0.00000000000E+00  0.00000000000E+00  0.11700422211E+04  0.11700422211E+04  0.25500000920E-02 0. -1.
        2   -1    0    0  501    0  0.00000000000E+00  0.00000000000E+00 -0.24502030730E+04  0.24502030730E+04  0.25500000920E-02 0.  1.
    10030    2    1    2    0    0  0.00000000000E+00  0.00000000000E+00 -0.12801608519E+04  0.36202452942E+04  0.33863496841E+04 0.  0.
        3    1    3    3  502    0  0.13672651919E+03  0.95321698835E+03  0.84877937467E+03  0.12836445010E+04  0.10100000352E+00 0. -1.
       -3    1    3    3    0  502 -0.13672651919E+03 -0.95321698835E+03 -0.21289402266E+04  0.23366007931E+04  0.10100000352E+00 0.  1.
</event>
<event>
 5   0  0.1473755E-07  0.3393315E+04  0.7818609E-02  0.8139549E-01
       -1   -1    0    0    0  501  0.00000000000E+00  0.00000000000E+00  0.18358512343E+04  0.18358512343E+04  0.50400001928E-02 0.  1.
        1   -1    0    0  501    0  0.00000000000E+00  0.00000000000E+00 -0.15680173823E+04  0.15680173823E+04  0.50400001928E-02 0. -1.
    10030    2    1    2    0    0  0.00000000000E+00  0.00000000000E+00  0.26783385198E+03  0.34038686166E+04  0.33933149849E+04 0.  0.
        1    1    3    3  502    0 -0.47921689196E+03 -0.10311347480E+04  0.13971026220E+04  0.18013282417E+04  0.50400001928E-02 0.  1.
       -1    1    3    3    0  502  0.47921689196E+03  0.10311347480E+04 -0.11292687700E+04  0.16025403749E+04  0.50400001928E-02 0. -1.
</event>
<event>
 5   0  0.4396257E-07  0.3397709E+04  0.7818609E-02  0.8138469E-01
        2   -1    0    0  501    0  0.00000000000E+00  0.00000000000E+00  0.19853827318E+04  0.19853827318E+04  0.25500000920E-02 0.  1.
       -2   -1    0    0    0  501  0.00000000000E+00  0.00000000000E+00 -0.14536775265E+04  0.14536775265E+04  0.25500000920E-02 0. -1.
    10030    2    1    2    0    0  0.00000000000E+00  0.00000000000E+00  0.53170520529E+03  0.34390602583E+04  0.33977087919E+04 0.  0.
        2    1    3    3  502    0 -0.14830184717E+04 -0.82575937954E+03  0.33658816828E+03  0.17304663924E+04  0.25500000920E-02 0. -1.
       -2    1    3    3    0  502  0.14830184717E+04  0.82575937954E+03  0.19511703700E+03  0.17085938659E+04  0.25500000920E-02 0.  1.
</event>
<event>
 5   0  0.1523259E-07  0.3406674E+04  0.7818609E-02  0.8136270E-01
        1   -1    0    0  501    0  0.00000000000E+00  0.00000000000E+00  0.10701129896E+04  0.10701129896E+04  0.50400001928E-02 0. -1.
       -1   -1    0    0    0  501  0.00000000000E+00  0.00000000000E+00 -0.27112617769E+04  0.27112617769E+04  0.50400001928E-02 0.  1.
    10030    2    1    2    0    0  0.00000000000E+00  0.00000000000E+00 -0.16411487873E+04  0.37813747665E+04  0.34066737124E+04 0.  0.
        4    1    3    3  502    0 -0.15436052998E+04  0.71595160707E+03 -0.73423164912E+03  0.18532138983E+04  0.12699999809E+01 0. -1.
       -4    1    3    3    0  502  0.15436052998E+04 -0.71595160707E+03 -0.90691713815E+03  0.19281608682E+04  0.12699999809E+01 0.  1.
</event>
<event>
 5   0  0.4396257E-07  0.3394762E+04  0.7818609E-02  0.8139193E-01
        2   -1    0    0  501    0  0.00000000000E+00  0.00000000000E+00  0.97796569447E+03  0.97796569447E+03  0.25500000920E-02 0.  1.
       -2   -1    0    0    0  501  0.00000000000E+00  0.00000000000E+00 -0.29460155508E+04  0.29460155508E+04  0.25500000920E-02 0. -1.
    10030    2    1    2    0    0  0.00000000000E+00  0.00000000000E+00 -0.19680498563E+04  0.39239812452E+04  0.33947619322E+04 0.  0.
        2    1    3    3  502    0  0.10231030038E+04 -0.31767165240E+03  0.53782874549E+03  0.11987138085E+04  0.25500000920E-02 0.  1.
       -2    1    3    3    0  502 -0.10231030038E+04  0.31767165240E+03 -0.25058786018E+04  0.27252674368E+04  0.25500000920E-02 0. -1.
</event>
<event>
 5   0  0.4521737E-07  0.3402835E+04  0.7818609E-02  0.8137211E-01
        2   -1    0    0  501    0  0.00000000000E+00  0.00000000000E+00  0.25965803340E+04  0.25965803340E+04  0.25500000920E-02 0.  1.
       -2   -1    0    0    0  501  0.00000000000E+00  0.00000000000E+00 -0.11148593711E+04  0.11148593711E+04  0.25500000920E-02 0. -1.
    10030    2    1    2    0    0  0.00000000000E+00  0.00000000000E+00  0.14817209629E+04  0.37114397050E+04  0.34028352402E+04 0.  0.
        4    1    3    3  502    0 -0.77261047893E+03  0.50711894020E+03  0.22989542671E+04  0.24777588476E+04  0.12699999809E+01 0.  1.
       -4    1    3    3    0  502  0.77261047893E+03 -0.50711894020E+03 -0.81723330419E+03  0.12336808574E+04  0.12699999809E+01 0. -1.
</event>
<event>
 5   0  0.1473755E-07  0.3400174E+04  0.7818609E-02  0.8137864E-01
       -1   -1    0    0    0  501  0.00000000000E+00  0.00000000000E+00  0.18247237352E+04  0.18247237352E+04  0.50400001928E-02 0.  1.
        1   -1    0    0  501    0  0.00000000000E+00  0.00000000000E+00 -0.15839631161E+04  0.15839631161E+04  0.50400001928E-02 0. -1.
    10030    2    1    2    0    0  0.00000000000E+00  0.00000000000E+00  0.24076061912E+03  0.34086868513E+04  0.34001735800E+04 0.  0.
        1    1    3    3  502    0  0.10509112893E+04 -0.33697603236E+03 -0.11760426380E+04  0.16127751458E+04  0.50400001928E-02 0. -1.
       -1    1    3    3    0  502 -0.10509112893E+04  0.33697603236E+03  0.14168032571E+04  0.17959117055E+04  0.50400001928E-02 0.  1.
</event>
<event>
 5   0  0.1421875E-07  0.3392721E+04  0.7818609E-02  0.8139695E-01
       -1   -1    0    0    0  501  0.00000000000E+00  0.00000000000E+00  0.10353653307E+04  0.10353653307E+04  0.50400001928E-02 0.  1.
        1   -1    0    0  501    0  0.00000000000E+00  0.00000000000E+00 -0.27793456626E+04  0.27793456626E+04  0.50400001928E-02 0. -1.
    10030    2    1    2    0    0  0.00000000000E+00  0.00000000000E+00 -0.17439803318E+04  0.38147109933E+04  0.33927205256E+04 0.  0.
        5    1    3    3  502    0 -0.44255005306E+03  0.24522179886E+02 -0.27130811775E+04  0.27490513732E+04  0.46999998093E+01 0. -1.
       -5    1    3    3    0  502  0.44255005306E+03 -0.24522179886E+02  0.96910084568E+03  0.10656596201E+04  0.46999998093E+01 0.  1.
</event>
<event>
 5   0  0.4381939E-07  0.3431981E+04  0.7818609E-02  0.8130101E-01
        2   -1    0    0  501    0  0.00000000000E+00  0.00000000000E+00  0.14513021426E+04  0.14513021426E+04  0.25500000920E-02 0.  1.
       -2   -1    0    0    0  501  0.00000000000E+00  0.00000000000E+00 -0.20289532788E+04  0.20289532788E+04  0.25500000920E-02 0. -1.
    10030    2    1    2    0    0  0.00000000000E+00  0.00000000000E+00 -0.57765113621E+03  0.34802554214E+04  0.34319814922E+04 0.  0.
        3    1    3    3  502    0 -0.10202605264E+04 -0.13051673063E+04  0.16494030498E+03  0.16648118673E+04  0.10100000352E+00 0.  1.
       -3    1    3    3    0  502  0.10202605264E+04  0.13051673063E+04 -0.74259144119E+03  0.18154435540E+04  0.10100000352E+00 0. -1.
</event>
<event>
 5   0  0.1421875E-07  0.3385864E+04  0.7818609E-02  0.8141384E-01
        1   -1    0    0  501    0  0.00000000000E+00  0.00000000000E+00  0.21083830252E+04  0.21083830252E+04  0.50400001928E-02 0. -1.
       -1   -1    0    0    0  501  0.00000000000E+00  0.00000000000E+00 -0.13593445003E+04  0.13593445003E+04  0.50400001928E-02 0.  1.
    10030    2    1    2    0    0  0.00000000000E+00  0.00000000000E+00  0.74903852492E+03  0.34677275255E+04  0.33858640669E+04 0.  0.
        5    1    3    3  502    0  0.12686640812E+04  0.10329049902E+04 -0.71434129474E+02  0.16375366239E+04  0.46999998093E+01 0.  1.
       -5    1    3    3    0  502 -0.12686640812E+04 -0.10329049902E+04  0.82047265440E+03  0.18301909016E+04  0.46999998093E+01 0. -1.
</event>
<event>
 5   0  0.1523259E-07  0.3406892E+04  0.7818609E-02  0.8136217E-01
        1   -1    0    0  501    0  0.00000000000E+00  0.00000000000E+00  0.88149662316E+03  0.88149662317E+03  0.50400001928E-02 0.  1.
       -1   -1    0    0    0  501  0.00000000000E+00  0.00000000000E+00 -0.32918207459E+04  0.32918207459E+04  0.50400001928E-02 0. -1.
    10030    2    1    2    0    0  0.00000000000E+00  0.00000000000E+00 -0.24103241227E+04  0.41733173691E+04  0.34068923503E+04 0.  0.
        4    1    3    3  502    0  0.75535041507E+03  0.13515376172E+04 -0.33507682691E+03  0.15841358127E+04  0.12699999809E+01 0.  1.
       -4    1    3    3    0  502 -0.75535041507E+03 -0.13515376172E+04 -0.20752472958E+04  0.25891815564E+04  0.12699999809E+01 0. -1.
</event>
<event>
 5   0  0.4521737E-07  0.3403715E+04  0.7818609E-02  0.8136995E-01
       -2   -1    0    0    0  501  0.00000000000E+00  0.00000000000E+00  0.12659978927E+04  0.12659978927E+04  0.25500000920E-02 0. -1.
        2   -1    0    0  501    0  0.00000000000E+00  0.00000000000E+00 -0.22877757949E+04  0.22877757949E+04  0.25500000920E-02 0.  1.
    10030    2    1    2    0    0  0.00000000000E+00  0.00000000000E+00 -0.10217779022E+04  0.35537736877E+04  0.34037152263E+04 0.  0.
        4    1    3    3  502    0  0.18387362528E+02 -0.60770240450E+03  0.11487417084E+04  0.12997112883E+04  0.12699999809E+01 0. -1.
       -4    1    3    3    0  502 -0.18387362528E+02  0.60770240450E+03 -0.21705196106E+04  0.22540623994E+04  0.12699999809E+01 0.  1.
</event>
<event>
 5   0  0.4486226E-07  0.3399810E+04  0.7818609E-02  0.8137953E-01
        2   -1    0    0  501    0  0.00000000000E+00  0.00000000000E+00  0.17173393838E+04  0.17173393839E+04  0.25500000920E-02 0. -1.
       -2   -1    0    0    0  501  0.00000000000E+00  0.00000000000E+00 -0.16826477368E+04  0.16826477368E+04  0.25500000920E-02 0.  1.
    10030    2    1    2    0    0  0.00000000000E+00  0.00000000000E+00  0.34691647035E+02  0.33999871207E+04  0.33998101286E+04 0.  0.
        1    1    3    3  502    0 -0.14257999100E+03  0.10961189289E+04  0.13088740380E+04  0.17131716223E+04  0.50400001928E-02 0. -1.
       -1    1    3    3    0  502  0.14257999100E+03 -0.10961189289E+04 -0.12741823909E+04  0.16868154984E+04  0.50400001928E-02 0.  1.
</event>
<event>
 5   0  0.1520084E-07  0.3397326E+04  0.7818609E-02  0.8138563E-01
        1   -1    0    0  501    0  0.00000000000E+00  0.00000000000E+00  0.30165212544E+04  0.30165212544E+04  0.50400001928E-02 0.  1.
       -1   -1    0    0    0  501  0.00000000000E+00  0.00000000000E+00 -0.95655065548E+03  0.95655065549E+03  0.50400001928E-02 0. -1.
    10030    2    1    2    0    0  0.00000000000E+00  0.00000000000E+00  0.20599705989E+04  0.39730719099E+04  0.33973256442E+04 0.  0.
        2    1    3    3  502    0 -0.10088519781E+04  0.34916992456E+03 -0.51520047286E+03  0.11853832618E+04  0.25500000920E-02 0. -1.
       -2    1    3    3    0  502  0.10088519781E+04 -0.34916992456E+03  0.25751710718E+04  0.27876886481E+04  0.25500000920E-02 0.  1.
</event>
<event>
 5   0  0.4396257E-07  0.3357890E+04  0.7818609E-02  0.8148320E-01
        2   -1    0    0  501    0  0.00000000000E+00  0.00000000000E+00  0.18984922321E+04  0.18984922321E+04  0.25500000920E-02 0. -1.
       -2   -1    0    0    0  501  0.00000000000E+00  0.00000000000E+00 -0.14847865013E+04  0.14847865013E+04  0.25500000920E-02 0.  1.
    10030    2    1    2    0    0  0.00000000000E+00  0.00000000000E+00  0.41370573078E+03  0.33832787334E+04  0.33578895986E+04 0.  0.
        2    1    3    3  502    0 -0.47638242402E+03 -0.14296956482E+03  0.18225595797E+04  0.18892072231E+04  0.25500000920E-02 0. -1.
       -2    1    3    3    0  502  0.47638242402E+03  0.14296956482E+03 -0.14088538489E+04  0.14940715103E+04  0.25500000920E-02 0.  1.
</event>
<event>
 5   0  0.4486226E-07  0.3399640E+04  0.7818609E-02  0.8137995E-01
        2   -1    0    0  501    0  0.00000000000E+00  0.00000000000E+00  0.15962461323E+04  0.15962461323E+04  0.25500000920E-02 0. -1.
       -2   -1    0    0    0  501  0.00000000000E+00  0.00000000000E+00 -0.18101148501E+04  0.18101148501E+04  0.25500000920E-02 0.  1.
    10030    2    1    2    0    0  0.00000000000E+00  0.00000000000E+00 -0.21386871787E+03  0.34063609824E+04  0.33996404683E+04 0.  0.
        1    1    3    3  502    0  0.35809044584E+03  0.80332792265E+03 -0.15643971652E+04  0.17946874405E+04  0.50400001928E-02 0.  1.
       -1    1    3    3    0  502 -0.35809044584E+03 -0.80332792265E+03  0.13505284473E+04  0.16116735419E+04  0.50400001928E-02 0. -1.
</event>
<event>
 5   0  0.4381939E-07  0.3390750E+04  0.7818609E-02  0.8140180E-01
        2   -1    0    0  501    0  0.00000000000E+00  0.00000000000E+00  0.20130609195E+04  0.20130609195E+04  0.25500000920E-02 0. -1.
       -2   -1    0    0    0  501  0.00000000000E+00  0.00000000000E+00 -0.14278238623E+04  0.14278238623E+04  0.25500000920E-02 0.  1.
    10030    2    1    2    0    0  0.00000000000E+00  0.00000000000E+00  0.58523705722E+03  0.34408847818E+04  0.33907500156E+04 0.  0.
        3    1    3    3  502    0 -0.71811811689E+03  0.34237055305E+03 -0.12266432297E+04  0.14620413293E+04  0.10100000352E+00 0.  1.
       -3    1    3    3    0  502  0.71811811689E+03 -0.34237055305E+03  0.18118802869E+04  0.19788434525E+04  0.10100000352E+00 0. -1.
</event>
<event>
 5   0  0.4396257E-07  0.3393615E+04  0.7818609E-02  0.8139475E-01
       -2   -1    0    0    0  501  0.00000000000E+00  0.00000000000E+00  0.19029405162E+04  0.19029405162E+04  0.25500000920E-02 0. -1.
        2   -1    0    0  501    0  0.00000000000E+00  0.00000000000E+00 -0.15130032401E+04  0.15130032401E+04  0.25500000920E-02 0.  1.
    10030    2    1    2    0    0  0.00000000000E+00  0.00000000000E+00  0.38993727609E+03  0.34159437564E+04  0.33936146905E+04 0.  0.
        2    1    3    3  502    0 -0.94267627399E+03 -0.46169127057E+03  0.15369163989E+04  0.18611580814E+04  0.25500000920E-02 0. -1.
       -2    1    3    3    0  502  0.94267627399E+03  0.46169127057E+03 -0.11469791228E+04  0.15547856750E+04  0.25500000920E-02 0.  1.
</event>
<event>
 5   0  0.1421875E-07  0.3435747E+04  0.7818609E-02  0.8129188E-01
       -1   -1    0    0    0  501  0.00000000000E+00  0.00000000000E+00  0.12320715109E+04  0.12320715109E+04  0.50400001928E-02 0.  1.
        1   -1    0    0  501    0  0.00000000000E+00  0.00000000000E+00 -0.23952260505E+04  0.23952260506E+04  0.50400001928E-02 0. -1.
    10030    2    1    2    0    0  0.00000000000E+00  0.00000000000E+00 -0.11631545397E+04  0.36272975614E+04  0.34357472427E+04 0.  0.
        5    1    3    3  502    0 -0.11108336440E+04  0.19164121563E+02 -0.19648741071E+04  0.22572263943E+04  0.46999998093E+01 0. -1.
       -5    1    3    3    0  502  0.11108336440E+04 -0.19164121563E+02  0.80171956744E+03  0.13700711671E+04  0.46999998093E+01 0.  1.
</event>
<event>
 5   0  0.4521737E-07  0.3384637E+04  0.7818609E-02  0.8141687E-01
        2   -1    0    0  501    0  0.00000000000E+00  0.00000000000E+00  0.18226034270E+04  0.18226034270E+04  0.25500000920E-02 0. -1.
       -2   -1    0    0    0  501  0.00000000000E+00  0.00000000000E+00 -0.15713468887E+04  0.15713468887E+04  0.25500000920E-02 0.  1.
    10030    2    1    2    0    0  0.00000000000E+00  0.00000000000E+00  0.25125653823E+03  0.33939503157E+04  0.33846371884E+04 0.  0.
        4    1    3    3  502    0 -0.50514675171E+03 -0.14938520438E+04  0.74146262129E+03  0.17425658098E+04  0.12699999809E+01 0. -1.
       -4    1    3    3    0  502  0.50514675171E+03  0.14938520438E+04 -0.49020608306E+03  0.16513845059E+04  0.12699999809E+01 0.  1.
</event>
<event>
 5   0  0.1435806E-07  0.3405083E+04  0.7818609E-02  0.8136660E-01
        1   -1    0    0  501    0  0.00000000000E+00  0.00000000000E+00  0.17524295145E+04  0.17524295145E+04  0.50400001928E-02 0.  1.
       -1   -1    0    0    0  501  0.00000000000E+00  0.00000000000E+00 -0.16540733991E+04  0.16540733991E+04  0.50400001928E-02 0. -1.
    10030    2    1    2    0    0  0.00000000000E+00  0.00000000000E+00  0.98356115440E+02  0.34065029137E+04  0.34050826973E+04 0.  0.
        3    1    3    3  502    0 -0.27109249216E+03  0.39444867961E+03 -0.15853841104E+04  0.16560566681E+04  0.10100000352E+00 0. -1.
       -3    1    3    3    0  502  0.27109249216E+03 -0.39444867961E+03  0.16837402259E+04  0.17504462456E+04  0.10100000352E+00 0.  1.
</event>
<event>
 5   0  0.1435806E-07  0.3395013E+04  0.7818609E-02  0.8139131E-01
       -1   -1    0    0    0  501  0.00000000000E+00  0.00000000000E+00  0.13797578034E+04  0.13797578034E+04  0.50400001928E-02 0.  1.
        1   -1    0    0  501    0  0.00000000000E+00  0.00000000000E+00 -0.20884299232E+04  0.20884299232E+04  0.50400001928E-02 0. -1.
    10030    2    1    2    0    0  0.00000000000E+00  0.00000000000E+00 -0.70867211976E+03  0.34681877266E+04  0.33950125087E+04 0.  0.
        3    1    3    3  502    0  0.15246996971E+04 -0.48989162085E+03 -0.92933971046E+03  0.18515872311E+04  0.10100000352E+00 0. -1.
       -3    1    3    3    0  502 -0.15246996971E+04  0.48989162085E+03  0.22066759070E+03  0.16166004956E+04  0.10100000352E+00 0.  1.
</event>
<event>
 5   0  0.4381939E-07  0.3461090E+04  0.7818609E-02  0.8123074E-01
        2   -1    0    0  501    0  0.00000000000E+00  0.00000000000E+00  0.21131929244E+04  0.21131929244E+04  0.25500000920E-02 0.  1.
       -2   -1    0    0    0  501  0.00000000000E+00  0.00000000000E+00 -0.14171851040E+04  0.14171851040E+04  0.25500000920E-02 0. -1.
    10030    2    1    2    0    0  0.00000000000E+00  0.00000000000E+00  0.69600782042E+03  0.35303780284E+04  0.34610897326E+04 0.  0.
        3    1    3    3  502    0  0.43302828912E+03 -0.52791238566E+03 -0.12739807703E+04  0.14454175866E+04  0.10100000352E+00 0. -1.
       -3    1    3    3    0  502 -0.43302828912E+03  0.52791238566E+03  0.19699885908E+04  0.20849604418E+04  0.10100000352E+00 0.  1.
</event>
<event>
 5   0  0.1435806E-07  0.3491749E+04  0.7818609E-02  0.8115748E-01
       -1   -1    0    0    0  501  0.00000000000E+00  0.00000000000E+00  0.11154952952E+04  0.11154952952E+04  0.50400001928E-02 0.  1.
        1   -1    0    0  501    0  0.00000000000E+00  0.00000000000E+00 -0.27324877164E+04  0.27324877164E+04  0.50400001928E-02 0. -1.
    10030    2    1    2    0    0  0.00000000000E+00  0.00000000000E+00 -0.16169924212E+04  0.38479830116E+04  0.34917486690E+04 0.  0.
        3    1    3    3  502    0  0.33342882548E+03 -0.62570951593E+03 -0.25666924089E+04  0.26628175139E+04  0.10100000352E+00 0. -1.
       -3    1    3    3    0  502 -0.33342882548E+03  0.62570951593E+03  0.94969998774E+03  0.11851654977E+04  0.10100000352E+00 0.  1.
</event>
<event>
 5   0  0.1523259E-07  0.3422456E+04  0.7818609E-02  0.8132417E-01
       -1   -1    0    0    0  501  0.00000000000E+00  0.00000000000E+00  0.11880561298E+04  0.11880561298E+04  0.50400001928E-02 0. -1.
        1   -1    0    0  501    0  0.00000000000E+00  0.00000000000E+00 -0.24647830987E+04  0.24647830987E+04  0.50400001928E-02 0.  1.
    10030    2    1    2    0    0  0.00000000000E+00  0.00000000000E+00 -0.12767269689E+04  0.36528392285E+04  0.34224556500E+04 0.  0.
        4    1    3    3  502    0 -0.54212602963E+03  0.12018433041E+04 -0.18026528630E+04  0.22333577674E+04  0.12699999809E+01 0.  1.
       -4    1    3    3    0  502  0.54212602963E+03 -0.12018433041E+04  0.52592589410E+03  0.14194814611E+04  0.12699999809E+01 0. -1.
</event>
<event>
 5   0  0.1421875E-07  0.3457004E+04  0.7818609E-02  0.8124056E-01
       -1   -1    0    0    0  501  0.00000000000E+00  0.00000000000E+00  0.12905259825E+04  0.12905259825E+04  0.50400001928E-02 0.  1.
        1   -1    0    0  501    0  0.00000000000E+00  0.00000000000E+00 -0.23151171411E+04  0.23151171411E+04  0.50400001928E-02 0. -1.
    10030    2    1    2    0    0  0.00000000000E+00  0.00000000000E+00 -0.10245911586E+04  0.36056431236E+04  0.34570038028E+04 0.  0.
        5    1    3    3  502    0  0.17428498342E+03 -0.23094970587E+03 -0.22896742739E+04  0.23078872140E+04  0.46999998093E+01 0. -1.
       -5    1    3    3    0  502 -0.17428498342E+03  0.23094970587E+03  0.12650831153E+04  0.12977559096E+04  0.46999998093E+01 0.  1.
</event>
<event>
 5   0  0.1523259E-07  0.3433909E+04  0.7818609E-02  0.8129634E-01
       -1   -1    0    0    0  501  0.00000000000E+00  0.00000000000E+00  0.18929127369E+04  0.18929127370E+04  0.50400001928E-02 0. -1.
        1   -1    0    0  501    0  0.00000000000E+00  0.00000000000E+00 -0.15573528425E+04  0.15573528425E+04  0.50400001928E-02 0.  1.
    10030    2    1    2    0    0  0.00000000000E+00  0.00000000000E+00  0.33555989443E+03  0.34502655795E+04  0.34339091610E+04 0.  0.
        4    1    3    3  502    0  0.10486913050E+03  0.13565873504E+04 -0.88439695497E+03  0.16228020091E+04  0.12699999809E+01 0.  1.
       -4    1    3    3    0  502 -0.10486913050E+03 -0.13565873504E+04  0.12199568494E+04  0.18274635704E+04  0.12699999809E+01 0. -1.
</event>
<event>
 5   0  0.4381939E-07  0.3407066E+04  0.7818609E-02  0.8136174E-01
       -2   -1    0    0    0  501  0.00000000000E+00  0.00000000000E+00  0.15404854102E+04  0.15404854102E+04  0.25500000920E-02 0. -1.
        2   -1    0    0  501    0  0.00000000000E+00  0.00000000000E+00 -0.18838378966E+04  0.18838378966E+04  0.25500000920E-02 0.  1.
    10030    2    1    2    0    0  0.00000000000E+00  0.00000000000E+00 -0.34335248641E+03  0.34243233068E+04  0.34070660662E+04 0.  0.
        3    1    3    3  502    0 -0.62054014631E+03  0.14451626864E+04 -0.82955991228E+03  0.17781268013E+04  0.10100000352E+00 0.  1.
       -3    1    3    3    0  502  0.62054014631E+03 -0.14451626864E+04  0.48620742586E+03  0.16461965055E+04  0.10100000352E+00 0. -1.
</event>
<event>
 5   0  0.1473755E-07  0.3383198E+04  0.7818609E-02  0.8142042E-01
        1   -1    0    0  501    0  0.00000000000E+00  0.00000000000E+00  0.22336501330E+04  0.22336501330E+04  0.50400001928E-02 0. -1.
       -1   -1    0    0    0  501  0.00000000000E+00  0.00000000000E+00 -0.12810902977E+04  0.12810902977E+04  0.50400001928E-02 0.  1.
    10030    2    1    2    0    0  0.00000000000E+00  0.00000000000E+00  0.95255983535E+03  0.35147404307E+04  0.33831981992E+04 0.  0.
        1    1    3    3  502    0  0.45139042050E+03 -0.20896300499E+03  0.21559576824E+04  0.22125940382E+04  0.50400001928E-02 0. -1.
       -1    1    3    3    0  502 -0.45139042050E+03  0.20896300499E+03 -0.12033978471E+04  0.13021463925E+04  0.50400001928E-02 0.  1.
</event>
<event>
 5   0  0.4381939E-07  0.3372547E+04  0.7818609E-02  0.8144677E-01
       -2   -1    0    0    0  501  0.00000000000E+00  0.00000000000E+00  0.13440839142E+04  0.13440839142E+04  0.25500000920E-02 0. -1.
        2   -1    0    0  501    0  0.00000000000E+00  0.00000000000E+00 -0.21155806488E+04  0.21155806488E+04  0.25500000920E-02 0.  1.
    10030    2    1    2    0    0  0.00000000000E+00  0.00000000000E+00 -0.77149673461E+03  0.34596645630E+04  0.33725467642E+04 0.  0.
        3    1    3    3  502    0 -0.10698463737E+04 -0.77461111619E+02 -0.17204912684E+04  0.20274766834E+04  0.10100000352E+00 0.  1.
       -3    1    3    3    0  502  0.10698463737E+04  0.77461111619E+02  0.94899453377E+03  0.14321878796E+04  0.10100000352E+00 0. -1.
</event>
<event>
 5   0  0.4521737E-07  0.3396423E+04  0.7818609E-02  0.8138785E-01
       -2   -1    0    0    0  501  0.00000000000E+00  0.00000000000E+00  0.13667564624E+04  0.13667564624E+04  0.25500000920E-02 0.  1.
        2   -1    0    0  501    0  0.00000000000E+00  0.00000000000E+00 -0.21100484781E+04  0.21100484781E+04  0.25500000920E-02 0. -1.
    10030    2    1    2    0    0  0.00000000000E+00  0.00000000000E+00 -0.74329201569E+03  0.34768049405E+04  0.33964230558E+04 0.  0.
        4    1    3    3  502    0  0.45201516183E+03 -0.50791310209E+03 -0.19646329016E+04  0.20789606722E+04  0.12699999809E+01 0. -1.
       -4    1    3    3    0  502 -0.45201516183E+03  0.50791310209E+03  0.12213408859E+04  0.13978442683E+04  0.12699999809E+01 0.  1.
</event>
<event>
 5   0  0.1473755E-07  0.3415123E+04  0.7818609E-02  0.8134205E-01
        1   -1    0    0  501    0  0.00000000000E+00  0.00000000000E+00  0.14886996744E+04  0.14886996744E+04  0.50400001928E-02 0. -1.
       -1   -1    0    0    0  501  0.00000000000E+00  0.00000000000E+00 -0.19585993836E+04  0.19585993836E+04  0.50400001928E-02 0.  1.
    10030    2    1    2    0    0  0.00000000000E+00  0.00000000000E+00 -0.46989970922E+03  0.34472990580E+04  0.34151229932E+04 0.  0.
        1    1    3    3  502    0  0.13039842534E+04  0.83124872330E+03  0.49603932360E+03  0.16240087388E+04  0.50400001928E-02 0. -1.
       -1    1    3    3    0  502 -0.13039842534E+04 -0.83124872330E+03 -0.96593903282E+03  0.18232903192E+04  0.50400001928E-02 0.  1.
</event>
<event>
 5   0  0.1473755E-07  0.3508866E+04  0.7818609E-02  0.8111692E-01
        1   -1    0    0  501    0  0.00000000000E+00  0.00000000000E+00  0.22705644158E+04  0.22705644158E+04  0.50400001928E-02 0.  1.
       -1   -1    0    0    0  501  0.00000000000E+00  0.00000000000E+00 -0.13556252532E+04  0.13556252532E+04  0.50400001928E-02 0. -1.
    10030    2    1    2    0    0  0.00000000000E+00  0.00000000000E+00  0.91493916257E+03  0.36261896690E+04  0.35088656065E+04 0.  0.
        1    1    3    3  502    0 -0.23785545436E+03  0.34034737295E+03  0.22190537848E+04  0.22575675519E+04  0.50400001928E-02 0.  1.
       -1    1    3    3    0  502  0.23785545436E+03 -0.34034737295E+03 -0.13041146223E+04  0.13686221171E+04  0.50400001928E-02 0. -1.
</event>
<event>
 5   0  0.4396257E-07  0.3383149E+04  0.7818609E-02  0.8142055E-01
       -2   -1    0    0    0  501  0.00000000000E+00  0.00000000000E+00  0.21440773108E+04  0.21440773108E+04  0.25500000920E-02 0.  1.
        2   -1    0    0  501    0  0.00000000000E+00  0.00000000000E+00 -0.13345714067E+04  0.13345714067E+04  0.25500000920E-02 0. -1.
    10030    2    1    2    0    0  0.00000000000E+00  0.00000000000E+00  0.80950590410E+03  0.34786487176E+04  0.33831489905E+04 0.  0.
        2    1    3    3  502    0  0.34925825153E+03  0.14783266811E+03  0.20997981955E+04  0.21337732508E+04  0.25500000920E-02 0.  1.
       -2    1    3    3    0  502 -0.34925825153E+03 -0.14783266811E+03 -0.12902922914E+04  0.13448754668E+04  0.25500000920E-02 0. -1.
</event>
<event>
 5   0  0.4381939E-07  0.3440157E+04  0.7818609E-02  0.8128120E-01
        2   -1    0    0  501    0  0.00000000000E+00  0.00000000000E+00  0.17757971082E+04  0.17757971082E+04  0.25500000920E-02 0.  1.
       -2   -1    0    0    0  501  0.00000000000E+00  0.00000000000E+00 -0.16661080399E+04  0.16661080399E+04  0.25500000920E-02 0. -1.
    10030    2    1    2    0    0  0.00000000000E+00  0.00000000000E+00  0.10968906827E+03  0.34419051480E+04  0.34401568796E+04 0.  0.
        3    1    3    3  502    0  0.91170365047E+02  0.38337172135E+02  0.17729498956E+04  0.17757063712E+04  0.10100000352E+00 0.  1.
       -3    1    3    3    0  502 -0.91170365047E+02 -0.38337172135E+02 -0.16632608273E+04  0.16661987769E+04  0.10100000352E+00 0. -1.
</event>
<event>
 5   0  0.1523259E-07  0.3409765E+04  0.7818609E-02  0.8135514E-01
        1   -1    0    0  501    0  0.00000000000E+00  0.00000000000E+00  0.22200043546E+04  0.22200043546E+04  0.50400001928E-02 0.  1.
       -1   -1    0    0    0  501  0.00000000000E+00  0.00000000000E+00 -0.13092874454E+04  0.13092874454E+04  0.50400001928E-02 0. -1.
    10030    2    1    2    0    0  0.00000000000E+00  0.00000000000E+00  0.91071690920E+03  0.35292918000E+04  0.34097647017E+04 0.  0.
        4    1    3    3  502    0  0.16532190979E+04 -0.34183916266E+03  0.70168142478E+03  0.18282083671E+04  0.12699999809E+01 0.  1.
       -4    1    3    3    0  502 -0.16532190979E+04  0.34183916266E+03  0.20903548441E+03  0.17010834329E+04  0.12699999809E+01 0. -1.
</event>
<event>
 5   0  0.1520084E-07  0.3373313E+04  0.7818609E-02  0.8144487E-01
       -1   -1    0    0    0  501  0.00000000000E+00  0.00000000000E+00  0.15607741233E+04  0.15607741233E+04  0.50400001928E-02 0.  1.
        1   -1    0    0  501    0  0.00000000000E+00  0.00000000000E+00 -0.18226920069E+04  0.18226920069E+04  0.50400001928E-02 0. -1.
    10030    2    1    2    0    0  0.00000000000E+00  0.00000000000E+00 -0.26191788365E+03  0.33834661302E+04  0.33733132195E+04 0.  0.
        2    1    3    3  502    0 -0.87981778662E+03  0.71912043074E+03 -0.13811441334E+04  0.17885112940E+04  0.25500000920E-02 0. -1.
       -2    1    3    3    0  502  0.87981778662E+03 -0.71912043074E+03  0.11192262497E+04  0.15949548362E+04  0.25500000920E-02 0.  1.
</event>
<event>
 5   0  0.1473755E-07  0.3397003E+04  0.7818609E-02  0.8138642E-01
        1   -1    0    0  501    0  0.00000000000E+00  0.00000000000E+00  0.23790540573E+04  0.23790540573E+04  0.50400001928E-02 0. -1.
       -1   -1    0    0    0  501  0.00000000000E+00  0.00000000000E+00 -0.12126276101E+04  0.12126276102E+04  0.50400001928E-02 0.  1.
    10030    2    1    2    0    0  0.00000000000E+00  0.00000000000E+00  0.11664264472E+04  0.35916816675E+04  0.33970025823E+04 0.  0.
        1    1    3    3  502    0 -0.29174925868E+03 -0.13583791203E+04  0.16162399973E+04  0.21313242816E+04  0.50400001928E-02 0. -1.
       -1    1    3    3    0  502  0.29174925868E+03  0.13583791203E+04 -0.44981355014E+03  0.14603573859E+04  0.50400001928E-02 0.  1.
</event>
<event>
 5   0  0.4396257E-07  0.3412046E+04  0.7818609E-02  0.8134956E-01
        2   -1    0    0  501    0  0.00000000000E+00  0.00000000000E+00  0.28028187337E+04  0.28028187337E+04  0.25500000920E-02 0. -1.
       -2   -1    0    0    0  501  0.00000000000E+00  0.00000000000E+00 -0.10384238174E+04  0.10384238174E+04  0.25500000920E-02 0.  1.
    10030    2    1    2    0    0  0.00000000000E+00  0.00000000000E+00  0.17643949163E+04  0.38412425511E+04  0.34120455618E+04 0.  0.
        2    1    3    3  502    0 -0.39737235802E+03 -0.14014999815E+04 -0.11741595137E+03  0.14614696353E+04  0.25500000920E-02 0.  1.
       -2    1    3    3    0  502  0.39737235802E+03  0.14014999815E+04  0.18818108677E+04  0.23797729158E+04  0.25500000920E-02 0. -1.
</event>
<event>
 5   0  0.1421875E-07  0.3402000E+04  0.7818609E-02  0.8137416E-01
        1   -1    0    0  501    0  0.00000000000E+00  0.00000000000E+00  0.21984867161E+04  0.21984867161E+04  0.50400001928E-02 0.  1.
       -1   -1    0    0    0  501  0.00000000000E+00  0.00000000000E+00 -0.13160876107E+04  0.13160876107E+04  0.50400001928E-02 0. -1.
    10030    2    1    2    0    0  0.00000000000E+00  0.00000000000E+00  0.88239910541E+03  0.35145743268E+04  0.34020000761E+04 0.  0.
        5    1    3    3  502    0 -0.93739942045E+03  0.13135570390E+04 -0.11439699037E+03  0.16177943410E+04  0.46999998093E+01 0. -1.
       -5    1    3    3    0  502  0.93739942045E+03 -0.13135570390E+04  0.99679609578E+03  0.18967799859E+04  0.46999998093E+01 0.  1.
</event>
<event>
 5   0  0.1435806E-07  0.3429419E+04  0.7818609E-02  0.8130723E-01
       -1   -1    0    0    0  501  0.00000000000E+00  0.00000000000E+00  0.16076268599E+04  0.16076268599E+04  0.50400001928E-02 0. -1.
        1   -1    0    0  501    0  0.00000000000E+00  0.00000000000E+00 -0.18289248826E+04  0.18289248826E+04  0.50400001928E-02 0.  1.
    10030    2    1    2    0    0  0.00000000000E+00  0.00000000000E+00 -0.22129802265E+03  0.34365517425E+04  0.34294190563E+04 0.  0.
        3    1    3    3  502    0 -0.83918082048E+03  0.14262940764E+04 -0.56068162725E+03  0.17472558883E+04  0.10100000352E+00 0.  1.
       -3    1    3    3    0  502  0.83918082048E+03 -0.14262940764E+04  0.33938360460E+03  0.16892958542E+04  0.10100000352E+00 0. -1.
</event>
<event>
 5   0  0.4381939E-07  0.3296096E+04  0.7818609E-02  0.8163890E-01
       -2   -1    0    0    0  501  0.00000000000E+00  0.00000000000E+00  0.17691400690E+04  0.17691400690E+04  0.25500000920E-02 0. -1.
        2   -1    0    0  501    0  0.00000000000E+00  0.00000000000E+00 -0.15352440277E+04  0.15352440277E+04  0.25500000920E-02 0.  1.
    10030    2    1    2    0    0  0.00000000000E+00  0.00000000000E+00  0.23389604128E+03  0.33043840968E+04  0.32960957056E+04 0.  0.
        3    1    3    3  502    0  0.39974826779E+03  0.15009421373E+04  0.66918320673E+03  0.16912812160E+04  0.10100000352E+00 0. -1.
       -3    1    3    3    0  502 -0.39974826779E+03 -0.15009421373E+04 -0.43528716544E+03  0.16131028807E+04  0.10100000352E+00 0.  1.
</event>
<event>
 5   0  0.4381939E-07  0.3409028E+04  0.7818609E-02  0.8135694E-01
       -2   -1    0    0    0  501  0.00000000000E+00  0.00000000000E+00  0.11487500757E+04  0.11487500757E+04  0.25500000920E-02 0.  1.
        2   -1    0    0  501    0  0.00000000000E+00  0.00000000000E+00 -0.25291559497E+04  0.25291559497E+04  0.25500000920E-02 0. -1.
    10030    2    1    2    0    0  0.00000000000E+00  0.00000000000E+00 -0.13804058740E+04  0.36779060254E+04  0.34090280660E+04 0.  0.
        3    1    3    3  502    0  0.14763289180E+04 -0.20656152223E+03  0.20151838298E+03  0.15042687278E+04  0.10100000352E+00 0.  1.
       -3    1    3    3    0  502 -0.14763289180E+04  0.20656152223E+03 -0.15819242569E+04  0.21736372976E+04  0.10100000352E+00 0. -1.
</event>
<event>
 5   0  0.1473755E-07  0.3220890E+04  0.7818609E-02  0.8183322E-01
        1   -1    0    0  501    0  0.00000000000E+00  0.00000000000E+00  0.25497359194E+04  0.25497359194E+04  0.50400001928E-02 0.  1.
       -1   -1    0    0    0  501  0.00000000000E+00  0.00000000000E+00 -0.10171771906E+04  0.10171771906E+04  0.50400001928E-02 0. -1.
    10030    2    1    2    0    0  0.00000000000E+00  0.00000000000E+00  0.15325587287E+04  0.35669131100E+04  0.32208900753E+04 0.  0.
        1    1    3    3  502    0  0.27441786180E+03 -0.42727646751E+03  0.24587521960E+04  0.25106438823E+04  0.50400001928E-02 0.  1.
       -1    1    3    3    0  502 -0.27441786180E+03  0.42727646751E+03 -0.92619346724E+03  0.10562692277E+04  0.50400001928E-02 0. -1.
</event>
<event>
 5   0  0.4486226E-07  0.3396432E+04  0.7818609E-02  0.8138783E-01
       -2   -1    0    0    0  501  0.00000000000E+00  0.00000000000E+00  0.13777718502E+04  0.13777718502E+04  0.25500000920E-02 0.  1.
        2   -1    0    0  501    0  0.00000000000E+00  0.00000000000E+00 -0.20931897884E+04  0.20931897884E+04  0.25500000920E-02 0. -1.
    10030    2    1    2    0    0  0.00000000000E+00  0.00000000000E+00 -0.71541793823E+03  0.34709616385E+04  0.33964322266E+04 0.  0.
        1    1    3    3  502    0  0.15844358158E+04 -0.44600539764E+03 -0.78470562784E+03  0.18234913192E+04  0.50400001928E-02 0. -1.
       -1    1    3    3    0  502 -0.15844358158E+04  0.44600539764E+03  0.69287689609E+02  0.16474703193E+04  0.50400001928E-02 0.  1.
</event>
<event>
 5   0  0.1523259E-07  0.3285030E+04  0.7818609E-02  0.8166715E-01
        1   -1    0    0  501    0  0.00000000000E+00  0.00000000000E+00  0.15671064556E+04  0.15671064557E+04  0.50400001928E-02 0. -1.
       -1   -1    0    0    0  501  0.00000000000E+00  0.00000000000E+00 -0.17215526223E+04  0.17215526223E+04  0.50400001928E-02 0.  1.
    10030    2    1    2    0    0  0.00000000000E+00  0.00000000000E+00 -0.15444616663E+03  0.32886590779E+04  0.32850304280E+04 0.  0.
        4    1    3    3  502    0  0.17645683963E+03 -0.72939061062E+03 -0.15399006084E+04  0.17130216507E+04  0.12699999809E+01 0.  1.
       -4    1    3    3    0  502 -0.17645683963E+03  0.72939061062E+03  0.13854544418E+04  0.15756374273E+04  0.12699999809E+01 0. -1.
</event>
<event>
 5   0  0.1473755E-07  0.3414451E+04  0.7818609E-02  0.8134369E-01
       -1   -1    0    0    0  501  0.00000000000E+00  0.00000000000E+00  0.24043285836E+04  0.24043285836E+04  0.50400001928E-02 0. -1.
        1   -1    0    0  501    0  0.00000000000E+00  0.00000000000E+00 -0.12122384319E+04  0.12122384319E+04  0.50400001928E-02 0.  1.
    10030    2    1    2    0    0  0.00000000000E+00  0.00000000000E+00  0.11920901517E+04  0.36165670154E+04  0.34144513538E+04 0.  0.
        1    1    3    3  502    0 -0.92134994304E+03 -0.12566824336E+04 -0.14272525600E+03  0.15647705759E+04  0.50400001928E-02 0.  1.
       -1    1    3    3    0  502  0.92134994304E+03  0.12566824336E+04  0.13348154077E+04  0.20517964395E+04  0.50400001928E-02 0. -1.
</event>
<event>
 5   0  0.1520084E-07  0.3555628E+04  0.7818609E-02  0.8100732E-01
       -1   -1    0    0    0  501  0.00000000000E+00  0.00000000000E+00  0.20674413941E+04  0.20674413941E+04  0.50400001928E-02 0.  1.
        1   -1    0    0  501    0  0.00000000000E+00  0.00000000000E+00 -0.15287600305E+04  0.15287600305E+04  0.50400001928E-02 0. -1.
    10030    2    1    2    0    0  0.00000000000E+00  0.00000000000E+00  0.53868136356E+03  0.35962014246E+04  0.35556275219E+04 0.  0.
        2    1    3    3  502    0 -0.93520682467E+03 -0.15053313094E+04  0.12634984380E+03  0.17766818621E+04  0.25500000920E-02 0.  1.
       -2    1    3    3    0  502  0.93520682467E+03  0.15053313094E+04  0.41233151976E+03  0.18195195625E+04  0.25500000920E-02 0. -1.
</event>
<event>
 5   0  0.4486226E-07  0.3405893E+04  0.7818609E-02  0.8136461E-01
        2   -1    0    0  501    0  0.00000000000E+00  0.00000000000E+00  0.10292113714E+04  0.10292113714E+04  0.25500000920E-02 0.  1.
       -2   -1    0    0    0  501  0.00000000000E+00  0.00000000000E+00 -0.28177181137E+04  0.28177181137E+04  0.25500000920E-02 0. -1.
    10030    2    1    2    0    0  0.00000000000E+00  0.00000000000E+00 -0.17885067422E+04  0.38469294851E+04  0.34058934359E+04 0.  0.
        1    1    3    3  502    0  0.78451047256E+03  0.24870027285E+03  0.78968212917E+03  0.11405728264E+04  0.50400001928E-02 0.  1.
       -1    1    3    3    0  502 -0.78451047256E+03 -0.24870027285E+03 -0.25781888714E+04  0.27063566586E+04  0.50400001928E-02 0. -1.
</event>
<event>
 5   0  0.1523259E-07  0.3399139E+04  0.7818609E-02  0.8138118E-01
       -1   -1    0    0    0  501  0.00000000000E+00  0.00000000000E+00  0.11120191086E+04  0.11120191086E+04  0.50400001928E-02 0. -1.
        1   -1    0    0  501    0  0.00000000000E+00  0.00000000000E+00 -0.25975598578E+04  0.25975598578E+04  0.50400001928E-02 0.  1.
    10030    2    1    2    0    0  0.00000000000E+00  0.00000000000E+00 -0.14855407492E+04  0.37095789664E+04  0.33991388307E+04 0.  0.
        4    1    3    3  502    0 -0.72361234248E+03 -0.81374561712E+02  0.93315645570E+03  0.11836465795E+04  0.12699999809E+01 0. -1.
       -4    1    3    3    0  502  0.72361234248E+03  0.81374561712E+02 -0.24186972049E+04  0.25259323869E+04  0.12699999809E+01 0.  1.
</event>
<event>
 5   0  0.1520084E-07  0.3387455E+04  0.7818609E-02  0.8140992E-01
       -1   -1    0    0    0  501  0.00000000000E+00  0.00000000000E+00  0.15238458947E+04  0.15238458948E+04  0.50400001928E-02 0. -1.
        1   -1    0    0  501    0  0.00000000000E+00  0.00000000000E+00 -0.18825480063E+04  0.18825480063E+04  0.50400001928E-02 0.  1.
    10030    2    1    2    0    0  0.00000000000E+00  0.00000000000E+00 -0.35870211157E+03  0.34063939011E+04  0.33874551221E+04 0.  0.
        2    1    3    3  502    0 -0.13929401089E+04 -0.94302112987E+03  0.19598564901E+02  0.16822470395E+04  0.25500000920E-02 0.  1.
       -2    1    3    3    0  502  0.13929401089E+04  0.94302112987E+03 -0.37830067647E+03  0.17241468615E+04  0.25500000920E-02 0. -1.
</event>
<event>
 5   0  0.4396257E-07  0.3391314E+04  0.7818609E-02  0.8140041E-01
       -2   -1    0    0    0  501  0.00000000000E+00  0.00000000000E+00  0.10380852593E+04  0.10380852593E+04  0.25500000920E-02 0.  1.
        2   -1    0    0  501    0  0.00000000000E+00  0.00000000000E+00 -0.27697660523E+04  0.27697660523E+04  0.25500000920E-02 0. -1.
    10030    2    1    2    0    0  0.00000000000E+00  0.00000000000E+00 -0.17316807931E+04  0.38078513116E+04  0.33913143827E+04 0.  0.
        2    1    3    3  502    0  0.59449443588E+03 -0.12466488503E+04  0.23869967147E+03  0.14016185370E+04  0.25500000920E-02 0.  1.
       -2    1    3    3    0  502 -0.59449443588E+03  0.12466488503E+04 -0.19703804646E+04  0.24062327745E+04  0.25500000920E-02 0. -1.
</event>
<event>
 5   0  0.1435806E-07  0.3482623E+04  0.7818609E-02  0.8117920E-01
       -1   -1    0    0    0  501  0.00000000000E+00  0.00000000000E+00  0.19016933835E+04  0.19016933835E+04  0.50400001928E-02 0. -1.
        1   -1    0    0  501    0  0.00000000000E+00  0.00000000000E+00 -0.15944557568E+04  0.15944557568E+04  0.50400001928E-02 0.  1.
    10030    2    1    2    0    0  0.00000000000E+00  0.00000000000E+00  0.30723762666E+03  0.34961491403E+04  0.34826231281E+04 0.  0.
        3    1    3    3  502    0 -0.76774387575E+03 -0.10562895171E+04 -0.10028047379E+04  0.16464493783E+04  0.10100000352E+00 0.  1.
       -3    1    3    3    0  502  0.76774387575E+03  0.10562895171E+04  0.13100423645E+04  0.18496997621E+04  0.10100000352E+00 0. -1.
</event>
<event>
 5   0  0.4447909E-07  0.3417958E+04  0.7818609E-02  0.8133513E-01
       -2   -1    0    0    0  501  0.00000000000E+00  0.00000000000E+00  0.13653243935E+04  0.13653243935E+04  0.25500000920E-02 0.  1.
        2   -1    0    0  501    0  0.00000000000E+00  0.00000000000E+00 -0.21391315711E+04  0.21391315711E+04  0.25500000920E-02 0. -1.
    10030    2    1    2    0    0  0.00000000000E+00  0.00000000000E+00 -0.77380717759E+03  0.35044559647E+04  0.34179575861E+04 0.  0.
        5    1    3    3  502    0  0.87852125304E+03  0.12240164830E+04 -0.12138952212E+04  0.19348332333E+04  0.46999998093E+01 0. -1.
       -5    1    3    3    0  502 -0.87852125304E+03 -0.12240164830E+04  0.44008804362E+03  0.15696227313E+04  0.46999998093E+01 0.  1.
</event>
<event>
 5   0  0.1435806E-07  0.3387822E+04  0.7818609E-02  0.8140902E-01
        1   -1    0    0  501    0  0.00000000000E+00  0.00000000000E+00  0.22688013096E+04  0.22688013096E+04  0.50400001928E-02 0. -1.
       -1   -1    0    0    0  501  0.00000000000E+00  0.00000000000E+00 -0.12646918968E+04  0.12646918968E+04  0.50400001928E-02 0.  1.
    10030    2    1    2    0    0  0.00000000000E+00  0.00000000000E+00  0.10041094127E+04  0.35334932064E+04  0.33878220920E+04 0.  0.
        3    1    3    3  502    0  0.33387257202E+03 -0.57016471933E+03  0.21288567869E+04  0.22290334073E+04  0.10100000352E+00 0. -1.
       -3    1    3    3    0  502 -0.33387257202E+03  0.57016471933E+03 -0.11247473742E+04  0.13044597991E+04  0.10100000352E+00 0.  1.
</event>
<event>
 5   0  0.4396257E-07  0.3384147E+04  0.7818609E-02  0.8141808E-01
        2   -1    0    0  501    0  0.00000000000E+00  0.00000000000E+00  0.23652334396E+04  0.23652334396E+04  0.25500000920E-02 0. -1.
       -2   -1    0    0    0  501  0.00000000000E+00  0.00000000000E+00 -0.12104986960E+04  0.12104986960E+04  0.25500000920E-02 0.  1.
    10030    2    1    2    0    0  0.00000000000E+00  0.00000000000E+00  0.11547347436E+04  0.35757321355E+04  0.33841465655E+04 0.  0.
        2    1    3    3  502    0  0.15863873095E+04 -0.58863168253E+03  0.57715402036E+03  0.17877971688E+04  0.25500000920E-02 0.  1.
       -2    1    3    3    0  502 -0.15863873095E+04  0.58863168253E+03  0.57758072322E+03  0.17879349668E+04  0.25500000920E-02 0. -1.
</event>
<event>
 5   0  0.4396257E-07  0.3395557E+04  0.7818609E-02  0.8138998E-01
       -2   -1    0    0    0  501  0.00000000000E+00  0.00000000000E+00  0.11183329353E+04  0.11183329353E+04  0.25500000920E-02 0.  1.
        2   -1    0    0  501    0  0.00000000000E+00  0.00000000000E+00 -0.25774542372E+04  0.25774542372E+04  0.25500000920E-02 0. -1.
    10030    2    1    2    0    0  0.00000000000E+00  0.00000000000E+00 -0.14591213018E+04  0.36957871725E+04  0.33955570752E+04 0.  0.
        2    1    3    3  502    0 -0.90376550631E+03  0.13097729650E+04 -0.13736199714E+04  0.21021724801E+04  0.25500000920E-02 0. -1.
       -2    1    3    3    0  502  0.90376550631E+03 -0.13097729650E+04 -0.85501330418E+02  0.15936146924E+04  0.25500000920E-02 0.  1.
</event>
<event>
 5   0  0.1473755E-07  0.3387993E+04  0.7818609E-02  0.8140859E-01
       -1   -1    0    0    0  501  0.00000000000E+00  0.00000000000E+00  0.12503734790E+04  0.12503734790E+04  0.50400001928E-02 0. -1.
        1   -1    0    0  501    0  0.00000000000E+00  0.00000000000E+00 -0.22950137349E+04  0.22950137349E+04  0.50400001928E-02 0.  1.
    10030    2    1    2    0    0  0.00000000000E+00  0.00000000000E+00 -0.10446402558E+04  0.35453872139E+04  0.33879930981E+04 0.  0.
        1    1    3    3  502    0 -0.12906993719E+04  0.83348703743E+03 -0.12689202691E+04  0.19926776356E+04  0.50400001928E-02 0. -1.
       -1    1    3    3    0  502  0.12906993719E+04 -0.83348703743E+03  0.22428001330E+03  0.15527095783E+04  0.50400001928E-02 0.  1.
</event>
<event>
 5   0  0.4381939E-07  0.3405882E+04  0.7818609E-02  0.8136464E-01
        2   -1    0    0  501    0  0.00000000000E+00  0.00000000000E+00  0.23758251918E+04  0.23758251918E+04  0.25500000920E-02 0.  1.
       -2   -1    0    0    0  501  0.00000000000E+00  0.00000000000E+00 -0.12206321635E+04  0.12206321635E+04  0.25500000920E-02 0. -1.
    10030    2    1    2    0    0  0.00000000000E+00  0.00000000000E+00  0.11551930283E+04  0.35964573553E+04  0.34058823490E+04 0.  0.
        3    1    3    3  502    0  0.87741905546E+03  0.19575052091E+03  0.21048392531E+04  0.22887836851E+04  0.10100000352E+00 0.  1.
       -3    1    3    3    0  502 -0.87741905546E+03 -0.19575052091E+03 -0.94964622478E+03  0.13076736702E+04  0.10100000352E+00 0. -1.
</event>
<event>
 5   0  0.4396257E-07  0.3288531E+04  0.7818609E-02  0.8165820E-01
        2   -1    0    0  501    0  0.00000000000E+00  0.00000000000E+00  0.20148144430E+04  0.20148144430E+04  0.25500000920E-02 0. -1.
       -2   -1    0    0    0  501  0.00000000000E+00  0.00000000000E+00 -0.13418648416E+04  0.13418648416E+04  0.25500000920E-02 0.  1.
    10030    2    1    2    0    0  0.00000000000E+00  0.00000000000E+00  0.67294960136E+03  0.33566792846E+04  0.32885307744E+04 0.  0.
        2    1    3    3  502    0 -0.16357936207E+04  0.10421646136E+03  0.46927406375E+03  0.17049633390E+04  0.25500000920E-02 0.  1.
       -2    1    3    3    0  502  0.16357936207E+04 -0.10421646136E+03  0.20367553761E+03  0.16517159456E+04  0.25500000920E-02 0. -1.
</event>
<event>
 5   0  0.1435806E-07  0.3407631E+04  0.7818609E-02  0.8136036E-01
       -1   -1    0    0    0  501  0.00000000000E+00  0.00000000000E+00  0.30793933106E+04  0.30793933106E+04  0.50400001928E-02 0. -1.
        1   -1    0    0  501    0  0.00000000000E+00  0.00000000000E+00 -0.94271389894E+03  0.94271389896E+03  0.50400001928E-02 0.  1.
    10030    2    1    2    0    0  0.00000000000E+00  0.00000000000E+00  0.21366794116E+04  0.40221072095E+04  0.34076307747E+04 0.  0.
        3    1    3    3  502    0  0.30497056245E+03 -0.16755726380E+04  0.10100819759E+04  0.19801051278E+04  0.10100000352E+00 0. -1.
       -3    1    3    3    0  502 -0.30497056245E+03  0.16755726380E+04  0.11265974358E+04  0.20420020817E+04  0.10100000352E+00 0.  1.
</event>
<event>
 5   0  0.1421875E-07  0.3390331E+04  0.7818609E-02  0.8140284E-01
       -1   -1    0    0    0  501  0.00000000000E+00  0.00000000000E+00  0.10303067514E+04  0.10303067515E+04  0.50400001928E-02 0. -1.
        1   -1    0    0  501    0  0.00000000000E+00  0.00000000000E+00 -0.27890581400E+04  0.27890581400E+04  0.50400001928E-02 0.  1.
    10030    2    1    2    0    0  0.00000000000E+00  0.00000000000E+00 -0.17587513885E+04  0.38193648914E+04  0.33903306221E+04 0.  0.
        5    1    3    3  502    0 -0.48474904958E+03  0.13082718632E+04 -0.19640278238E+04  0.24091459673E+04  0.46999998093E+01 0.  1.
       -5    1    3    3    0  502  0.48474904958E+03 -0.13082718632E+04  0.20527643528E+03  0.14102189241E+04  0.46999998093E+01 0. -1.
</event>
<event>
 5   0  0.1523259E-07  0.3344562E+04  0.7818609E-02  0.8151648E-01
        1   -1    0    0  501    0  0.00000000000E+00  0.00000000000E+00  0.16810353662E+04  0.16810353662E+04  0.50400001928E-02 0. -1.
       -1   -1    0    0    0  501  0.00000000000E+00  0.00000000000E+00 -0.16635723948E+04  0.16635723948E+04  0.50400001928E-02 0.  1.
    10030    2    1    2    0    0  0.00000000000E+00  0.00000000000E+00  0.17462971359E+02  0.33446077610E+04  0.33445621716E+04 0.  0.
        4    1    3    3  502    0 -0.74911856219E+03  0.74166019779E+03  0.13069340477E+04  0.16790820966E+04  0.12699999809E+01 0. -1.
       -4    1    3    3    0  502  0.74911856219E+03 -0.74166019779E+03 -0.12894710763E+04  0.16655256644E+04  0.12699999809E+01 0.  1.
</event>
<event>
 5   0  0.4381939E-07  0.3413917E+04  0.7818609E-02  0.8134499E-01
        2   -1    0    0  501    0  0.00000000000E+00  0.00000000000E+00  0.18683943615E+04  0.18683943615E+04  0.25500000920E-02 0. -1.
       -2   -1    0    0    0  501  0.00000000000E+00  0.00000000000E+00 -0.15594712731E+04  0.15594712731E+04  0.25500000920E-02 0.  1.
    10030    2    1    2    0    0  0.00000000000E+00  0.00000000000E+00  0.30892308841E+03  0.34278656346E+04  0.34139170076E+04 0.  0.
        3    1    3    3  502    0  0.15882606619E+04 -0.51388531276E+03 -0.20344579623E+03  0.16816778071E+04  0.10100000352E+00 0.  1.
       -3    1    3    3    0  502 -0.15882606619E+04  0.51388531276E+03  0.51236888464E+03  0.17461878275E+04  0.10100000352E+00 0. -1.
</event>
<event>
 5   0  0.4396257E-07  0.3395936E+04  0.7818609E-02  0.8138904E-01
        2   -1    0    0  501    0  0.00000000000E+00  0.00000000000E+00  0.18830659377E+04  0.18830659377E+04  0.25500000920E-02 0. -1.
       -2   -1    0    0    0  501  0.00000000000E+00  0.00000000000E+00 -0.15310643676E+04  0.15310643676E+04  0.25500000920E-02 0.  1.
    10030    2    1    2    0    0  0.00000000000E+00  0.00000000000E+00  0.35200157012E+03  0.34141303053E+04  0.33959358999E+04 0.  0.
        2    1    3    3  502    0  0.10273806149E+04 -0.14724946712E+03  0.15270391353E+04  0.18463590805E+04  0.25500000920E-02 0. -1.
       -2    1    3    3    0  502 -0.10273806149E+04  0.14724946712E+03 -0.11750375652E+04  0.15677712247E+04  0.25500000920E-02 0.  1.
</event>
<event>
 5   0  0.4521737E-07  0.3396478E+04  0.7818609E-02  0.8138771E-01
        2   -1    0    0  501    0  0.00000000000E+00  0.00000000000E+00  0.15564738465E+04  0.15564738465E+04  0.25500000920E-02 0.  1.
       -2   -1    0    0    0  501  0.00000000000E+00  0.00000000000E+00 -0.18529162046E+04  0.18529162046E+04  0.25500000920E-02 0. -1.
    10030    2    1    2    0    0  0.00000000000E+00  0.00000000000E+00 -0.29644235804E+03  0.34093900511E+04  0.33964779476E+04 0.  0.
        4    1    3    3  502    0  0.82998990812E+03 -0.14764261964E+04 -0.24072229475E+02  0.16939004239E+04  0.12699999809E+01 0.  1.
       -4    1    3    3    0  502 -0.82998990812E+03  0.14764261964E+04 -0.27237012856E+03  0.17154896272E+04  0.12699999809E+01 0. -1.
</event>
<event>
 5   0  0.1520084E-07  0.3400725E+04  0.7818609E-02  0.8137728E-01
        1   -1    0    0  501    0  0.00000000000E+00  0.00000000000E+00  0.19537360585E+04  0.19537360585E+04  0.50400001928E-02 0.  1.
       -1   -1    0    0    0  501  0.00000000000E+00  0.00000000000E+00 -0.14798480495E+04  0.14798480495E+04  0.50400001928E-02 0. -1.
    10030    2    1    2    0    0  0.00000000000E+00  0.00000000000E+00  0.47388800894E+03  0.34335841080E+04  0.34007249200E+04 0.  0.
        2    1    3    3  502    0 -0.13642057738E+04 -0.46355914695E+03  0.11486015200E+04  0.18426149700E+04  0.25500000920E-02 0.  1.
       -2    1    3    3    0  502  0.13642057738E+04  0.46355914695E+03 -0.67471351103E+03  0.15909691380E+04  0.25500000920E-02 0. -1.
</event>
<event>
 5   0  0.4486226E-07  0.3380986E+04  0.7818609E-02  0.8142589E-01
       -2   -1    0    0    0  501  0.00000000000E+00  0.00000000000E+00  0.11570965730E+04  0.11570965730E+04  0.25500000920E-02 0. -1.
        2   -1    0    0  501    0  0.00000000000E+00  0.00000000000E+00 -0.24697728908E+04  0.24697728908E+04  0.25500000920E-02 0.  1.
    10030    2    1    2    0    0  0.00000000000E+00  0.00000000000E+00 -0.13126763178E+04  0.36268694638E+04  0.33809855060E+04 0.  0.
        1    1    3    3  502    0  0.40355489689E+03 -0.18081352339E+03 -0.24066290520E+04  0.24469191811E+04  0.50400001928E-02 0.  1.
       -1    1    3    3    0  502 -0.40355489689E+03  0.18081352339E+03  0.10939527341E+04  0.11799502827E+04  0.50400001928E-02 0. -1.
</event>
<event>
 5   0  0.4396257E-07  0.3403052E+04  0.7818609E-02  0.8137158E-01
        2   -1    0    0  501    0  0.00000000000E+00  0.00000000000E+00  0.10754373113E+04  0.10754373113E+04  0.25500000920E-02 0.  1.
       -2   -1    0    0    0  501  0.00000000000E+00  0.00000000000E+00 -0.26921062302E+04  0.26921062302E+04  0.25500000920E-02 0. -1.
    10030    2    1    2    0    0  0.00000000000E+00  0.00000000000E+00 -0.16166689189E+04  0.37675435414E+04  0.34030524450E+04 0.  0.
        2    1    3    3  502    0 -0.13806811792E+03  0.16702550533E+04 -0.11337123479E+04  0.20233928032E+04  0.25500000920E-02 0. -1.
       -2    1    3    3    0  502  0.13806811792E+03 -0.16702550533E+04 -0.48295657102E+03  0.17441507383E+04  0.25500000920E-02 0.  1.
</event>
<event>
 5   0  0.1473755E-07  0.3301208E+04  0.7818609E-02  0.8162588E-01
        1   -1    0    0  501    0  0.00000000000E+00  0.00000000000E+00  0.10157956462E+04  0.10157956462E+04  0.50400001928E-02 0.  1.
       -1   -1    0    0    0  501  0.00000000000E+00  0.00000000000E+00 -0.26821275015E+04  0.26821275015E+04  0.50400001928E-02 0. -1.
    10030    2    1    2    0    0  0.00000000000E+00  0.00000000000E+00 -0.16663318553E+04  0.36979231477E+04  0.33012079235E+04 0.  0.
        1    1    3    3  502    0  0.22351123419E+03 -0.12635337709E+04 -0.19962152289E+04  0.23730465866E+04  0.50400001928E-02 0. -1.
       -1    1    3    3    0  502 -0.22351123419E+03  0.12635337709E+04  0.32988337360E+03  0.13248765611E+04  0.50400001928E-02 0.  1.
</event>
<event>
 5   0  0.1421875E-07  0.3464374E+04  0.7818609E-02  0.8122285E-01
       -1   -1    0    0    0  501  0.00000000000E+00  0.00000000000E+00  0.14232303788E+04  0.14232303788E+04  0.50400001928E-02 0.  1.
        1   -1    0    0  501    0  0.00000000000E+00  0.00000000000E+00 -0.21082120359E+04  0.21082120359E+04  0.50400001928E-02 0. -1.
    10030    2    1    2    0    0  0.00000000000E+00  0.00000000000E+00 -0.68498165707E+03  0.35314424147E+04  0.34643737757E+04 0.  0.
        5    1    3    3  502    0  0.92452384430E+03 -0.10407218822E+04 -0.13932734824E+04  0.19695378802E+04  0.46999998093E+01 0. -1.
       -5    1    3    3    0  502 -0.92452384430E+03  0.10407218822E+04  0.70829182537E+03  0.15619045344E+04  0.46999998093E+01 0.  1.
</event>
<event>
 5   0  0.1523259E-07  0.3405711E+04  0.7818609E-02  0.8136506E-01
       -1   -1    0    0    0  501  0.00000000000E+00  0.00000000000E+00  0.13998034869E+04  0.13998034869E+04  0.50400001928E-02 0. -1.
        1   -1    0    0  501    0  0.00000000000E+00  0.00000000000E+00 -0.20715172929E+04  0.20715172929E+04  0.50400001928E-02 0.  1.
    10030    2    1    2    0    0  0.00000000000E+00  0.00000000000E+00 -0.67171380599E+03  0.34713207798E+04  0.34057111620E+04 0.  0.
        4    1    3    3  502    0 -0.14902533365E+04 -0.62211623346E+03 -0.88647859679E+03  0.18422077870E+04  0.12699999809E+01 0. -1.
       -4    1    3    3    0  502  0.14902533365E+04  0.62211623346E+03  0.21476479080E+03  0.16291129928E+04  0.12699999809E+01 0.  1.
</event>
<event>
 5   0  0.1435806E-07  0.3397123E+04  0.7818609E-02  0.8138613E-01
       -1   -1    0    0    0  501  0.00000000000E+00  0.00000000000E+00  0.12362302736E+04  0.12362302737E+04  0.50400001928E-02 0. -1.
        1   -1    0    0  501    0  0.00000000000E+00  0.00000000000E+00 -0.23337979143E+04  0.23337979143E+04  0.50400001928E-02 0.  1.
    10030    2    1    2    0    0  0.00000000000E+00  0.00000000000E+00 -0.10975676406E+04  0.35700281879E+04  0.33971232737E+04 0.  0.
        3    1    3    3  502    0 -0.90936624814E+03  0.50473453700E+03 -0.19600446840E+04  0.22188914123E+04  0.10100000352E+00 0.  1.
       -3    1    3    3    0  502  0.90936624814E+03 -0.50473453700E+03  0.86247704333E+03  0.13511367757E+04  0.10100000352E+00 0. -1.
</event>
<event>
 5   0  0.4381939E-07  0.3430109E+04  0.7818609E-02  0.8130556E-01
        2   -1    0    0  501    0  0.00000000000E+00  0.00000000000E+00  0.24148573553E+04  0.24148573553E+04  0.25500000920E-02 0. -1.
       -2   -1    0    0    0  501  0.00000000000E+00  0.00000000000E+00 -0.12180479966E+04  0.12180479966E+04  0.25500000920E-02 0.  1.
    10030    2    1    2    0    0  0.00000000000E+00  0.00000000000E+00  0.11968093587E+04  0.36329053519E+04  0.34301091316E+04 0.  0.
        3    1    3    3  502    0  0.62651221735E+03  0.11296900143E+04  0.17932407528E+04  0.22100745450E+04  0.10100000352E+00 0. -1.
       -3    1    3    3    0  502 -0.62651221735E+03 -0.11296900143E+04 -0.59643139414E+03  0.14228308068E+04  0.10100000352E+00 0.  1.
</event>
<event>
 5   0  0.1523259E-07  0.3393530E+04  0.7818609E-02  0.8139496E-01
        1   -1    0    0  501    0  0.00000000000E+00  0.00000000000E+00  0.19958695031E+04  0.19958695031E+04  0.50400001928E-02 0.  1.
       -1   -1    0    0    0  501  0.00000000000E+00  0.00000000000E+00 -0.14424852337E+04  0.14424852337E+04  0.50400001928E-02 0. -1.
    10030    2    1    2    0    0  0.00000000000E+00  0.00000000000E+00  0.55338426946E+03  0.34383547368E+04  0.33935304841E+04 0.  0.
        4    1    3    3  502    0 -0.15712973870E+04  0.10566719300E+03  0.91659553309E+03  0.18221662982E+04  0.12699999809E+01 0.  1.
       -4    1    3    3    0  502  0.15712973870E+04 -0.10566719300E+03 -0.36321126363E+03  0.16161884386E+04  0.12699999809E+01 0. -1.
</event>
<event>
 5   0  0.4486226E-07  0.3391283E+04  0.7818609E-02  0.8140049E-01
        2   -1    0    0  501    0  0.00000000000E+00  0.00000000000E+00  0.11274051664E+04  0.11274051664E+04  0.25500000920E-02 0. -1.
       -2   -1    0    0    0  501  0.00000000000E+00  0.00000000000E+00 -0.25502817362E+04  0.25502817362E+04  0.25500000920E-02 0.  1.
    10030    2    1    2    0    0  0.00000000000E+00  0.00000000000E+00 -0.14228765698E+04  0.36776869026E+04  0.33912834179E+04 0.  0.
        1    1    3    3  502    0 -0.97069584535E+03  0.16856187921E+03 -0.22080371278E+04  0.24178692043E+04  0.50400001928E-02 0.  1.
       -1    1    3    3    0  502  0.97069584535E+03 -0.16856187921E+03  0.78516055796E+03  0.12598176984E+04  0.50400001928E-02 0. -1.
</event>
<event>
 5   0  0.1520084E-07  0.3394821E+04  0.7818609E-02  0.8139179E-01
       -1   -1    0    0    0  501  0.00000000000E+00  0.00000000000E+00  0.20093299923E+04  0.20093299923E+04  0.50400001928E-02 0. -1.
        1   -1    0    0  501    0  0.00000000000E+00  0.00000000000E+00 -0.14339116844E+04  0.14339116844E+04  0.50400001928E-02 0.  1.
    10030    2    1    2    0    0  0.00000000000E+00  0.00000000000E+00  0.57541830790E+03  0.34432416768E+04  0.33948206161E+04 0.  0.
        2    1    3    3  502    0 -0.32325259246E+03 -0.15902412361E+04  0.79264757074E+03  0.18060037649E+04  0.25500000920E-02 0. -1.
       -2    1    3    3    0  502  0.32325259246E+03  0.15902412361E+04 -0.21722926284E+03  0.16372379119E+04  0.25500000920E-02 0.  1.
</event>
<event>
 5   0  0.1435806E-07  0.3411793E+04  0.7818609E-02  0.8135018E-01
       -1   -1    0    0    0  501  0.00000000000E+00  0.00000000000E+00  0.12629808894E+04  0.12629808894E+04  0.50400001928E-02 0.  1.
        1   -1    0    0  501    0  0.00000000000E+00  0.00000000000E+00 -0.23041386676E+04  0.23041386676E+04  0.50400001928E-02 0. -1.
    10030    2    1    2    0    0  0.00000000000E+00  0.00000000000E+00 -0.10411577782E+04  0.35671195570E+04  0.34117931377E+04 0.  0.
        3    1    3    3  502    0  0.12633047657E+04  0.91232030828E+03 -0.12463095989E+04  0.19953833973E+04  0.10100000352E+00 0. -1.
       -3    1    3    3    0  502 -0.12633047657E+04 -0.91232030828E+03  0.20515182067E+03  0.15717361597E+04  0.10100000352E+00 0.  1.
</event>
<event>
 5   0  0.4521737E-07  0.3409089E+04  0.7818609E-02  0.8135679E-01
       -2   -1    0    0    0  501  0.00000000000E+00  0.00000000000E+00  0.18458623640E+04  0.18458623640E+04  0.25500000920E-02 0.  1.
        2   -1    0    0  501    0  0.00000000000E+00  0.00000000000E+00 -0.15740459997E+04  0.15740459997E+04  0.25500000920E-02 0. -1.
    10030    2    1    2    0    0  0.00000000000E+00  0.00000000000E+00  0.27181636426E+03  0.34199083637E+04  0.34090891863E+04 0.  0.
        4    1    3    3  502    0 -0.15806532996E+04 -0.55395027944E+03 -0.18155291023E+03  0.16847221842E+04  0.12699999809E+01 0. -1.
       -4    1    3    3    0  502  0.15806532996E+04  0.55395027944E+03  0.45336927449E+03  0.17351861795E+04  0.12699999809E+01 0.  1.
</event>
<event>
 5   0  0.1523259E-07  0.3397642E+04  0.7818609E-02  0.8138485E-01
        1   -1    0    0  501    0  0.00000000000E+00  0.00000000000E+00  0.14341840765E+04  0.14341840765E+04  0.50400001928E-02 0. -1.
       -1   -1    0    0    0  501  0.00000000000E+00  0.00000000000E+00 -0.20122887642E+04  0.20122887642E+04  0.50400001928E-02 0.  1.
    10030    2    1    2    0    0  0.00000000000E+00  0.00000000000E+00 -0.57810468768E+03  0.34464728408E+04  0.33976418311E+04 0.  0.
        4    1    3    3  502    0 -0.73381590879E+03  0.17416044174E+03 -0.18331562370E+04  0.19822414206E+04  0.12699999809E+01 0.  1.
       -4    1    3    3    0  502  0.73381590879E+03 -0.17416044174E+03  0.12550515493E+04  0.14642314202E+04  0.12699999809E+01 0. -1.
</event>
<event>
 5   0  0.4396257E-07  0.3399475E+04  0.7818609E-02  0.8138035E-01
        2   -1    0    0  501    0  0.00000000000E+00  0.00000000000E+00  0.19025714968E+04  0.19025714968E+04  0.25500000920E-02 0. -1.
       -2   -1    0    0    0  501  0.00000000000E+00  0.00000000000E+00 -0.15185274339E+04  0.15185274339E+04  0.25500000920E-02 0.  1.
    10030    2    1    2    0    0  0.00000000000E+00  0.00000000000E+00  0.38404406286E+03  0.34210989307E+04  0.33994746729E+04 0.  0.
        2    1    3    3  502    0  0.58939924182E+03 -0.13920201215E+04 -0.59009309404E+03  0.16227511653E+04  0.25500000920E-02 0.  1.
       -2    1    3    3    0  502 -0.58939924182E+03  0.13920201215E+04  0.97413715690E+03  0.17983477654E+04  0.25500000920E-02 0. -1.
</event>
<event>
 5   0  0.1421875E-07  0.3409989E+04  0.7818609E-02  0.8135459E-01
        1   -1    0    0  501    0  0.00000000000E+00  0.00000000000E+00  0.23097771117E+04  0.23097771117E+04  0.50400001928E-02 0. -1.
       -1   -1    0    0    0  501  0.00000000000E+00  0.00000000000E+00 -0.12585655165E+04  0.12585655165E+04  0.50400001928E-02 0.  1.
    10030    2    1    2    0    0  0.00000000000E+00  0.00000000000E+00  0.10512115952E+04  0.35683426283E+04  0.34099887529E+04 0.  0.
        5    1    3    3  502    0  0.13319237720E+04  0.71837749590E+02 -0.58569098808E+03  0.14567901772E+04  0.46999998093E+01 0.  1.
       -5    1    3    3    0  502 -0.13319237720E+04 -0.71837749590E+02  0.16369025833E+04  0.21115524511E+04  0.46999998093E+01 0. -1.
</event>
<event>
 5   0  0.4381939E-07  0.3406851E+04  0.7818609E-02  0.8136227E-01
       -2   -1    0    0    0  501  0.00000000000E+00  0.00000000000E+00  0.10318981661E+04  0.10318981661E+04  0.25500000920E-02 0.  1.
        2   -1    0    0  501    0  0.00000000000E+00  0.00000000000E+00 -0.28119617047E+04  0.28119617047E+04  0.25500000920E-02 0. -1.
    10030    2    1    2    0    0  0.00000000000E+00  0.00000000000E+00 -0.17800635386E+04  0.38438598708E+04  0.34068508193E+04 0.  0.
        3    1    3    3  502    0  0.22898153719E+03 -0.10941095881E+04  0.56020575656E+03  0.12503354890E+04  0.10100000352E+00 0. -1.
       -3    1    3    3    0  502 -0.22898153719E+03  0.10941095881E+04 -0.23402692952E+04  0.25935243819E+04  0.10100000352E+00 0.  1.
</event>
<event>
 5   0  0.1520084E-07  0.3432006E+04  0.7818609E-02  0.8130095E-01
        1   -1    0    0  501    0  0.00000000000E+00  0.00000000000E+00  0.17624476064E+04  0.17624476064E+04  0.50400001928E-02 0. -1.
       -1   -1    0    0    0  501  0.00000000000E+00  0.00000000000E+00 -0.16707823456E+04  0.16707823456E+04  0.50400001928E-02 0.  1.
    10030    2    1    2    0    0  0.00000000000E+00  0.00000000000E+00  0.91665260736E+02  0.34332299520E+04  0.34320060290E+04 0.  0.
        2    1    3    3  502    0 -0.45855283561E+03 -0.24829883380E+02 -0.16081713931E+04  0.16724540220E+04  0.25500000920E-02 0.  1.
       -2    1    3    3    0  502  0.45855283561E+03  0.24829883380E+02  0.16998366538E+04  0.17607759300E+04  0.25500000920E-02 0. -1.
</event>
<event>
 5   0  0.4396257E-07  0.3390411E+04  0.7818609E-02  0.8140264E-01
        2   -1    0    0  501    0  0.00000000000E+00  0.00000000000E+00  0.13248966510E+04  0.13248966510E+04  0.25500000920E-02 0. -1.
       -2   -1    0    0    0  501  0.00000000000E+00  0.00000000000E+00 -0.21690160784E+04  0.21690160784E+04  0.25500000920E-02 0.  1.
    10030    2    1    2    0    0  0.00000000000E+00  0.00000000000E+00 -0.84411942742E+03  0.34939127294E+04  0.33904112661E+04 0.  0.
        2    1    3    3  502    0 -0.91339231321E+03  0.55519594176E+03 -0.17779749801E+04  0.20745416557E+04  0.25500000920E-02 0.  1.
       -2    1    3    3    0  502  0.91339231321E+03 -0.55519594176E+03  0.93385555267E+03  0.14193710737E+04  0.25500000920E-02 0. -1.
</event>
<event>
 5   0  0.4486226E-07  0.3324250E+04  0.7818609E-02  0.8156752E-01
        2   -1    0    0  501    0  0.00000000000E+00  0.00000000000E+00  0.91234448291E+03  0.91234448292E+03  0.25500000920E-02 0.  1.
       -2   -1    0    0    0  501  0.00000000000E+00  0.00000000000E+00 -0.30280886184E+04  0.30280886184E+04  0.25500000920E-02 0. -1.
    10030    2    1    2    0    0  0.00000000000E+00  0.00000000000E+00 -0.21157441355E+04  0.39404331013E+04  0.33242502582E+04 0.  0.
        1    1    3    3  502    0 -0.14923356579E+04 -0.54442314106E+03 -0.16376060019E+04  0.22814941793E+04  0.50400001928E-02 0. -1.
       -1    1    3    3    0  502  0.14923356579E+04  0.54442314106E+03 -0.47813813358E+03  0.16589389221E+04  0.50400001928E-02 0.  1.
</event>
<event>
 5   0  0.1435806E-07  0.3399947E+04  0.7818609E-02  0.8137919E-01
       -1   -1    0    0    0  501  0.00000000000E+00  0.00000000000E+00  0.24590904435E+04  0.24590904435E+04  0.50400001928E-02 0. -1.
        1   -1    0    0  501    0  0.00000000000E+00  0.00000000000E+00 -0.11751943113E+04  0.11751943113E+04  0.50400001928E-02 0.  1.
    10030    2    1    2    0    0  0.00000000000E+00  0.00000000000E+00  0.12838961322E+04  0.36342847548E+04  0.33999465291E+04 0.  0.
        3    1    3    3  502    0 -0.25623792514E+03 -0.16682484057E+04  0.42498419406E+03  0.17404948126E+04  0.10100000352E+00 0.  1.
       -3    1    3    3    0  502  0.25623792514E+03  0.16682484057E+04  0.85891193813E+03  0.18937899422E+04  0.10100000352E+00 0. -1.
</event>
<event>
 5   0  0.1523259E-07  0.3405443E+04  0.7818609E-02  0.8136572E-01
       -1   -1    0    0    0  501  0.00000000000E+00  0.00000000000E+00  0.14670899630E+04  0.14670899630E+04  0.50400001928E-02 0.  1.
        1   -1    0    0  501    0  0.00000000000E+00  0.00000000000E+00 -0.19761981101E+04  0.19761981101E+04  0.50400001928E-02 0. -1.
    10030    2    1    2    0    0  0.00000000000E+00  0.00000000000E+00 -0.50910814704E+03  0.34432880731E+04  0.34054429446E+04 0.  0.
        4    1    3    3  502    0  0.30921847549E+03 -0.16477096713E+04  0.46573636470E+02  0.16771207300E+04  0.12699999809E+01 0.  1.
       -4    1    3    3    0  502 -0.30921847549E+03  0.16477096713E+04 -0.55568178351E+03  0.17661673431E+04  0.12699999809E+01 0. -1.
</event>
<event>
 5   0  0.4396257E-07  0.3378881E+04  0.7818609E-02  0.8143109E-01
        2   -1    0    0  501    0  0.00000000000E+00  0.00000000000E+00  0.11137080348E+04  0.11137080349E+04  0.25500000920E-02 0. -1.
       -2   -1    0    0    0  501  0.00000000000E+00  0.00000000000E+00 -0.25627978590E+04  0.25627978590E+04  0.25500000920E-02 0.  1.
    10030    2    1    2    0    0  0.00000000000E+00  0.00000000000E+00 -0.14490898242E+04  0.36765058939E+04  0.33788806237E+04 0.  0.
        2    1    3    3  502    0 -0.12280725640E+04  0.11243249916E+04 -0.41307973961E+03  0.17154893706E+04  0.25500000920E-02 0.  1.
       -2    1    3    3    0  502  0.12280725640E+04 -0.11243249916E+04 -0.10360100846E+04  0.19610165233E+04  0.25500000920E-02 0. -1.
</event>
<event>
 5   0  0.4521737E-07  0.3330806E+04  0.7818609E-02  0.8155101E-01
        2   -1    0    0  501    0  0.00000000000E+00  0.00000000000E+00  0.20421366604E+04  0.20421366604E+04  0.25500000920E-02 0.  1.
       -2   -1    0    0    0  501  0.00000000000E+00  0.00000000000E+00 -0.13581695785E+04  0.13581695785E+04  0.25500000920E-02 0. -1.
    10030    2    1    2    0    0  0.00000000000E+00  0.00000000000E+00  0.68396708184E+03  0.34003062389E+04  0.33308064413E+04 0.  0.
        4    1    3    3  502    0 -0.35011421062E+03 -0.69170051696E+03  0.18466914306E+04  0.20028231121E+04  0.12699999809E+01 0.  1.
       -4    1    3    3    0  502  0.35011421062E+03  0.69170051696E+03 -0.11627243488E+04  0.13974831268E+04  0.12699999809E+01 0. -1.
</event>
<event>
 5   0  0.4381939E-07  0.3403207E+04  0.7818609E-02  0.8137120E-01
        2   -1    0    0  501    0  0.00000000000E+00  0.00000000000E+00  0.20689511842E+04  0.20689511842E+04  0.25500000920E-02 0.  1.
       -2   -1    0    0    0  501  0.00000000000E+00  0.00000000000E+00 -0.13994789849E+04  0.13994789849E+04  0.25500000920E-02 0. -1.
    10030    2    1    2    0    0  0.00000000000E+00  0.00000000000E+00  0.66947219927E+03  0.34684301691E+04  0.34032065486E+04 0.  0.
        3    1    3    3  502    0  0.10009324518E+04 -0.76555116212E+03 -0.83064697749E+03  0.15092742515E+04  0.10100000352E+00 0. -1.
       -3    1    3    3    0  502 -0.10009324518E+04  0.76555116212E+03  0.15001191768E+04  0.19591559176E+04  0.10100000352E+00 0.  1.
</event>
<event>
 5   0  0.4447909E-07  0.3392590E+04  0.7818609E-02  0.8139727E-01
       -2   -1    0    0    0  501  0.00000000000E+00  0.00000000000E+00  0.12854225103E+04  0.12854225103E+04  0.25500000920E-02 0.  1.
        2   -1    0    0  501    0  0.00000000000E+00  0.00000000000E+00 -0.22384982258E+04  0.22384982258E+04  0.25500000920E-02 0. -1.
    10030    2    1    2    0    0  0.00000000000E+00  0.00000000000E+00 -0.95307571546E+03  0.35239207361E+04  0.33925895765E+04 0.  0.
        5    1    3    3  502    0  0.16540583616E+04 -0.23007625503E+03 -0.78563040364E+03  0.18455571971E+04  0.46999998093E+01 0. -1.
       -5    1    3    3    0  502 -0.16540583616E+04  0.23007625503E+03 -0.16744531182E+03  0.16783635390E+04  0.46999998093E+01 0.  1.
</event>
<event>
 5   0  0.1523259E-07  0.3396495E+04  0.7818609E-02  0.8138767E-01
       -1   -1    0    0    0  501  0.00000000000E+00  0.00000000000E+00  0.11698338841E+04  0.11698338841E+04  0.50400001928E-02 0.  1.
        1   -1    0    0  501    0  0.00000000000E+00  0.00000000000E+00 -0.24653455770E+04  0.24653455770E+04  0.50400001928E-02 0. -1.
    10030    2    1    2    0    0  0.00000000000E+00  0.00000000000E+00 -0.12955116929E+04  0.36351794611E+04  0.33964951299E+04 0.  0.
        4    1    3    3  502    0 -0.15924855646E+04  0.57760900276E+03 -0.51931967641E+03  0.17718174208E+04  0.12699999809E+01 0.  1.
       -4    1    3    3    0  502  0.15924855646E+04 -0.57760900276E+03 -0.77619201649E+03  0.18633620402E+04  0.12699999809E+01 0. -1.
</event>
<event>
 5   0  0.1421875E-07  0.3406904E+04  0.7818609E-02  0.8136214E-01
       -1   -1    0    0    0  501  0.00000000000E+00  0.00000000000E+00  0.17590415734E+04  0.17590415735E+04  0.50400001928E-02 0. -1.
        1   -1    0    0  501    0  0.00000000000E+00  0.00000000000E+00 -0.16496190999E+04  0.16496190999E+04  0.50400001928E-02 0.  1.
    10030    2    1    2    0    0  0.00000000000E+00  0.00000000000E+00  0.10942247353E+03  0.34086606734E+04  0.34069039183E+04 0.  0.
        5    1    3    3  502    0 -0.49053042874E+02 -0.16919039549E+04  0.24659462707E+03  0.17104900449E+04  0.46999998093E+01 0. -1.
       -5    1    3    3    0  502  0.49053042874E+02  0.16919039549E+04 -0.13717215354E+03  0.16981706285E+04  0.46999998093E+01 0.  1.
</event>
<event>
 5   0  0.1473755E-07  0.3383258E+04  0.7818609E-02  0.8142028E-01
       -1   -1    0    0    0  501  0.00000000000E+00  0.00000000000E+00  0.29222323612E+04  0.29222323612E+04  0.50400001928E-02 0.  1.
        1   -1    0    0  501    0  0.00000000000E+00  0.00000000000E+00 -0.97925407511E+03  0.97925407513E+03  0.50400001928E-02 0. -1.
    10030    2    1    2    0    0  0.00000000000E+00  0.00000000000E+00  0.19429782860E+04  0.39014864363E+04  0.33832575711E+04 0.  0.
        1    1    3    3  502    0 -0.12141057550E+03 -0.58191657365E+02  0.29160440742E+04  0.29191505339E+04  0.50400001928E-02 0.  1.
       -1    1    3    3    0  502  0.12141057550E+03  0.58191657365E+02 -0.97306578821E+03  0.98233590234E+03  0.50400001928E-02 0. -1.
</event>
<event>
 5   0  0.4521737E-07  0.3396882E+04  0.7818609E-02  0.8138672E-01
       -2   -1    0    0    0  501  0.00000000000E+00  0.00000000000E+00  0.20631900761E+04  0.20631900761E+04  0.25500000920E-02 0.  1.
        2   -1    0    0  501    0  0.00000000000E+00  0.00000000000E+00 -0.13981752987E+04  0.13981752987E+04  0.25500000920E-02 0. -1.
    10030    2    1    2    0    0  0.00000000000E+00  0.00000000000E+00  0.66501477739E+03  0.34613653747E+04  0.33968817470E+04 0.  0.
        4    1    3    3  502    0  0.27286266008E+03 -0.11717668421E+04  0.15541013114E+04  0.19653814038E+04  0.12699999809E+01 0.  1.
       -4    1    3    3    0  502 -0.27286266008E+03  0.11717668421E+04 -0.88908653401E+03  0.14959839709E+04  0.12699999809E+01 0. -1.
</event>
<event>
 5   0  0.4521737E-07  0.3399380E+04  0.7818609E-02  0.8138058E-01
       -2   -1    0    0    0  501  0.00000000000E+00  0.00000000000E+00  0.14734741915E+04  0.14734741915E+04  0.25500000920E-02 0.  1.
        2   -1    0    0  501    0  0.00000000000E+00  0.00000000000E+00 -0.19606357123E+04  0.19606357123E+04  0.25500000920E-02 0. -1.
    10030    2    1    2    0    0  0.00000000000E+00  0.00000000000E+00 -0.48716152078E+03  0.34341099038E+04  0.33993800146E+04 0.  0.
        4    1    3    3  502    0  0.94682554062E+03  0.14061085719E+04 -0.36863801034E+03  0.17347955257E+04  0.12699999809E+01 0. -1.
       -4    1    3    3    0  502 -0.94682554062E+03 -0.14061085719E+04 -0.11852351044E+03  0.16993143781E+04  0.12699999809E+01 0.  1.
</event>
<event>
 5   0  0.1421875E-07  0.3384771E+04  0.7818609E-02  0.8141654E-01
       -3   -1    0    0    0  501  0.00000000000E+00  0.00000000000E+00  0.16189318258E+04  0.16189318289E+04  0.10100000352E+00 0. -1.
        3   -1    0    0  501    0  0.00000000000E+00  0.00000000000E+00 -0.17691722658E+04  0.17691722687E+04  0.10100000352E+00 0.  1.
    10030    2    1    2    0    0  0.00000000000E+00  0.00000000000E+00 -0.15024044002E+03  0.33881040976E+04  0.33847713639E+04 0.  0.
        3    1    3    3  502    0  0.12635336088E+04 -0.20821759418E+03  0.10324490448E+04  0.16449385361E+04  0.10100000352E+00 0. -1.
       -3    1    3    3    0  502 -0.12635336088E+04  0.20821759418E+03 -0.11826894848E+04  0.17431655615E+04  0.10100000352E+00 0.  1.
</event>
<event>
 5   0  0.4396257E-07  0.3396822E+04  0.7818609E-02  0.8138687E-01
        2   -1    0    0  501    0  0.00000000000E+00  0.00000000000E+00  0.24028828941E+04  0.24028828941E+04  0.25500000920E-02 0. -1.
       -2   -1    0    0    0  501  0.00000000000E+00  0.00000000000E+00 -0.12004746483E+04  0.12004746483E+04  0.25500000920E-02 0.  1.
    10030    2    1    2    0    0  0.00000000000E+00  0.00000000000E+00  0.12024082457E+04  0.36033575424E+04  0.33968220426E+04 0.  0.
        2    1    3    3  502    0  0.96969357584E+03 -0.38893865819E+03 -0.81925015976E+03  0.13276858571E+04  0.25500000920E-02 0.  1.
       -2    1    3    3    0  502 -0.96969357584E+03  0.38893865819E+03  0.20216584055E+04  0.22756716853E+04  0.25500000920E-02 0. -1.
</event>
<event>
 5   0  0.1520084E-07  0.3398909E+04  0.7818609E-02  0.8138174E-01
       -1   -1    0    0    0  501  0.00000000000E+00  0.00000000000E+00  0.17380740854E+04  0.17380740854E+04  0.50400001928E-02 0. -1.
        1   -1    0    0  501    0  0.00000000000E+00  0.00000000000E+00 -0.16616927937E+04  0.16616927938E+04  0.50400001928E-02 0.  1.
    10030    2    1    2    0    0  0.00000000000E+00  0.00000000000E+00  0.76381291672E+02  0.33997668792E+04  0.33989087559E+04 0.  0.
        2    1    3    3  502    0  0.20639491127E+03 -0.14788007692E+03 -0.16426138566E+04  0.16621214331E+04  0.25500000920E-02 0.  1.
       -2    1    3    3    0  502 -0.20639491127E+03  0.14788007692E+03  0.17189951483E+04  0.17376454461E+04  0.25500000920E-02 0. -1.
</event>
<event>
 5   0  0.1435806E-07  0.3424077E+04  0.7818609E-02  0.8132022E-01
        1   -1    0    0  501    0  0.00000000000E+00  0.00000000000E+00  0.21340898252E+04  0.21340898252E+04  0.50400001928E-02 0. -1.
       -1   -1    0    0    0  501  0.00000000000E+00  0.00000000000E+00 -0.13734545549E+04  0.13734545549E+04  0.50400001928E-02 0.  1.
    10030    2    1    2    0    0  0.00000000000E+00  0.00000000000E+00  0.76063527025E+03  0.35075443801E+04  0.34240767462E+04 0.  0.
        3    1    3    3  502    0  0.38663088679E+03  0.10260831035E+04 -0.96655088869E+03  0.14616944306E+04  0.10100000352E+00 0.  1.
       -3    1    3    3    0  502 -0.38663088679E+03 -0.10260831035E+04  0.17271861589E+04  0.20458499495E+04  0.10100000352E+00 0. -1.
</event>
<event>
 5   0  0.4447909E-07  0.3407753E+04  0.7818609E-02  0.8136006E-01
        2   -1    0    0  501    0  0.00000000000E+00  0.00000000000E+00  0.18636445249E+04  0.18636445249E+04  0.25500000920E-02 0.  1.
       -2   -1    0    0    0  501  0.00000000000E+00  0.00000000000E+00 -0.15578050432E+04  0.15578050432E+04  0.25500000920E-02 0. -1.
    10030    2    1    2    0    0  0.00000000000E+00  0.00000000000E+00  0.30583948170E+03  0.34214495682E+04  0.34077528313E+04 0.  0.
        5    1    3    3  502    0  0.10726491360E+04 -0.10841322603E+04 -0.60990621974E+03  0.16425366399E+04  0.46999998093E+01 0. -1.
       -5    1    3    3    0  502 -0.10726491360E+04  0.10841322603E+04  0.91574570144E+03  0.17789129283E+04  0.46999998093E+01 0.  1.
</event>
<event>
 5   0  0.4486226E-07  0.3445779E+04  0.7818609E-02  0.8126761E-01
       -2   -1    0    0    0  501  0.00000000000E+00  0.00000000000E+00  0.14853336988E+04  0.14853336988E+04  0.25500000920E-02 0.  1.
        2   -1    0    0  501    0  0.00000000000E+00  0.00000000000E+00 -0.19984386616E+04  0.19984386616E+04  0.25500000920E-02 0. -1.
    10030    2    1    2    0    0  0.00000000000E+00  0.00000000000E+00 -0.51310496279E+03  0.34837723604E+04  0.34457790348E+04 0.  0.
        1    1    3    3  502    0 -0.12138810620E+04 -0.10930028288E+04 -0.81048577627E+03  0.18234718561E+04  0.50400001928E-02 0. -1.
       -1    1    3    3    0  502  0.12138810620E+04  0.10930028288E+04  0.29738081349E+03  0.16603005043E+04  0.50400001928E-02 0.  1.
</event>
<event>
 5   0  0.1523259E-07  0.3418097E+04  0.7818609E-02  0.8133479E-01
       -1   -1    0    0    0  501  0.00000000000E+00  0.00000000000E+00  0.11385616608E+04  0.11385616608E+04  0.50400001928E-02 0.  1.
        1   -1    0    0  501    0  0.00000000000E+00  0.00000000000E+00 -0.25653835751E+04  0.25653835751E+04  0.50400001928E-02 0. -1.
    10030    2    1    2    0    0  0.00000000000E+00  0.00000000000E+00 -0.14268219143E+04  0.37039452359E+04  0.34180973561E+04 0.  0.
        4    1    3    3  502    0 -0.12156851194E+04 -0.64304783045E+03  0.38605476011E+03  0.14284399576E+04  0.12699999809E+01 0.  1.
       -4    1    3    3    0  502  0.12156851194E+04  0.64304783045E+03 -0.18128766744E+04  0.22755052783E+04  0.12699999809E+01 0. -1.
</event>
<event>
 5   0  0.1523259E-07  0.3517631E+04  0.7818609E-02  0.8109624E-01
       -1   -1    0    0    0  501  0.00000000000E+00  0.00000000000E+00  0.15494983041E+04  0.15494983041E+04  0.50400001928E-02 0.  1.
        1   -1    0    0  501    0  0.00000000000E+00  0.00000000000E+00 -0.19964086440E+04  0.19964086440E+04  0.50400001928E-02 0. -1.
    10030    2    1    2    0    0  0.00000000000E+00  0.00000000000E+00 -0.44691033995E+03  0.35459069481E+04  0.35176309119E+04 0.  0.
        4    1    3    3  502    0  0.46344198219E+03  0.12124895346E+04 -0.14198064154E+04  0.19237362638E+04  0.12699999809E+01 0. -1.
       -4    1    3    3    0  502 -0.46344198219E+03 -0.12124895346E+04  0.97289607550E+03  0.16221706843E+04  0.12699999809E+01 0.  1.
</event>
<event>
 5   0  0.1421875E-07  0.3531324E+04  0.7818609E-02  0.8106406E-01
        1   -1    0    0  501    0  0.00000000000E+00  0.00000000000E+00  0.23429539549E+04  0.23429539549E+04  0.50400001928E-02 0.  1.
       -1   -1    0    0    0  501  0.00000000000E+00  0.00000000000E+00 -0.13306121310E+04  0.13306121310E+04  0.50400001928E-02 0. -1.
    10030    2    1    2    0    0  0.00000000000E+00  0.00000000000E+00  0.10123418238E+04  0.36735660859E+04  0.35313243719E+04 0.  0.
        5    1    3    3  502    0  0.12627798247E+04  0.12214420451E+04  0.32298912625E+03  0.17863027797E+04  0.46999998093E+01 0. -1.
       -5    1    3    3    0  502 -0.12627798247E+04 -0.12214420451E+04  0.68935269759E+03  0.18872633062E+04  0.46999998093E+01 0.  1.
</event>
<event>
 5   0  0.4521737E-07  0.3444153E+04  0.7818609E-02  0.8127154E-01
        2   -1    0    0  501    0  0.00000000000E+00  0.00000000000E+00  0.12331278762E+04  0.12331278763E+04  0.25500000920E-02 0.  1.
       -2   -1    0    0    0  501  0.00000000000E+00  0.00000000000E+00 -0.24048984127E+04  0.24048984127E+04  0.25500000920E-02 0. -1.
    10030    2    1    2    0    0  0.00000000000E+00  0.00000000000E+00 -0.11717705365E+04  0.36380262890E+04  0.34441528841E+04 0.  0.
        4    1    3    3  502    0  0.10359014942E+03  0.15693392870E+04 -0.13267878068E+04  0.20576501680E+04  0.12699999809E+01 0. -1.
       -4    1    3    3    0  502 -0.10359014942E+03 -0.15693392870E+04  0.15501727031E+03  0.15803761210E+04  0.12699999809E+01 0.  1.
</event>
<event>
 5   0  0.1421875E-07  0.3404522E+04  0.7818609E-02  0.8136797E-01
        1   -1    0    0  501    0  0.00000000000E+00  0.00000000000E+00  0.14903087916E+04  0.14903087916E+04  0.50400001928E-02 0.  1.
       -1   -1    0    0    0  501  0.00000000000E+00  0.00000000000E+00 -0.19443567020E+04  0.19443567020E+04  0.50400001928E-02 0. -1.
    10030    2    1    2    0    0  0.00000000000E+00  0.00000000000E+00 -0.45404791040E+03  0.34346654937E+04  0.34045216328E+04 0.  0.
        5    1    3    3  502    0 -0.42935376158E+02  0.16167001417E+04 -0.76286414259E+03  0.17881685001E+04  0.46999998093E+01 0.  1.
       -5    1    3    3    0  502  0.42935376158E+02 -0.16167001417E+04  0.30881623219E+03  0.16464969936E+04  0.46999998093E+01 0. -1.
</event>
<event>
 5   0  0.4381939E-07  0.3385390E+04  0.7818609E-02  0.8141501E-01
        2   -1    0    0  501    0  0.00000000000E+00  0.00000000000E+00  0.19157489284E+04  0.19157489284E+04  0.25500000920E-02 0.  1.
       -2   -1    0    0    0  501  0.00000000000E+00  0.00000000000E+00 -0.14956117235E+04  0.14956117235E+04  0.25500000920E-02 0. -1.
    10030    2    1    2    0    0  0.00000000000E+00  0.00000000000E+00  0.42013720496E+03  0.34113606519E+04  0.33853901144E+04 0.  0.
        3    1    3    3  502    0 -0.37196538233E+03  0.11840577614E+04  0.13699265766E+04  0.18485264033E+04  0.10100000352E+00 0.  1.
       -3    1    3    3    0  502  0.37196538233E+03 -0.11840577614E+04 -0.94978937168E+03  0.15628342487E+04  0.10100000352E+00 0. -1.
</event>
<event>
 5   0  0.4381939E-07  0.3402680E+04  0.7818609E-02  0.8137249E-01
        2   -1    0    0  501    0  0.00000000000E+00  0.00000000000E+00  0.26135978826E+04  0.26135978826E+04  0.25500000920E-02 0. -1.
       -2   -1    0    0    0  501  0.00000000000E+00  0.00000000000E+00 -0.11074992731E+04  0.11074992731E+04  0.25500000920E-02 0.  1.
    10030    2    1    2    0    0  0.00000000000E+00  0.00000000000E+00  0.15060986095E+04  0.37210971557E+04  0.34026799762E+04 0.  0.
        3    1    3    3  502    0 -0.79681194248E+03 -0.11069062248E+04  0.18652819725E+04  0.23107201279E+04  0.10100000352E+00 0. -1.
       -3    1    3    3    0  502  0.79681194248E+03  0.11069062248E+04 -0.35918336297E+03  0.14103770278E+04  0.10100000352E+00 0.  1.
</event>
<event>
 5   0  0.1421875E-07  0.3415943E+04  0.7818609E-02  0.8134004E-01
        1   -1    0    0  501    0  0.00000000000E+00  0.00000000000E+00  0.12527838644E+04  0.12527838644E+04  0.50400001928E-02 0. -1.
       -1   -1    0    0    0  501  0.00000000000E+00  0.00000000000E+00 -0.23285479390E+04  0.23285479391E+04  0.50400001928E-02 0.  1.
    10030    2    1    2    0    0  0.00000000000E+00  0.00000000000E+00 -0.10757640746E+04  0.35813318035E+04  0.34159433752E+04 0.  0.
        5    1    3    3  502    0 -0.20228785887E+03 -0.15147012173E+04  0.26187847233E+03  0.15504330298E+04  0.46999998093E+01 0. -1.
       -5    1    3    3    0  502  0.20228785887E+03  0.15147012173E+04 -0.13376425470E+04  0.20308987737E+04  0.46999998093E+01 0.  1.
</event>
<event>
 5   0  0.4381939E-07  0.3434772E+04  0.7818609E-02  0.8129424E-01
       -2   -1    0    0    0  501  0.00000000000E+00  0.00000000000E+00  0.12567774287E+04  0.12567774287E+04  0.25500000920E-02 0.  1.
        2   -1    0    0  501    0  0.00000000000E+00  0.00000000000E+00 -0.23468079539E+04  0.23468079539E+04  0.25500000920E-02 0. -1.
    10030    2    1    2    0    0  0.00000000000E+00  0.00000000000E+00 -0.10900305252E+04  0.36035853826E+04  0.34347723452E+04 0.  0.
        3    1    3    3  502    0 -0.13327694865E+04  0.78885609435E+03  0.23365265238E+03  0.15662573268E+04  0.10100000352E+00 0.  1.
       -3    1    3    3    0  502  0.13327694865E+04 -0.78885609435E+03 -0.13236831776E+04  0.20373280557E+04  0.10100000352E+00 0. -1.
</event>
<event>
 5   0  0.4396257E-07  0.3384633E+04  0.7818609E-02  0.8141688E-01
       -2   -1    0    0    0  501  0.00000000000E+00  0.00000000000E+00  0.87433902305E+03  0.87433902305E+03  0.25500000920E-02 0.  1.
        2   -1    0    0  501    0  0.00000000000E+00  0.00000000000E+00 -0.32755421499E+04  0.32755421499E+04  0.25500000920E-02 0. -1.
    10030    2    1    2    0    0  0.00000000000E+00  0.00000000000E+00 -0.24012031269E+04  0.41498811730E+04  0.33846325197E+04 0.  0.
        2    1    3    3  502    0  0.13957730445E+03 -0.13687068633E+04  0.76428027835E+01  0.13758265566E+04  0.25500000920E-02 0.  1.
       -2    1    3    3    0  502 -0.13957730445E+03  0.13687068633E+04 -0.24088459297E+04  0.27740546163E+04  0.25500000920E-02 0. -1.
</event>
<event>
 5   0  0.4486226E-07  0.3397477E+04  0.7818609E-02  0.8138526E-01
       -2   -1    0    0    0  501  0.00000000000E+00  0.00000000000E+00  0.21757797784E+04  0.21757797784E+04  0.25500000920E-02 0. -1.
        2   -1    0    0  501    0  0.00000000000E+00  0.00000000000E+00 -0.13262891164E+04  0.13262891164E+04  0.25500000920E-02 0.  1.
    10030    2    1    2    0    0  0.00000000000E+00  0.00000000000E+00  0.84949066201E+03  0.35020688948E+04  0.33974773228E+04 0.  0.
        1    1    3    3  502    0 -0.14110595417E+04  0.90012229330E+03  0.72421255032E+03  0.18236756815E+04  0.50400001928E-02 0.  1.
       -1    1    3    3    0  502  0.14110595417E+04 -0.90012229330E+03  0.12527811169E+03  0.16783932133E+04  0.50400001928E-02 0. -1.
</event>
<event>
 5   0  0.1435806E-07  0.3406855E+04  0.7818609E-02  0.8136226E-01
        1   -1    0    0  501    0  0.00000000000E+00  0.00000000000E+00  0.11142337204E+04  0.11142337204E+04  0.50400001928E-02 0. -1.
       -1   -1    0    0    0  501  0.00000000000E+00  0.00000000000E+00 -0.26041803127E+04  0.26041803127E+04  0.50400001928E-02 0.  1.
    10030    2    1    2    0    0  0.00000000000E+00  0.00000000000E+00 -0.14899465923E+04  0.37184140332E+04  0.34068551590E+04 0.  0.
        3    1    3    3  502    0 -0.91128915821E+03  0.10222592283E+04 -0.18506313978E+04  0.23022377028E+04  0.10100000352E+00 0.  1.
       -3    1    3    3    0  502  0.91128915821E+03 -0.10222592283E+04  0.36068480547E+03  0.14161763304E+04  0.10100000352E+00 0. -1.
</event>
<event>
 5   0  0.4521737E-07  0.3442057E+04  0.7818609E-02  0.8127661E-01
        2   -1    0    0  501    0  0.00000000000E+00  0.00000000000E+00  0.13857936504E+04  0.13857936504E+04  0.25500000920E-02 0. -1.
       -2   -1    0    0    0  501  0.00000000000E+00  0.00000000000E+00 -0.21373598178E+04  0.21373598178E+04  0.25500000920E-02 0.  1.
    10030    2    1    2    0    0  0.00000000000E+00  0.00000000000E+00 -0.75156616735E+03  0.35231534682E+04  0.34420573291E+04 0.  0.
        4    1    3    3  502    0 -0.14165300179E+04  0.45362259200E+03 -0.12619802697E+04  0.19506220961E+04  0.12699999809E+01 0.  1.
       -4    1    3    3    0  502  0.14165300179E+04 -0.45362259200E+03  0.51041410238E+03  0.15725313722E+04  0.12699999809E+01 0. -1.
</event>
<event>
 5   0  0.4521737E-07  0.3407508E+04  0.7818609E-02  0.8136066E-01
        2   -1    0    0  501    0  0.00000000000E+00  0.00000000000E+00  0.22954933384E+04  0.22954933384E+04  0.25500000920E-02 0. -1.
       -2   -1    0    0    0  501  0.00000000000E+00  0.00000000000E+00 -0.12645553177E+04  0.12645553177E+04  0.25500000920E-02 0.  1.
    10030    2    1    2    0    0  0.00000000000E+00  0.00000000000E+00  0.10309380207E+04  0.35600486562E+04  0.34075083612E+04 0.  0.
        4    1    3    3  502    0  0.10444761933E+04  0.86631475494E+03 -0.56086552834E+03  0.14683335884E+04  0.12699999809E+01 0.  1.
       -4    1    3    3    0  502 -0.10444761933E+04 -0.86631475494E+03  0.15918035491E+04  0.20917150678E+04  0.12699999809E+01 0. -1.
</event>
<event>
 5   0  0.4447909E-07  0.3400547E+04  0.7818609E-02  0.8137772E-01
        2   -1    0    0  501    0  0.00000000000E+00  0.00000000000E+00  0.21250273648E+04  0.21250273648E+04  0.25500000920E-02 0.  1.
       -2   -1    0    0    0  501  0.00000000000E+00  0.00000000000E+00 -0.13604197416E+04  0.13604197417E+04  0.25500000920E-02 0. -1.
    10030    2    1    2    0    0  0.00000000000E+00  0.00000000000E+00  0.76460762312E+03  0.34854471064E+04  0.34005465317E+04 0.  0.
        5    1    3    3  502    0 -0.80658460079E+03 -0.95607663458E+03 -0.79807605089E+03  0.14837818985E+04  0.46999998093E+01 0. -1.
       -5    1    3    3    0  502  0.80658460079E+03  0.95607663458E+03  0.15626836740E+04  0.20016652079E+04  0.46999998093E+01 0.  1.
</event>
<event>
 5   0  0.1523259E-07  0.3416664E+04  0.7818609E-02  0.8133828E-01
       -1   -1    0    0    0  501  0.00000000000E+00  0.00000000000E+00  0.12778579362E+04  0.12778579362E+04  0.50400001928E-02 0. -1.
        1   -1    0    0  501    0  0.00000000000E+00  0.00000000000E+00 -0.22838209755E+04  0.22838209755E+04  0.50400001928E-02 0.  1.
    10030    2    1    2    0    0  0.00000000000E+00  0.00000000000E+00 -0.10059630393E+04  0.35616789118E+04  0.34166643139E+04 0.  0.
        4    1    3    3  502    0 -0.13458706375E+04  0.15642593915E+03  0.58164070992E+03  0.14744980081E+04  0.12699999809E+01 0. -1.
       -4    1    3    3    0  502  0.13458706375E+04 -0.15642593915E+03 -0.15876037492E+04  0.20871809037E+04  0.12699999809E+01 0.  1.
</event>
<event>
 5   0  0.1520084E-07  0.3400736E+04  0.7818609E-02  0.8137726E-01
        1   -1    0    0  501    0  0.00000000000E+00  0.00000000000E+00  0.16368063743E+04  0.16368063743E+04  0.50400001928E-02 0. -1.
       -1   -1    0    0    0  501  0.00000000000E+00  0.00000000000E+00 -0.17663975617E+04  0.17663975618E+04  0.50400001928E-02 0.  1.
    10030    2    1    2    0    0  0.00000000000E+00  0.00000000000E+00 -0.12959118749E+03  0.34032039360E+04  0.34007356784E+04 0.  0.
        2    1    3    3  502    0 -0.45287756765E+03  0.89405741098E+03  0.13098148749E+04  0.16492579398E+04  0.25500000920E-02 0. -1.
       -2    1    3    3    0  502  0.45287756765E+03 -0.89405741098E+03 -0.14394060624E+04  0.17539459963E+04  0.25500000920E-02 0.  1.
</event>
<event>
 5   0  0.4381939E-07  0.3277763E+04  0.7818609E-02  0.8168577E-01
       -2   -1    0    0    0  501  0.00000000000E+00  0.00000000000E+00  0.11076164987E+04  0.11076164987E+04  0.25500000920E-02 0. -1.
        2   -1    0    0  501    0  0.00000000000E+00  0.00000000000E+00 -0.24249658287E+04  0.24249658287E+04  0.25500000920E-02 0.  1.
    10030    2    1    2    0    0  0.00000000000E+00  0.00000000000E+00 -0.13173493300E+04  0.35325823274E+04  0.32777627496E+04 0.  0.
        3    1    3    3  502    0  0.12029226428E+04  0.45388226995E+03  0.43665272290E+03  0.13578282698E+04  0.10100000352E+00 0. -1.
       -3    1    3    3    0  502 -0.12029226428E+04 -0.45388226995E+03 -0.17540020529E+04  0.21747540577E+04  0.10100000352E+00 0.  1.
</event>
<event>
 5   0  0.4521737E-07  0.3413375E+04  0.7818609E-02  0.8134631E-01
       -2   -1    0    0    0  501  0.00000000000E+00  0.00000000000E+00  0.20081261295E+04  0.20081261295E+04  0.25500000920E-02 0. -1.
        2   -1    0    0  501    0  0.00000000000E+00  0.00000000000E+00 -0.14504979077E+04  0.14504979077E+04  0.25500000920E-02 0.  1.
    10030    2    1    2    0    0  0.00000000000E+00  0.00000000000E+00  0.55762822181E+03  0.34586240372E+04  0.34133753085E+04 0.  0.
        4    1    3    3  502    0 -0.28211323535E+03  0.11735816596E+04  0.15014157916E+04  0.19264300615E+04  0.12699999809E+01 0. -1.
       -4    1    3    3    0  502  0.28211323535E+03 -0.11735816596E+04 -0.94378756983E+03  0.15321939757E+04  0.12699999809E+01 0.  1.
</event>
<event>
 5   0  0.4521737E-07  0.3426673E+04  0.7818609E-02  0.8131391E-01
        2   -1    0    0  501    0  0.00000000000E+00  0.00000000000E+00  0.25120012406E+04  0.25120012406E+04  0.25500000920E-02 0.  1.
       -2   -1    0    0    0  501  0.00000000000E+00  0.00000000000E+00 -0.11685989985E+04  0.11685989985E+04  0.25500000920E-02 0. -1.
    10030    2    1    2    0    0  0.00000000000E+00  0.00000000000E+00  0.13434022421E+04  0.36806002390E+04  0.34266731002E+04 0.  0.
        4    1    3    3  502    0 -0.38212921639E+03 -0.13381875593E+04  0.17451336964E+04  0.22320980967E+04  0.12699999809E+01 0.  1.
       -4    1    3    3    0  502  0.38212921639E+03  0.13381875593E+04 -0.40173145436E+03  0.14485021423E+04  0.12699999809E+01 0. -1.
</event>
<event>
 5   0  0.1435806E-07  0.3398821E+04  0.7818609E-02  0.8138196E-01
        1   -1    0    0  501    0  0.00000000000E+00  0.00000000000E+00  0.22405023649E+04  0.22405023649E+04  0.50400001928E-02 0.  1.
       -1   -1    0    0    0  501  0.00000000000E+00  0.00000000000E+00 -0.12889952353E+04  0.12889952353E+04  0.50400001928E-02 0. -1.
    10030    2    1    2    0    0  0.00000000000E+00  0.00000000000E+00  0.95150712962E+03  0.35294976003E+04  0.33988214858E+04 0.  0.
        3    1    3    3  502    0  0.76491425670E+03 -0.12060040817E+04 -0.48077843849E+03  0.15068800823E+04  0.10100000352E+00 0. -1.
       -3    1    3    3    0  502 -0.76491425670E+03  0.12060040817E+04  0.14322855681E+04  0.20226175180E+04  0.10100000352E+00 0.  1.
</event>
<event>
 5   0  0.1473755E-07  0.3409745E+04  0.7818609E-02  0.8135519E-01
        1   -1    0    0  501    0  0.00000000000E+00  0.00000000000E+00  0.28106794264E+04  0.28106794264E+04  0.50400001928E-02 0.  1.
       -1   -1    0    0    0  501  0.00000000000E+00  0.00000000000E+00 -0.10341238835E+04  0.10341238835E+04  0.50400001928E-02 0. -1.
    10030    2    1    2    0    0  0.00000000000E+00  0.00000000000E+00  0.17765555430E+04  0.38448033099E+04  0.34097452829E+04 0.  0.
        1    1    3    3  502    0  0.15627529415E+04 -0.59816070196E+03  0.52012659463E+03  0.17522912589E+04  0.50400001928E-02 0. -1.
       -1    1    3    3    0  502 -0.15627529415E+04  0.59816070196E+03  0.12564289483E+04  0.20925120510E+04  0.50400001928E-02 0.  1.
</event>
<event>
 5   0  0.1523259E-07  0.3396475E+04  0.7818609E-02  0.8138772E-01
       -1   -1    0    0    0  501  0.00000000000E+00  0.00000000000E+00  0.14133033015E+04  0.14133033015E+04  0.50400001928E-02 0. -1.
        1   -1    0    0  501    0  0.00000000000E+00  0.00000000000E+00 -0.20406172575E+04  0.20406172575E+04  0.50400001928E-02 0.  1.
    10030    2    1    2    0    0  0.00000000000E+00  0.00000000000E+00 -0.62731395592E+03  0.34539205590E+04  0.33964752949E+04 0.  0.
        4    1    3    3  502    0 -0.26301886343E+03  0.13487796105E+04 -0.13283428001E+04  0.19112513094E+04  0.12699999809E+01 0.  1.
       -4    1    3    3    0  502  0.26301886343E+03 -0.13487796105E+04  0.70102884423E+03  0.15426692496E+04  0.12699999809E+01 0. -1.
</event>
<event>
 5   0  0.4486226E-07  0.3328071E+04  0.7818609E-02  0.8155789E-01
        2   -1    0    0  501    0  0.00000000000E+00  0.00000000000E+00  0.14542950407E+04  0.14542950407E+04  0.25500000920E-02 0.  1.
       -2   -1    0    0    0  501  0.00000000000E+00  0.00000000000E+00 -0.19040246796E+04  0.19040246796E+04  0.25500000920E-02 0. -1.
    10030    2    1    2    0    0  0.00000000000E+00  0.00000000000E+00 -0.44972963891E+03  0.33583197203E+04  0.33280707017E+04 0.  0.
        1    1    3    3  502    0 -0.11405444103E+04 -0.12029151591E+04 -0.37167675958E+03  0.16988201922E+04  0.50400001928E-02 0.  1.
       -1    1    3    3    0  502  0.11405444103E+04  0.12029151591E+04 -0.78052879322E+02  0.16594995281E+04  0.50400001928E-02 0. -1.
</event>
<event>
 5   0  0.4521737E-07  0.3393410E+04  0.7818609E-02  0.8139526E-01
        2   -1    0    0  501    0  0.00000000000E+00  0.00000000000E+00  0.20744133005E+04  0.20744133005E+04  0.25500000920E-02 0. -1.
       -2   -1    0    0    0  501  0.00000000000E+00  0.00000000000E+00 -0.13877697749E+04  0.13877697749E+04  0.25500000920E-02 0.  1.
    10030    2    1    2    0    0  0.00000000000E+00  0.00000000000E+00  0.68664352559E+03  0.34621830754E+04  0.33934101309E+04 0.  0.
        4    1    3    3  502    0  0.17738828959E+03  0.69939619918E+03  0.19100821998E+04  0.20418220470E+04  0.12699999809E+01 0. -1.
       -4    1    3    3    0  502 -0.17738828959E+03 -0.69939619918E+03 -0.12234386742E+04  0.14203610284E+04  0.12699999809E+01 0.  1.
</event>
<event>
 5   0  0.1421875E-07  0.3396446E+04  0.7818609E-02  0.8138779E-01
       -1   -1    0    0    0  501  0.00000000000E+00  0.00000000000E+00  0.18689794580E+04  0.18689794580E+04  0.50400001928E-02 0. -1.
        1   -1    0    0  501    0  0.00000000000E+00  0.00000000000E+00 -0.15430675644E+04  0.15430675644E+04  0.50400001928E-02 0.  1.
    10030    2    1    2    0    0  0.00000000000E+00  0.00000000000E+00  0.32591189360E+03  0.34120470225E+04  0.33964461311E+04 0.  0.
        5    1    3    3  502    0 -0.16587681046E+04 -0.32477060821E+03 -0.19685283384E+01  0.16902702559E+04  0.46999998093E+01 0. -1.
       -5    1    3    3    0  502  0.16587681046E+04  0.32477060821E+03  0.32788042194E+03  0.17217767666E+04  0.46999998093E+01 0.  1.
</event>
<event>
 5   0  0.4486226E-07  0.3405825E+04  0.7818609E-02  0.8136478E-01
        2   -1    0    0  501    0  0.00000000000E+00  0.00000000000E+00  0.10797216886E+04  0.10797216886E+04  0.25500000920E-02 0. -1.
       -2   -1    0    0    0  501  0.00000000000E+00  0.00000000000E+00 -0.26857946630E+04  0.26857946630E+04  0.25500000920E-02 0.  1.
    10030    2    1    2    0    0  0.00000000000E+00  0.00000000000E+00 -0.16060729744E+04  0.37655163517E+04  0.34058248627E+04 0.  0.
        1    1    3    3  502    0 -0.74629259564E+03  0.62018705006E+02  0.88790163480E+03  0.11615370296E+04  0.50400001928E-02 0. -1.
       -1    1    3    3    0  502  0.74629259564E+03 -0.62018705006E+02 -0.24939746092E+04  0.26039793220E+04  0.50400001928E-02 0.  1.
</event>
<event>
 5   0  0.1435806E-07  0.3400678E+04  0.7818609E-02  0.8137740E-01
        1   -1    0    0  501    0  0.00000000000E+00  0.00000000000E+00  0.23596238729E+04  0.23596238729E+04  0.50400001928E-02 0. -1.
       -1   -1    0    0    0  501  0.00000000000E+00  0.00000000000E+00 -0.12252599738E+04  0.12252599738E+04  0.50400001928E-02 0.  1.
    10030    2    1    2    0    0  0.00000000000E+00  0.00000000000E+00  0.11343638991E+04  0.35848838467E+04  0.34006779822E+04 0.  0.
        3    1    3    3  502    0  0.15065158098E+03  0.15124402940E+04  0.13706906684E+04  0.20466959863E+04  0.10100000352E+00 0. -1.
       -3    1    3    3    0  502 -0.15065158098E+03 -0.15124402940E+04 -0.23632676926E+03  0.15381878604E+04  0.10100000352E+00 0.  1.
</event>
<event>
 5   0  0.1421875E-07  0.3404076E+04  0.7818609E-02  0.8136907E-01
       -3   -1    0    0    0  501  0.00000000000E+00  0.00000000000E+00  0.19351017050E+04  0.19351017077E+04  0.10100000352E+00 0.  1.
        3   -1    0    0  501    0  0.00000000000E+00  0.00000000000E+00 -0.14970444412E+04  0.14970444447E+04  0.10100000352E+00 0. -1.
    10030    2    1    2    0    0  0.00000000000E+00  0.00000000000E+00  0.43805726379E+03  0.34321461523E+04  0.34040759458E+04 0.  0.
        1    1    3    3  502    0  0.10499851783E+04  0.13141378149E+04  0.48099065180E+03  0.17495082391E+04  0.50400001928E-02 0. -1.
       -1    1    3    3    0  502 -0.10499851783E+04 -0.13141378149E+04 -0.42933388008E+02  0.16826379133E+04  0.50400001928E-02 0.  1.
</event>
<event>
 5   0  0.1421875E-07  0.3400045E+04  0.7818609E-02  0.8137895E-01
        1   -1    0    0  501    0  0.00000000000E+00  0.00000000000E+00  0.18802236138E+04  0.18802236138E+04  0.50400001928E-02 0. -1.
       -1   -1    0    0    0  501  0.00000000000E+00  0.00000000000E+00 -0.15370919191E+04  0.15370919191E+04  0.50400001928E-02 0.  1.
    10030    2    1    2    0    0  0.00000000000E+00  0.00000000000E+00  0.34313169462E+03  0.34173155329E+04  0.34000450132E+04 0.  0.
        5    1    3    3  502    0  0.77100393021E+03  0.85851242684E+03 -0.10832000431E+04  0.15826670752E+04  0.46999998093E+01 0.  1.
       -5    1    3    3    0  502 -0.77100393021E+03 -0.85851242684E+03  0.14263317377E+04  0.18346484577E+04  0.46999998093E+01 0. -1.
</event>
<event>
 5   0  0.4447909E-07  0.3390789E+04  0.7818609E-02  0.8140171E-01
       -2   -1    0    0    0  501  0.00000000000E+00  0.00000000000E+00  0.17224966342E+04  0.17224966342E+04  0.25500000920E-02 0. -1.
        2   -1    0    0  501    0  0.00000000000E+00  0.00000000000E+00 -0.16687183977E+04  0.16687183977E+04  0.25500000920E-02 0.  1.
    10030    2    1    2    0    0  0.00000000000E+00  0.00000000000E+00  0.53778236531E+02  0.33912150319E+04  0.33907885947E+04 0.  0.
        5    1    3    3  502    0 -0.81954513052E+03  0.85804096875E+03 -0.11842343617E+04  0.16764013953E+04  0.46999998093E+01 0.  1.
       -5    1    3    3    0  502  0.81954513052E+03 -0.85804096875E+03  0.12380125982E+04  0.17148136366E+04  0.46999998093E+01 0. -1.
</event>
<event>
 5   0  0.4447909E-07  0.3391580E+04  0.7818609E-02  0.8139976E-01
       -2   -1    0    0    0  501  0.00000000000E+00  0.00000000000E+00  0.15416674403E+04  0.15416674403E+04  0.25500000920E-02 0. -1.
        2   -1    0    0  501    0  0.00000000000E+00  0.00000000000E+00 -0.18653202059E+04  0.18653202059E+04  0.25500000920E-02 0.  1.
    10030    2    1    2    0    0  0.00000000000E+00  0.00000000000E+00 -0.32365276557E+03  0.34069876462E+04  0.33915798249E+04 0.  0.
        5    1    3    3  502    0  0.13886325796E+04 -0.13147341106E+03  0.80696957821E+03  0.16114613520E+04  0.46999998093E+01 0. -1.
       -5    1    3    3    0  502 -0.13886325796E+04  0.13147341106E+03 -0.11306223438E+04  0.17955262942E+04  0.46999998093E+01 0.  1.
</event>
<event>
 5   0  0.4521737E-07  0.3411189E+04  0.7818609E-02  0.8135166E-01
        2   -1    0    0  501    0  0.00000000000E+00  0.00000000000E+00  0.18213430105E+04  0.18213430105E+04  0.25500000920E-02 0.  1.
       -2   -1    0    0    0  501  0.00000000000E+00  0.00000000000E+00 -0.15972017822E+04  0.15972017822E+04  0.25500000920E-02 0. -1.
    10030    2    1    2    0    0  0.00000000000E+00  0.00000000000E+00  0.22414122838E+03  0.34185447927E+04  0.34111888264E+04 0.  0.
        4    1    3    3  502    0 -0.76946799402E+03 -0.66091009223E+03 -0.12620782722E+04  0.16191745805E+04  0.12699999809E+01 0. -1.
       -4    1    3    3    0  502  0.76946799402E+03  0.66091009223E+03  0.14862195006E+04  0.17993702123E+04  0.12699999809E+01 0.  1.
</event>
<event>
 5   0  0.1473755E-07  0.3394881E+04  0.7818609E-02  0.8139164E-01
       -1   -1    0    0    0  501  0.00000000000E+00  0.00000000000E+00  0.28773585260E+04  0.28773585260E+04  0.50400001928E-02 0.  1.
        1   -1    0    0  501    0  0.00000000000E+00  0.00000000000E+00 -0.10013713569E+04  0.10013713570E+04  0.50400001928E-02 0. -1.
    10030    2    1    2    0    0  0.00000000000E+00  0.00000000000E+00  0.18759871691E+04  0.38787298829E+04  0.33948810946E+04 0.  0.
        1    1    3    3  502    0 -0.77616053978E+03 -0.14508836604E+04  0.14143254482E+04  0.21697476934E+04  0.50400001928E-02 0.  1.
       -1    1    3    3    0  502  0.77616053978E+03  0.14508836604E+04  0.46166172083E+03  0.17089821895E+04  0.50400001928E-02 0. -1.
</event>
<event>
 5   0  0.4447909E-07  0.3388315E+04  0.7818609E-02  0.8140780E-01
       -2   -1    0    0    0  501  0.00000000000E+00  0.00000000000E+00  0.17812733629E+04  0.17812733629E+04  0.25500000920E-02 0.  1.
        2   -1    0    0  501    0  0.00000000000E+00  0.00000000000E+00 -0.16113017349E+04  0.16113017349E+04  0.25500000920E-02 0. -1.
    10030    2    1    2    0    0  0.00000000000E+00  0.00000000000E+00  0.16997162800E+03  0.33925750977E+04  0.33883145426E+04 0.  0.
        5    1    3    3  502    0  0.13132313001E+04 -0.52603746118E+03 -0.84831013436E+03  0.16495284272E+04  0.46999998093E+01 0. -1.
       -5    1    3    3    0  502 -0.13132313001E+04  0.52603746118E+03  0.10182817624E+04  0.17430466705E+04  0.46999998093E+01 0.  1.
</event>
<event>
 5   0  0.1421875E-07  0.3385749E+04  0.7818609E-02  0.8141413E-01
       -1   -1    0    0    0  501  0.00000000000E+00  0.00000000000E+00  0.13662379248E+04  0.13662379248E+04  0.50400001928E-02 0.  1.
        1   -1    0    0  501    0  0.00000000000E+00  0.00000000000E+00 -0.20976028003E+04  0.20976028003E+04  0.50400001928E-02 0. -1.
    10030    2    1    2    0    0  0.00000000000E+00  0.00000000000E+00 -0.73136487554E+03  0.34638407251E+04  0.33857492505E+04 0.  0.
        5    1    3    3  502    0 -0.51571092846E+02  0.10338863658E+04  0.10046981216E+04  0.14425744350E+04  0.46999998093E+01 0.  1.
       -5    1    3    3    0  502  0.51571092846E+02 -0.10338863658E+04 -0.17360629972E+04  0.20212662900E+04  0.46999998093E+01 0. -1.
</event>
<event>
 5   0  0.4381939E-07  0.3425426E+04  0.7818609E-02  0.8131694E-01
       -2   -1    0    0    0  501  0.00000000000E+00  0.00000000000E+00  0.11017923751E+04  0.11017923751E+04  0.25500000920E-02 0. -1.
        2   -1    0    0  501    0  0.00000000000E+00  0.00000000000E+00 -0.26623762656E+04  0.26623762656E+04  0.25500000920E-02 0.  1.
    10030    2    1    2    0    0  0.00000000000E+00  0.00000000000E+00 -0.15605838904E+04  0.37641686407E+04  0.34254260285E+04 0.  0.
        3    1    3    3  502    0  0.97285981607E+03  0.13602524869E+04 -0.37408450886E+03  0.17136750800E+04  0.10100000352E+00 0. -1.
       -3    1    3    3    0  502 -0.97285981607E+03 -0.13602524869E+04 -0.11864993816E+04  0.20504935607E+04  0.10100000352E+00 0.  1.
</event>
<event>
 5   0  0.4447909E-07  0.3401135E+04  0.7818609E-02  0.8137628E-01
        2   -1    0    0  501    0  0.00000000000E+00  0.00000000000E+00  0.22526328388E+04  0.22526328388E+04  0.25500000920E-02 0.  1.
       -2   -1    0    0    0  501  0.00000000000E+00  0.00000000000E+00 -0.12838000602E+04  0.12838000602E+04  0.25500000920E-02 0. -1.
    10030    2    1    2    0    0  0.00000000000E+00  0.00000000000E+00  0.96883277859E+03  0.35364328990E+04  0.34011352070E+04 0.  0.
        5    1    3    3  502    0  0.10215254867E+04  0.12585785182E+03 -0.92315316356E+03  0.13826020296E+04  0.46999998093E+01 0. -1.
       -5    1    3    3    0  502 -0.10215254867E+04 -0.12585785182E+03  0.18919859421E+04  0.21538308694E+04  0.46999998093E+01 0.  1.
</event>
<event>
 5   0  0.1523259E-07  0.3395701E+04  0.7818609E-02  0.8138962E-01
       -1   -1    0    0    0  501  0.00000000000E+00  0.00000000000E+00  0.10367548841E+04  0.10367548841E+04  0.50400001928E-02 0. -1.
        1   -1    0    0  501    0  0.00000000000E+00  0.00000000000E+00 -0.27804991917E+04  0.27804991917E+04  0.50400001928E-02 0.  1.
    10030    2    1    2    0    0  0.00000000000E+00  0.00000000000E+00 -0.17437443076E+04  0.38172540758E+04  0.33957008804E+04 0.  0.
        4    1    3    3  502    0  0.97378131425E+03 -0.11165798806E+04  0.60349535457E+02  0.14827826399E+04  0.12699999809E+01 0. -1.
       -4    1    3    3    0  502 -0.97378131425E+03  0.11165798806E+04 -0.18040938430E+04  0.23344714359E+04  0.12699999809E+01 0.  1.
</event>
<event>
 5   0  0.4381939E-07  0.3446550E+04  0.7818609E-02  0.8126575E-01
       -2   -1    0    0    0  501  0.00000000000E+00  0.00000000000E+00  0.17947203318E+04  0.17947203318E+04  0.25500000920E-02 0. -1.
        2   -1    0    0  501    0  0.00000000000E+00  0.00000000000E+00 -0.16546736915E+04  0.16546736915E+04  0.25500000920E-02 0.  1.
    10030    2    1    2    0    0  0.00000000000E+00  0.00000000000E+00  0.14004664033E+03  0.34493940233E+04  0.34465498788E+04 0.  0.
        3    1    3    3  502    0 -0.90942762631E+03  0.10084717710E+04 -0.99179638240E+03  0.16815867491E+04  0.10100000352E+00 0. -1.
       -3    1    3    3    0  502  0.90942762631E+03 -0.10084717710E+04  0.11318430227E+04  0.17678072742E+04  0.10100000352E+00 0.  1.
</event>
<event>
 5   0  0.4396257E-07  0.3387929E+04  0.7818609E-02  0.8140875E-01
        2   -1    0    0  501    0  0.00000000000E+00  0.00000000000E+00  0.18410141800E+04  0.18410141800E+04  0.25500000920E-02 0.  1.
       -2   -1    0    0    0  501  0.00000000000E+00  0.00000000000E+00 -0.15586599101E+04  0.15586599101E+04  0.25500000920E-02 0. -1.
    10030    2    1    2    0    0  0.00000000000E+00  0.00000000000E+00  0.28235426986E+03  0.33996740901E+04  0.33879285685E+04 0.  0.
        2    1    3    3  502    0 -0.44033571056E+03 -0.15938485436E+04  0.51023784336E+03  0.17304887676E+04  0.25500000920E-02 0. -1.
       -2    1    3    3    0  502  0.44033571056E+03  0.15938485436E+04 -0.22788357350E+03  0.16691853225E+04  0.25500000920E-02 0.  1.
</event>
<event>
 5   0  0.4521737E-07  0.3397408E+04  0.7818609E-02  0.8138543E-01
       -2   -1    0    0    0  501  0.00000000000E+00  0.00000000000E+00  0.12795066397E+04  0.12795066397E+04  0.25500000920E-02 0.  1.
        2   -1    0    0  501    0  0.00000000000E+00  0.00000000000E+00 -0.22552410546E+04  0.22552410546E+04  0.25500000920E-02 0. -1.
    10030    2    1    2    0    0  0.00000000000E+00  0.00000000000E+00 -0.97573441485E+03  0.35347476943E+04  0.33974083673E+04 0.  0.
        4    1    3    3  502    0  0.35287617449E+03 -0.70852499304E+03  0.10759105596E+04  0.13357074550E+04  0.12699999809E+01 0.  1.
       -4    1    3    3    0  502 -0.35287617449E+03  0.70852499304E+03 -0.20516449744E+04  0.21990402393E+04  0.12699999809E+01 0. -1.
</event>
<event>
 5   0  0.4447909E-07  0.3379323E+04  0.7818609E-02  0.8143000E-01
       -2   -1    0    0    0  501  0.00000000000E+00  0.00000000000E+00  0.11501594118E+04  0.11501594118E+04  0.25500000920E-02 0.  1.
        2   -1    0    0  501    0  0.00000000000E+00  0.00000000000E+00 -0.24822267076E+04  0.24822267076E+04  0.25500000920E-02 0. -1.
    10030    2    1    2    0    0  0.00000000000E+00  0.00000000000E+00 -0.13320672958E+04  0.36323861194E+04  0.33793232517E+04 0.  0.
        5    1    3    3  502    0 -0.28449258872E+03 -0.92503981219E+03 -0.21547792540E+04  0.23621452984E+04  0.46999998093E+01 0. -1.
       -5    1    3    3    0  502  0.28449258872E+03  0.92503981219E+03  0.82271195818E+03  0.12702408210E+04  0.46999998093E+01 0.  1.
</event>
<event>
 5   0  0.4486226E-07  0.3435142E+04  0.7818609E-02  0.8129335E-01
        2   -1    0    0  501    0  0.00000000000E+00  0.00000000000E+00  0.17501956936E+04  0.17501956936E+04  0.25500000920E-02 0.  1.
       -2   -1    0    0    0  501  0.00000000000E+00  0.00000000000E+00 -0.16855540324E+04  0.16855540324E+04  0.25500000920E-02 0. -1.
    10030    2    1    2    0    0  0.00000000000E+00  0.00000000000E+00  0.64641661169E+02  0.34357497260E+04  0.34351415743E+04 0.  0.
        1    1    3    3  502    0 -0.56983754111E+03 -0.83144748264E+03 -0.13586193279E+04  0.16917051214E+04  0.50400001928E-02 0. -1.
       -1    1    3    3    0  502  0.56983754111E+03  0.83144748264E+03  0.14232609891E+04  0.17440446046E+04  0.50400001928E-02 0.  1.
</event>
<event>
 5   0  0.4486226E-07  0.3400970E+04  0.7818609E-02  0.8137668E-01
        2   -1    0    0  501    0  0.00000000000E+00  0.00000000000E+00  0.31429666836E+04  0.31429666836E+04  0.25500000920E-02 0. -1.
       -2   -1    0    0    0  501  0.00000000000E+00  0.00000000000E+00 -0.92003823086E+03  0.92003823087E+03  0.25500000920E-02 0.  1.
    10030    2    1    2    0    0  0.00000000000E+00  0.00000000000E+00  0.22229284527E+04  0.40630049145E+04  0.34009701600E+04 0.  0.
        1    1    3    3  502    0  0.12224992429E+04 -0.18054455793E+03 -0.28406538943E+03  0.12679881237E+04  0.50400001928E-02 0.  1.
       -1    1    3    3    0  502 -0.12224992429E+04  0.18054455793E+03  0.25069938422E+04  0.27950167908E+04  0.50400001928E-02 0. -1.
</event>
<event>
 5   0  0.1473755E-07  0.3404707E+04  0.7818609E-02  0.8136752E-01
        1   -1    0    0  501    0  0.00000000000E+00  0.00000000000E+00  0.14211171419E+04  0.14211171419E+04  0.50400001928E-02 0.  1.
       -1   -1    0    0    0  501  0.00000000000E+00  0.00000000000E+00 -0.20392456278E+04  0.20392456278E+04  0.50400001928E-02 0. -1.
    10030    2    1    2    0    0  0.00000000000E+00  0.00000000000E+00 -0.61812848594E+03  0.34603627697E+04  0.34047066941E+04 0.  0.
        1    1    3    3  502    0  0.14257288647E+04  0.87167230112E+03  0.21039695016E+02  0.16712145479E+04  0.50400001928E-02 0.  1.
       -1    1    3    3    0  502 -0.14257288647E+04 -0.87167230112E+03 -0.63916818095E+03  0.17891482219E+04  0.50400001928E-02 0. -1.
</event>
<event>
 5   0  0.1520084E-07  0.3388753E+04  0.7818609E-02  0.8140672E-01
       -1   -1    0    0    0  501  0.00000000000E+00  0.00000000000E+00  0.12326889281E+04  0.12326889281E+04  0.50400001928E-02 0.  1.
        1   -1    0    0  501    0  0.00000000000E+00  0.00000000000E+00 -0.23289828164E+04  0.23289828164E+04  0.50400001928E-02 0. -1.
    10030    2    1    2    0    0  0.00000000000E+00  0.00000000000E+00 -0.10962938883E+04  0.35616717446E+04  0.33887527686E+04 0.  0.
        2    1    3    3  502    0 -0.10279443842E+04  0.27654544649E+03 -0.19336562270E+04  0.22073000352E+04  0.25500000920E-02 0. -1.
       -2    1    3    3    0  502  0.10279443842E+04 -0.27654544649E+03  0.83736233871E+03  0.13543717094E+04  0.25500000920E-02 0.  1.
</event>
<event>
 5   0  0.4486226E-07  0.3383367E+04  0.7818609E-02  0.8142001E-01
        2   -1    0    0  501    0  0.00000000000E+00  0.00000000000E+00  0.19919553151E+04  0.19919553151E+04  0.25500000920E-02 0. -1.
       -2   -1    0    0    0  501  0.00000000000E+00  0.00000000000E+00 -0.14366753932E+04  0.14366753933E+04  0.25500000920E-02 0.  1.
    10030    2    1    2    0    0  0.00000000000E+00  0.00000000000E+00  0.55527992183E+03  0.34286307083E+04  0.33833670718E+04 0.  0.
        1    1    3    3  502    0  0.90674833306E+03 -0.13597995594E+04 -0.16471539249E+03  0.16426742044E+04  0.50400001928E-02 0.  1.
       -1    1    3    3    0  502 -0.90674833306E+03  0.13597995594E+04  0.71999531432E+03  0.17859565039E+04  0.50400001928E-02 0. -1.
</event>
<event>
 5   0  0.1421875E-07  0.3397908E+04  0.7818609E-02  0.8138420E-01
       -1   -1    0    0    0  501  0.00000000000E+00  0.00000000000E+00  0.26288764554E+04  0.26288764554E+04  0.50400001928E-02 0. -1.
        1   -1    0    0  501    0  0.00000000000E+00  0.00000000000E+00 -0.10979767495E+04  0.10979767495E+04  0.50400001928E-02 0.  1.
    10030    2    1    2    0    0  0.00000000000E+00  0.00000000000E+00  0.15308997059E+04  0.37268532050E+04  0.33979083128E+04 0.  0.
        5    1    3    3  502    0 -0.12303996645E+04  0.87458533279E+03 -0.89526128789E+02  0.15122234810E+04  0.46999998093E+01 0.  1.
       -5    1    3    3    0  502  0.12303996645E+04 -0.87458533279E+03  0.16204258347E+04  0.22146297240E+04  0.46999998093E+01 0. -1.
</event>
<event>
 5   0  0.4447909E-07  0.3471544E+04  0.7818609E-02  0.8120567E-01
        2   -1    0    0  501    0  0.00000000000E+00  0.00000000000E+00  0.11195395369E+04  0.11195395369E+04  0.25500000920E-02 0.  1.
       -2   -1    0    0    0  501  0.00000000000E+00  0.00000000000E+00 -0.26911994819E+04  0.26911994819E+04  0.25500000920E-02 0. -1.
    10030    2    1    2    0    0  0.00000000000E+00  0.00000000000E+00 -0.15716599449E+04  0.38107390188E+04  0.34715438766E+04 0.  0.
        5    1    3    3  502    0  0.11240586935E+04  0.41214837377E+03 -0.21654117518E+04  0.24743492828E+04  0.46999998093E+01 0. -1.
       -5    1    3    3    0  502 -0.11240586935E+04 -0.41214837377E+03  0.59375180684E+03  0.13363897360E+04  0.46999998093E+01 0.  1.
</event>
<event>
 5   0  0.1435806E-07  0.3317534E+04  0.7818609E-02  0.8158448E-01
       -1   -1    0    0    0  501  0.00000000000E+00  0.00000000000E+00  0.22612618611E+04  0.22612618611E+04  0.50400001928E-02 0. -1.
        1   -1    0    0  501    0  0.00000000000E+00  0.00000000000E+00 -0.12168018909E+04  0.12168018909E+04  0.50400001928E-02 0.  1.
    10030    2    1    2    0    0  0.00000000000E+00  0.00000000000E+00  0.10444599701E+04  0.34780637520E+04  0.33175338482E+04 0.  0.
        3    1    3    3  502    0 -0.12549074124E+04 -0.93059322795E+03  0.11066172185E+04  0.19145229296E+04  0.10100000352E+00 0. -1.
       -3    1    3    3    0  502  0.12549074124E+04  0.93059322795E+03 -0.62157248369E+02  0.15635408224E+04  0.10100000352E+00 0.  1.
</event>
<event>
 5   0  0.4396257E-07  0.3390211E+04  0.7818609E-02  0.8140313E-01
       -2   -1    0    0    0  501  0.00000000000E+00  0.00000000000E+00  0.14200942287E+04  0.14200942287E+04  0.25500000920E-02 0.  1.
        2   -1    0    0  501    0  0.00000000000E+00  0.00000000000E+00 -0.20233742673E+04  0.20233742673E+04  0.25500000920E-02 0. -1.
    10030    2    1    2    0    0  0.00000000000E+00  0.00000000000E+00 -0.60328003866E+03  0.34434684960E+04  0.33902106834E+04 0.  0.
        2    1    3    3  502    0  0.24788944263E+03  0.11021997471E+04 -0.15852525235E+04  0.19466173280E+04  0.25500000920E-02 0. -1.
       -2    1    3    3    0  502 -0.24788944263E+03 -0.11021997471E+04  0.98197248484E+03  0.14968511680E+04  0.25500000920E-02 0.  1.
</event>
<event>
 5   0  0.1523259E-07  0.3402741E+04  0.7818609E-02  0.8137234E-01
        1   -1    0    0  501    0  0.00000000000E+00  0.00000000000E+00  0.24144587432E+04  0.24144587432E+04  0.50400001928E-02 0.  1.
       -1   -1    0    0    0  501  0.00000000000E+00  0.00000000000E+00 -0.11988861924E+04  0.11988861924E+04  0.50400001928E-02 0. -1.
    10030    2    1    2    0    0  0.00000000000E+00  0.00000000000E+00  0.12155725508E+04  0.36133449357E+04  0.34027408067E+04 0.  0.
        4    1    3    3  502    0 -0.94141634515E+03  0.48330909789E+03  0.20224595391E+04  0.22825855119E+04  0.12699999809E+01 0.  1.
       -4    1    3    3    0  502  0.94141634515E+03 -0.48330909789E+03 -0.80688698831E+03  0.13307594237E+04  0.12699999809E+01 0. -1.
</event>
<event>
 5   0  0.1421875E-07  0.3406842E+04  0.7818609E-02  0.8136229E-01
        1   -1    0    0  501    0  0.00000000000E+00  0.00000000000E+00  0.14533310884E+04  0.14533310884E+04  0.50400001928E-02 0.  1.
       -1   -1    0    0    0  501  0.00000000000E+00  0.00000000000E+00 -0.19965468369E+04  0.19965468369E+04  0.50400001928E-02 0. -1.
    10030    2    1    2    0    0  0.00000000000E+00  0.00000000000E+00 -0.54321574852E+03  0.34498779252E+04  0.34068422842E+04 0.  0.
        5    1    3    3  502    0 -0.10994686759E+03  0.13382780546E+04 -0.13329627787E+04  0.18920592815E+04  0.46999998093E+01 0. -1.
       -5    1    3    3    0  502  0.10994686759E+03 -0.13382780546E+04  0.78974703021E+03  0.15578186438E+04  0.46999998093E+01 0.  1.
</event>
<event>
 5   0  0.1435806E-07  0.3416495E+04  0.7818609E-02  0.8133870E-01
        1   -1    0    0  501    0  0.00000000000E+00  0.00000000000E+00  0.19411921639E+04  0.19411921640E+04  0.50400001928E-02 0. -1.
       -1   -1    0    0    0  501  0.00000000000E+00  0.00000000000E+00 -0.15032560585E+04  0.15032560585E+04  0.50400001928E-02 0.  1.
    10030    2    1    2    0    0  0.00000000000E+00  0.00000000000E+00  0.43793610543E+03  0.34444482225E+04  0.34164946253E+04 0.  0.
        3    1    3    3  502    0 -0.13679396077E+04  0.86613607179E+03 -0.33015193016E+03  0.16524075685E+04  0.10100000352E+00 0.  1.
       -3    1    3    3    0  502  0.13679396077E+04 -0.86613607179E+03  0.76808803559E+03  0.17920406540E+04  0.10100000352E+00 0. -1.
</event>
<event>
 5   0  0.1520084E-07  0.3402673E+04  0.7818609E-02  0.8137251E-01
        1   -1    0    0  501    0  0.00000000000E+00  0.00000000000E+00  0.10787345957E+04  0.10787345957E+04  0.50400001928E-02 0.  1.
       -1   -1    0    0    0  501  0.00000000000E+00  0.00000000000E+00 -0.26832793223E+04  0.26832793223E+04  0.50400001928E-02 0. -1.
    10030    2    1    2    0    0  0.00000000000E+00  0.00000000000E+00 -0.16045447266E+04  0.37620139181E+04  0.34026732050E+04 0.  0.
        2    1    3    3  502    0  0.13276715857E+04  0.10370106847E+04 -0.10649397219E+04  0.19930377846E+04  0.25500000920E-02 0. -1.
       -2    1    3    3    0  502 -0.13276715857E+04 -0.10370106847E+04 -0.53960500472E+03  0.17689761335E+04  0.25500000920E-02 0.  1.
</event>
<event>
 5   0  0.4381939E-07  0.3401064E+04  0.7818609E-02  0.8137645E-01
        2   -1    0    0  501    0  0.00000000000E+00  0.00000000000E+00  0.19372923511E+04  0.19372923511E+04  0.25500000920E-02 0.  1.
       -2   -1    0    0    0  501  0.00000000000E+00  0.00000000000E+00 -0.14927063505E+04  0.14927063505E+04  0.25500000920E-02 0. -1.
    10030    2    1    2    0    0  0.00000000000E+00  0.00000000000E+00  0.44458600061E+03  0.34299987015E+04  0.34010637131E+04 0.  0.
        3    1    3    3  502    0  0.62688552226E+03  0.21717221795E+03  0.18013916108E+04  0.19196773104E+04  0.10100000352E+00 0.  1.
       -3    1    3    3    0  502 -0.62688552226E+03 -0.21717221795E+03 -0.13568056102E+04  0.15103213911E+04  0.10100000352E+00 0. -1.
</event>
<event>
 5   0  0.4486226E-07  0.3394906E+04  0.7818609E-02  0.8139158E-01
       -2   -1    0    0    0  501  0.00000000000E+00  0.00000000000E+00  0.15505205271E+04  0.15505205271E+04  0.25500000920E-02 0.  1.
        2   -1    0    0  501    0  0.00000000000E+00  0.00000000000E+00 -0.18583096698E+04  0.18583096698E+04  0.25500000920E-02 0. -1.
    10030    2    1    2    0    0  0.00000000000E+00  0.00000000000E+00 -0.30778914269E+03  0.34088301969E+04  0.33949063544E+04 0.  0.
        1    1    3    3  502    0 -0.12513220066E+04  0.36930053500E+03  0.93644934247E+03  0.16059660708E+04  0.50400001928E-02 0.  1.
       -1    1    3    3    0  502  0.12513220066E+04 -0.36930053500E+03 -0.12442384852E+04  0.18028641261E+04  0.50400001928E-02 0. -1.
</event>
<event>
 5   0  0.1520084E-07  0.3280040E+04  0.7818609E-02  0.8167993E-01
        1   -1    0    0  501    0  0.00000000000E+00  0.00000000000E+00  0.14896327797E+04  0.14896327797E+04  0.50400001928E-02 0.  1.
       -1   -1    0    0    0  501  0.00000000000E+00  0.00000000000E+00 -0.18055898006E+04  0.18055898006E+04  0.50400001928E-02 0. -1.
    10030    2    1    2    0    0  0.00000000000E+00  0.00000000000E+00 -0.31595702096E+03  0.32952225803E+04  0.32800400934E+04 0.  0.
        2    1    3    3  502    0  0.36876814961E+03 -0.12068437400E+04  0.89434504592E+03  0.15467109692E+04  0.25500000920E-02 0.  1.
       -2    1    3    3    0  502 -0.36876814961E+03  0.12068437400E+04 -0.12103020669E+04  0.17485116111E+04  0.25500000920E-02 0. -1.
</event>
<event>
 5   0  0.1523259E-07  0.3398206E+04  0.7818609E-02  0.8138347E-01
       -1   -1    0    0    0  501  0.00000000000E+00  0.00000000000E+00  0.10792310792E+04  0.10792310792E+04  0.50400001928E-02 0. -1.
        1   -1    0    0  501    0  0.00000000000E+00  0.00000000000E+00 -0.26750073362E+04  0.26750073362E+04  0.50400001928E-02 0.  1.
    10030    2    1    2    0    0  0.00000000000E+00  0.00000000000E+00 -0.15957762570E+04  0.37542384153E+04  0.33982060292E+04 0.  0.
        4    1    3    3  502    0 -0.46700540152E+03  0.86508737036E+02 -0.26001790917E+04  0.26432008490E+04  0.12699999809E+01 0.  1.
       -4    1    3    3    0  502  0.46700540152E+03 -0.86508737036E+02  0.10044028347E+04  0.11110375663E+04  0.12699999809E+01 0. -1.
</event>
<event>
 5   0  0.1435806E-07  0.3380957E+04  0.7818609E-02  0.8142596E-01
       -1   -1    0    0    0  501  0.00000000000E+00  0.00000000000E+00  0.15260536998E+04  0.15260536998E+04  0.50400001928E-02 0. -1.
        1   -1    0    0  501    0  0.00000000000E+00  0.00000000000E+00 -0.18726189658E+04  0.18726189658E+04  0.50400001928E-02 0.  1.
    10030    2    1    2    0    0  0.00000000000E+00  0.00000000000E+00 -0.34656526599E+03  0.33986726657E+04  0.33809567292E+04 0.  0.
        3    1    3    3  502    0  0.69478204668E+03  0.15282318444E+04 -0.37307625618E+03  0.17197094423E+04  0.10100000352E+00 0.  1.
       -3    1    3    3    0  502 -0.69478204668E+03 -0.15282318444E+04  0.26510990188E+02  0.16789632234E+04  0.10100000352E+00 0. -1.
</event>
<event>
 5   0  0.1523259E-07  0.3347823E+04  0.7818609E-02  0.8150832E-01
        1   -1    0    0  501    0  0.00000000000E+00  0.00000000000E+00  0.23593150589E+04  0.23593150589E+04  0.50400001928E-02 0. -1.
       -1   -1    0    0    0  501  0.00000000000E+00  0.00000000000E+00 -0.11876245273E+04  0.11876245273E+04  0.50400001928E-02 0.  1.
    10030    2    1    2    0    0  0.00000000000E+00  0.00000000000E+00  0.11716905316E+04  0.35469395863E+04  0.33478234312E+04 0.  0.
        4    1    3    3  502    0 -0.15978938292E+04  0.49334243220E+03  0.66317523447E+03  0.17990148552E+04  0.12699999809E+01 0. -1.
       -4    1    3    3    0  502  0.15978938292E+04 -0.49334243220E+03  0.50851529718E+03  0.17479247310E+04  0.12699999809E+01 0.  1.
</event>
<event>
 5   0  0.4396257E-07  0.3398375E+04  0.7818609E-02  0.8138305E-01
        2   -1    0    0  501    0  0.00000000000E+00  0.00000000000E+00  0.23978524861E+04  0.23978524861E+04  0.25500000920E-02 0.  1.
       -2   -1    0    0    0  501  0.00000000000E+00  0.00000000000E+00 -0.12040930898E+04  0.12040930898E+04  0.25500000920E-02 0. -1.
    10030    2    1    2    0    0  0.00000000000E+00  0.00000000000E+00  0.11937593963E+04  0.36019455759E+04  0.33983746755E+04 0.  0.
        2    1    3    3  502    0 -0.54651658733E+03  0.69862952789E+03 -0.93923818091E+03  0.12918714944E+04  0.25500000920E-02 0. -1.
       -2    1    3    3    0  502  0.54651658733E+03 -0.69862952789E+03  0.21329975773E+04  0.23100740815E+04  0.25500000920E-02 0.  1.
</event>
<event>
 5   0  0.4486226E-07  0.3419591E+04  0.7818609E-02  0.8133115E-01
        2   -1    0    0  501    0  0.00000000000E+00  0.00000000000E+00  0.13815237231E+04  0.13815237231E+04  0.25500000920E-02 0. -1.
       -2   -1    0    0    0  501  0.00000000000E+00  0.00000000000E+00 -0.21160696635E+04  0.21160696635E+04  0.25500000920E-02 0.  1.
    10030    2    1    2    0    0  0.00000000000E+00  0.00000000000E+00 -0.73454594042E+03  0.34975933866E+04  0.34195908760E+04 0.  0.
        1    1    3    3  502    0  0.15026792925E+04  0.16428303344E+03 -0.11844764417E+04  0.19204214153E+04  0.50400001928E-02 0.  1.
       -1    1    3    3    0  502 -0.15026792925E+04 -0.16428303344E+03  0.44993050125E+03  0.15771719714E+04  0.50400001928E-02 0. -1.
</event>
<event>
 5   0  0.1473755E-07  0.3406808E+04  0.7818609E-02  0.8136237E-01
        1   -1    0    0  501    0  0.00000000000E+00  0.00000000000E+00  0.17257948225E+04  0.17257948225E+04  0.50400001928E-02 0.  1.
       -1   -1    0    0    0  501  0.00000000000E+00  0.00000000000E+00 -0.16813039732E+04  0.16813039732E+04  0.50400001928E-02 0. -1.
    10030    2    1    2    0    0  0.00000000000E+00  0.00000000000E+00  0.44490849283E+02  0.34070987957E+04  0.34068082964E+04 0.  0.
        1    1    3    3  502    0 -0.41137231048E+03 -0.38001843387E+03  0.16310915553E+04  0.17245581608E+04  0.50400001928E-02 0.  1.
       -1    1    3    3    0  502  0.41137231048E+03  0.38001843387E+03 -0.15866007061E+04  0.16825406350E+04  0.50400001928E-02 0. -1.
</event>
<event>
 5   0  0.4396257E-07  0.3405097E+04  0.7818609E-02  0.8136657E-01
        2   -1    0    0  501    0  0.00000000000E+00  0.00000000000E+00  0.18584287111E+04  0.18584287111E+04  0.25500000920E-02 0. -1.
       -2   -1    0    0    0  501  0.00000000000E+00  0.00000000000E+00 -0.15597427070E+04  0.15597427070E+04  0.25500000920E-02 0.  1.
    10030    2    1    2    0    0  0.00000000000E+00  0.00000000000E+00  0.29868600409E+03  0.34181714181E+04  0.34050965499E+04 0.  0.
        2    1    3    3  502    0  0.12025227912E+04 -0.59748125416E+02 -0.10590398505E+04  0.16034950287E+04  0.25500000920E-02 0.  1.
       -2    1    3    3    0  502 -0.12025227912E+04  0.59748125416E+02  0.13577258546E+04  0.18146763894E+04  0.25500000920E-02 0. -1.
</event>
<event>
 5   0  0.1435806E-07  0.3389195E+04  0.7818609E-02  0.8140563E-01
        1   -1    0    0  501    0  0.00000000000E+00  0.00000000000E+00  0.85787600154E+03  0.85787600155E+03  0.50400001928E-02 0. -1.
       -1   -1    0    0    0  501  0.00000000000E+00  0.00000000000E+00 -0.33474070114E+04  0.33474070114E+04  0.50400001928E-02 0.  1.
    10030    2    1    2    0    0  0.00000000000E+00  0.00000000000E+00 -0.24895310098E+04  0.42052830129E+04  0.33891946787E+04 0.  0.
        3    1    3    3  502    0 -0.51793196603E+03 -0.15496657210E+04 -0.18023527890E+04  0.24327336382E+04  0.10100000352E+00 0.  1.
       -3    1    3    3    0  502  0.51793196603E+03  0.15496657210E+04 -0.68717822078E+03  0.17725493747E+04  0.10100000352E+00 0. -1.
</event>
<event>
 5   0  0.4486226E-07  0.3384901E+04  0.7818609E-02  0.8141622E-01
       -2   -1    0    0    0  501  0.00000000000E+00  0.00000000000E+00  0.20878201646E+04  0.20878201646E+04  0.25500000920E-02 0. -1.
        2   -1    0    0  501    0  0.00000000000E+00  0.00000000000E+00 -0.13719516746E+04  0.13719516746E+04  0.25500000920E-02 0.  1.
    10030    2    1    2    0    0  0.00000000000E+00  0.00000000000E+00  0.71586849005E+03  0.34597718392E+04  0.33849008086E+04 0.  0.
        1    1    3    3  502    0 -0.16837507167E+04  0.12640503825E+03  0.23964339121E+03  0.17054101163E+04  0.50400001928E-02 0.  1.
       -1    1    3    3    0  502  0.16837507167E+04 -0.12640503825E+03  0.47622509884E+03  0.17543617229E+04  0.50400001928E-02 0. -1.
</event>
<event>
 5   0  0.1435806E-07  0.3430176E+04  0.7818609E-02  0.8130540E-01
        1   -1    0    0  501    0  0.00000000000E+00  0.00000000000E+00  0.24558865124E+04  0.24558865124E+04  0.50400001928E-02 0. -1.
       -1   -1    0    0    0  501  0.00000000000E+00  0.00000000000E+00 -0.11977455169E+04  0.11977455169E+04  0.50400001928E-02 0.  1.
    10030    2    1    2    0    0  0.00000000000E+00  0.00000000000E+00  0.12581409955E+04  0.36536320294E+04  0.34301761240E+04 0.  0.
        3    1    3    3  502    0 -0.12051956699E+04 -0.12086501398E+04  0.80792366933E+03  0.18884047312E+04  0.10100000352E+00 0. -1.
       -3    1    3    3    0  502  0.12051956699E+04  0.12086501398E+04  0.45021732615E+03  0.17652272982E+04  0.10100000352E+00 0.  1.
</event>
<event>
 5   0  0.4447909E-07  0.3391221E+04  0.7818609E-02  0.8140064E-01
       -2   -1    0    0    0  501  0.00000000000E+00  0.00000000000E+00  0.12095664000E+04  0.12095664000E+04  0.25500000920E-02 0. -1.
        2   -1    0    0  501    0  0.00000000000E+00  0.00000000000E+00 -0.23769629473E+04  0.23769629473E+04  0.25500000920E-02 0.  1.
    10030    2    1    2    0    0  0.00000000000E+00  0.00000000000E+00 -0.11673965473E+04  0.35865293474E+04  0.33912207332E+04 0.  0.
        5    1    3    3  502    0 -0.60861184220E+03  0.71240540489E+03 -0.20782910083E+04  0.22797467930E+04  0.46999998093E+01 0.  1.
       -5    1    3    3    0  502  0.60861184220E+03 -0.71240540489E+03  0.91089446095E+03  0.13067825544E+04  0.46999998093E+01 0. -1.
</event>
<event>
 5   0  0.4486226E-07  0.3391911E+04  0.7818609E-02  0.8139894E-01
       -2   -1    0    0    0  501  0.00000000000E+00  0.00000000000E+00  0.16636168665E+04  0.16636168665E+04  0.25500000920E-02 0. -1.
        2   -1    0    0  501    0  0.00000000000E+00  0.00000000000E+00 -0.17289229559E+04  0.17289229559E+04  0.25500000920E-02 0.  1.
    10030    2    1    2    0    0  0.00000000000E+00  0.00000000000E+00 -0.65306089443E+02  0.33925398224E+04  0.33919111959E+04 0.  0.
        1    1    3    3  502    0 -0.36132840308E+03 -0.10287109372E+04  0.12666107925E+04  0.16712591980E+04  0.50400001928E-02 0. -1.
       -1    1    3    3    0  502  0.36132840308E+03  0.10287109372E+04 -0.13319168820E+04  0.17212806243E+04  0.50400001928E-02 0.  1.
</event>
<event>
 5   0  0.1520084E-07  0.3366051E+04  0.7818609E-02  0.8146289E-01
       -1   -1    0    0    0  501  0.00000000000E+00  0.00000000000E+00  0.11921100317E+04  0.11921100317E+04  0.50400001928E-02 0.  1.
        1   -1    0    0  501    0  0.00000000000E+00  0.00000000000E+00 -0.23761021956E+04  0.23761021956E+04  0.50400001928E-02 0. -1.
    10030    2    1    2    0    0  0.00000000000E+00  0.00000000000E+00 -0.11839921640E+04  0.35682122273E+04  0.33660512555E+04 0.  0.
        2    1    3    3  502    0 -0.88657600364E+03  0.11720961819E+04  0.27747755051E+03  0.14956003012E+04  0.25500000920E-02 0.  1.
       -2    1    3    3    0  502  0.88657600364E+03 -0.11720961819E+04 -0.14614697145E+04  0.20726119261E+04  0.25500000920E-02 0. -1.
</event>
<event>
 5   0  0.4396257E-07  0.3383284E+04  0.7818609E-02  0.8142021E-01
        2   -1    0    0  501    0  0.00000000000E+00  0.00000000000E+00  0.16268076129E+04  0.16268076129E+04  0.25500000920E-02 0. -1.
       -2   -1    0    0    0  501  0.00000000000E+00  0.00000000000E+00 -0.17590601239E+04  0.17590601239E+04  0.25500000920E-02 0.  1.
    10030    2    1    2    0    0  0.00000000000E+00  0.00000000000E+00 -0.13225251101E+03  0.33858677367E+04  0.33832838492E+04 0.  0.
        2    1    3    3  502    0 -0.26008544685E+03  0.14756399396E+04 -0.85189769198E+03  0.17236262207E+04  0.25500000920E-02 0.  1.
       -2    1    3    3    0  502  0.26008544685E+03 -0.14756399396E+04  0.71964518097E+03  0.16622415160E+04  0.25500000920E-02 0. -1.
</event>
<event>
 5   0  0.4486226E-07  0.3373123E+04  0.7818609E-02  0.8144535E-01
       -2   -1    0    0    0  501  0.00000000000E+00  0.00000000000E+00  0.11731720554E+04  0.11731720554E+04  0.25500000920E-02 0. -1.
        2   -1    0    0  501    0  0.00000000000E+00  0.00000000000E+00 -0.24246135848E+04  0.24246135848E+04  0.25500000920E-02 0.  1.
    10030    2    1    2    0    0  0.00000000000E+00  0.00000000000E+00 -0.12514415294E+04  0.35977856402E+04  0.33731225314E+04 0.  0.
        1    1    3    3  502    0 -0.13433030383E+04  0.10178775635E+04 -0.55867628016E+03  0.17755722945E+04  0.50400001928E-02 0.  1.
       -1    1    3    3    0  502  0.13433030383E+04 -0.10178775635E+04 -0.69276524921E+03  0.18222133457E+04  0.50400001928E-02 0. -1.
</event>
<event>
 5   0  0.1520084E-07  0.3422093E+04  0.7818609E-02  0.8132505E-01
        1   -1    0    0  501    0  0.00000000000E+00  0.00000000000E+00  0.23091954192E+04  0.23091954192E+04  0.50400001928E-02 0.  1.
       -1   -1    0    0    0  501  0.00000000000E+00  0.00000000000E+00 -0.12678359358E+04  0.12678359358E+04  0.50400001928E-02 0. -1.
    10030    2    1    2    0    0  0.00000000000E+00  0.00000000000E+00  0.10413594834E+04  0.35770313549E+04  0.34220934734E+04 0.  0.
        2    1    3    3  502    0 -0.15596461098E+04  0.68227962775E+03  0.34060248979E+03  0.17360908773E+04  0.25500000920E-02 0. -1.
       -2    1    3    3    0  502  0.15596461098E+04 -0.68227962775E+03  0.70075699360E+03  0.18409404776E+04  0.25500000920E-02 0.  1.
</event>
<event>
 5   0  0.1523259E-07  0.3401590E+04  0.7818609E-02  0.8137516E-01
       -1   -1    0    0    0  501  0.00000000000E+00  0.00000000000E+00  0.19230458696E+04  0.19230458696E+04  0.50400001928E-02 0. -1.
        1   -1    0    0  501    0  0.00000000000E+00  0.00000000000E+00 -0.15042298123E+04  0.15042298123E+04  0.50400001928E-02 0.  1.
    10030    2    1    2    0    0  0.00000000000E+00  0.00000000000E+00  0.41881605727E+03  0.34272756819E+04  0.34015895857E+04 0.  0.
        4    1    3    3  502    0 -0.97597363320E+03 -0.12547658886E+04  0.81873860076E+03  0.17880985647E+04  0.12699999809E+01 0. -1.
       -4    1    3    3    0  502  0.97597363320E+03  0.12547658886E+04 -0.39992254349E+03  0.16391771172E+04  0.12699999809E+01 0.  1.
</event>
<event>
 5   0  0.4447909E-07  0.3428119E+04  0.7818609E-02  0.8131039E-01
        2   -1    0    0  501    0  0.00000000000E+00  0.00000000000E+00  0.91596226348E+03  0.91596226348E+03  0.25500000920E-02 0. -1.
       -2   -1    0    0    0  501  0.00000000000E+00  0.00000000000E+00 -0.32075552612E+04  0.32075552612E+04  0.25500000920E-02 0.  1.
    10030    2    1    2    0    0  0.00000000000E+00  0.00000000000E+00 -0.22915929977E+04  0.41235175246E+04  0.34281187711E+04 0.  0.
        5    1    3    3  502    0  0.53133569228E+03  0.13987644981E+04 -0.14005319859E+03  0.15028295737E+04  0.46999998093E+01 0.  1.
       -5    1    3    3    0  502 -0.53133569228E+03 -0.13987644981E+04 -0.21515397991E+04  0.26206879509E+04  0.46999998093E+01 0. -1.
</event>
<event>
 5   0  0.1421875E-07  0.3402963E+04  0.7818609E-02  0.8137179E-01
       -1   -1    0    0    0  501  0.00000000000E+00  0.00000000000E+00  0.25659214974E+04  0.25659214974E+04  0.50400001928E-02 0. -1.
        1   -1    0    0  501    0  0.00000000000E+00  0.00000000000E+00 -0.11282649640E+04  0.11282649640E+04  0.50400001928E-02 0.  1.
    10030    2    1    2    0    0  0.00000000000E+00  0.00000000000E+00  0.14376565334E+04  0.36941864615E+04  0.34029630183E+04 0.  0.
        5    1    3    3  502    0 -0.79168972818E+03 -0.13207558597E+04  0.15045422168E+04  0.21528673993E+04  0.46999998093E+01 0. -1.
       -5    1    3    3    0  502  0.79168972818E+03  0.13207558597E+04 -0.66885683413E+02  0.15413190622E+04  0.46999998093E+01 0.  1.
</event>
<event>
 5   0  0.1435806E-07  0.3258550E+04  0.7818609E-02  0.8173523E-01
       -1   -1    0    0    0  501  0.00000000000E+00  0.00000000000E+00  0.11300353674E+04  0.11300353674E+04  0.50400001928E-02 0.  1.
        1   -1    0    0  501    0  0.00000000000E+00  0.00000000000E+00 -0.23490740089E+04  0.23490740089E+04  0.50400001928E-02 0. -1.
    10030    2    1    2    0    0  0.00000000000E+00  0.00000000000E+00 -0.12190386415E+04  0.34791093764E+04  0.32585498068E+04 0.  0.
        3    1    3    3  502    0 -0.94855819334E+03  0.17850831437E+03 -0.20109604791E+04  0.22306030402E+04  0.10100000352E+00 0. -1.
       -3    1    3    3    0  502  0.94855819334E+03 -0.17850831437E+03  0.79192183755E+03  0.12485063362E+04  0.10100000352E+00 0.  1.
</event>
<event>
 5   0  0.4381939E-07  0.3403039E+04  0.7818609E-02  0.8137161E-01
        2   -1    0    0  501    0  0.00000000000E+00  0.00000000000E+00  0.16763142377E+04  0.16763142377E+04  0.25500000920E-02 0. -1.
       -2   -1    0    0    0  501  0.00000000000E+00  0.00000000000E+00 -0.17271041594E+04  0.17271041594E+04  0.25500000920E-02 0.  1.
    10030    2    1    2    0    0  0.00000000000E+00  0.00000000000E+00 -0.50789921737E+02  0.34034183971E+04  0.34030394017E+04 0.  0.
        3    1    3    3  502    0  0.94813491233E+03  0.14091758358E+04 -0.12754807152E+03  0.17032336507E+04  0.10100000352E+00 0. -1.
       -3    1    3    3    0  502 -0.94813491233E+03 -0.14091758358E+04  0.76758149784E+02  0.17001847464E+04  0.10100000352E+00 0.  1.
</event>
<event>
 5   0  0.4447909E-07  0.3388237E+04  0.7818609E-02  0.8140799E-01
        2   -1    0    0  501    0  0.00000000000E+00  0.00000000000E+00  0.31294303959E+04  0.31294303959E+04  0.25500000920E-02 0. -1.
       -2   -1    0    0    0  501  0.00000000000E+00  0.00000000000E+00 -0.91711175161E+03  0.91711175162E+03  0.25500000920E-02 0.  1.
    10030    2    1    2    0    0  0.00000000000E+00  0.00000000000E+00  0.22123186443E+04  0.40465421475E+04  0.33882369409E+04 0.  0.
        5    1    3    3  502    0 -0.16773633152E+04 -0.18628352110E+03  0.12823570126E+04  0.21196015756E+04  0.46999998093E+01 0.  1.
       -5    1    3    3    0  502  0.16773633152E+04  0.18628352110E+03  0.92996163167E+03  0.19269405719E+04  0.46999998093E+01 0. -1.
</event>
<event>
 5   0  0.1421875E-07  0.3393784E+04  0.7818609E-02  0.8139434E-01
       -1   -1    0    0    0  501  0.00000000000E+00  0.00000000000E+00  0.17379517374E+04  0.17379517374E+04  0.50400001928E-02 0.  1.
        1   -1    0    0  501    0  0.00000000000E+00  0.00000000000E+00 -0.16568024042E+04  0.16568024042E+04  0.50400001928E-02 0. -1.
    10030    2    1    2    0    0  0.00000000000E+00  0.00000000000E+00  0.81149333286E+02  0.33947541416E+04  0.33937840927E+04 0.  0.
        5    1    3    3  502    0  0.27895541035E+03  0.15412883625E+04 -0.61232515138E+03  0.16817699362E+04  0.46999998093E+01 0. -1.
       -5    1    3    3    0  502 -0.27895541035E+03 -0.15412883625E+04  0.69347448466E+03  0.17129842054E+04  0.46999998093E+01 0.  1.
</event>
<event>
 5   0  0.1520084E-07  0.3416471E+04  0.7818609E-02  0.8133876E-01
       -1   -1    0    0    0  501  0.00000000000E+00  0.00000000000E+00  0.13852489213E+04  0.13852489213E+04  0.50400001928E-02 0. -1.
        1   -1    0    0  501    0  0.00000000000E+00  0.00000000000E+00 -0.21065298853E+04  0.21065298853E+04  0.50400001928E-02 0.  1.
    10030    2    1    2    0    0  0.00000000000E+00  0.00000000000E+00 -0.72128096392E+03  0.34917788066E+04  0.34164708407E+04 0.  0.
        2    1    3    3  502    0  0.82649912911E+03 -0.53343105946E+03 -0.17879985607E+04  0.20407323094E+04  0.25500000920E-02 0.  1.
       -2    1    3    3    0  502 -0.82649912911E+03  0.53343105946E+03  0.10667175968E+04  0.14510464972E+04  0.25500000920E-02 0. -1.
</event>
<event>
 5   0  0.4521737E-07  0.3226983E+04  0.7818609E-02  0.8181727E-01
        2   -1    0    0  501    0  0.00000000000E+00  0.00000000000E+00  0.12223852540E+04  0.12223852540E+04  0.25500000920E-02 0.  1.
       -2   -1    0    0    0  501  0.00000000000E+00  0.00000000000E+00 -0.21297330758E+04  0.21297330758E+04  0.25500000920E-02 0. -1.
    10030    2    1    2    0    0  0.00000000000E+00  0.00000000000E+00 -0.90734782186E+03  0.33521183298E+04  0.32269826816E+04 0.  0.
        4    1    3    3  502    0  0.15817656763E+04 -0.23518297627E+02 -0.78350336655E+03  0.17653370509E+04  0.12699999809E+01 0. -1.
       -4    1    3    3    0  502 -0.15817656763E+04  0.23518297627E+02 -0.12384445531E+03  0.15867812789E+04  0.12699999809E+01 0.  1.
</event>
<event>
 5   0  0.4447909E-07  0.3401320E+04  0.7818609E-02  0.8137583E-01
        2   -1    0    0  501    0  0.00000000000E+00  0.00000000000E+00  0.15033142842E+04  0.15033142842E+04  0.25500000920E-02 0. -1.
       -2   -1    0    0    0  501  0.00000000000E+00  0.00000000000E+00 -0.19239116177E+04  0.19239116177E+04  0.25500000920E-02 0.  1.
    10030    2    1    2    0    0  0.00000000000E+00  0.00000000000E+00 -0.42059733346E+03  0.34272259019E+04  0.34013196359E+04 0.  0.
        5    1    3    3  502    0  0.10859527785E+04 -0.88612222004E+03  0.76021742002E+03  0.15945089030E+04  0.46999998093E+01 0. -1.
       -5    1    3    3    0  502 -0.10859527785E+04  0.88612222004E+03 -0.11808147535E+04  0.18327169989E+04  0.46999998093E+01 0.  1.
</event>
<event>
 5   0  0.1473755E-07  0.3384093E+04  0.7818609E-02  0.8141821E-01
        1   -1    0    0  501    0  0.00000000000E+00  0.00000000000E+00  0.18879508157E+04  0.18879508157E+04  0.50400001928E-02 0. -1.
       -1   -1    0    0    0  501  0.00000000000E+00  0.00000000000E+00 -0.15164707050E+04  0.15164707050E+04  0.50400001928E-02 0.  1.
    10030    2    1    2    0    0  0.00000000000E+00  0.00000000000E+00  0.37148011072E+03  0.34044215207E+04  0.33840934411E+04 0.  0.
        1    1    3    3  502    0  0.13284450067E+04  0.96016850481E+03 -0.23670190962E+03  0.16561151794E+04  0.50400001928E-02 0.  1.
       -1    1    3    3    0  502 -0.13284450067E+04 -0.96016850481E+03  0.60818202034E+03  0.17483063414E+04  0.50400001928E-02 0. -1.
</event>
<event>
 5   0  0.4396257E-07  0.3336571E+04  0.7818609E-02  0.8153652E-01
        2   -1    0    0  501    0  0.00000000000E+00  0.00000000000E+00  0.23896914713E+04  0.23896914713E+04  0.25500000920E-02 0.  1.
       -2   -1    0    0    0  501  0.00000000000E+00  0.00000000000E+00 -0.11646592431E+04  0.11646592431E+04  0.25500000920E-02 0. -1.
    10030    2    1    2    0    0  0.00000000000E+00  0.00000000000E+00  0.12250322282E+04  0.35543507143E+04  0.33365708505E+04 0.  0.
        2    1    3    3  502    0  0.15965776342E+04 -0.48351033530E+03  0.59305125915E+03  0.17704666566E+04  0.25500000920E-02 0.  1.
       -2    1    3    3    0  502 -0.15965776342E+04  0.48351033530E+03  0.63198096902E+03  0.17838840577E+04  0.25500000920E-02 0. -1.
</event>
<event>
 5   0  0.1520084E-07  0.3306504E+04  0.7818609E-02  0.8161242E-01
       -1   -1    0    0    0  501  0.00000000000E+00  0.00000000000E+00  0.20393415123E+04  0.20393415123E+04  0.50400001928E-02 0.  1.
        1   -1    0    0  501    0  0.00000000000E+00  0.00000000000E+00 -0.13402572565E+04  0.13402572565E+04  0.50400001928E-02 0. -1.
    10030    2    1    2    0    0  0.00000000000E+00  0.00000000000E+00  0.69908425579E+03  0.33795987689E+04  0.33065040514E+04 0.  0.
        2    1    3    3  502    0  0.46627084589E+03  0.15572620758E+04  0.65748054233E+03  0.17534977439E+04  0.25500000920E-02 0.  1.
       -2    1    3    3    0  502 -0.46627084589E+03 -0.15572620758E+04  0.41603713458E+02  0.16261010250E+04  0.25500000920E-02 0. -1.
</event>
<event>
 5   0  0.4486226E-07  0.3388565E+04  0.7818609E-02  0.8140719E-01
        2   -1    0    0  501    0  0.00000000000E+00  0.00000000000E+00  0.12483751896E+04  0.12483751896E+04  0.25500000920E-02 0. -1.
       -2   -1    0    0    0  501  0.00000000000E+00  0.00000000000E+00 -0.22994634872E+04  0.22994634872E+04  0.25500000920E-02 0.  1.
    10030    2    1    2    0    0  0.00000000000E+00  0.00000000000E+00 -0.10510882976E+04  0.35478386769E+04  0.33885649865E+04 0.  0.
        1    1    3    3  502    0  0.42572515534E+03 -0.32991593135E+03 -0.22074455930E+04  0.22722021204E+04  0.50400001928E-02 0.  1.
       -1    1    3    3    0  502 -0.42572515534E+03  0.32991593135E+03  0.11563572954E+04  0.12756365565E+04  0.50400001928E-02 0. -1.
</event>
<event>
 5   0  0.1435806E-07  0.3374927E+04  0.7818609E-02  0.8144088E-01
       -1   -1    0    0    0  501  0.00000000000E+00  0.00000000000E+00  0.11446000132E+04  0.11446000132E+04  0.50400001928E-02 0. -1.
        1   -1    0    0  501    0  0.00000000000E+00  0.00000000000E+00 -0.24877977967E+04  0.24877977967E+04  0.50400001928E-02 0.  1.
    10030    2    1    2    0    0  0.00000000000E+00  0.00000000000E+00 -0.13431977835E+04  0.36323978099E+04  0.33749271939E+04 0.  0.
        3    1    3    3  502    0  0.33514179746E+02  0.97693157553E+03 -0.21520404581E+04  0.23636405495E+04  0.10100000352E+00 0.  1.
       -3    1    3    3    0  502 -0.33514179746E+02 -0.97693157553E+03  0.80884267459E+03  0.12687572605E+04  0.10100000352E+00 0. -1.
</event>
<event>
 5   0  0.1435806E-07  0.3409037E+04  0.7818609E-02  0.8135692E-01
        1   -1    0    0  501    0  0.00000000000E+00  0.00000000000E+00  0.21035907207E+04  0.21035907207E+04  0.50400001928E-02 0.  1.
       -1   -1    0    0    0  501  0.00000000000E+00  0.00000000000E+00 -0.13811543478E+04  0.13811543479E+04  0.50400001928E-02 0. -1.
    10030    2    1    2    0    0  0.00000000000E+00  0.00000000000E+00  0.72243637289E+03  0.34847450686E+04  0.34090370899E+04 0.  0.
        3    1    3    3  502    0  0.44547782537E+03 -0.99698785163E+03 -0.97664406383E+03  0.14650149852E+04  0.10100000352E+00 0. -1.
       -3    1    3    3    0  502 -0.44547782537E+03  0.99698785163E+03  0.16990804367E+04  0.20197300834E+04  0.10100000352E+00 0.  1.
</event>
<event>
 5   0  0.4521737E-07  0.3360603E+04  0.7818609E-02  0.8147644E-01
        2   -1    0    0  501    0  0.00000000000E+00  0.00000000000E+00  0.24836910136E+04  0.24836910136E+04  0.25500000920E-02 0. -1.
       -2   -1    0    0    0  501  0.00000000000E+00  0.00000000000E+00 -0.11367812609E+04  0.11367812609E+04  0.25500000920E-02 0.  1.
    10030    2    1    2    0    0  0.00000000000E+00  0.00000000000E+00  0.13469097527E+04  0.36204722745E+04  0.33606031614E+04 0.  0.
        4    1    3    3  502    0 -0.53628455256E+03 -0.91434986111E+03  0.20780259271E+04  0.23327730615E+04  0.12699999809E+01 0. -1.
       -4    1    3    3    0  502  0.53628455256E+03  0.91434986111E+03 -0.73111617439E+03  0.12876992130E+04  0.12699999809E+01 0.  1.
</event>
<event>
 5   0  0.4486226E-07  0.3400407E+04  0.7818609E-02  0.8137806E-01
        2   -1    0    0  501    0  0.00000000000E+00  0.00000000000E+00  0.23502101764E+04  0.23502101764E+04  0.25500000920E-02 0. -1.
       -2   -1    0    0    0  501  0.00000000000E+00  0.00000000000E+00 -0.12299717636E+04  0.12299717636E+04  0.25500000920E-02 0.  1.
    10030    2    1    2    0    0  0.00000000000E+00  0.00000000000E+00  0.11202384128E+04  0.35801819400E+04  0.34004071259E+04 0.  0.
        1    1    3    3  502    0  0.54401849259E+03 -0.23954513964E+03  0.22372414722E+04  0.23148622851E+04  0.50400001928E-02 0. -1.
       -1    1    3    3    0  502 -0.54401849259E+03  0.23954513964E+03 -0.11170030594E+04  0.12653196549E+04  0.50400001928E-02 0.  1.
</event>
<event>
 5   0  0.1520084E-07  0.3403664E+04  0.7818609E-02  0.8137008E-01
       -1   -1    0    0    0  501  0.00000000000E+00  0.00000000000E+00  0.18902045483E+04  0.18902045483E+04  0.50400001928E-02 0.  1.
        1   -1    0    0  501    0  0.00000000000E+00  0.00000000000E+00 -0.15322325721E+04  0.15322325721E+04  0.50400001928E-02 0. -1.
    10030    2    1    2    0    0  0.00000000000E+00  0.00000000000E+00  0.35797197625E+03  0.34224371204E+04  0.34036644822E+04 0.  0.
        2    1    3    3  502    0 -0.86388909209E+03 -0.12216437522E+04 -0.63635939984E+03  0.16259369934E+04  0.25500000920E-02 0. -1.
       -2    1    3    3    0  502  0.86388909209E+03  0.12216437522E+04  0.99433137610E+03  0.17965001270E+04  0.25500000920E-02 0.  1.
</event>
<event>
 5   0  0.1473755E-07  0.3405550E+04  0.7818609E-02  0.8136546E-01
       -1   -1    0    0    0  501  0.00000000000E+00  0.00000000000E+00  0.17396088502E+04  0.17396088502E+04  0.50400001928E-02 0.  1.
        1   -1    0    0  501    0  0.00000000000E+00  0.00000000000E+00 -0.16667207760E+04  0.16667207760E+04  0.50400001928E-02 0. -1.
    10030    2    1    2    0    0  0.00000000000E+00  0.00000000000E+00  0.72888074220E+02  0.34063296261E+04  0.34055497134E+04 0.  0.
        1    1    3    3  502    0  0.12483536364E+04 -0.87789971072E+02  0.11914155122E+04  0.17278787004E+04  0.50400001928E-02 0.  1.
       -1    1    3    3    0  502 -0.12483536364E+04  0.87789971072E+02 -0.11185274380E+04  0.16784509257E+04  0.50400001928E-02 0. -1.
</event>
<event>
 5   0  0.1421875E-07  0.3396575E+04  0.7818609E-02  0.8138747E-01
        1   -1    0    0  501    0  0.00000000000E+00  0.00000000000E+00  0.17369706742E+04  0.17369706742E+04  0.50400001928E-02 0. -1.
       -1   -1    0    0    0  501  0.00000000000E+00  0.00000000000E+00 -0.16604655877E+04  0.16604655877E+04  0.50400001928E-02 0.  1.
    10030    2    1    2    0    0  0.00000000000E+00  0.00000000000E+00  0.76505086552E+02  0.33974362619E+04  0.33965747637E+04 0.  0.
        5    1    3    3  502    0  0.55272935164E+03  0.15957317123E+04 -0.14148306432E+03  0.16946707590E+04  0.46999998093E+01 0. -1.
       -5    1    3    3    0  502 -0.55272935164E+03 -0.15957317123E+04  0.21798815087E+03  0.17027655029E+04  0.46999998093E+01 0.  1.
</event>
<event>
 5   0  0.4396257E-07  0.3386149E+04  0.7818609E-02  0.8141314E-01
       -2   -1    0    0    0  501  0.00000000000E+00  0.00000000000E+00  0.16222292595E+04  0.16222292595E+04  0.25500000920E-02 0. -1.
        2   -1    0    0  501    0  0.00000000000E+00  0.00000000000E+00 -0.17670137039E+04  0.17670137040E+04  0.25500000920E-02 0.  1.
    10030    2    1    2    0    0  0.00000000000E+00  0.00000000000E+00 -0.14478444448E+03  0.33892429634E+04  0.33861490413E+04 0.  0.
        2    1    3    3  502    0 -0.78240125211E+03 -0.14900397105E+04  0.11252309378E+03  0.16867221185E+04  0.25500000920E-02 0. -1.
       -2    1    3    3    0  502  0.78240125211E+03  0.14900397105E+04 -0.25730753826E+03  0.17025208450E+04  0.25500000920E-02 0.  1.
</event>
<event>
 5   0  0.1523259E-07  0.3412826E+04  0.7818609E-02  0.8134766E-01
        1   -1    0    0  501    0  0.00000000000E+00  0.00000000000E+00  0.22708127408E+04  0.22708127408E+04  0.50400001928E-02 0.  1.
       -1   -1    0    0    0  501  0.00000000000E+00  0.00000000000E+00 -0.12822919129E+04  0.12822919129E+04  0.50400001928E-02 0. -1.
    10030    2    1    2    0    0  0.00000000000E+00  0.00000000000E+00  0.98852082789E+03  0.35531046538E+04  0.34128256993E+04 0.  0.
        4    1    3    3  502    0 -0.40309214467E+03 -0.16289079057E+04  0.81686637349E+03  0.18663055825E+04  0.12699999809E+01 0. -1.
       -4    1    3    3    0  502  0.40309214467E+03  0.16289079057E+04  0.17165445440E+03  0.16867990713E+04  0.12699999809E+01 0.  1.
</event>
<event>
 5   0  0.4447909E-07  0.3400539E+04  0.7818609E-02  0.8137774E-01
        2   -1    0    0  501    0  0.00000000000E+00  0.00000000000E+00  0.22600630279E+04  0.22600630279E+04  0.25500000920E-02 0.  1.
       -2   -1    0    0    0  501  0.00000000000E+00  0.00000000000E+00 -0.12791311573E+04  0.12791311573E+04  0.25500000920E-02 0. -1.
    10030    2    1    2    0    0  0.00000000000E+00  0.00000000000E+00  0.98093187057E+03  0.35391941852E+04  0.34005393905E+04 0.  0.
        5    1    3    3  502    0 -0.46968500740E+03 -0.67054992586E+03  0.20414131042E+04  0.21994614708E+04  0.46999998093E+01 0.  1.
       -5    1    3    3    0  502  0.46968500740E+03  0.67054992586E+03 -0.10604812337E+04  0.13397327145E+04  0.46999998093E+01 0. -1.
</event>
<event>
 5   0  0.1421875E-07  0.3407163E+04  0.7818609E-02  0.8136150E-01
       -1   -1    0    0    0  501  0.00000000000E+00  0.00000000000E+00  0.16139736272E+04  0.16139736272E+04  0.50400001928E-02 0. -1.
        1   -1    0    0  501    0  0.00000000000E+00  0.00000000000E+00 -0.17981646247E+04  0.17981646247E+04  0.50400001928E-02 0.  1.
    10030    2    1    2    0    0  0.00000000000E+00  0.00000000000E+00 -0.18419099746E+03  0.34121382519E+04  0.34071632081E+04 0.  0.
        5    1    3    3  502    0 -0.22744174162E+03  0.72844383153E+03  0.14332200794E+04  0.16237309037E+04  0.46999998093E+01 0. -1.
       -5    1    3    3    0  502  0.22744174162E+03 -0.72844383153E+03 -0.16174110769E+04  0.17884073482E+04  0.46999998093E+01 0.  1.
</event>
<event>
 5   0  0.1473755E-07  0.3382583E+04  0.7818609E-02  0.8142194E-01
        1   -1    0    0  501    0  0.00000000000E+00  0.00000000000E+00  0.17494118513E+04  0.17494118513E+04  0.50400001928E-02 0.  1.
       -1   -1    0    0    0  501  0.00000000000E+00  0.00000000000E+00 -0.16351022550E+04  0.16351022550E+04  0.50400001928E-02 0. -1.
    10030    2    1    2    0    0  0.00000000000E+00  0.00000000000E+00  0.11430959638E+03  0.33845141063E+04  0.33825831922E+04 0.  0.
        1    1    3    3  502    0  0.23994081358E+03 -0.18772610882E+03 -0.16074218012E+04  0.16360371429E+04  0.50400001928E-02 0. -1.
       -1    1    3    3    0  502 -0.23994081358E+03  0.18772610882E+03  0.17217313976E+04  0.17484769634E+04  0.50400001928E-02 0.  1.
</event>
<event>
 5   0  0.4396257E-07  0.3387640E+04  0.7818609E-02  0.8140946E-01
       -2   -1    0    0    0  501  0.00000000000E+00  0.00000000000E+00  0.10535545023E+04  0.10535545023E+04  0.25500000920E-02 0.  1.
        2   -1    0    0  501    0  0.00000000000E+00  0.00000000000E+00 -0.27231879223E+04  0.27231879224E+04  0.25500000920E-02 0. -1.
    10030    2    1    2    0    0  0.00000000000E+00  0.00000000000E+00 -0.16696334200E+04  0.37767424247E+04  0.33876404155E+04 0.  0.
        2    1    3    3  502    0 -0.63558724730E+03  0.87501301380E+02  0.91284722315E+03  0.11157587909E+04  0.25500000920E-02 0.  1.
       -2    1    3    3    0  502  0.63558724730E+03 -0.87501301380E+02 -0.25824806432E+04  0.26609836338E+04  0.25500000920E-02 0. -1.
</event>
<event>
 5   0  0.1421875E-07  0.3399604E+04  0.7818609E-02  0.8138004E-01
       -1   -1    0    0    0  501  0.00000000000E+00  0.00000000000E+00  0.16261709074E+04  0.16261709074E+04  0.50400001928E-02 0. -1.
        1   -1    0    0  501    0  0.00000000000E+00  0.00000000000E+00 -0.17767669026E+04  0.17767669026E+04  0.50400001928E-02 0.  1.
    10030    2    1    2    0    0  0.00000000000E+00  0.00000000000E+00 -0.15059599516E+03  0.34029378100E+04  0.33996038865E+04 0.  0.
        5    1    3    3  502    0 -0.66270673809E+03 -0.14830756052E+04  0.42580365314E+03  0.16792928013E+04  0.46999998093E+01 0. -1.
       -5    1    3    3    0  502  0.66270673809E+03  0.14830756052E+04 -0.57639964830E+03  0.17236450087E+04  0.46999998093E+01 0.  1.
</event>
<event>
 5   0  0.4486226E-07  0.3398537E+04  0.7818609E-02  0.8138265E-01
       -2   -1    0    0    0  501  0.00000000000E+00  0.00000000000E+00  0.26980305017E+04  0.26980305017E+04  0.25500000920E-02 0. -1.
        2   -1    0    0  501    0  0.00000000000E+00  0.00000000000E+00 -0.10702301486E+04  0.10702301486E+04  0.25500000920E-02 0.  1.
    10030    2    1    2    0    0  0.00000000000E+00  0.00000000000E+00  0.16278003531E+04  0.37682606503E+04  0.33985370881E+04 0.  0.
        1    1    3    3  502    0  0.72409251521E+02 -0.16855270310E+04  0.58865189366E+03  0.17868283420E+04  0.50400001928E-02 0. -1.
       -1    1    3    3    0  502 -0.72409251521E+02  0.16855270310E+04  0.10391484594E+04  0.19814323084E+04  0.50400001928E-02 0.  1.
</event>
<event>
 5   0  0.1473755E-07  0.3429497E+04  0.7818609E-02  0.8130704E-01
        1   -1    0    0  501    0  0.00000000000E+00  0.00000000000E+00  0.20518263245E+04  0.20518263245E+04  0.50400001928E-02 0.  1.
       -1   -1    0    0    0  501  0.00000000000E+00  0.00000000000E+00 -0.14330466866E+04  0.14330466866E+04  0.50400001928E-02 0. -1.
    10030    2    1    2    0    0  0.00000000000E+00  0.00000000000E+00  0.61877963784E+03  0.34848730111E+04  0.34294972902E+04 0.  0.
        1    1    3    3  502    0 -0.12946376035E+04 -0.10284376426E+04  0.77125334883E+03  0.18244457342E+04  0.50400001928E-02 0.  1.
       -1    1    3    3    0  502  0.12946376035E+04  0.10284376426E+04 -0.15247371099E+03  0.16604272768E+04  0.50400001928E-02 0. -1.
</event>
<event>
 5   0  0.1520084E-07  0.3400768E+04  0.7818609E-02  0.8137718E-01
        1   -1    0    0  501    0  0.00000000000E+00  0.00000000000E+00  0.10939479178E+04  0.10939479178E+04  0.50400001928E-02 0.  1.
       -1   -1    0    0    0  501  0.00000000000E+00  0.00000000000E+00 -0.26430018127E+04  0.26430018127E+04  0.50400001928E-02 0. -1.
    10030    2    1    2    0    0  0.00000000000E+00  0.00000000000E+00 -0.15490538948E+04  0.37369497305E+04  0.34007683425E+04 0.  0.
        2    1    3    3  502    0  0.80002253335E+03 -0.19504565472E+03  0.86023015321E+03  0.11908294495E+04  0.25500000920E-02 0.  1.
       -2    1    3    3    0  502 -0.80002253335E+03  0.19504565472E+03 -0.24092840481E+04  0.25461202810E+04  0.25500000920E-02 0. -1.
</event>
<event>
 5   0  0.4521737E-07  0.3402018E+04  0.7818609E-02  0.8137411E-01
        2   -1    0    0  501    0  0.00000000000E+00  0.00000000000E+00  0.20091923587E+04  0.20091923587E+04  0.25500000920E-02 0.  1.
       -2   -1    0    0    0  501  0.00000000000E+00  0.00000000000E+00 -0.14400971313E+04  0.14400971313E+04  0.25500000920E-02 0. -1.
    10030    2    1    2    0    0  0.00000000000E+00  0.00000000000E+00  0.56909522735E+03  0.34492894900E+04  0.34020183139E+04 0.  0.
        4    1    3    3  502    0 -0.76098957443E+03 -0.10630693762E+03 -0.12541109298E+04  0.14707828305E+04  0.12699999809E+01 0. -1.
       -4    1    3    3    0  502  0.76098957443E+03  0.10630693762E+03  0.18232061571E+04  0.19785066595E+04  0.12699999809E+01 0.  1.
</event>
<event>
 5   0  0.4396257E-07  0.3373896E+04  0.7818609E-02  0.8144343E-01
        2   -1    0    0  501    0  0.00000000000E+00  0.00000000000E+00  0.21744830923E+04  0.21744830923E+04  0.25500000920E-02 0.  1.
       -2   -1    0    0    0  501  0.00000000000E+00  0.00000000000E+00 -0.13087215339E+04  0.13087215339E+04  0.25500000920E-02 0. -1.
    10030    2    1    2    0    0  0.00000000000E+00  0.00000000000E+00  0.86576155849E+03  0.34832046262E+04  0.33738955810E+04 0.  0.
        2    1    3    3  502    0  0.55581038684E+02 -0.16540214627E+04  0.95306060059E+02  0.16576970459E+04  0.25500000920E-02 0. -1.
       -2    1    3    3    0  502 -0.55581038684E+02  0.16540214627E+04  0.77045549843E+03  0.18255075803E+04  0.25500000920E-02 0.  1.
</event>
<event>
 5   0  0.4521737E-07  0.3393689E+04  0.7818609E-02  0.8139457E-01
        2   -1    0    0  501    0  0.00000000000E+00  0.00000000000E+00  0.21267650860E+04  0.21267650860E+04  0.25500000920E-02 0. -1.
       -2   -1    0    0    0  501  0.00000000000E+00  0.00000000000E+00 -0.13538314048E+04  0.13538314048E+04  0.25500000920E-02 0.  1.
    10030    2    1    2    0    0  0.00000000000E+00  0.00000000000E+00  0.77293368121E+03  0.34805964908E+04  0.33936890629E+04 0.  0.
        4    1    3    3  502    0 -0.16071915506E+04  0.83651267060E+02 -0.16509465477E+03  0.16178133615E+04  0.12699999809E+01 0. -1.
       -4    1    3    3    0  502  0.16071915506E+04 -0.83651267060E+02  0.93802833598E+03  0.18627831293E+04  0.12699999809E+01 0.  1.
</event>
<event>
 5   0  0.1520084E-07  0.3373158E+04  0.7818609E-02  0.8144526E-01
       -1   -1    0    0    0  501  0.00000000000E+00  0.00000000000E+00  0.11805532780E+04  0.11805532780E+04  0.50400001928E-02 0. -1.
        1   -1    0    0  501    0  0.00000000000E+00  0.00000000000E+00 -0.24095043861E+04  0.24095043861E+04  0.50400001928E-02 0.  1.
    10030    2    1    2    0    0  0.00000000000E+00  0.00000000000E+00 -0.12289511081E+04  0.35900576640E+04  0.33731577498E+04 0.  0.
        2    1    3    3  502    0  0.11080917352E+04 -0.88028890042E+03 -0.15909528022E+04  0.21292972222E+04  0.25500000920E-02 0.  1.
       -2    1    3    3    0  502 -0.11080917352E+04  0.88028890042E+03  0.36200169411E+03  0.14607604418E+04  0.25500000920E-02 0. -1.
</event>
<event>
 5   0  0.4486226E-07  0.3370424E+04  0.7818609E-02  0.8145204E-01
       -2   -1    0    0    0  501  0.00000000000E+00  0.00000000000E+00  0.10149526315E+04  0.10149526315E+04  0.25500000920E-02 0. -1.
        2   -1    0    0  501    0  0.00000000000E+00  0.00000000000E+00 -0.27981005329E+04  0.27981005329E+04  0.25500000920E-02 0.  1.
    10030    2    1    2    0    0  0.00000000000E+00  0.00000000000E+00 -0.17831479014E+04  0.38130531644E+04  0.33704240084E+04 0.  0.
        1    1    3    3  502    0  0.42879632421E+03  0.15184129896E+04 -0.15613496108E+04  0.22197425305E+04  0.50400001928E-02 0.  1.
       -1    1    3    3    0  502 -0.42879632421E+03 -0.15184129896E+04 -0.22179829063E+03  0.15933106340E+04  0.50400001928E-02 0. -1.
</event>
<event>
 5   0  0.1523259E-07  0.3186376E+04  0.7818609E-02  0.8192424E-01
       -1   -1    0    0    0  501  0.00000000000E+00  0.00000000000E+00  0.20653190468E+04  0.20653190468E+04  0.50400001928E-02 0. -1.
        1   -1    0    0  501    0  0.00000000000E+00  0.00000000000E+00 -0.12289861666E+04  0.12289861666E+04  0.50400001928E-02 0.  1.
    10030    2    1    2    0    0  0.00000000000E+00  0.00000000000E+00  0.83633288017E+03  0.32943052134E+04  0.31863763357E+04 0.  0.
        4    1    3    3  502    0  0.14833124507E+04 -0.16569385422E+03 -0.15800425154E+03  0.15008788213E+04  0.12699999809E+01 0. -1.
       -4    1    3    3    0  502 -0.14833124507E+04  0.16569385422E+03  0.99433713170E+03  0.17934263922E+04  0.12699999809E+01 0.  1.
</event>
<event>
 5   0  0.1520084E-07  0.3398595E+04  0.7818609E-02  0.8138251E-01
       -1   -1    0    0    0  501  0.00000000000E+00  0.00000000000E+00  0.13379989781E+04  0.13379989781E+04  0.50400001928E-02 0. -1.
        1   -1    0    0  501    0  0.00000000000E+00  0.00000000000E+00 -0.21581569442E+04  0.21581569442E+04  0.50400001928E-02 0.  1.
    10030    2    1    2    0    0  0.00000000000E+00  0.00000000000E+00 -0.82015796606E+03  0.34961559223E+04  0.33985948779E+04 0.  0.
        2    1    3    3  502    0  0.35070490267E+03 -0.41759439327E+03 -0.20656994715E+04  0.21364674846E+04  0.25500000920E-02 0.  1.
       -2    1    3    3    0  502 -0.35070490267E+03  0.41759439327E+03  0.12455415054E+04  0.13596884378E+04  0.25500000920E-02 0. -1.
</event>
<event>
 5   0  0.1473755E-07  0.3372758E+04  0.7818609E-02  0.8144625E-01
       -1   -1    0    0    0  501  0.00000000000E+00  0.00000000000E+00  0.15900517013E+04  0.15900517013E+04  0.50400001928E-02 0.  1.
        1   -1    0    0  501    0  0.00000000000E+00  0.00000000000E+00 -0.17885421407E+04  0.17885421407E+04  0.50400001928E-02 0. -1.
    10030    2    1    2    0    0  0.00000000000E+00  0.00000000000E+00 -0.19849043943E+03  0.33785938420E+04  0.33727582028E+04 0.  0.
        1    1    3    3  502    0  0.74583626752E+03  0.44579368247E+03 -0.15470385148E+04  0.17743539420E+04  0.50400001928E-02 0. -1.
       -1    1    3    3    0  502 -0.74583626752E+03 -0.44579368247E+03  0.13485480753E+04  0.16042399000E+04  0.50400001928E-02 0.  1.
</event>
<event>
 5   0  0.4486226E-07  0.3401817E+04  0.7818609E-02  0.8137460E-01
       -2   -1    0    0    0  501  0.00000000000E+00  0.00000000000E+00  0.15272420227E+04  0.15272420227E+04  0.25500000920E-02 0.  1.
        2   -1    0    0  501    0  0.00000000000E+00  0.00000000000E+00 -0.18943230907E+04  0.18943230907E+04  0.25500000920E-02 0. -1.
    10030    2    1    2    0    0  0.00000000000E+00  0.00000000000E+00 -0.36708106803E+03  0.34215651134E+04  0.34018170608E+04 0.  0.
        1    1    3    3  502    0  0.61554211762E+03  0.12902994109E+04  0.74339781323E+03  0.16113363947E+04  0.50400001928E-02 0. -1.
       -1    1    3    3    0  502 -0.61554211762E+03 -0.12902994109E+04 -0.11104788813E+04  0.18102287187E+04  0.50400001928E-02 0.  1.
</event>
<event>
 5   0  0.1435806E-07  0.3413173E+04  0.7818609E-02  0.8134681E-01
        1   -1    0    0  501    0  0.00000000000E+00  0.00000000000E+00  0.14108238322E+04  0.14108238322E+04  0.50400001928E-02 0. -1.
       -1   -1    0    0    0  501  0.00000000000E+00  0.00000000000E+00 -0.20643528307E+04  0.20643528307E+04  0.50400001928E-02 0.  1.
    10030    2    1    2    0    0  0.00000000000E+00  0.00000000000E+00 -0.65352899850E+03  0.34751766629E+04  0.34131734041E+04 0.  0.
        3    1    3    3  502    0 -0.72569907251E+03 -0.11002450903E+04 -0.14305519885E+04  0.19451625651E+04  0.10100000352E+00 0.  1.
       -3    1    3    3    0  502  0.72569907251E+03  0.11002450903E+04  0.77702298996E+03  0.15300140979E+04  0.10100000352E+00 0. -1.
</event>
<event>
 5   0  0.1421875E-07  0.3411421E+04  0.7818609E-02  0.8135109E-01
        1   -1    0    0  501    0  0.00000000000E+00  0.00000000000E+00  0.26345730065E+04  0.26345730065E+04  0.50400001928E-02 0.  1.
       -1   -1    0    0    0  501  0.00000000000E+00  0.00000000000E+00 -0.11043338388E+04  0.11043338388E+04  0.50400001928E-02 0. -1.
    10030    2    1    2    0    0  0.00000000000E+00  0.00000000000E+00  0.15302391677E+04  0.37389068453E+04  0.34114208899E+04 0.  0.
        5    1    3    3  502    0 -0.13058952578E+04  0.95435360513E+03  0.17158608406E+03  0.16265353062E+04  0.46999998093E+01 0. -1.
       -5    1    3    3    0  502  0.13058952578E+04 -0.95435360513E+03  0.13586530836E+04  0.21123715392E+04  0.46999998093E+01 0.  1.
</event>
<event>
 5   0  0.1435806E-07  0.3251958E+04  0.7818609E-02  0.8175228E-01
        1   -1    0    0  501    0  0.00000000000E+00  0.00000000000E+00  0.15238535326E+04  0.15238535326E+04  0.50400001928E-02 0. -1.
       -1   -1    0    0    0  501  0.00000000000E+00  0.00000000000E+00 -0.17349487675E+04  0.17349487675E+04  0.50400001928E-02 0.  1.
    10030    2    1    2    0    0  0.00000000000E+00  0.00000000000E+00 -0.21109523491E+03  0.32588023000E+04  0.32519580613E+04 0.  0.
        3    1    3    3  502    0 -0.39464505838E+03 -0.28442569921E+03  0.14492218985E+04  0.15286879413E+04  0.10100000352E+00 0. -1.
       -3    1    3    3    0  502  0.39464505838E+03  0.28442569921E+03 -0.16603171334E+04  0.17301143587E+04  0.10100000352E+00 0.  1.
</event>
<event>
 5   0  0.4396257E-07  0.3385016E+04  0.7818609E-02  0.8141594E-01
       -2   -1    0    0    0  501  0.00000000000E+00  0.00000000000E+00  0.16762503778E+04  0.16762503778E+04  0.25500000920E-02 0. -1.
        2   -1    0    0  501    0  0.00000000000E+00  0.00000000000E+00 -0.17089234560E+04  0.17089234560E+04  0.25500000920E-02 0.  1.
    10030    2    1    2    0    0  0.00000000000E+00  0.00000000000E+00 -0.32673078126E+02  0.33851738338E+04  0.33850161528E+04 0.  0.
        2    1    3    3  502    0  0.13004350974E+04 -0.10023552049E+04  0.39445770382E+03  0.16886220061E+04  0.25500000920E-02 0.  1.
       -2    1    3    3    0  502 -0.13004350974E+04  0.10023552049E+04 -0.42713078195E+03  0.16965518277E+04  0.25500000920E-02 0. -1.
</event>
<event>
 5   0  0.4396257E-07  0.3394937E+04  0.7818609E-02  0.8139150E-01
        2   -1    0    0  501    0  0.00000000000E+00  0.00000000000E+00  0.11504363933E+04  0.11504363933E+04  0.25500000920E-02 0. -1.
       -2   -1    0    0    0  501  0.00000000000E+00  0.00000000000E+00 -0.25046144462E+04  0.25046144462E+04  0.25500000920E-02 0.  1.
    10030    2    1    2    0    0  0.00000000000E+00  0.00000000000E+00 -0.13541780529E+04  0.36550508395E+04  0.33949371777E+04 0.  0.
        2    1    3    3  502    0 -0.14330549582E+03 -0.90202382169E+03  0.86334651946E+03  0.12568017555E+04  0.25500000920E-02 0. -1.
       -2    1    3    3    0  502  0.14330549582E+03  0.90202382169E+03 -0.22175245723E+04  0.23982490840E+04  0.25500000920E-02 0.  1.
</event>
<event>
 5   0  0.4521737E-07  0.3407813E+04  0.7818609E-02  0.8135991E-01
       -2   -1    0    0    0  501  0.00000000000E+00  0.00000000000E+00  0.21857282863E+04  0.21857282863E+04  0.25500000920E-02 0.  1.
        2   -1    0    0  501    0  0.00000000000E+00  0.00000000000E+00 -0.13282978050E+04  0.13282978050E+04  0.25500000920E-02 0. -1.
    10030    2    1    2    0    0  0.00000000000E+00  0.00000000000E+00  0.85743048134E+03  0.35140260913E+04  0.34078134250E+04 0.  0.
        4    1    3    3  502    0 -0.31134209619E+02 -0.16822512179E+04  0.15133701316E+03  0.16893321176E+04  0.12699999809E+01 0. -1.
       -4    1    3    3    0  502  0.31134209619E+02  0.16822512179E+04  0.70609346818E+03  0.18246939737E+04  0.12699999809E+01 0.  1.
</event>
<event>
 5   0  0.1435806E-07  0.3396648E+04  0.7818609E-02  0.8138730E-01
       -1   -1    0    0    0  501  0.00000000000E+00  0.00000000000E+00  0.19259932146E+04  0.19259932146E+04  0.50400001928E-02 0.  1.
        1   -1    0    0  501    0  0.00000000000E+00  0.00000000000E+00 -0.14975672072E+04  0.14975672072E+04  0.50400001928E-02 0. -1.
    10030    2    1    2    0    0  0.00000000000E+00  0.00000000000E+00  0.42842600740E+03  0.34235604217E+04  0.33966479237E+04 0.  0.
        3    1    3    3  502    0  0.14855679724E+04  0.63727438816E+01  0.10437475914E+04  0.18155885705E+04  0.10100000352E+00 0.  1.
       -3    1    3    3    0  502 -0.14855679724E+04 -0.63727438816E+01 -0.61532158404E+03  0.16079718513E+04  0.10100000352E+00 0. -1.
</event>
<event>
 5   0  0.1523259E-07  0.3396954E+04  0.7818609E-02  0.8138654E-01
        1   -1    0    0  501    0  0.00000000000E+00  0.00000000000E+00  0.14434805417E+04  0.14434805418E+04  0.50400001928E-02 0.  1.
       -1   -1    0    0    0  501  0.00000000000E+00  0.00000000000E+00 -0.19985197270E+04  0.19985197270E+04  0.50400001928E-02 0. -1.
    10030    2    1    2    0    0  0.00000000000E+00  0.00000000000E+00 -0.55503918528E+03  0.34420002688E+04  0.33969541288E+04 0.  0.
        4    1    3    3  502    0  0.12389998670E+04 -0.58764329739E+03 -0.12929956441E+04  0.18847505575E+04  0.12699999809E+01 0. -1.
       -4    1    3    3    0  502 -0.12389998670E+04  0.58764329739E+03  0.73795645884E+03  0.15572497113E+04  0.12699999809E+01 0.  1.
</event>
<event>
 5   0  0.4447909E-07  0.3407700E+04  0.7818609E-02  0.8136019E-01
        2   -1    0    0  501    0  0.00000000000E+00  0.00000000000E+00  0.17364603983E+04  0.17364603983E+04  0.25500000920E-02 0. -1.
       -2   -1    0    0    0  501  0.00000000000E+00  0.00000000000E+00 -0.16718524484E+04  0.16718524484E+04  0.25500000920E-02 0.  1.
    10030    2    1    2    0    0  0.00000000000E+00  0.00000000000E+00  0.64607949867E+02  0.34083128467E+04  0.34077004378E+04 0.  0.
        5    1    3    3  502    0 -0.12129474063E+03  0.12270126339E+04 -0.11438372259E+04  0.16818615006E+04  0.46999998093E+01 0.  1.
       -5    1    3    3    0  502  0.12129474063E+03 -0.12270126339E+04  0.12084451757E+04  0.17264513461E+04  0.46999998093E+01 0. -1.
</event>
<event>
 5   0  0.1421875E-07  0.3353661E+04  0.7818609E-02  0.8149374E-01
       -1   -1    0    0    0  501  0.00000000000E+00  0.00000000000E+00  0.28449029602E+04  0.28449029602E+04  0.50400001928E-02 0.  1.
        1   -1    0    0  501    0  0.00000000000E+00  0.00000000000E+00 -0.98835004935E+03  0.98835004936E+03  0.50400001928E-02 0. -1.
    10030    2    1    2    0    0  0.00000000000E+00  0.00000000000E+00  0.18565529108E+04  0.38332530095E+04  0.33536606752E+04 0.  0.
        5    1    3    3  502    0  0.90760269725E+03  0.11981896787E+04  0.78801990134E+02  0.15052019817E+04  0.46999998093E+01 0. -1.
       -5    1    3    3    0  502 -0.90760269725E+03 -0.11981896787E+04  0.17777509207E+04  0.23280510278E+04  0.46999998093E+01 0.  1.
</event>
<event>
 5   0  0.1520084E-07  0.3415636E+04  0.7818609E-02  0.8134079E-01
        1   -1    0    0  501    0  0.00000000000E+00  0.00000000000E+00  0.17059561046E+04  0.17059561046E+04  0.50400001928E-02 0.  1.
       -1   -1    0    0    0  501  0.00000000000E+00  0.00000000000E+00 -0.17096821924E+04  0.17096821924E+04  0.50400001928E-02 0. -1.
    10030    2    1    2    0    0  0.00000000000E+00  0.00000000000E+00 -0.37260877248E+01  0.34156382970E+04  0.34156362646E+04 0.  0.
        2    1    3    3  502    0  0.58214775925E+03  0.10144935280E+04 -0.12462711296E+04  0.17091766616E+04  0.25500000920E-02 0. -1.
       -2    1    3    3    0  502 -0.58214775925E+03 -0.10144935280E+04  0.12425450419E+04  0.17064616354E+04  0.25500000920E-02 0.  1.
</event>
<event>
 5   0  0.4381939E-07  0.3405164E+04  0.7818609E-02  0.8136640E-01
       -2   -1    0    0    0  501  0.00000000000E+00  0.00000000000E+00  0.26296404172E+04  0.26296404172E+04  0.25500000920E-02 0.  1.
        2   -1    0    0  501    0  0.00000000000E+00  0.00000000000E+00 -0.11023506802E+04  0.11023506802E+04  0.25500000920E-02 0. -1.
    10030    2    1    2    0    0  0.00000000000E+00  0.00000000000E+00  0.15272897369E+04  0.37319910974E+04  0.34051642560E+04 0.  0.
        3    1    3    3  502    0 -0.12428533773E+04  0.42727392967E+03  0.19499073379E+04  0.23514646850E+04  0.10100000352E+00 0. -1.
       -3    1    3    3    0  502  0.12428533773E+04 -0.42727392967E+03 -0.42261760091E+03  0.13805264124E+04  0.10100000352E+00 0.  1.
</event>
<event>
 5   0  0.1435806E-07  0.3392303E+04  0.7818609E-02  0.8139798E-01
        1   -1    0    0  501    0  0.00000000000E+00  0.00000000000E+00  0.15487686673E+04  0.15487686673E+04  0.50400001928E-02 0. -1.
       -1   -1    0    0    0  501  0.00000000000E+00  0.00000000000E+00 -0.18575598677E+04  0.18575598677E+04  0.50400001928E-02 0.  1.
    10030    2    1    2    0    0  0.00000000000E+00  0.00000000000E+00 -0.30879120039E+03  0.34063285351E+04  0.33923033596E+04 0.  0.
        3    1    3    3  502    0 -0.16953303529E+04 -0.22500669171E+02 -0.10645698827E+03  0.16988185265E+04  0.10100000352E+00 0. -1.
       -3    1    3    3    0  502  0.16953303529E+04  0.22500669171E+02 -0.20233421212E+03  0.17075100085E+04  0.10100000352E+00 0.  1.
</event>
<event>
 5   0  0.1435806E-07  0.3399924E+04  0.7818609E-02  0.8137925E-01
       -1   -1    0    0    0  501  0.00000000000E+00  0.00000000000E+00  0.11621121612E+04  0.11621121612E+04  0.50400001928E-02 0.  1.
        1   -1    0    0  501    0  0.00000000000E+00  0.00000000000E+00 -0.24867405497E+04  0.24867405498E+04  0.50400001928E-02 0. -1.
    10030    2    1    2    0    0  0.00000000000E+00  0.00000000000E+00 -0.13246283885E+04  0.36488527110E+04  0.33999243725E+04 0.  0.
        3    1    3    3  502    0 -0.15522173899E+04  0.48153639885E+03 -0.11974339670E+04  0.20186887438E+04  0.10100000352E+00 0. -1.
       -3    1    3    3    0  502  0.15522173899E+04 -0.48153639885E+03 -0.12719442152E+03  0.16301639672E+04  0.10100000352E+00 0.  1.
</event>
<event>
 5   0  0.1435806E-07  0.3392930E+04  0.7818609E-02  0.8139644E-01
       -1   -1    0    0    0  501  0.00000000000E+00  0.00000000000E+00  0.97234033961E+03  0.97234033962E+03  0.50400001928E-02 0.  1.
        1   -1    0    0  501    0  0.00000000000E+00  0.00000000000E+00 -0.29598629522E+04  0.29598629522E+04  0.50400001928E-02 0. -1.
    10030    2    1    2    0    0  0.00000000000E+00  0.00000000000E+00 -0.19875226126E+04  0.39322032919E+04  0.33929303843E+04 0.  0.
        3    1    3    3  502    0 -0.86990097987E+03  0.96799450996E+03  0.26743668329E+03  0.13286321823E+04  0.10100000352E+00 0.  1.
       -3    1    3    3    0  502  0.86990097987E+03 -0.96799450996E+03 -0.22549592959E+04  0.26035711095E+04  0.10100000352E+00 0. -1.
</event>
<event>
 5   0  0.1520084E-07  0.3371369E+04  0.7818609E-02  0.8144969E-01
       -1   -1    0    0    0  501  0.00000000000E+00  0.00000000000E+00  0.11581572064E+04  0.11581572064E+04  0.50400001928E-02 0.  1.
        1   -1    0    0  501    0  0.00000000000E+00  0.00000000000E+00 -0.24534944385E+04  0.24534944385E+04  0.50400001928E-02 0. -1.
    10030    2    1    2    0    0  0.00000000000E+00  0.00000000000E+00 -0.12953372321E+04  0.36116516449E+04  0.33713690186E+04 0.  0.
        2    1    3    3  502    0  0.26929343694E+03  0.11974336970E+04  0.59017896147E+03  0.13618654928E+04  0.25500000920E-02 0.  1.
       -2    1    3    3    0  502 -0.26929343694E+03 -0.11974336970E+04 -0.18855161936E+04  0.22497861521E+04  0.25500000920E-02 0. -1.
</event>
<event>
 5   0  0.1523259E-07  0.3397225E+04  0.7818609E-02  0.8138588E-01
       -1   -1    0    0    0  501  0.00000000000E+00  0.00000000000E+00  0.10778696509E+04  0.10778696509E+04  0.50400001928E-02 0.  1.
        1   -1    0    0  501    0  0.00000000000E+00  0.00000000000E+00 -0.26768399076E+04  0.26768399076E+04  0.50400001928E-02 0. -1.
    10030    2    1    2    0    0  0.00000000000E+00  0.00000000000E+00 -0.15989702567E+04  0.37547095585E+04  0.33972250421E+04 0.  0.
        4    1    3    3  502    0 -0.61111871503E+03  0.84639453440E+03 -0.22804223346E+04  0.25080226133E+04  0.12699999809E+01 0. -1.
       -4    1    3    3    0  502  0.61111871503E+03 -0.84639453440E+03  0.68145207795E+03  0.12466869451E+04  0.12699999809E+01 0.  1.
</event>
<event>
 5   0  0.1523259E-07  0.3400326E+04  0.7818609E-02  0.8137826E-01
        1   -1    0    0  501    0  0.00000000000E+00  0.00000000000E+00  0.21759160782E+04  0.21759160782E+04  0.50400001928E-02 0. -1.
       -1   -1    0    0    0  501  0.00000000000E+00  0.00000000000E+00 -0.13284311375E+04  0.13284311375E+04  0.50400001928E-02 0.  1.
    10030    2    1    2    0    0  0.00000000000E+00  0.00000000000E+00  0.84748494072E+03  0.35043472157E+04  0.34003262613E+04 0.  0.
        4    1    3    3  502    0  0.12816444866E+04  0.73357886374E+02 -0.72505921934E+03  0.14743495020E+04  0.12699999809E+01 0.  1.
       -4    1    3    3    0  502 -0.12816444866E+04 -0.73357886374E+02  0.15725441601E+04  0.20299977137E+04  0.12699999809E+01 0. -1.
</event>
<event>
 5   0  0.4381939E-07  0.3404129E+04  0.7818609E-02  0.8136894E-01
       -2   -1    0    0    0  501  0.00000000000E+00  0.00000000000E+00  0.99760981807E+03  0.99760981808E+03  0.25500000920E-02 0.  1.
        2   -1    0    0  501    0  0.00000000000E+00  0.00000000000E+00 -0.29039642417E+04  0.29039642417E+04  0.25500000920E-02 0. -1.
    10030    2    1    2    0    0  0.00000000000E+00  0.00000000000E+00 -0.19063544236E+04  0.39015740598E+04  0.34041288100E+04 0.  0.
        3    1    3    3  502    0 -0.16959287690E+04 -0.10265653191E+03 -0.83679858683E+03  0.18939230813E+04  0.10100000352E+00 0.  1.
       -3    1    3    3    0  502  0.16959287690E+04  0.10265653191E+03 -0.10695558368E+04  0.20076509784E+04  0.10100000352E+00 0. -1.
</event>
<event>
 5   0  0.4521737E-07  0.3428462E+04  0.7818609E-02  0.8130956E-01
        2   -1    0    0  501    0  0.00000000000E+00  0.00000000000E+00  0.23156157343E+04  0.23156157343E+04  0.25500000920E-02 0.  1.
       -2   -1    0    0    0  501  0.00000000000E+00  0.00000000000E+00 -0.12690308964E+04  0.12690308964E+04  0.25500000920E-02 0. -1.
    10030    2    1    2    0    0  0.00000000000E+00  0.00000000000E+00  0.10465848380E+04  0.35846466307E+04  0.34284619939E+04 0.  0.
        4    1    3    3  502    0 -0.46523737477E+03 -0.16350268561E+04  0.75432859056E+03  0.18597773712E+04  0.12699999809E+01 0. -1.
       -4    1    3    3    0  502  0.46523737477E+03  0.16350268561E+04  0.29225624739E+03  0.17248692594E+04  0.12699999809E+01 0.  1.
</event>
<event>
 5   0  0.4521737E-07  0.3392924E+04  0.7818609E-02  0.8139645E-01
       -2   -1    0    0    0  501  0.00000000000E+00  0.00000000000E+00  0.13869533719E+04  0.13869533719E+04  0.25500000920E-02 0. -1.
        2   -1    0    0  501    0  0.00000000000E+00  0.00000000000E+00 -0.20750396969E+04  0.20750396969E+04  0.25500000920E-02 0.  1.
    10030    2    1    2    0    0  0.00000000000E+00  0.00000000000E+00 -0.68808632500E+03  0.34619930689E+04  0.33929239924E+04 0.  0.
        4    1    3    3  502    0 -0.38848870675E+03  0.38972866169E+03  0.12933576345E+04  0.14055559358E+04  0.12699999809E+01 0. -1.
       -4    1    3    3    0  502  0.38848870675E+03 -0.38972866169E+03 -0.19814439595E+04  0.20564371331E+04  0.12699999809E+01 0.  1.
</event>
<event>
 5   0  0.1421875E-07  0.3421913E+04  0.7818609E-02  0.8132549E-01
        1   -1    0    0  501    0  0.00000000000E+00  0.00000000000E+00  0.33868052054E+04  0.33868052054E+04  0.50400001928E-02 0. -1.
       -1   -1    0    0    0  501  0.00000000000E+00  0.00000000000E+00 -0.86434604061E+03  0.86434604063E+03  0.50400001928E-02 0.  1.
    10030    2    1    2    0    0  0.00000000000E+00  0.00000000000E+00  0.25224591648E+04  0.42511512460E+04  0.34219127222E+04 0.  0.
        5    1    3    3  502    0  0.38677693707E+03 -0.15886192479E+04  0.63506219314E+03  0.17540335211E+04  0.46999998093E+01 0.  1.
       -5    1    3    3    0  502 -0.38677693707E+03  0.15886192479E+04  0.18873969716E+04  0.24971177250E+04  0.46999998093E+01 0. -1.
</event>
<event>
 5   0  0.1435806E-07  0.3392030E+04  0.7818609E-02  0.8139865E-01
       -1   -1    0    0    0  501  0.00000000000E+00  0.00000000000E+00  0.13275780114E+04  0.13275780115E+04  0.50400001928E-02 0. -1.
        1   -1    0    0  501    0  0.00000000000E+00  0.00000000000E+00 -0.21667024493E+04  0.21667024493E+04  0.50400001928E-02 0.  1.
    10030    2    1    2    0    0  0.00000000000E+00  0.00000000000E+00 -0.83912443787E+03  0.34942804608E+04  0.33920297930E+04 0.  0.
        3    1    3    3  502    0  0.74710214571E+03  0.12501904355E+04  0.47573269504E+03  0.15321420784E+04  0.10100000352E+00 0. -1.
       -3    1    3    3    0  502 -0.74710214571E+03 -0.12501904355E+04 -0.13148571329E+04  0.19621383823E+04  0.10100000352E+00 0.  1.
</event>
<event>
 5   0  0.4521737E-07  0.3402022E+04  0.7818609E-02  0.8137410E-01
       -2   -1    0    0    0  501  0.00000000000E+00  0.00000000000E+00  0.13942023021E+04  0.13942023021E+04  0.25500000920E-02 0.  1.
        2   -1    0    0  501    0  0.00000000000E+00  0.00000000000E+00 -0.20753357209E+04  0.20753357209E+04  0.25500000920E-02 0. -1.
    10030    2    1    2    0    0  0.00000000000E+00  0.00000000000E+00 -0.68113341880E+03  0.34695380231E+04  0.34020216577E+04 0.  0.
        4    1    3    3  502    0 -0.16062080190E+04 -0.39711863702E+03  0.62019098663E+02  0.16557340951E+04  0.12699999809E+01 0.  1.
       -4    1    3    3    0  502  0.16062080190E+04  0.39711863702E+03 -0.74315251747E+03  0.18138039280E+04  0.12699999809E+01 0. -1.
</event>
<event>
 5   0  0.4447909E-07  0.3402023E+04  0.7818609E-02  0.8137410E-01
        2   -1    0    0  501    0  0.00000000000E+00  0.00000000000E+00  0.19530040748E+04  0.19530040748E+04  0.25500000920E-02 0. -1.
       -2   -1    0    0    0  501  0.00000000000E+00  0.00000000000E+00 -0.14815329825E+04  0.14815329825E+04  0.25500000920E-02 0.  1.
    10030    2    1    2    0    0  0.00000000000E+00  0.00000000000E+00  0.47147109234E+03  0.34345370573E+04  0.34020228993E+04 0.  0.
        5    1    3    3  502    0 -0.58585022104E+03  0.60675591870E+03 -0.12555568008E+04  0.15125535350E+04  0.46999998093E+01 0.  1.
       -5    1    3    3    0  502  0.58585022104E+03 -0.60675591870E+03  0.17270278931E+04  0.19219835223E+04  0.46999998093E+01 0. -1.
</event>
<event>
 5   0  0.1421875E-07  0.3393700E+04  0.7818609E-02  0.8139454E-01
       -1   -1    0    0    0  501  0.00000000000E+00  0.00000000000E+00  0.15551059522E+04  0.15551059522E+04  0.50400001928E-02 0.  1.
        1   -1    0    0  501    0  0.00000000000E+00  0.00000000000E+00 -0.18515133196E+04  0.18515133196E+04  0.50400001928E-02 0. -1.
    10030    2    1    2    0    0  0.00000000000E+00  0.00000000000E+00 -0.29640736745E+03  0.34066192718E+04  0.33936996826E+04 0.  0.
        5    1    3    3  502    0  0.13377153602E+04  0.77567471381E+02  0.89680619498E+03  0.16123841164E+04  0.46999998093E+01 0.  1.
       -5    1    3    3    0  502 -0.13377153602E+04 -0.77567471381E+02 -0.11932135624E+04  0.17942351554E+04  0.46999998093E+01 0. -1.
</event>
<event>
 5   0  0.1435806E-07  0.3400419E+04  0.7818609E-02  0.8137803E-01
        1   -1    0    0  501    0  0.00000000000E+00  0.00000000000E+00  0.24835218555E+04  0.24835218555E+04  0.50400001928E-02 0.  1.
       -1   -1    0    0    0  501  0.00000000000E+00  0.00000000000E+00 -0.11639571038E+04  0.11639571038E+04  0.50400001928E-02 0. -1.
    10030    2    1    2    0    0  0.00000000000E+00  0.00000000000E+00  0.13195647518E+04  0.36474789593E+04  0.34004193307E+04 0.  0.
        3    1    3    3  502    0  0.11633924320E+04 -0.71766472098E+03 -0.42470817000E+03  0.14313984918E+04  0.10100000352E+00 0. -1.
       -3    1    3    3    0  502 -0.11633924320E+04  0.71766472098E+03  0.17442729217E+04  0.22160804675E+04  0.10100000352E+00 0.  1.
</event>
<event>
 5   0  0.4396257E-07  0.3396111E+04  0.7818609E-02  0.8138861E-01
        2   -1    0    0  501    0  0.00000000000E+00  0.00000000000E+00  0.19166633616E+04  0.19166633616E+04  0.25500000920E-02 0.  1.
       -2   -1    0    0    0  501  0.00000000000E+00  0.00000000000E+00 -0.15043815392E+04  0.15043815392E+04  0.25500000920E-02 0. -1.
    10030    2    1    2    0    0  0.00000000000E+00  0.00000000000E+00  0.41228182236E+03  0.34210449008E+04  0.33961112926E+04 0.  0.
        2    1    3    3  502    0  0.16572713340E+04  0.17872664499E+03  0.53240380838E+03  0.17498415081E+04  0.25500000920E-02 0.  1.
       -2    1    3    3    0  502 -0.16572713340E+04 -0.17872664499E+03 -0.12012198602E+03  0.16712033927E+04  0.25500000920E-02 0. -1.
</event>
<event>
 5   0  0.4447909E-07  0.3378012E+04  0.7818609E-02  0.8143324E-01
       -2   -1    0    0    0  501  0.00000000000E+00  0.00000000000E+00  0.14027888617E+04  0.14027888617E+04  0.25500000920E-02 0. -1.
        2   -1    0    0  501    0  0.00000000000E+00  0.00000000000E+00 -0.20336218149E+04  0.20336218149E+04  0.25500000920E-02 0.  1.
    10030    2    1    2    0    0  0.00000000000E+00  0.00000000000E+00 -0.63083295312E+03  0.34364106766E+04  0.33780124516E+04 0.  0.
        5    1    3    3  502    0 -0.10065178488E+04 -0.89290230135E+03 -0.13540305203E+04  0.19088670566E+04  0.46999998093E+01 0.  1.
       -5    1    3    3    0  502  0.10065178488E+04  0.89290230135E+03  0.72319756721E+03  0.15275436200E+04  0.46999998093E+01 0. -1.
</event>
<event>
 5   0  0.4486226E-07  0.3369024E+04  0.7818609E-02  0.8145551E-01
       -2   -1    0    0    0  501  0.00000000000E+00  0.00000000000E+00  0.10523857768E+04  0.10523857768E+04  0.25500000920E-02 0.  1.
        2   -1    0    0  501    0  0.00000000000E+00  0.00000000000E+00 -0.26963311419E+04  0.26963311419E+04  0.25500000920E-02 0. -1.
    10030    2    1    2    0    0  0.00000000000E+00  0.00000000000E+00 -0.16439453651E+04  0.37487169187E+04  0.33690239199E+04 0.  0.
        1    1    3    3  502    0  0.38564697350E+02 -0.33401892167E+03  0.10146668328E+04  0.10689268719E+04  0.50400001928E-02 0.  1.
       -1    1    3    3    0  502 -0.38564697350E+02  0.33401892167E+03 -0.26586121979E+04  0.26797900467E+04  0.50400001928E-02 0. -1.
</event>
<event>
 5   0  0.4521737E-07  0.3456414E+04  0.7818609E-02  0.8124198E-01
       -2   -1    0    0    0  501  0.00000000000E+00  0.00000000000E+00  0.10910207511E+04  0.10910207511E+04  0.25500000920E-02 0.  1.
        2   -1    0    0  501    0  0.00000000000E+00  0.00000000000E+00 -0.27375281071E+04  0.27375281071E+04  0.25500000920E-02 0. -1.
    10030    2    1    2    0    0  0.00000000000E+00  0.00000000000E+00 -0.16465073560E+04  0.38285488582E+04  0.34564143106E+04 0.  0.
        4    1    3    3  502    0 -0.11642759984E+04 -0.73877601323E+03  0.33072360098E+03  0.14179944680E+04  0.12699999809E+01 0.  1.
       -4    1    3    3    0  502  0.11642759984E+04  0.73877601323E+03 -0.19772309569E+04  0.24105543902E+04  0.12699999809E+01 0. -1.
</event>
<event>
 5   0  0.4447909E-07  0.3392002E+04  0.7818609E-02  0.8139872E-01
        2   -1    0    0  501    0  0.00000000000E+00  0.00000000000E+00  0.27508079079E+04  0.27508079079E+04  0.25500000920E-02 0.  1.
       -2   -1    0    0    0  501  0.00000000000E+00  0.00000000000E+00 -0.10456634554E+04  0.10456634554E+04  0.25500000920E-02 0. -1.
    10030    2    1    2    0    0  0.00000000000E+00  0.00000000000E+00  0.17051444525E+04  0.37964713633E+04  0.33920019470E+04 0.  0.
        5    1    3    3  502    0 -0.80360290069E+03  0.62177116628E+03 -0.66729928080E+03  0.12156016722E+04  0.46999998093E+01 0. -1.
       -5    1    3    3    0  502  0.80360290069E+03 -0.62177116628E+03  0.23724437333E+04  0.25808696912E+04  0.46999998093E+01 0.  1.
</event>
<event>
 5   0  0.4381939E-07  0.3389302E+04  0.7818609E-02  0.8140537E-01
       -2   -1    0    0    0  501  0.00000000000E+00  0.00000000000E+00  0.17717184937E+04  0.17717184937E+04  0.25500000920E-02 0. -1.
        2   -1    0    0  501    0  0.00000000000E+00  0.00000000000E+00 -0.16209361712E+04  0.16209361712E+04  0.25500000920E-02 0.  1.
    10030    2    1    2    0    0  0.00000000000E+00  0.00000000000E+00  0.15078232256E+03  0.33926546649E+04  0.33893023422E+04 0.  0.
        3    1    3    3  502    0  0.29392087006E+03  0.16675995347E+04  0.77603247106E+01  0.16933215639E+04  0.10100000352E+00 0.  1.
       -3    1    3    3    0  502 -0.29392087006E+03 -0.16675995347E+04  0.14302199784E+03  0.16993331010E+04  0.10100000352E+00 0. -1.
</event>
<event>
 5   0  0.1523259E-07  0.3403293E+04  0.7818609E-02  0.8137099E-01
        1   -1    0    0  501    0  0.00000000000E+00  0.00000000000E+00  0.17844012017E+04  0.17844012017E+04  0.50400001928E-02 0.  1.
       -1   -1    0    0    0  501  0.00000000000E+00  0.00000000000E+00 -0.16227298040E+04  0.16227298040E+04  0.50400001928E-02 0. -1.
    10030    2    1    2    0    0  0.00000000000E+00  0.00000000000E+00  0.16167139771E+03  0.34071310057E+04  0.34032931183E+04 0.  0.
        4    1    3    3  502    0  0.37719674066E+03  0.15706928796E+04  0.61645856823E+03  0.17289812846E+04  0.12699999809E+01 0. -1.
       -4    1    3    3    0  502 -0.37719674066E+03 -0.15706928796E+04 -0.45478717051E+03  0.16781497211E+04  0.12699999809E+01 0.  1.
</event>
<event>
 5   0  0.4447909E-07  0.3362668E+04  0.7818609E-02  0.8147130E-01
        2   -1    0    0  501    0  0.00000000000E+00  0.00000000000E+00  0.28120199061E+04  0.28120199061E+04  0.25500000920E-02 0. -1.
       -2   -1    0    0    0  501  0.00000000000E+00  0.00000000000E+00 -0.10052861918E+04  0.10052861918E+04  0.25500000920E-02 0.  1.
    10030    2    1    2    0    0  0.00000000000E+00  0.00000000000E+00  0.18067337143E+04  0.38173060978E+04  0.33626684538E+04 0.  0.
        5    1    3    3  502    0 -0.97603229602E+03  0.21734514865E+03 -0.63103952381E+03  0.11824174082E+04  0.46999998093E+01 0.  1.
       -5    1    3    3    0  502  0.97603229602E+03 -0.21734514865E+03  0.24377732381E+04  0.26348886897E+04  0.46999998093E+01 0. -1.
</event>
<event>
 5   0  0.1421875E-07  0.3388611E+04  0.7818609E-02  0.8140707E-01
        1   -1    0    0  501    0  0.00000000000E+00  0.00000000000E+00  0.21928861772E+04  0.21928861772E+04  0.50400001928E-02 0. -1.
       -1   -1    0    0    0  501  0.00000000000E+00  0.00000000000E+00 -0.13090833993E+04  0.13090833993E+04  0.50400001928E-02 0.  1.
    10030    2    1    2    0    0  0.00000000000E+00  0.00000000000E+00  0.88380277798E+03  0.35019695765E+04  0.33886108606E+04 0.  0.
        5    1    3    3  502    0 -0.91929369803E+03  0.13903081830E+04  0.75636846665E+03  0.18303478069E+04  0.46999998093E+01 0. -1.
       -5    1    3    3    0  502  0.91929369803E+03 -0.13903081830E+04  0.12743431133E+03  0.16716217696E+04  0.46999998093E+01 0.  1.
</event>
<event>
 5   0  0.1421875E-07  0.3400290E+04  0.7818609E-02  0.8137835E-01
        1   -1    0    0  501    0  0.00000000000E+00  0.00000000000E+00  0.25988017355E+04  0.25988017355E+04  0.50400001928E-02 0. -1.
       -1   -1    0    0    0  501  0.00000000000E+00  0.00000000000E+00 -0.11122406391E+04  0.11122406391E+04  0.50400001928E-02 0.  1.
    10030    2    1    2    0    0  0.00000000000E+00  0.00000000000E+00  0.14865610964E+04  0.37110423746E+04  0.34002899307E+04 0.  0.
        5    1    3    3  502    0 -0.10991525450E+04 -0.94895749644E+03  0.17082903658E+04  0.22420826726E+04  0.46999998093E+01 0. -1.
       -5    1    3    3    0  502  0.10991525450E+04  0.94895749644E+03 -0.22172926939E+03  0.14689597020E+04  0.46999998093E+01 0.  1.
</event>
<event>
 5   0  0.1421875E-07  0.3367621E+04  0.7818609E-02  0.8145899E-01
        1   -1    0    0  501    0  0.00000000000E+00  0.00000000000E+00  0.19053859945E+04  0.19053859945E+04  0.50400001928E-02 0. -1.
       -1   -1    0    0    0  501  0.00000000000E+00  0.00000000000E+00 -0.14880016499E+04  0.14880016499E+04  0.50400001928E-02 0.  1.
    10030    2    1    2    0    0  0.00000000000E+00  0.00000000000E+00  0.41738434456E+03  0.33933876445E+04  0.33676208240E+04 0.  0.
        5    1    3    3  502    0  0.15777098772E+04  0.66464056042E+02 -0.38025351914E+03  0.16242539076E+04  0.46999998093E+01 0. -1.
       -5    1    3    3    0  502 -0.15777098772E+04 -0.66464056042E+02  0.79763786370E+03  0.17691337369E+04  0.46999998093E+01 0.  1.
</event>
<event>
 5   0  0.1473755E-07  0.3411414E+04  0.7818609E-02  0.8135111E-01
        1   -1    0    0  501    0  0.00000000000E+00  0.00000000000E+00  0.20874277031E+04  0.20874277031E+04  0.50400001928E-02 0. -1.
       -1   -1    0    0    0  501  0.00000000000E+00  0.00000000000E+00 -0.13937901481E+04  0.13937901481E+04  0.50400001928E-02 0.  1.
    10030    2    1    2    0    0  0.00000000000E+00  0.00000000000E+00  0.69363755496E+03  0.34812178512E+04  0.34114138814E+04 0.  0.
        1    1    3    3  502    0  0.14964341617E+04  0.53153417614E+03  0.98212690098E+03  0.18671949631E+04  0.50400001928E-02 0. -1.
       -1    1    3    3    0  502 -0.14964341617E+04 -0.53153417614E+03 -0.28848934603E+03  0.16140228881E+04  0.50400001928E-02 0.  1.
</event>
<event>
 5   0  0.4381939E-07  0.3407204E+04  0.7818609E-02  0.8136140E-01
       -2   -1    0    0    0  501  0.00000000000E+00  0.00000000000E+00  0.18596314904E+04  0.18596314904E+04  0.25500000920E-02 0. -1.
        2   -1    0    0  501    0  0.00000000000E+00  0.00000000000E+00 -0.15606639389E+04  0.15606639389E+04  0.25500000920E-02 0.  1.
    10030    2    1    2    0    0  0.00000000000E+00  0.00000000000E+00  0.29896755149E+03  0.34202954293E+04  0.34072040190E+04 0.  0.
        3    1    3    3  502    0  0.12568042070E+04 -0.79934675285E+03 -0.68058377383E+03  0.16375916247E+04  0.10100000352E+00 0.  1.
       -3    1    3    3    0  502 -0.12568042070E+04  0.79934675285E+03  0.97955132532E+03  0.17827038046E+04  0.10100000352E+00 0. -1.
</event>
<event>
 5   0  0.1421875E-07  0.3325854E+04  0.7818609E-02  0.8156348E-01
       -4   -1    0    0    0  501  0.00000000000E+00  0.00000000000E+00  0.15265544395E+04  0.15265549678E+04  0.12699999809E+01 0. -1.
        4   -1    0    0  501    0  0.00000000000E+00  0.00000000000E+00 -0.18114807897E+04  0.18114812349E+04  0.12699999809E+01 0.  1.
    10030    2    1    2    0    0  0.00000000000E+00  0.00000000000E+00 -0.28492635013E+03  0.33380362027E+04  0.33258536747E+04 0.  0.
        5    1    3    3  502    0 -0.10118348090E+04 -0.93878847591E+03  0.78838761971E+03  0.15895630256E+04  0.46999998093E+01 0. -1.
       -5    1    3    3    0  502  0.10118348090E+04  0.93878847591E+03 -0.10733139698E+04  0.17484731771E+04  0.46999998093E+01 0.  1.
</event>
<event>
 5   0  0.1523259E-07  0.3417570E+04  0.7818609E-02  0.8133607E-01
        1   -1    0    0  501    0  0.00000000000E+00  0.00000000000E+00  0.24015362862E+04  0.24015362862E+04  0.50400001928E-02 0.  1.
       -1   -1    0    0    0  501  0.00000000000E+00  0.00000000000E+00 -0.12158661715E+04  0.12158661715E+04  0.50400001928E-02 0. -1.
    10030    2    1    2    0    0  0.00000000000E+00  0.00000000000E+00  0.11856701147E+04  0.36174024577E+04  0.34175703241E+04 0.  0.
        4    1    3    3  502    0  0.17085378823E+04 -0.11035454337E+02  0.62126918012E+03  0.18180210350E+04  0.12699999809E+01 0.  1.
       -4    1    3    3    0  502 -0.17085378823E+04  0.11035454337E+02  0.56440093456E+03  0.17993814227E+04  0.12699999809E+01 0. -1.
</event>
<event>
 5   0  0.4396257E-07  0.3408750E+04  0.7818609E-02  0.8135762E-01
       -2   -1    0    0    0  501  0.00000000000E+00  0.00000000000E+00  0.11571227136E+04  0.11571227136E+04  0.25500000920E-02 0. -1.
        2   -1    0    0  501    0  0.00000000000E+00  0.00000000000E+00 -0.25104466676E+04  0.25104466676E+04  0.25500000920E-02 0.  1.
    10030    2    1    2    0    0  0.00000000000E+00  0.00000000000E+00 -0.13533239541E+04  0.36675693812E+04  0.34087504223E+04 0.  0.
        2    1    3    3  502    0  0.29645956478E+03 -0.13244578521E+04 -0.17858689243E+04  0.22430792876E+04  0.25500000920E-02 0.  1.
       -2    1    3    3    0  502 -0.29645956478E+03  0.13244578521E+04  0.43254497025E+03  0.14244900936E+04  0.25500000920E-02 0. -1.
</event>
<event>
 5   0  0.4396257E-07  0.3398527E+04  0.7818609E-02  0.8138268E-01
        2   -1    0    0  501    0  0.00000000000E+00  0.00000000000E+00  0.26734414122E+04  0.26734414122E+04  0.25500000920E-02 0. -1.
       -2   -1    0    0    0  501  0.00000000000E+00  0.00000000000E+00 -0.10800674824E+04  0.10800674824E+04  0.25500000920E-02 0.  1.
    10030    2    1    2    0    0  0.00000000000E+00  0.00000000000E+00  0.15933739298E+04  0.37535088946E+04  0.33985274078E+04 0.  0.
        2    1    3    3  502    0 -0.12196226837E+04 -0.88548058416E+03 -0.70108248698E+02  0.15087977075E+04  0.25500000920E-02 0.  1.
       -2    1    3    3    0  502  0.12196226837E+04  0.88548058416E+03  0.16634821785E+04  0.22447111871E+04  0.25500000920E-02 0. -1.
</event>
<event>
 5   0  0.1473755E-07  0.3391807E+04  0.7818609E-02  0.8139920E-01
       -1   -1    0    0    0  501  0.00000000000E+00  0.00000000000E+00  0.22522897774E+04  0.22522897774E+04  0.50400001928E-02 0.  1.
        1   -1    0    0  501    0  0.00000000000E+00  0.00000000000E+00 -0.12769617788E+04  0.12769617788E+04  0.50400001928E-02 0. -1.
    10030    2    1    2    0    0  0.00000000000E+00  0.00000000000E+00  0.97532799855E+03  0.35292515562E+04  0.33918065750E+04 0.  0.
        1    1    3    3  502    0  0.40572875060E+03 -0.46842960959E+03 -0.11549274235E+04  0.13106866413E+04  0.50400001928E-02 0. -1.
       -1    1    3    3    0  502 -0.40572875060E+03  0.46842960959E+03  0.21302554221E+04  0.22185649149E+04  0.50400001928E-02 0.  1.
</event>
<event>
 5   0  0.4447909E-07  0.3406078E+04  0.7818609E-02  0.8136416E-01
       -2   -1    0    0    0  501  0.00000000000E+00  0.00000000000E+00  0.12365475027E+04  0.12365475027E+04  0.25500000920E-02 0.  1.
        2   -1    0    0  501    0  0.00000000000E+00  0.00000000000E+00 -0.23455155678E+04  0.23455155678E+04  0.25500000920E-02 0. -1.
    10030    2    1    2    0    0  0.00000000000E+00  0.00000000000E+00 -0.11089680652E+04  0.35820630705E+04  0.34060777548E+04 0.  0.
        5    1    3    3  502    0  0.15952957262E+04  0.13340075590E+03  0.56529762002E+02  0.16018682592E+04  0.46999998093E+01 0.  1.
       -5    1    3    3    0  502 -0.15952957262E+04 -0.13340075590E+03 -0.11654978272E+04  0.19801948113E+04  0.46999998093E+01 0. -1.
</event>
<event>
 5   0  0.1435806E-07  0.3427916E+04  0.7818609E-02  0.8131089E-01
        1   -1    0    0  501    0  0.00000000000E+00  0.00000000000E+00  0.20577086574E+04  0.20577086574E+04  0.50400001928E-02 0.  1.
       -1   -1    0    0    0  501  0.00000000000E+00  0.00000000000E+00 -0.14276322279E+04  0.14276322279E+04  0.50400001928E-02 0. -1.
    10030    2    1    2    0    0  0.00000000000E+00  0.00000000000E+00  0.63007642944E+03  0.34853408853E+04  0.34279155153E+04 0.  0.
        3    1    3    3  502    0 -0.12250992130E+04  0.98411066481E+03  0.10108335991E+04  0.18684556344E+04  0.10100000352E+00 0.  1.
       -3    1    3    3    0  502  0.12250992130E+04 -0.98411066481E+03 -0.38075716967E+03  0.16168852509E+04  0.10100000352E+00 0. -1.
</event>
<event>
 5   0  0.4521737E-07  0.3405247E+04  0.7818609E-02  0.8136620E-01
        2   -1    0    0  501    0  0.00000000000E+00  0.00000000000E+00  0.10487107057E+04  0.10487107057E+04  0.25500000920E-02 0.  1.
       -2   -1    0    0    0  501  0.00000000000E+00  0.00000000000E+00 -0.27642766070E+04  0.27642766070E+04  0.25500000920E-02 0. -1.
    10030    2    1    2    0    0  0.00000000000E+00  0.00000000000E+00 -0.17155659013E+04  0.38129873127E+04  0.34052468170E+04 0.  0.
        4    1    3    3  502    0 -0.11830568018E+03 -0.16938058593E+04 -0.71636593390E+03  0.18428663238E+04  0.12699999809E+01 0. -1.
       -4    1    3    3    0  502  0.11830568018E+03  0.16938058593E+04 -0.99919996741E+03  0.19701209889E+04  0.12699999809E+01 0.  1.
</event>
<event>
 5   0  0.1520084E-07  0.3407214E+04  0.7818609E-02  0.8136138E-01
        1   -1    0    0  501    0  0.00000000000E+00  0.00000000000E+00  0.11491361429E+04  0.11491361429E+04  0.50400001928E-02 0.  1.
       -1   -1    0    0    0  501  0.00000000000E+00  0.00000000000E+00 -0.25256156928E+04  0.25256156928E+04  0.50400001928E-02 0. -1.
    10030    2    1    2    0    0  0.00000000000E+00  0.00000000000E+00 -0.13764795500E+04  0.36747518357E+04  0.34072136861E+04 0.  0.
        2    1    3    3  502    0 -0.16984545450E+04 -0.46935172308E+02 -0.55472285360E+03  0.17873634762E+04  0.25500000920E-02 0.  1.
       -2    1    3    3    0  502  0.16984545450E+04  0.46935172308E+02 -0.82175669638E+03  0.18873883595E+04  0.25500000920E-02 0. -1.
</event>
<event>
 5   0  0.1435806E-07  0.3398209E+04  0.7818609E-02  0.8138346E-01
       -1   -1    0    0    0  501  0.00000000000E+00  0.00000000000E+00  0.13841467411E+04  0.13841467411E+04  0.50400001928E-02 0. -1.
        1   -1    0    0  501    0  0.00000000000E+00  0.00000000000E+00 -0.20857294004E+04  0.20857294004E+04  0.50400001928E-02 0.  1.
    10030    2    1    2    0    0  0.00000000000E+00  0.00000000000E+00 -0.70158265927E+03  0.34698761415E+04  0.33982086766E+04 0.  0.
        3    1    3    3  502    0 -0.14944424082E+04 -0.15816029428E+03  0.45876143162E+03  0.15712526377E+04  0.10100000352E+00 0. -1.
       -3    1    3    3    0  502  0.14944424082E+04  0.15816029428E+03 -0.11603440909E+04  0.18986235039E+04  0.10100000352E+00 0.  1.
</event>
<event>
 5   0  0.1473755E-07  0.3388271E+04  0.7818609E-02  0.8140791E-01
       -1   -1    0    0    0  501  0.00000000000E+00  0.00000000000E+00  0.10718875994E+04  0.10718875994E+04  0.50400001928E-02 0. -1.
        1   -1    0    0  501    0  0.00000000000E+00  0.00000000000E+00 -0.26776087684E+04  0.26776087684E+04  0.50400001928E-02 0.  1.
    10030    2    1    2    0    0  0.00000000000E+00  0.00000000000E+00 -0.16057211690E+04  0.37494963677E+04  0.33882713202E+04 0.  0.
        1    1    3    3  502    0 -0.13859570100E+04 -0.90826080050E+03 -0.41274137488E+03  0.17076797000E+04  0.50400001928E-02 0.  1.
       -1    1    3    3    0  502  0.13859570100E+04  0.90826080050E+03 -0.11929797941E+04  0.20418166677E+04  0.50400001928E-02 0. -1.
</event>
<event>
 5   0  0.1435806E-07  0.3400511E+04  0.7818609E-02  0.8137781E-01
        1   -1    0    0  501    0  0.00000000000E+00  0.00000000000E+00  0.14175750673E+04  0.14175750673E+04  0.50400001928E-02 0. -1.
       -1   -1    0    0    0  501  0.00000000000E+00  0.00000000000E+00 -0.20393053980E+04  0.20393053980E+04  0.50400001928E-02 0.  1.
    10030    2    1    2    0    0  0.00000000000E+00  0.00000000000E+00 -0.62173033065E+03  0.34568804653E+04  0.34005108363E+04 0.  0.
        3    1    3    3  502    0  0.91644716986E+03  0.11786120641E+04 -0.11379031436E+04  0.18771854962E+04  0.10100000352E+00 0.  1.
       -3    1    3    3    0  502 -0.91644716986E+03 -0.11786120641E+04  0.51617281291E+03  0.15796949692E+04  0.10100000352E+00 0. -1.
</event>
<event>
 5   0  0.4521737E-07  0.3378553E+04  0.7818609E-02  0.8143190E-01
       -2   -1    0    0    0  501  0.00000000000E+00  0.00000000000E+00  0.21425083000E+04  0.21425083000E+04  0.25500000920E-02 0. -1.
        2   -1    0    0  501    0  0.00000000000E+00  0.00000000000E+00 -0.13319226829E+04  0.13319226829E+04  0.25500000920E-02 0.  1.
    10030    2    1    2    0    0  0.00000000000E+00  0.00000000000E+00  0.81058561703E+03  0.34744309829E+04  0.33785531833E+04 0.  0.
        4    1    3    3  502    0 -0.16458352201E+04  0.16153754202E+02  0.14212436901E+02  0.16459763430E+04  0.12699999809E+01 0. -1.
       -4    1    3    3    0  502  0.16458352201E+04 -0.16153754202E+02  0.79637318013E+03  0.18284546399E+04  0.12699999809E+01 0.  1.
</event>
<event>
 5   0  0.4486226E-07  0.3398615E+04  0.7818609E-02  0.8138246E-01
       -2   -1    0    0    0  501  0.00000000000E+00  0.00000000000E+00  0.24388088215E+04  0.24388088215E+04  0.25500000920E-02 0. -1.
        2   -1    0    0  501    0  0.00000000000E+00  0.00000000000E+00 -0.11840396863E+04  0.11840396863E+04  0.25500000920E-02 0.  1.
    10030    2    1    2    0    0  0.00000000000E+00  0.00000000000E+00  0.12547691352E+04  0.36228485079E+04  0.33986152663E+04 0.  0.
        1    1    3    3  502    0  0.43560516676E+03 -0.93408718419E+03 -0.81282039452E+03  0.13126110325E+04  0.50400001928E-02 0.  1.
       -1    1    3    3    0  502 -0.43560516676E+03  0.93408718419E+03  0.20675895297E+04  0.23102374753E+04  0.50400001928E-02 0. -1.
</event>
<event>
 5   0  0.1520084E-07  0.3381320E+04  0.7818609E-02  0.8142506E-01
       -1   -1    0    0    0  501  0.00000000000E+00  0.00000000000E+00  0.97830988919E+03  0.97830988921E+03  0.50400001928E-02 0.  1.
        1   -1    0    0  501    0  0.00000000000E+00  0.00000000000E+00 -0.29217037496E+04  0.29217037496E+04  0.50400001928E-02 0. -1.
    10030    2    1    2    0    0  0.00000000000E+00  0.00000000000E+00 -0.19433938604E+04  0.39000136388E+04  0.33813202579E+04 0.  0.
        2    1    3    3  502    0  0.10201727342E+04 -0.21069960484E+03  0.56418148328E+03  0.11846718859E+04  0.25500000920E-02 0.  1.
       -2    1    3    3    0  502 -0.10201727342E+04  0.21069960484E+03 -0.25075753437E+04  0.27153417530E+04  0.25500000920E-02 0. -1.
</event>
<event>
 5   0  0.1520084E-07  0.3489778E+04  0.7818609E-02  0.8116217E-01
        1   -1    0    0  501    0  0.00000000000E+00  0.00000000000E+00  0.21896926678E+04  0.21896926678E+04  0.50400001928E-02 0. -1.
       -1   -1    0    0    0  501  0.00000000000E+00  0.00000000000E+00 -0.13904404912E+04  0.13904404912E+04  0.50400001928E-02 0.  1.
    10030    2    1    2    0    0  0.00000000000E+00  0.00000000000E+00  0.79925217663E+03  0.35801331590E+04  0.34897778431E+04 0.  0.
        2    1    3    3  502    0 -0.14668501881E+04  0.89066354028E+03  0.75687437183E+02  0.17177484113E+04  0.25500000920E-02 0.  1.
       -2    1    3    3    0  502  0.14668501881E+04 -0.89066354028E+03  0.72356473945E+03  0.18623847477E+04  0.25500000920E-02 0. -1.
</event>
<event>
 5   0  0.1421875E-07  0.3340146E+04  0.7818609E-02  0.8152755E-01
        3   -1    0    0  501    0  0.00000000000E+00  0.00000000000E+00  0.14364178518E+04  0.14364178553E+04  0.10100000352E+00 0.  1.
       -3   -1    0    0    0  501  0.00000000000E+00  0.00000000000E+00 -0.19417351534E+04  0.19417351560E+04  0.10100000352E+00 0. -1.
    10030    2    1    2    0    0  0.00000000000E+00  0.00000000000E+00 -0.50531730161E+03  0.33781530113E+04  0.33401455346E+04 0.  0.
        1    1    3    3  502    0  0.68930616364E+03 -0.36857653674E+03 -0.17453085581E+04  0.19123528999E+04  0.50400001928E-02 0. -1.
       -1    1    3    3    0  502 -0.68930616364E+03  0.36857653674E+03  0.12399912565E+04  0.14658001115E+04  0.50400001928E-02 0.  1.
</event>
<event>
 5   0  0.4521737E-07  0.3411935E+04  0.7818609E-02  0.8134983E-01
        2   -1    0    0  501    0  0.00000000000E+00  0.00000000000E+00  0.13288707962E+04  0.13288707962E+04  0.25500000920E-02 0. -1.
       -2   -1    0    0    0  501  0.00000000000E+00  0.00000000000E+00 -0.21900736275E+04  0.21900736275E+04  0.25500000920E-02 0.  1.
    10030    2    1    2    0    0  0.00000000000E+00  0.00000000000E+00 -0.86120283134E+03  0.35189444237E+04  0.34119348675E+04 0.  0.
        4    1    3    3  502    0  0.12954135221E+03 -0.13815174236E+04  0.59297245533E+03  0.15089696151E+04  0.12699999809E+01 0. -1.
       -4    1    3    3    0  502 -0.12954135221E+03  0.13815174236E+04 -0.14541752867E+04  0.20099748086E+04  0.12699999809E+01 0.  1.
</event>
<event>
 5   0  0.1435806E-07  0.3386573E+04  0.7818609E-02  0.8141210E-01
       -1   -1    0    0    0  501  0.00000000000E+00  0.00000000000E+00  0.18387891711E+04  0.18387891711E+04  0.50400001928E-02 0.  1.
        1   -1    0    0  501    0  0.00000000000E+00  0.00000000000E+00 -0.15592977959E+04  0.15592977959E+04  0.50400001928E-02 0. -1.
    10030    2    1    2    0    0  0.00000000000E+00  0.00000000000E+00  0.27949137518E+03  0.33980869670E+04  0.33865734314E+04 0.  0.
        3    1    3    3  502    0  0.13247037119E+04 -0.49749205945E+03  0.10728975475E+04  0.17757948731E+04  0.10100000352E+00 0.  1.
       -3    1    3    3    0  502 -0.13247037119E+04  0.49749205945E+03 -0.79340617234E+03  0.16222920939E+04  0.10100000352E+00 0. -1.
</event>
<event>
 5   0  0.4521737E-07  0.3406924E+04  0.7818609E-02  0.8136209E-01
       -2   -1    0    0    0  501  0.00000000000E+00  0.00000000000E+00  0.11361224097E+04  0.11361224097E+04  0.25500000920E-02 0. -1.
        2   -1    0    0  501    0  0.00000000000E+00  0.00000000000E+00 -0.25541114471E+04  0.25541114471E+04  0.25500000920E-02 0.  1.
    10030    2    1    2    0    0  0.00000000000E+00  0.00000000000E+00 -0.14179890374E+04  0.36902338568E+04  0.34069242739E+04 0.  0.
        4    1    3    3  502    0 -0.12866630763E+04 -0.19196123992E+03  0.48219782592E+03  0.13873958864E+04  0.12699999809E+01 0. -1.
       -4    1    3    3    0  502  0.12866630763E+04  0.19196123992E+03 -0.19001868634E+04  0.23028379704E+04  0.12699999809E+01 0.  1.
</event>
<event>
 5   0  0.1435806E-07  0.3408242E+04  0.7818609E-02  0.8135886E-01
       -1   -1    0    0    0  501  0.00000000000E+00  0.00000000000E+00  0.10383932639E+04  0.10383932639E+04  0.50400001928E-02 0.  1.
        1   -1    0    0  501    0  0.00000000000E+00  0.00000000000E+00 -0.27966555964E+04  0.27966555964E+04  0.50400001928E-02 0. -1.
    10030    2    1    2    0    0  0.00000000000E+00  0.00000000000E+00 -0.17582623325E+04  0.38350488603E+04  0.34082419708E+04 0.  0.
        3    1    3    3  502    0 -0.22688101111E+03 -0.11873438698E+04 -0.22307016890E+04  0.25371816044E+04  0.10100000352E+00 0. -1.
       -3    1    3    3    0  502  0.22688101111E+03  0.11873438698E+04  0.47243935643E+03  0.12978672559E+04  0.10100000352E+00 0.  1.
</event>
<event>
 5   0  0.1435806E-07  0.3428326E+04  0.7818609E-02  0.8130989E-01
        1   -1    0    0  501    0  0.00000000000E+00  0.00000000000E+00  0.24081383807E+04  0.24081383807E+04  0.50400001928E-02 0. -1.
       -1   -1    0    0    0  501  0.00000000000E+00  0.00000000000E+00 -0.12201766382E+04  0.12201766382E+04  0.50400001928E-02 0.  1.
    10030    2    1    2    0    0  0.00000000000E+00  0.00000000000E+00  0.11879617425E+04  0.36283150189E+04  0.34283256518E+04 0.  0.
        3    1    3    3  502    0  0.61471653966E+02  0.16332686206E+04  0.47108610892E+02  0.16351037834E+04  0.10100000352E+00 0.  1.
       -3    1    3    3    0  502 -0.61471653966E+02 -0.16332686206E+04  0.11408531316E+04  0.19932112355E+04  0.10100000352E+00 0. -1.
</event>
<event>
 5   0  0.4521737E-07  0.3389965E+04  0.7818609E-02  0.8140374E-01
       -2   -1    0    0    0  501  0.00000000000E+00  0.00000000000E+00  0.12772255155E+04  0.12772255155E+04  0.25500000920E-02 0. -1.
        2   -1    0    0  501    0  0.00000000000E+00  0.00000000000E+00 -0.22493807670E+04  0.22493807670E+04  0.25500000920E-02 0.  1.
    10030    2    1    2    0    0  0.00000000000E+00  0.00000000000E+00 -0.97215525150E+03  0.35266062825E+04  0.33899654922E+04 0.  0.
        4    1    3    3  502    0  0.56843886637E+03  0.34137150773E+03 -0.21088597303E+04  0.22106443012E+04  0.12699999809E+01 0.  1.
       -4    1    3    3    0  502 -0.56843886637E+03 -0.34137150773E+03  0.11367044788E+04  0.13159619813E+04  0.12699999809E+01 0. -1.
</event>
<event>
 5   0  0.4486226E-07  0.3262441E+04  0.7818609E-02  0.8172519E-01
        2   -1    0    0  501    0  0.00000000000E+00  0.00000000000E+00  0.32820990220E+04  0.32820990220E+04  0.25500000920E-02 0. -1.
       -2   -1    0    0    0  501  0.00000000000E+00  0.00000000000E+00 -0.81072512294E+03  0.81072512294E+03  0.25500000920E-02 0.  1.
    10030    2    1    2    0    0  0.00000000000E+00  0.00000000000E+00  0.24713738991E+04  0.40928241450E+04  0.32624408857E+04 0.  0.
        1    1    3    3  502    0  0.12646480411E+04 -0.23678381937E+03 -0.22273282186E+02  0.12868167484E+04  0.50400001928E-02 0.  1.
       -1    1    3    3    0  502 -0.12646480411E+04  0.23678381937E+03  0.24936471813E+04  0.28060073966E+04  0.50400001928E-02 0. -1.
</event>
<event>
 5   0  0.4396257E-07  0.3400256E+04  0.7818609E-02  0.8137843E-01
       -2   -1    0    0    0  501  0.00000000000E+00  0.00000000000E+00  0.15440724212E+04  0.15440724212E+04  0.25500000920E-02 0. -1.
        2   -1    0    0  501    0  0.00000000000E+00  0.00000000000E+00 -0.18719557510E+04  0.18719557510E+04  0.25500000920E-02 0.  1.
    10030    2    1    2    0    0  0.00000000000E+00  0.00000000000E+00 -0.32788332976E+03  0.34160281722E+04  0.34002560191E+04 0.  0.
        2    1    3    3  502    0  0.14251669910E+04  0.91274126242E+03 -0.12098087538E+01  0.16923944658E+04  0.25500000920E-02 0.  1.
       -2    1    3    3    0  502 -0.14251669910E+04 -0.91274126242E+03 -0.32667352100E+03  0.17236337064E+04  0.25500000920E-02 0. -1.
</event>
<event>
 5   0  0.4521737E-07  0.3401311E+04  0.7818609E-02  0.8137585E-01
        2   -1    0    0  501    0  0.00000000000E+00  0.00000000000E+00  0.21119081453E+04  0.21119081453E+04  0.25500000920E-02 0. -1.
       -2   -1    0    0    0  501  0.00000000000E+00  0.00000000000E+00 -0.13694858999E+04  0.13694858999E+04  0.25500000920E-02 0.  1.
    10030    2    1    2    0    0  0.00000000000E+00  0.00000000000E+00  0.74242224538E+03  0.34813940453E+04  0.34013105868E+04 0.  0.
        4    1    3    3  502    0  0.16626620389E+04  0.24250566545E+03  0.64002129333E+03  0.17980219470E+04  0.12699999809E+01 0. -1.
       -4    1    3    3    0  502 -0.16626620389E+04 -0.24250566545E+03  0.10240095204E+03  0.16833720982E+04  0.12699999809E+01 0.  1.
</event>
<event>
 5   0  0.1473755E-07  0.3386802E+04  0.7818609E-02  0.8141153E-01
        1   -1    0    0  501    0  0.00000000000E+00  0.00000000000E+00  0.12353506407E+04  0.12353506407E+04  0.50400001928E-02 0. -1.
       -1   -1    0    0    0  501  0.00000000000E+00  0.00000000000E+00 -0.23212903603E+04  0.23212903603E+04  0.50400001928E-02 0.  1.
    10030    2    1    2    0    0  0.00000000000E+00  0.00000000000E+00 -0.10859397196E+04  0.35566410010E+04  0.33868023466E+04 0.  0.
        1    1    3    3  502    0  0.14739479107E+04 -0.73943179012E+03 -0.94741387059E+03  0.19018083126E+04  0.50400001928E-02 0.  1.
       -1    1    3    3    0  502 -0.14739479107E+04  0.73943179012E+03 -0.13852584903E+03  0.16548326884E+04  0.50400001928E-02 0. -1.
</event>
<event>
 5   0  0.1435806E-07  0.3395255E+04  0.7818609E-02  0.8139072E-01
        1   -1    0    0  501    0  0.00000000000E+00  0.00000000000E+00  0.22044776208E+04  0.22044776208E+04  0.50400001928E-02 0. -1.
       -1   -1    0    0    0  501  0.00000000000E+00  0.00000000000E+00 -0.13073115660E+04  0.13073115661E+04  0.50400001928E-02 0.  1.
    10030    2    1    2    0    0  0.00000000000E+00  0.00000000000E+00  0.89716605479E+03  0.35117891869E+04  0.33952549777E+04 0.  0.
        3    1    3    3  502    0 -0.46612975748E+03 -0.15240400933E+04 -0.15626488858E+03  0.16013724995E+04  0.10100000352E+00 0.  1.
       -3    1    3    3    0  502  0.46612975748E+03  0.15240400933E+04  0.10534309434E+04  0.19104166874E+04  0.10100000352E+00 0. -1.
</event>
<event>
 5   0  0.4396257E-07  0.3432428E+04  0.7818609E-02  0.8129993E-01
        2   -1    0    0  501    0  0.00000000000E+00  0.00000000000E+00  0.26421548869E+04  0.26421548869E+04  0.25500000920E-02 0. -1.
       -2   -1    0    0    0  501  0.00000000000E+00  0.00000000000E+00 -0.11147683120E+04  0.11147683120E+04  0.25500000920E-02 0.  1.
    10030    2    1    2    0    0  0.00000000000E+00  0.00000000000E+00  0.15273865749E+04  0.37569231989E+04  0.34324280288E+04 0.  0.
        2    1    3    3  502    0 -0.12096125587E+04  0.17295988123E+03 -0.55535584288E+03  0.13421988582E+04  0.25500000920E-02 0.  1.
       -2    1    3    3    0  502  0.12096125587E+04 -0.17295988123E+03  0.20827424178E+04  0.24147243407E+04  0.25500000920E-02 0. -1.
</event>
<event>
 5   0  0.1520084E-07  0.3405063E+04  0.7818609E-02  0.8136665E-01
       -1   -1    0    0    0  501  0.00000000000E+00  0.00000000000E+00  0.11987353986E+04  0.11987353986E+04  0.50400001928E-02 0.  1.
        1   -1    0    0  501    0  0.00000000000E+00  0.00000000000E+00 -0.24180594528E+04  0.24180594528E+04  0.50400001928E-02 0. -1.
    10030    2    1    2    0    0  0.00000000000E+00  0.00000000000E+00 -0.12193240542E+04  0.36167948514E+04  0.34050629726E+04 0.  0.
        2    1    3    3  502    0 -0.68790611951E+03  0.45010766909E+03 -0.21932751417E+04  0.23422782905E+04  0.25500000920E-02 0. -1.
       -2    1    3    3    0  502  0.68790611951E+03 -0.45010766909E+03  0.97395108748E+03  0.12745165608E+04  0.25500000920E-02 0.  1.
</event>
<event>
 5   0  0.1523259E-07  0.3403967E+04  0.7818609E-02  0.8136933E-01
        1   -1    0    0  501    0  0.00000000000E+00  0.00000000000E+00  0.23818211301E+04  0.23818211301E+04  0.50400001928E-02 0. -1.
       -1   -1    0    0    0  501  0.00000000000E+00  0.00000000000E+00 -0.12161905131E+04  0.12161905131E+04  0.50400001928E-02 0.  1.
    10030    2    1    2    0    0  0.00000000000E+00  0.00000000000E+00  0.11656306171E+04  0.35980116432E+04  0.34039672515E+04 0.  0.
        4    1    3    3  502    0 -0.83226482981E+03 -0.14089399665E+04  0.88197700351E+02  0.16387669216E+04  0.12699999809E+01 0.  1.
       -4    1    3    3    0  502  0.83226482981E+03  0.14089399665E+04  0.10774329167E+04  0.19592447216E+04  0.12699999809E+01 0. -1.
</event>
<event>
 5   0  0.1523259E-07  0.3360779E+04  0.7818609E-02  0.8147600E-01
       -1   -1    0    0    0  501  0.00000000000E+00  0.00000000000E+00  0.28245023851E+04  0.28245023851E+04  0.50400001928E-02 0.  1.
        1   -1    0    0  501    0  0.00000000000E+00  0.00000000000E+00 -0.99971911135E+03  0.99971911137E+03  0.50400001928E-02 0. -1.
    10030    2    1    2    0    0  0.00000000000E+00  0.00000000000E+00  0.18247832738E+04  0.38242214965E+04  0.33607790850E+04 0.  0.
        4    1    3    3  502    0  0.74519280609E+03 -0.85773665334E+03  0.23211263976E+04  0.25843091633E+04  0.12699999809E+01 0.  1.
       -4    1    3    3    0  502 -0.74519280609E+03  0.85773665334E+03 -0.49634312381E+03  0.12399123333E+04  0.12699999809E+01 0. -1.
</event>
<event>
 5   0  0.4396257E-07  0.3403012E+04  0.7818609E-02  0.8137167E-01
       -2   -1    0    0    0  501  0.00000000000E+00  0.00000000000E+00  0.97730114020E+03  0.97730114021E+03  0.25500000920E-02 0.  1.
        2   -1    0    0  501    0  0.00000000000E+00  0.00000000000E+00 -0.29623651647E+04  0.29623651647E+04  0.25500000920E-02 0. -1.
    10030    2    1    2    0    0  0.00000000000E+00  0.00000000000E+00 -0.19850640245E+04  0.39396663049E+04  0.34030121088E+04 0.  0.
        2    1    3    3  502    0 -0.93560796790E+03 -0.67209250175E+03 -0.24422255700E+04  0.27002844915E+04  0.25500000920E-02 0. -1.
       -2    1    3    3    0  502  0.93560796790E+03  0.67209250175E+03  0.45716154553E+03  0.12393818133E+04  0.25500000920E-02 0.  1.
</event>
<event>
 5   0  0.1473755E-07  0.3412029E+04  0.7818609E-02  0.8134960E-01
       -1   -1    0    0    0  501  0.00000000000E+00  0.00000000000E+00  0.15330663096E+04  0.15330663097E+04  0.50400001928E-02 0. -1.
        1   -1    0    0  501    0  0.00000000000E+00  0.00000000000E+00 -0.18984734255E+04  0.18984734255E+04  0.50400001928E-02 0.  1.
    10030    2    1    2    0    0  0.00000000000E+00  0.00000000000E+00 -0.36540711584E+03  0.34315397351E+04  0.34120291021E+04 0.  0.
        1    1    3    3  502    0  0.24420955866E+03 -0.10483270846E+04 -0.15138496271E+04  0.18575168044E+04  0.50400001928E-02 0.  1.
       -1    1    3    3    0  502 -0.24420955866E+03  0.10483270846E+04  0.11484425113E+04  0.15740229308E+04  0.50400001928E-02 0. -1.
</event>
<event>
 5   0  0.4396257E-07  0.3413135E+04  0.7818609E-02  0.8134690E-01
       -2   -1    0    0    0  501  0.00000000000E+00  0.00000000000E+00  0.17052971066E+04  0.17052971066E+04  0.25500000920E-02 0.  1.
        2   -1    0    0  501    0  0.00000000000E+00  0.00000000000E+00 -0.17078386940E+04  0.17078386940E+04  0.25500000920E-02 0. -1.
    10030    2    1    2    0    0  0.00000000000E+00  0.00000000000E+00 -0.25415874689E+01  0.34131358006E+04  0.34131348543E+04 0.  0.
        2    1    3    3  502    0  0.15384702201E+04  0.34515837913E+03 -0.65422385094E+03  0.17070541210E+04  0.25500000920E-02 0.  1.
       -2    1    3    3    0  502 -0.15384702201E+04 -0.34515837913E+03  0.65168226347E+03  0.17060816796E+04  0.25500000920E-02 0. -1.
</event>
<event>
 5   0  0.4396257E-07  0.3401360E+04  0.7818609E-02  0.8137573E-01
        2   -1    0    0  501    0  0.00000000000E+00  0.00000000000E+00  0.27279853971E+04  0.27279853971E+04  0.25500000920E-02 0. -1.
       -2   -1    0    0    0  501  0.00000000000E+00  0.00000000000E+00 -0.10602375121E+04  0.10602375121E+04  0.25500000920E-02 0.  1.
    10030    2    1    2    0    0  0.00000000000E+00  0.00000000000E+00  0.16677478850E+04  0.37882229091E+04  0.34013599929E+04 0.  0.
        2    1    3    3  502    0 -0.71581504478E+03 -0.46423666659E+03  0.24723958422E+04  0.26154632594E+04  0.25500000920E-02 0. -1.
       -2    1    3    3    0  502  0.71581504478E+03  0.46423666659E+03 -0.80464795720E+03  0.11727596497E+04  0.25500000920E-02 0.  1.
</event>
<event>
 5   0  0.4396257E-07  0.3405096E+04  0.7818609E-02  0.8136657E-01
        2   -1    0    0  501    0  0.00000000000E+00  0.00000000000E+00  0.19826476024E+04  0.19826476024E+04  0.25500000920E-02 0. -1.
       -2   -1    0    0    0  501  0.00000000000E+00  0.00000000000E+00 -0.14620198294E+04  0.14620198294E+04  0.25500000920E-02 0.  1.
    10030    2    1    2    0    0  0.00000000000E+00  0.00000000000E+00  0.52062777298E+03  0.34446674318E+04  0.34050962450E+04 0.  0.
        2    1    3    3  502    0  0.96591469062E+03  0.63947037634E+03  0.15225141285E+04  0.19131029306E+04  0.25500000920E-02 0. -1.
       -2    1    3    3    0  502 -0.96591469062E+03 -0.63947037634E+03 -0.10018863555E+04  0.15315645011E+04  0.25500000920E-02 0.  1.
</event>
<event>
 5   0  0.4486226E-07  0.3405014E+04  0.7818609E-02  0.8136677E-01
        2   -1    0    0  501    0  0.00000000000E+00  0.00000000000E+00  0.24394125792E+04  0.24394125792E+04  0.25500000920E-02 0.  1.
       -2   -1    0    0    0  501  0.00000000000E+00  0.00000000000E+00 -0.11882085239E+04  0.11882085239E+04  0.25500000920E-02 0. -1.
    10030    2    1    2    0    0  0.00000000000E+00  0.00000000000E+00  0.12512040554E+04  0.36276211031E+04  0.34050144316E+04 0.  0.
        1    1    3    3  502    0  0.88978262219E+03  0.14333231698E+04  0.38172070896E+03  0.17296933612E+04  0.50400001928E-02 0.  1.
       -1    1    3    3    0  502 -0.88978262219E+03 -0.14333231698E+04  0.86948334641E+03  0.18979277420E+04  0.50400001928E-02 0. -1.
</event>
<event>
 5   0  0.1520084E-07  0.3404709E+04  0.7818609E-02  0.8136751E-01
       -1   -1    0    0    0  501  0.00000000000E+00  0.00000000000E+00  0.91668729124E+03  0.91668729126E+03  0.50400001928E-02 0.  1.
        1   -1    0    0  501    0  0.00000000000E+00  0.00000000000E+00 -0.31613960874E+04  0.31613960874E+04  0.50400001928E-02 0. -1.
    10030    2    1    2    0    0  0.00000000000E+00  0.00000000000E+00 -0.22447087962E+04  0.40780833787E+04  0.34047094537E+04 0.  0.
        2    1    3    3  502    0  0.94099300774E+03 -0.20383865882E+03 -0.28039387168E+04  0.29646400063E+04  0.25500000920E-02 0. -1.
       -2    1    3    3    0  502 -0.94099300774E+03  0.20383865882E+03  0.55922992060E+03  0.11134433724E+04  0.25500000920E-02 0.  1.
</event>
<event>
 5   0  0.4521737E-07  0.3397188E+04  0.7818609E-02  0.8138597E-01
        2   -1    0    0  501    0  0.00000000000E+00  0.00000000000E+00  0.19851988864E+04  0.19851988864E+04  0.25500000920E-02 0.  1.
       -2   -1    0    0    0  501  0.00000000000E+00  0.00000000000E+00 -0.14533661410E+04  0.14533661411E+04  0.25500000920E-02 0. -1.
    10030    2    1    2    0    0  0.00000000000E+00  0.00000000000E+00  0.53183274537E+03  0.34385650275E+04  0.33971875690E+04 0.  0.
        4    1    3    3  502    0 -0.15179831263E+04 -0.28274249215E+03 -0.45052051883E+03  0.16084733256E+04  0.12699999809E+01 0. -1.
       -4    1    3    3    0  502  0.15179831263E+04  0.28274249215E+03  0.98235326420E+03  0.18300917018E+04  0.12699999809E+01 0.  1.
</event>
<event>
 5   0  0.4447909E-07  0.3393293E+04  0.7818609E-02  0.8139554E-01
       -2   -1    0    0    0  501  0.00000000000E+00  0.00000000000E+00  0.17096973453E+04  0.17096973453E+04  0.25500000920E-02 0. -1.
        2   -1    0    0  501    0  0.00000000000E+00  0.00000000000E+00 -0.16836956841E+04  0.16836956841E+04  0.25500000920E-02 0.  1.
    10030    2    1    2    0    0  0.00000000000E+00  0.00000000000E+00  0.26001661253E+02  0.33933930294E+04  0.33932934099E+04 0.  0.
        5    1    3    3  502    0  0.93606215009E+03  0.43769560839E+03 -0.13326976796E+04  0.16863851843E+04  0.46999998093E+01 0.  1.
       -5    1    3    3    0  502 -0.93606215009E+03 -0.43769560839E+03  0.13586993409E+04  0.17070078451E+04  0.46999998093E+01 0. -1.
</event>
<event>
 5   0  0.1421875E-07  0.3412207E+04  0.7818609E-02  0.8134917E-01
       -1   -1    0    0    0  501  0.00000000000E+00  0.00000000000E+00  0.13781897426E+04  0.13781897426E+04  0.50400001928E-02 0.  1.
        1   -1    0    0  501    0  0.00000000000E+00  0.00000000000E+00 -0.21120380504E+04  0.21120380505E+04  0.50400001928E-02 0. -1.
    10030    2    1    2    0    0  0.00000000000E+00  0.00000000000E+00 -0.73384830783E+03  0.34902277931E+04  0.34122070143E+04 0.  0.
        5    1    3    3  502    0 -0.36041259914E+03 -0.59736110705E+02 -0.20715533046E+04  0.21035258089E+04  0.46999998093E+01 0. -1.
       -5    1    3    3    0  502  0.36041259914E+03  0.59736110705E+02  0.13377049968E+04  0.13867019842E+04  0.46999998093E+01 0.  1.
</event>
<event>
 5   0  0.4447909E-07  0.3401148E+04  0.7818609E-02  0.8137625E-01
        2   -1    0    0  501    0  0.00000000000E+00  0.00000000000E+00  0.23479673355E+04  0.23479673355E+04  0.25500000920E-02 0. -1.
       -2   -1    0    0    0  501  0.00000000000E+00  0.00000000000E+00 -0.12316831793E+04  0.12316831793E+04  0.25500000920E-02 0.  1.
    10030    2    1    2    0    0  0.00000000000E+00  0.00000000000E+00  0.11162841562E+04  0.35796505148E+04  0.34011479665E+04 0.  0.
        5    1    3    3  502    0 -0.55191875370E+03  0.66963845132E+03 -0.98111203721E+03  0.13098217000E+04  0.46999998093E+01 0.  1.
       -5    1    3    3    0  502  0.55191875370E+03 -0.66963845132E+03  0.20973961934E+04  0.22698288148E+04  0.46999998093E+01 0. -1.
</event>
<event>
 5   0  0.1421875E-07  0.3401222E+04  0.7818609E-02  0.8137607E-01
       -1   -1    0    0    0  501  0.00000000000E+00  0.00000000000E+00  0.16214547072E+04  0.16214547072E+04  0.50400001928E-02 0. -1.
        1   -1    0    0  501    0  0.00000000000E+00  0.00000000000E+00 -0.17836311537E+04  0.17836311537E+04  0.50400001928E-02 0.  1.
    10030    2    1    2    0    0  0.00000000000E+00  0.00000000000E+00 -0.16217644647E+03  0.34050858609E+04  0.34012216218E+04 0.  0.
        5    1    3    3  502    0  0.35583247146E+03 -0.58955921199E+03 -0.16378012233E+04  0.17766856079E+04  0.46999998093E+01 0.  1.
       -5    1    3    3    0  502 -0.35583247146E+03  0.58955921199E+03  0.14756247768E+04  0.16284002530E+04  0.46999998093E+01 0. -1.
</event>
<event>
 5   0  0.4447909E-07  0.3405578E+04  0.7818609E-02  0.8136539E-01
        2   -1    0    0  501    0  0.00000000000E+00  0.00000000000E+00  0.25840240900E+04  0.25840240900E+04  0.25500000920E-02 0.  1.
       -2   -1    0    0    0  501  0.00000000000E+00  0.00000000000E+00 -0.11220832709E+04  0.11220832709E+04  0.25500000920E-02 0. -1.
    10030    2    1    2    0    0  0.00000000000E+00  0.00000000000E+00  0.14619408192E+04  0.37061073609E+04  0.34055778969E+04 0.  0.
        5    1    3    3  502    0  0.42811238282E+03 -0.54307111798E+03 -0.96238469122E+03  0.11850792528E+04  0.46999998093E+01 0. -1.
       -5    1    3    3    0  502 -0.42811238282E+03  0.54307111798E+03  0.24243255104E+04  0.25210281081E+04  0.46999998093E+01 0.  1.
</event>
<event>
 5   0  0.4396257E-07  0.3371395E+04  0.7818609E-02  0.8144963E-01
        2   -1    0    0  501    0  0.00000000000E+00  0.00000000000E+00  0.24083187425E+04  0.24083187425E+04  0.25500000920E-02 0. -1.
       -2   -1    0    0    0  501  0.00000000000E+00  0.00000000000E+00 -0.11799000613E+04  0.11799000613E+04  0.25500000920E-02 0.  1.
    10030    2    1    2    0    0  0.00000000000E+00  0.00000000000E+00  0.12284186812E+04  0.35882188038E+04  0.33713946265E+04 0.  0.
        2    1    3    3  502    0  0.86271811822E+03 -0.58130761141E+03  0.20259289733E+04  0.22774084604E+04  0.25500000920E-02 0. -1.
       -2    1    3    3    0  502 -0.86271811822E+03  0.58130761141E+03 -0.79751029203E+03  0.13108103434E+04  0.25500000920E-02 0.  1.
</event>
<event>
 5   0  0.1473755E-07  0.3386198E+04  0.7818609E-02  0.8141302E-01
        1   -1    0    0  501    0  0.00000000000E+00  0.00000000000E+00  0.20911921527E+04  0.20911921527E+04  0.50400001928E-02 0.  1.
       -1   -1    0    0    0  501  0.00000000000E+00  0.00000000000E+00 -0.13707893300E+04  0.13707893300E+04  0.50400001928E-02 0. -1.
    10030    2    1    2    0    0  0.00000000000E+00  0.00000000000E+00  0.72040282273E+03  0.34619814828E+04  0.33861978028E+04 0.  0.
        1    1    3    3  502    0  0.52333800408E+03 -0.15776634369E+04  0.31002453123E+02  0.16624878161E+04  0.50400001928E-02 0.  1.
       -1    1    3    3    0  502 -0.52333800408E+03  0.15776634369E+04  0.68940036960E+03  0.17994936666E+04  0.50400001928E-02 0. -1.
</event>
<event>
 5   0  0.1435806E-07  0.3401723E+04  0.7818609E-02  0.8137484E-01
       -1   -1    0    0    0  501  0.00000000000E+00  0.00000000000E+00  0.18526630063E+04  0.18526630063E+04  0.50400001928E-02 0. -1.
        1   -1    0    0  501    0  0.00000000000E+00  0.00000000000E+00 -0.15614982626E+04  0.15614982626E+04  0.50400001928E-02 0.  1.
    10030    2    1    2    0    0  0.00000000000E+00  0.00000000000E+00  0.29116474370E+03  0.34141612690E+04  0.34017231314E+04 0.  0.
        3    1    3    3  502    0  0.14684682802E+04  0.63341680075E+03 -0.43559806945E+03  0.16575167033E+04  0.10100000352E+00 0.  1.
       -3    1    3    3    0  502 -0.14684682802E+04 -0.63341680075E+03  0.72676281315E+03  0.17566445657E+04  0.10100000352E+00 0. -1.
</event>
<event>
 5   0  0.4521737E-07  0.3407440E+04  0.7818609E-02  0.8136083E-01
       -2   -1    0    0    0  501  0.00000000000E+00  0.00000000000E+00  0.15690559713E+04  0.15690559713E+04  0.25500000920E-02 0.  1.
        2   -1    0    0  501    0  0.00000000000E+00  0.00000000000E+00 -0.18499416788E+04  0.18499416788E+04  0.25500000920E-02 0. -1.
    10030    2    1    2    0    0  0.00000000000E+00  0.00000000000E+00 -0.28088570754E+03  0.34189976501E+04  0.34074401170E+04 0.  0.
        4    1    3    3  502    0  0.94128498943E+03  0.25143747438E+03  0.12619465722E+04  0.15942863603E+04  0.12699999809E+01 0.  1.
       -4    1    3    3    0  502 -0.94128498943E+03 -0.25143747438E+03 -0.15428322797E+04  0.18247112898E+04  0.12699999809E+01 0. -1.
</event>
<event>
 5   0  0.4521737E-07  0.3422003E+04  0.7818609E-02  0.8132527E-01
        2   -1    0    0  501    0  0.00000000000E+00  0.00000000000E+00  0.14410073708E+04  0.14410073708E+04  0.25500000920E-02 0. -1.
       -2   -1    0    0    0  501  0.00000000000E+00  0.00000000000E+00 -0.20315826678E+04  0.20315826678E+04  0.25500000920E-02 0.  1.
    10030    2    1    2    0    0  0.00000000000E+00  0.00000000000E+00 -0.59057529705E+03  0.34725900386E+04  0.34220026877E+04 0.  0.
        4    1    3    3  502    0  0.10240008760E+04  0.36012347303E+03  0.10468591299E+04  0.15080392438E+04  0.12699999809E+01 0. -1.
       -4    1    3    3    0  502 -0.10240008760E+04 -0.36012347303E+03 -0.16374344270E+04  0.19645507948E+04  0.12699999809E+01 0.  1.
</event>
<event>
 5   0  0.4486226E-07  0.3466686E+04  0.7818609E-02  0.8121731E-01
       -2   -1    0    0    0  501  0.00000000000E+00  0.00000000000E+00  0.20674030130E+04  0.20674030130E+04  0.25500000920E-02 0. -1.
        2   -1    0    0  501    0  0.00000000000E+00  0.00000000000E+00 -0.14532614632E+04  0.14532614632E+04  0.25500000920E-02 0.  1.
    10030    2    1    2    0    0  0.00000000000E+00  0.00000000000E+00  0.61414154980E+03  0.35206644763E+04  0.34666855224E+04 0.  0.
        1    1    3    3  502    0 -0.14706653059E+04 -0.86557198586E+03 -0.16457390727E+01  0.17064800067E+04  0.50400001928E-02 0.  1.
       -1    1    3    3    0  502  0.14706653059E+04  0.86557198586E+03  0.61578728888E+03  0.18141844696E+04  0.50400001928E-02 0. -1.
</event>
<event>
 5   0  0.4447909E-07  0.3394651E+04  0.7818609E-02  0.8139220E-01
        2   -1    0    0  501    0  0.00000000000E+00  0.00000000000E+00  0.14699932981E+04  0.14699932981E+04  0.25500000920E-02 0. -1.
       -2   -1    0    0    0  501  0.00000000000E+00  0.00000000000E+00 -0.19598148303E+04  0.19598148303E+04  0.25500000920E-02 0.  1.
    10030    2    1    2    0    0  0.00000000000E+00  0.00000000000E+00 -0.48982153218E+03  0.34298081284E+04  0.33946514791E+04 0.  0.
        5    1    3    3  502    0 -0.30881967336E+03 -0.16409804343E+04 -0.55254100443E+03  0.17588376923E+04  0.46999998093E+01 0. -1.
       -5    1    3    3    0  502  0.30881967336E+03  0.16409804343E+04  0.62719472249E+02  0.16709704361E+04  0.46999998093E+01 0.  1.
</event>
<event>
 5   0  0.1435806E-07  0.3412500E+04  0.7818609E-02  0.8134845E-01
        1   -1    0    0  501    0  0.00000000000E+00  0.00000000000E+00  0.19714492831E+04  0.19714492831E+04  0.50400001928E-02 0. -1.
       -1   -1    0    0    0  501  0.00000000000E+00  0.00000000000E+00 -0.14767253026E+04  0.14767253027E+04  0.50400001928E-02 0.  1.
    10030    2    1    2    0    0  0.00000000000E+00  0.00000000000E+00  0.49472398045E+03  0.34481745858E+04  0.34124999864E+04 0.  0.
        3    1    3    3  502    0 -0.33699639155E+03 -0.13178158914E+04  0.12882198297E+04  0.18734235056E+04  0.10100000352E+00 0. -1.
       -3    1    3    3    0  502  0.33699639155E+03  0.13178158914E+04 -0.79349584925E+03  0.15747510802E+04  0.10100000352E+00 0.  1.
</event>
<event>
 5   0  0.1473755E-07  0.3398417E+04  0.7818609E-02  0.8138295E-01
        1   -1    0    0  501    0  0.00000000000E+00  0.00000000000E+00  0.21800174565E+04  0.21800174565E+04  0.50400001928E-02 0. -1.
       -1   -1    0    0    0  501  0.00000000000E+00  0.00000000000E+00 -0.13244430792E+04  0.13244430792E+04  0.50400001928E-02 0.  1.
    10030    2    1    2    0    0  0.00000000000E+00  0.00000000000E+00  0.85557437723E+03  0.35044605357E+04  0.33984167095E+04 0.  0.
        1    1    3    3  502    0 -0.13106050495E+04 -0.10145269243E+04  0.81412213149E+03  0.18465495717E+04  0.50400001928E-02 0. -1.
       -1    1    3    3    0  502  0.13106050495E+04  0.10145269243E+04  0.41452245738E+02  0.16579109640E+04  0.50400001928E-02 0.  1.
</event>
<event>
 5   0  0.4396257E-07  0.3407788E+04  0.7818609E-02  0.8135998E-01
        2   -1    0    0  501    0  0.00000000000E+00  0.00000000000E+00  0.23911337655E+04  0.23911337655E+04  0.25500000920E-02 0. -1.
       -2   -1    0    0    0  501  0.00000000000E+00  0.00000000000E+00 -0.12141750225E+04  0.12141750225E+04  0.25500000920E-02 0.  1.
    10030    2    1    2    0    0  0.00000000000E+00  0.00000000000E+00  0.11769587430E+04  0.36053087880E+04  0.34077880765E+04 0.  0.
        2    1    3    3  502    0  0.78036021390E+03  0.10799376652E+04  0.17121259299E+04  0.21694705861E+04  0.25500000920E-02 0. -1.
       -2    1    3    3    0  502 -0.78036021390E+03 -0.10799376652E+04 -0.53516718690E+03  0.14358382019E+04  0.25500000920E-02 0.  1.
</event>
<event>
 5   0  0.1421875E-07  0.3400818E+04  0.7818609E-02  0.8137706E-01
       -1   -1    0    0    0  501  0.00000000000E+00  0.00000000000E+00  0.14534227160E+04  0.14534227160E+04  0.50400001928E-02 0.  1.
        1   -1    0    0  501    0  0.00000000000E+00  0.00000000000E+00 -0.19893662700E+04  0.19893662700E+04  0.50400001928E-02 0. -1.
    10030    2    1    2    0    0  0.00000000000E+00  0.00000000000E+00 -0.53594355399E+03  0.34427889860E+04  0.34008176236E+04 0.  0.
        5    1    3    3  502    0  0.78188542969E+03  0.19820644066E+03 -0.17833552474E+04  0.19572962593E+04  0.46999998093E+01 0. -1.
       -5    1    3    3    0  502 -0.78188542969E+03 -0.19820644066E+03  0.12474116934E+04  0.14854927267E+04  0.46999998093E+01 0.  1.
</event>
<event>
 5   0  0.1435806E-07  0.3423412E+04  0.7818609E-02  0.8132184E-01
       -1   -1    0    0    0  501  0.00000000000E+00  0.00000000000E+00  0.17931171191E+04  0.17931171191E+04  0.50400001928E-02 0. -1.
        1   -1    0    0  501    0  0.00000000000E+00  0.00000000000E+00 -0.16339909945E+04  0.16339909945E+04  0.50400001928E-02 0.  1.
    10030    2    1    2    0    0  0.00000000000E+00  0.00000000000E+00  0.15912612461E+03  0.34271081137E+04  0.34234118799E+04 0.  0.
        3    1    3    3  502    0  0.54785871184E+03 -0.53217600529E+03  0.16130710167E+04  0.17847572899E+04  0.10100000352E+00 0. -1.
       -3    1    3    3    0  502 -0.54785871184E+03  0.53217600529E+03 -0.14539448921E+04  0.16423508237E+04  0.10100000352E+00 0.  1.
</event>
<event>
 5   0  0.1520084E-07  0.3418996E+04  0.7818609E-02  0.8133260E-01
        1   -1    0    0  501    0  0.00000000000E+00  0.00000000000E+00  0.12528426879E+04  0.12528426879E+04  0.50400001928E-02 0. -1.
       -1   -1    0    0    0  501  0.00000000000E+00  0.00000000000E+00 -0.23326018151E+04  0.23326018151E+04  0.50400001928E-02 0.  1.
    10030    2    1    2    0    0  0.00000000000E+00  0.00000000000E+00 -0.10797591273E+04  0.35854445030E+04  0.34189958337E+04 0.  0.
        2    1    3    3  502    0  0.63332632929E+03  0.15771125173E+04 -0.73323870359E+03  0.18509524921E+04  0.25500000920E-02 0. -1.
       -2    1    3    3    0  502 -0.63332632929E+03 -0.15771125173E+04 -0.34652042369E+03  0.17344920109E+04  0.25500000920E-02 0.  1.
</event>
<event>
 5   0  0.4396257E-07  0.3396488E+04  0.7818609E-02  0.8138769E-01
       -2   -1    0    0    0  501  0.00000000000E+00  0.00000000000E+00  0.15815431597E+04  0.15815431597E+04  0.25500000920E-02 0. -1.
        2   -1    0    0  501    0  0.00000000000E+00  0.00000000000E+00 -0.18235563779E+04  0.18235563779E+04  0.25500000920E-02 0.  1.
    10030    2    1    2    0    0  0.00000000000E+00  0.00000000000E+00 -0.24201321821E+03  0.34050995376E+04  0.33964882545E+04 0.  0.
        2    1    3    3  502    0  0.14056105505E+03  0.64531826558E+03  0.14475175488E+04  0.15910688634E+04  0.25500000920E-02 0. -1.
       -2    1    3    3    0  502 -0.14056105505E+03 -0.64531826558E+03 -0.16895307670E+04  0.18140306741E+04  0.25500000920E-02 0.  1.
</event>
<event>
 5   0  0.4381939E-07  0.3403262E+04  0.7818609E-02  0.8137106E-01
        2   -1    0    0  501    0  0.00000000000E+00  0.00000000000E+00  0.30352335757E+04  0.30352335757E+04  0.25500000920E-02 0. -1.
       -2   -1    0    0    0  501  0.00000000000E+00  0.00000000000E+00 -0.95397885064E+03  0.95397885064E+03  0.25500000920E-02 0.  1.
    10030    2    1    2    0    0  0.00000000000E+00  0.00000000000E+00  0.20812547251E+04  0.39892124264E+04  0.34032623396E+04 0.  0.
        3    1    3    3  502    0  0.71492015770E+03 -0.14907284006E+04  0.15126604949E+04  0.22408756724E+04  0.10100000352E+00 0.  1.
       -3    1    3    3    0  502 -0.71492015770E+03  0.14907284006E+04  0.56859423018E+03  0.17483367539E+04  0.10100000352E+00 0. -1.
</event>
<event>
 5   0  0.1421875E-07  0.3389890E+04  0.7818609E-02  0.8140392E-01
       -1   -1    0    0    0  501  0.00000000000E+00  0.00000000000E+00  0.13526003537E+04  0.13526003537E+04  0.50400001928E-02 0. -1.
        1   -1    0    0  501    0  0.00000000000E+00  0.00000000000E+00 -0.21239375123E+04  0.21239375123E+04  0.50400001928E-02 0.  1.
    10030    2    1    2    0    0  0.00000000000E+00  0.00000000000E+00 -0.77133715853E+03  0.34765378660E+04  0.33898900457E+04 0.  0.
        5    1    3    3  502    0 -0.11739551043E+04  0.10731934470E+04  0.21487734161E+03  0.16050262065E+04  0.46999998093E+01 0. -1.
       -5    1    3    3    0  502  0.11739551043E+04 -0.10731934470E+04 -0.98621450014E+03  0.18715116595E+04  0.46999998093E+01 0.  1.
</event>
<event>
 5   0  0.1473755E-07  0.3397078E+04  0.7818609E-02  0.8138624E-01
        1   -1    0    0  501    0  0.00000000000E+00  0.00000000000E+00  0.19979809743E+04  0.19979809743E+04  0.50400001928E-02 0.  1.
       -1   -1    0    0    0  501  0.00000000000E+00  0.00000000000E+00 -0.14439749103E+04  0.14439749103E+04  0.50400001928E-02 0. -1.
    10030    2    1    2    0    0  0.00000000000E+00  0.00000000000E+00  0.55400606408E+03  0.34419558846E+04  0.33970778020E+04 0.  0.
        1    1    3    3  502    0  0.70700792407E+03  0.15150888923E+04 -0.26419077146E+02  0.16721401030E+04  0.50400001928E-02 0. -1.
       -1    1    3    3    0  502 -0.70700792407E+03 -0.15150888923E+04  0.58042514122E+03  0.17698157816E+04  0.50400001928E-02 0.  1.
</event>
<event>
 5   0  0.1421875E-07  0.3394467E+04  0.7818609E-02  0.8139266E-01
       -1   -1    0    0    0  501  0.00000000000E+00  0.00000000000E+00  0.12262768091E+04  0.12262768091E+04  0.50400001928E-02 0. -1.
        1   -1    0    0  501    0  0.00000000000E+00  0.00000000000E+00 -0.23490629586E+04  0.23490629586E+04  0.50400001928E-02 0.  1.
    10030    2    1    2    0    0  0.00000000000E+00  0.00000000000E+00 -0.11227861495E+04  0.35753397677E+04  0.33944669268E+04 0.  0.
        5    1    3    3  502    0  0.38007278517E+03  0.14139358042E+03  0.11744927784E+04  0.12425388698E+04  0.46999998093E+01 0. -1.
       -5    1    3    3    0  502 -0.38007278517E+03 -0.14139358042E+03 -0.22972789279E+04  0.23328008978E+04  0.46999998093E+01 0.  1.
</event>
<event>
 5   0  0.4447909E-07  0.3409355E+04  0.7818609E-02  0.8135614E-01
       -2   -1    0    0    0  501  0.00000000000E+00  0.00000000000E+00  0.16230785597E+04  0.16230785597E+04  0.25500000920E-02 0. -1.
        2   -1    0    0  501    0  0.00000000000E+00  0.00000000000E+00 -0.17903789480E+04  0.17903789480E+04  0.25500000920E-02 0.  1.
    10030    2    1    2    0    0  0.00000000000E+00  0.00000000000E+00 -0.16730038828E+03  0.34134575078E+04  0.34093551791E+04 0.  0.
        5    1    3    3  502    0  0.23385643953E+02 -0.13187249926E+04  0.99761275037E+03  0.16537338916E+04  0.46999998093E+01 0. -1.
       -5    1    3    3    0  502 -0.23385643953E+02  0.13187249926E+04 -0.11649131387E+04  0.17597236161E+04  0.46999998093E+01 0.  1.
</event>
<event>
 5   0  0.4396257E-07  0.3397784E+04  0.7818609E-02  0.8138450E-01
        2   -1    0    0  501    0  0.00000000000E+00  0.00000000000E+00  0.20242819550E+04  0.20242819550E+04  0.25500000920E-02 0. -1.
       -2   -1    0    0    0  501  0.00000000000E+00  0.00000000000E+00 -0.14258065278E+04  0.14258065278E+04  0.25500000920E-02 0.  1.
    10030    2    1    2    0    0  0.00000000000E+00  0.00000000000E+00  0.59847542721E+03  0.34500884828E+04  0.33977842342E+04 0.  0.
        2    1    3    3  502    0  0.25780525091E+03  0.10330034685E+03 -0.14025995544E+04  0.14298321647E+04  0.25500000920E-02 0.  1.
       -2    1    3    3    0  502 -0.25780525091E+03 -0.10330034685E+03  0.20010749816E+04  0.20202563182E+04  0.25500000920E-02 0. -1.
</event>
<event>
 5   0  0.4396257E-07  0.3319727E+04  0.7818609E-02  0.8157894E-01
        2   -1    0    0  501    0  0.00000000000E+00  0.00000000000E+00  0.23291932462E+04  0.23291932462E+04  0.25500000920E-02 0.  1.
       -2   -1    0    0    0  501  0.00000000000E+00  0.00000000000E+00 -0.11828760807E+04  0.11828760807E+04  0.25500000920E-02 0. -1.
    10030    2    1    2    0    0  0.00000000000E+00  0.00000000000E+00  0.11463171655E+04  0.35120693270E+04  0.33197270842E+04 0.  0.
        2    1    3    3  502    0  0.13951996417E+04  0.55900222190E+03  0.13182974102E+04  0.19992432534E+04  0.25500000920E-02 0. -1.
       -2    1    3    3    0  502 -0.13951996417E+04 -0.55900222190E+03 -0.17198024470E+03  0.15128260736E+04  0.25500000920E-02 0.  1.
</event>
<event>
 5   0  0.4447909E-07  0.3381893E+04  0.7818609E-02  0.8142365E-01
       -2   -1    0    0    0  501  0.00000000000E+00  0.00000000000E+00  0.10345192927E+04  0.10345192927E+04  0.25500000920E-02 0.  1.
        2   -1    0    0  501    0  0.00000000000E+00  0.00000000000E+00 -0.27638922607E+04  0.27638922607E+04  0.25500000920E-02 0. -1.
    10030    2    1    2    0    0  0.00000000000E+00  0.00000000000E+00 -0.17293729679E+04  0.37984115534E+04  0.33818928822E+04 0.  0.
        5    1    3    3  502    0  0.71271205854E+03 -0.10556591511E+04 -0.21138232801E+04  0.24679233520E+04  0.46999998093E+01 0. -1.
       -5    1    3    3    0  502 -0.71271205854E+03  0.10556591511E+04  0.38445031213E+03  0.13304882015E+04  0.46999998093E+01 0.  1.
</event>
<event>
 5   0  0.4486226E-07  0.3266799E+04  0.7818609E-02  0.8171395E-01
       -2   -1    0    0    0  501  0.00000000000E+00  0.00000000000E+00  0.14128171051E+04  0.14128171051E+04  0.25500000920E-02 0. -1.
        2   -1    0    0  501    0  0.00000000000E+00  0.00000000000E+00 -0.18884214147E+04  0.18884214147E+04  0.25500000920E-02 0.  1.
    10030    2    1    2    0    0  0.00000000000E+00  0.00000000000E+00 -0.47560430960E+03  0.33012385199E+04  0.32667990917E+04 0.  0.
        1    1    3    3  502    0 -0.18695473161E+03 -0.13225347164E+04  0.71229241597E+03  0.15137406098E+04  0.50400001928E-02 0. -1.
       -1    1    3    3    0  502  0.18695473161E+03  0.13225347164E+04 -0.11878967256E+04  0.17874979101E+04  0.50400001928E-02 0.  1.
</event>
<event>
 5   0  0.4396257E-07  0.3392095E+04  0.7818609E-02  0.8139849E-01
        2   -1    0    0  501    0  0.00000000000E+00  0.00000000000E+00  0.27620055730E+04  0.27620055730E+04  0.25500000920E-02 0. -1.
       -2   -1    0    0    0  501  0.00000000000E+00  0.00000000000E+00 -0.10414811816E+04  0.10414811816E+04  0.25500000920E-02 0.  1.
    10030    2    1    2    0    0  0.00000000000E+00  0.00000000000E+00  0.17205243914E+04  0.38034867546E+04  0.33920948264E+04 0.  0.
        2    1    3    3  502    0 -0.91097787946E+03  0.44446046225E+03 -0.66449297703E+03  0.12120134966E+04  0.25500000920E-02 0.  1.
       -2    1    3    3    0  502  0.91097787946E+03 -0.44446046225E+03  0.23850173684E+04  0.25914732580E+04  0.25500000920E-02 0. -1.
</event>
<event>
 5   0  0.4486226E-07  0.3405511E+04  0.7818609E-02  0.8136555E-01
       -2   -1    0    0    0  501  0.00000000000E+00  0.00000000000E+00  0.12593759252E+04  0.12593759252E+04  0.25500000920E-02 0. -1.
        2   -1    0    0  501    0  0.00000000000E+00  0.00000000000E+00 -0.23022325257E+04  0.23022325257E+04  0.25500000920E-02 0.  1.
    10030    2    1    2    0    0  0.00000000000E+00  0.00000000000E+00 -0.10428566005E+04  0.35616084510E+04  0.34055109556E+04 0.  0.
        1    1    3    3  502    0  0.11214923694E+04 -0.34824421361E+03 -0.18109738517E+04  0.21583895520E+04  0.50400001928E-02 0.  1.
       -1    1    3    3    0  502 -0.11214923694E+04  0.34824421361E+03  0.76811725113E+03  0.14032188989E+04  0.50400001928E-02 0. -1.
</event>
<event>
 5   0  0.1523259E-07  0.3389146E+04  0.7818609E-02  0.8140575E-01
       -1   -1    0    0    0  501  0.00000000000E+00  0.00000000000E+00  0.14820738798E+04  0.14820738798E+04  0.50400001928E-02 0.  1.
        1   -1    0    0  501    0  0.00000000000E+00  0.00000000000E+00 -0.19375398880E+04  0.19375398880E+04  0.50400001928E-02 0. -1.
    10030    2    1    2    0    0  0.00000000000E+00  0.00000000000E+00 -0.45546600821E+03  0.34196137678E+04  0.33891457680E+04 0.  0.
        4    1    3    3  502    0 -0.62686913683E+03  0.14700388158E+04  0.34089041021E+03  0.16340706592E+04  0.12699999809E+01 0. -1.
       -4    1    3    3    0  502  0.62686913683E+03 -0.14700388158E+04 -0.79635641842E+03  0.17855431086E+04  0.12699999809E+01 0.  1.
</event>
<event>
 5   0  0.1473755E-07  0.3396839E+04  0.7818609E-02  0.8138682E-01
       -1   -1    0    0    0  501  0.00000000000E+00  0.00000000000E+00  0.12771513281E+04  0.12771513281E+04  0.50400001928E-02 0. -1.
        1   -1    0    0  501    0  0.00000000000E+00  0.00000000000E+00 -0.22586435703E+04  0.22586435703E+04  0.50400001928E-02 0.  1.
    10030    2    1    2    0    0  0.00000000000E+00  0.00000000000E+00 -0.98149224217E+03  0.35357948984E+04  0.33968394931E+04 0.  0.
        1    1    3    3  502    0 -0.61535904853E+03 -0.15608486813E+04 -0.21591058649E+03  0.16916065577E+04  0.50400001928E-02 0. -1.
       -1    1    3    3    0  502  0.61535904853E+03  0.15608486813E+04 -0.76558165568E+03  0.18441883407E+04  0.50400001928E-02 0.  1.
</event>
<event>
 5   0  0.1473755E-07  0.3295908E+04  0.7818609E-02  0.8163937E-01
       -1   -1    0    0    0  501  0.00000000000E+00  0.00000000000E+00  0.21114824942E+04  0.21114824942E+04  0.50400001928E-02 0.  1.
        1   -1    0    0  501    0  0.00000000000E+00  0.00000000000E+00 -0.12861823989E+04  0.12861823989E+04  0.50400001928E-02 0. -1.
    10030    2    1    2    0    0  0.00000000000E+00  0.00000000000E+00  0.82530009536E+03  0.33976648931E+04  0.32959075349E+04 0.  0.
        1    1    3    3  502    0 -0.11463183054E+04  0.58386341949E+03  0.14744048097E+04  0.19567349572E+04  0.50400001928E-02 0.  1.
       -1    1    3    3    0  502  0.11463183054E+04 -0.58386341949E+03 -0.64910471431E+03  0.14409299359E+04  0.50400001928E-02 0. -1.
</event>
<event>
 5   0  0.4521737E-07  0.3400785E+04  0.7818609E-02  0.8137714E-01
        2   -1    0    0  501    0  0.00000000000E+00  0.00000000000E+00  0.21780910249E+04  0.21780910249E+04  0.25500000920E-02 0.  1.
       -2   -1    0    0    0  501  0.00000000000E+00  0.00000000000E+00 -0.13274625094E+04  0.13274625095E+04  0.25500000920E-02 0. -1.
    10030    2    1    2    0    0  0.00000000000E+00  0.00000000000E+00  0.85062851546E+03  0.35055535344E+04  0.34007847199E+04 0.  0.
        4    1    3    3  502    0  0.13703764759E+04  0.63376644439E+03  0.12315485157E+04  0.19484108784E+04  0.12699999809E+01 0. -1.
       -4    1    3    3    0  502 -0.13703764759E+04 -0.63376644439E+03 -0.38092000020E+03  0.15571426560E+04  0.12699999809E+01 0.  1.
</event>
<event>
 5   0  0.1421875E-07  0.3401237E+04  0.7818609E-02  0.8137603E-01
        1   -1    0    0  501    0  0.00000000000E+00  0.00000000000E+00  0.21345579593E+04  0.21345579593E+04  0.50400001928E-02 0. -1.
       -1   -1    0    0    0  501  0.00000000000E+00  0.00000000000E+00 -0.13548959209E+04  0.13548959209E+04  0.50400001928E-02 0.  1.
    10030    2    1    2    0    0  0.00000000000E+00  0.00000000000E+00  0.77966203834E+03  0.34894538802E+04  0.34012373466E+04 0.  0.
        5    1    3    3  502    0 -0.12682605395E+04 -0.76489093550E+03 -0.46763279958E+03  0.15531405166E+04  0.46999998093E+01 0.  1.
       -5    1    3    3    0  502  0.12682605395E+04  0.76489093550E+03  0.12472948379E+04  0.19363133635E+04  0.46999998093E+01 0. -1.
</event>
<event>
 5   0  0.1520084E-07  0.3400747E+04  0.7818609E-02  0.8137723E-01
        1   -1    0    0  501    0  0.00000000000E+00  0.00000000000E+00  0.19129640387E+04  0.19129640387E+04  0.50400001928E-02 0.  1.
       -1   -1    0    0    0  501  0.00000000000E+00  0.00000000000E+00 -0.15114082171E+04  0.15114082171E+04  0.50400001928E-02 0. -1.
    10030    2    1    2    0    0  0.00000000000E+00  0.00000000000E+00  0.40155582159E+03  0.34243722558E+04  0.34007467221E+04 0.  0.
        2    1    3    3  502    0 -0.21976434922E+03 -0.83584667745E+03 -0.12737494984E+04  0.15392770453E+04  0.25500000920E-02 0. -1.
       -2    1    3    3    0  502  0.21976434922E+03  0.83584667745E+03  0.16753053200E+04  0.18850952105E+04  0.25500000920E-02 0.  1.
</event>
<event>
 5   0  0.1523259E-07  0.3399144E+04  0.7818609E-02  0.8138116E-01
       -1   -1    0    0    0  501  0.00000000000E+00  0.00000000000E+00  0.16057799320E+04  0.16057799320E+04  0.50400001928E-02 0.  1.
        1   -1    0    0  501    0  0.00000000000E+00  0.00000000000E+00 -0.17988425350E+04  0.17988425350E+04  0.50400001928E-02 0. -1.
    10030    2    1    2    0    0  0.00000000000E+00  0.00000000000E+00 -0.19306260301E+03  0.34046224670E+04  0.33991441532E+04 0.  0.
        4    1    3    3  502    0  0.35047239975E+03  0.10768130243E+04 -0.13659279730E+04  0.17742936715E+04  0.12699999809E+01 0. -1.
       -4    1    3    3    0  502 -0.35047239975E+03 -0.10768130243E+04  0.11728653700E+04  0.16303287955E+04  0.12699999809E+01 0.  1.
</event>
<event>
 5   0  0.1473755E-07  0.3396298E+04  0.7818609E-02  0.8138816E-01
       -1   -1    0    0    0  501  0.00000000000E+00  0.00000000000E+00  0.13779603729E+04  0.13779603729E+04  0.50400001928E-02 0.  1.
        1   -1    0    0  501    0  0.00000000000E+00  0.00000000000E+00 -0.20927374878E+04  0.20927374878E+04  0.50400001928E-02 0. -1.
    10030    2    1    2    0    0  0.00000000000E+00  0.00000000000E+00 -0.71477711484E+03  0.34706978607E+04  0.33962975895E+04 0.  0.
        1    1    3    3  502    0 -0.92251352110E+03 -0.74714665356E+01  0.10995438887E+04  0.14352991962E+04  0.50400001928E-02 0.  1.
       -1    1    3    3    0  502  0.92251352110E+03  0.74714665356E+01 -0.18143210036E+04  0.20353986645E+04  0.50400001928E-02 0. -1.
</event>
<event>
 5   0  0.4381939E-07  0.3397698E+04  0.7818609E-02  0.8138472E-01
        2   -1    0    0  501    0  0.00000000000E+00  0.00000000000E+00  0.21848957042E+04  0.21848957042E+04  0.25500000920E-02 0. -1.
       -2   -1    0    0    0  501  0.00000000000E+00  0.00000000000E+00 -0.13209268907E+04  0.13209268907E+04  0.25500000920E-02 0.  1.
    10030    2    1    2    0    0  0.00000000000E+00  0.00000000000E+00  0.86396881347E+03  0.35058225949E+04  0.33976977435E+04 0.  0.
        3    1    3    3  502    0  0.12541164464E+04  0.70553248777E+03 -0.49980562996E+03  0.15232825839E+04  0.10100000352E+00 0.  1.
       -3    1    3    3    0  502 -0.12541164464E+04 -0.70553248777E+03  0.13637744434E+04  0.19825400110E+04  0.10100000352E+00 0. -1.
</event>
<event>
 5   0  0.1520084E-07  0.3396862E+04  0.7818609E-02  0.8138677E-01
       -1   -1    0    0    0  501  0.00000000000E+00  0.00000000000E+00  0.98756642232E+03  0.98756642233E+03  0.50400001928E-02 0. -1.
        1   -1    0    0  501    0  0.00000000000E+00  0.00000000000E+00 -0.29209855806E+04  0.29209855806E+04  0.50400001928E-02 0.  1.
    10030    2    1    2    0    0  0.00000000000E+00  0.00000000000E+00 -0.19334191583E+04  0.39085520029E+04  0.33968616572E+04 0.  0.
        2    1    3    3  502    0 -0.89986417014E+03 -0.64422998170E+03 -0.24491468096E+04  0.26875840245E+04  0.25500000920E-02 0.  1.
       -2    1    3    3    0  502  0.89986417014E+03  0.64422998170E+03  0.51572765129E+03  0.12209679784E+04  0.25500000920E-02 0. -1.
</event>
<event>
 5   0  0.4381939E-07  0.3408452E+04  0.7818609E-02  0.8135835E-01
       -2   -1    0    0    0  501  0.00000000000E+00  0.00000000000E+00  0.19012602743E+04  0.19012602743E+04  0.25500000920E-02 0.  1.
        2   -1    0    0  501    0  0.00000000000E+00  0.00000000000E+00 -0.15276115194E+04  0.15276115194E+04  0.25500000920E-02 0. -1.
    10030    2    1    2    0    0  0.00000000000E+00  0.00000000000E+00  0.37364875495E+03  0.34288717937E+04  0.34084524913E+04 0.  0.
        3    1    3    3  502    0 -0.12810674772E+04  0.11201083476E+04  0.28017302993E+03  0.17246082246E+04  0.10100000352E+00 0.  1.
       -3    1    3    3    0  502  0.12810674772E+04 -0.11201083476E+04  0.93475725017E+02  0.17042635691E+04  0.10100000352E+00 0. -1.
</event>
<event>
 5   0  0.1421875E-07  0.3369864E+04  0.7818609E-02  0.8145343E-01
       -1   -1    0    0    0  501  0.00000000000E+00  0.00000000000E+00  0.11974830788E+04  0.11974830788E+04  0.50400001928E-02 0. -1.
        1   -1    0    0  501    0  0.00000000000E+00  0.00000000000E+00 -0.23708024694E+04  0.23708024694E+04  0.50400001928E-02 0.  1.
    10030    2    1    2    0    0  0.00000000000E+00  0.00000000000E+00 -0.11733193906E+04  0.35682855483E+04  0.33698639975E+04 0.  0.
        5    1    3    3  502    0  0.38319689514E+03 -0.74424185635E+03 -0.21350314624E+04  0.22932765286E+04  0.46999998093E+01 0.  1.
       -5    1    3    3    0  502 -0.38319689514E+03  0.74424185635E+03  0.96171207179E+03  0.12750090197E+04  0.46999998093E+01 0. -1.
</event>
<event>
 5   0  0.4381939E-07  0.3420721E+04  0.7818609E-02  0.8132839E-01
        2   -1    0    0  501    0  0.00000000000E+00  0.00000000000E+00  0.12947914997E+04  0.12947914997E+04  0.25500000920E-02 0. -1.
       -2   -1    0    0    0  501  0.00000000000E+00  0.00000000000E+00 -0.22593083123E+04  0.22593083123E+04  0.25500000920E-02 0.  1.
    10030    2    1    2    0    0  0.00000000000E+00  0.00000000000E+00 -0.96451681252E+03  0.35540998120E+04  0.34207210924E+04 0.  0.
        3    1    3    3  502    0 -0.47603780611E+02  0.95445530650E+03 -0.19560456977E+04  0.21770084597E+04  0.10100000352E+00 0.  1.
       -3    1    3    3    0  502  0.47603780611E+02 -0.95445530650E+03  0.99152888520E+03  0.13770913522E+04  0.10100000352E+00 0. -1.
</event>
<event>
 5   0  0.1435806E-07  0.3401048E+04  0.7818609E-02  0.8137649E-01
       -1   -1    0    0    0  501  0.00000000000E+00  0.00000000000E+00  0.17561497992E+04  0.17561497993E+04  0.50400001928E-02 0.  1.
        1   -1    0    0  501    0  0.00000000000E+00  0.00000000000E+00 -0.16466598157E+04  0.16466598157E+04  0.50400001928E-02 0. -1.
    10030    2    1    2    0    0  0.00000000000E+00  0.00000000000E+00  0.10948998354E+03  0.34028096150E+04  0.34010476649E+04 0.  0.
        3    1    3    3  502    0 -0.30867872502E+03  0.65296553884E+03  0.15950667533E+04  0.17509667352E+04  0.10100000352E+00 0.  1.
       -3    1    3    3    0  502  0.30867872502E+03 -0.65296553884E+03 -0.14855767698E+04  0.16518428797E+04  0.10100000352E+00 0. -1.
</event>
<event>
 5   0  0.1421875E-07  0.3398190E+04  0.7818609E-02  0.8138351E-01
       -1   -1    0    0    0  501  0.00000000000E+00  0.00000000000E+00  0.13755014792E+04  0.13755014792E+04  0.50400001928E-02 0. -1.
        1   -1    0    0  501    0  0.00000000000E+00  0.00000000000E+00 -0.20988155987E+04  0.20988155987E+04  0.50400001928E-02 0.  1.
    10030    2    1    2    0    0  0.00000000000E+00  0.00000000000E+00 -0.72331411953E+03  0.34743170779E+04  0.33981900833E+04 0.  0.
        5    1    3    3  502    0 -0.13801453181E+04 -0.98182440909E+03 -0.49928926465E+03  0.17658120311E+04  0.46999998093E+01 0.  1.
       -5    1    3    3    0  502  0.13801453181E+04  0.98182440909E+03 -0.22402485488E+03  0.17085050468E+04  0.46999998093E+01 0. -1.
</event>
<event>
 5   0  0.4447909E-07  0.3396669E+04  0.7818609E-02  0.8138724E-01
        2   -1    0    0  501    0  0.00000000000E+00  0.00000000000E+00  0.19218710676E+04  0.19218710676E+04  0.25500000920E-02 0.  1.
       -2   -1    0    0    0  501  0.00000000000E+00  0.00000000000E+00 -0.15007975707E+04  0.15007975707E+04  0.25500000920E-02 0. -1.
    10030    2    1    2    0    0  0.00000000000E+00  0.00000000000E+00  0.42107349694E+03  0.34226686383E+04  0.33966686205E+04 0.  0.
        5    1    3    3  502    0  0.16624507363E+04  0.27301033023E+03  0.42674910262E+03  0.17379338243E+04  0.46999998093E+01 0.  1.
       -5    1    3    3    0  502 -0.16624507363E+04 -0.27301033023E+03 -0.56756056800E+01  0.16847348140E+04  0.46999998093E+01 0. -1.
</event>
<event>
 5   0  0.1435806E-07  0.3238467E+04  0.7818609E-02  0.8178731E-01
       -1   -1    0    0    0  501  0.00000000000E+00  0.00000000000E+00  0.20100434446E+04  0.20100434446E+04  0.50400001928E-02 0. -1.
        1   -1    0    0  501    0  0.00000000000E+00  0.00000000000E+00 -0.13044080707E+04  0.13044080708E+04  0.50400001928E-02 0.  1.
    10030    2    1    2    0    0  0.00000000000E+00  0.00000000000E+00  0.70563537388E+03  0.33144515154E+04  0.32384668544E+04 0.  0.
        3    1    3    3  502    0  0.12296241915E+04 -0.94776683641E+03  0.82369889745E+03  0.17574747544E+04  0.10100000352E+00 0.  1.
       -3    1    3    3    0  502 -0.12296241915E+04  0.94776683641E+03 -0.11806352357E+03  0.15569767610E+04  0.10100000352E+00 0. -1.
</event>
<event>
 5   0  0.1520084E-07  0.3347643E+04  0.7818609E-02  0.8150877E-01
        1   -1    0    0  501    0  0.00000000000E+00  0.00000000000E+00  0.11847321403E+04  0.11847321403E+04  0.50400001928E-02 0. -1.
       -1   -1    0    0    0  501  0.00000000000E+00  0.00000000000E+00 -0.23648198843E+04  0.23648198843E+04  0.50400001928E-02 0.  1.
    10030    2    1    2    0    0  0.00000000000E+00  0.00000000000E+00 -0.11800877440E+04  0.35495520246E+04  0.33476428261E+04 0.  0.
        2    1    3    3  502    0  0.76254870097E+03  0.80541385311E+03 -0.19192504137E+04  0.22166853964E+04  0.25500000920E-02 0.  1.
       -2    1    3    3    0  502 -0.76254870097E+03 -0.80541385311E+03  0.73916266969E+03  0.13328666281E+04  0.25500000920E-02 0. -1.
</event>
<event>
 5   0  0.4396257E-07  0.3399340E+04  0.7818609E-02  0.8138068E-01
       -2   -1    0    0    0  501  0.00000000000E+00  0.00000000000E+00  0.13819305877E+04  0.13819305877E+04  0.25500000920E-02 0. -1.
        2   -1    0    0  501    0  0.00000000000E+00  0.00000000000E+00 -0.20904660348E+04  0.20904660348E+04  0.25500000920E-02 0.  1.
    10030    2    1    2    0    0  0.00000000000E+00  0.00000000000E+00 -0.70853544711E+03  0.34723966224E+04  0.33993404983E+04 0.  0.
        2    1    3    3  502    0  0.72181899949E+03  0.10867734432E+04  0.75853895737E+03  0.15091323781E+04  0.25500000920E-02 0. -1.
       -2    1    3    3    0  502 -0.72181899949E+03 -0.10867734432E+04 -0.14670744045E+04  0.19632642443E+04  0.25500000920E-02 0.  1.
</event>
<event>
 5   0  0.4396257E-07  0.3396937E+04  0.7818609E-02  0.8138658E-01
        2   -1    0    0  501    0  0.00000000000E+00  0.00000000000E+00  0.23609885697E+04  0.23609885697E+04  0.25500000920E-02 0.  1.
       -2   -1    0    0    0  501  0.00000000000E+00  0.00000000000E+00 -0.12218591910E+04  0.12218591910E+04  0.25500000920E-02 0. -1.
    10030    2    1    2    0    0  0.00000000000E+00  0.00000000000E+00  0.11391293788E+04  0.35828477607E+04  0.33969371991E+04 0.  0.
        2    1    3    3  502    0  0.10651429435E+04 -0.11934788362E+04  0.11716609548E+04  0.19828541589E+04  0.25500000920E-02 0.  1.
       -2    1    3    3    0  502 -0.10651429435E+04  0.11934788362E+04 -0.32531576004E+02  0.15999936018E+04  0.25500000920E-02 0. -1.
</event>
<event>
 5   0  0.4521737E-07  0.3389575E+04  0.7818609E-02  0.8140470E-01
        2   -1    0    0  501    0  0.00000000000E+00  0.00000000000E+00  0.21222541382E+04  0.21222541382E+04  0.25500000920E-02 0. -1.
       -2   -1    0    0    0  501  0.00000000000E+00  0.00000000000E+00 -0.13534217035E+04  0.13534217036E+04  0.25500000920E-02 0.  1.
    10030    2    1    2    0    0  0.00000000000E+00  0.00000000000E+00  0.76883243468E+03  0.34756758418E+04  0.33895750832E+04 0.  0.
        4    1    3    3  502    0 -0.14935371247E+03 -0.16232086840E+04 -0.91253262156E+02  0.16326180613E+04  0.12699999809E+01 0. -1.
       -4    1    3    3    0  502  0.14935371247E+03  0.16232086840E+04  0.86008569683E+03  0.18430577805E+04  0.12699999809E+01 0.  1.
</event>
<event>
 5   0  0.4486226E-07  0.3388658E+04  0.7818609E-02  0.8140696E-01
        2   -1    0    0  501    0  0.00000000000E+00  0.00000000000E+00  0.29898073783E+04  0.29898073783E+04  0.25500000920E-02 0. -1.
       -2   -1    0    0    0  501  0.00000000000E+00  0.00000000000E+00 -0.96017944523E+03  0.96017944523E+03  0.25500000920E-02 0.  1.
    10030    2    1    2    0    0  0.00000000000E+00  0.00000000000E+00  0.20296279331E+04  0.39499868235E+04  0.33886584896E+04 0.  0.
        1    1    3    3  502    0  0.80280412227E+03  0.10470184860E+04  0.22539211547E+04  0.26116858043E+04  0.50400001928E-02 0. -1.
       -1    1    3    3    0  502 -0.80280412227E+03 -0.10470184860E+04 -0.22429322162E+03  0.13383010192E+04  0.50400001928E-02 0.  1.
</event>
<event>
 5   0  0.1520084E-07  0.3388588E+04  0.7818609E-02  0.8140713E-01
       -1   -1    0    0    0  501  0.00000000000E+00  0.00000000000E+00  0.16887648850E+04  0.16887648851E+04  0.50400001928E-02 0.  1.
        1   -1    0    0  501    0  0.00000000000E+00  0.00000000000E+00 -0.16998407369E+04  0.16998407370E+04  0.50400001928E-02 0. -1.
    10030    2    1    2    0    0  0.00000000000E+00  0.00000000000E+00 -0.11075851899E+02  0.33886056220E+04  0.33885875209E+04 0.  0.
        2    1    3    3  502    0  0.83074084866E+03  0.12200123657E+04 -0.83745030746E+03  0.16970219644E+04  0.25500000920E-02 0. -1.
       -2    1    3    3    0  502 -0.83074084866E+03 -0.12200123657E+04  0.82637445556E+03  0.16915836577E+04  0.25500000920E-02 0.  1.
</event>
<event>
 5   0  0.4396257E-07  0.3338192E+04  0.7818609E-02  0.8153245E-01
        2   -1    0    0  501    0  0.00000000000E+00  0.00000000000E+00  0.21176682289E+04  0.21176682289E+04  0.25500000920E-02 0.  1.
       -2   -1    0    0    0  501  0.00000000000E+00  0.00000000000E+00 -0.13155417033E+04  0.13155417033E+04  0.25500000920E-02 0. -1.
    10030    2    1    2    0    0  0.00000000000E+00  0.00000000000E+00  0.80212652557E+03  0.34332099322E+04  0.33381916476E+04 0.  0.
        2    1    3    3  502    0  0.62793966477E+03  0.10854351007E+04  0.15339635265E+04  0.19812929317E+04  0.25500000920E-02 0.  1.
       -2    1    3    3    0  502 -0.62793966477E+03 -0.10854351007E+04 -0.73183700093E+03  0.14519170005E+04  0.25500000920E-02 0. -1.
</event>
<event>
 5   0  0.4381939E-07  0.3402382E+04  0.7818609E-02  0.8137322E-01
        2   -1    0    0  501    0  0.00000000000E+00  0.00000000000E+00  0.22385018899E+04  0.22385018899E+04  0.25500000920E-02 0.  1.
       -2   -1    0    0    0  501  0.00000000000E+00  0.00000000000E+00 -0.12928517631E+04  0.12928517631E+04  0.25500000920E-02 0. -1.
    10030    2    1    2    0    0  0.00000000000E+00  0.00000000000E+00  0.94565012674E+03  0.35313536530E+04  0.34023821744E+04 0.  0.
        3    1    3    3  502    0 -0.77835824862E+03  0.10388241634E+04  0.16140754811E+04  0.20712886990E+04  0.10100000352E+00 0.  1.
       -3    1    3    3    0  502  0.77835824862E+03 -0.10388241634E+04 -0.66842535432E+03  0.14600649541E+04  0.10100000352E+00 0. -1.
</event>
<event>
 5   0  0.1435806E-07  0.3396429E+04  0.7818609E-02  0.8138783E-01
       -1   -1    0    0    0  501  0.00000000000E+00  0.00000000000E+00  0.14863788904E+04  0.14863788904E+04  0.50400001928E-02 0. -1.
        1   -1    0    0  501    0  0.00000000000E+00  0.00000000000E+00 -0.19402400704E+04  0.19402400704E+04  0.50400001928E-02 0.  1.
    10030    2    1    2    0    0  0.00000000000E+00  0.00000000000E+00 -0.45386117993E+03  0.34266189608E+04  0.33964286437E+04 0.  0.
        3    1    3    3  502    0 -0.10615682187E+04  0.66804658521E+03  0.92811211550E+03  0.15603222206E+04  0.10100000352E+00 0. -1.
       -3    1    3    3    0  502  0.10615682187E+04 -0.66804658521E+03 -0.13819732954E+04  0.18662967402E+04  0.10100000352E+00 0.  1.
</event>
<event>
 5   0  0.4447909E-07  0.3383815E+04  0.7818609E-02  0.8141890E-01
        2   -1    0    0  501    0  0.00000000000E+00  0.00000000000E+00  0.14219443875E+04  0.14219443875E+04  0.25500000920E-02 0. -1.
       -2   -1    0    0    0  501  0.00000000000E+00  0.00000000000E+00 -0.20131247891E+04  0.20131247891E+04  0.25500000920E-02 0.  1.
    10030    2    1    2    0    0  0.00000000000E+00  0.00000000000E+00 -0.59118040163E+03  0.34350691765E+04  0.33838152994E+04 0.  0.
        5    1    3    3  502    0 -0.41369227448E+03 -0.15358616383E+04  0.28978706629E+03  0.16167903092E+04  0.46999998093E+01 0. -1.
       -5    1    3    3    0  502  0.41369227448E+03  0.15358616383E+04 -0.88096746792E+03  0.18182788674E+04  0.46999998093E+01 0.  1.
</event>
<event>
 5   0  0.1523259E-07  0.3433579E+04  0.7818609E-02  0.8129714E-01
        1   -1    0    0  501    0  0.00000000000E+00  0.00000000000E+00  0.17755013197E+04  0.17755013197E+04  0.50400001928E-02 0. -1.
       -1   -1    0    0    0  501  0.00000000000E+00  0.00000000000E+00 -0.16600191176E+04  0.16600191176E+04  0.50400001928E-02 0.  1.
    10030    2    1    2    0    0  0.00000000000E+00  0.00000000000E+00  0.11548220215E+03  0.34355204373E+04  0.34335789690E+04 0.  0.
        4    1    3    3  502    0  0.46075379696E+03  0.99747710440E+03 -0.12621370308E+04  0.16733935977E+04  0.12699999809E+01 0.  1.
       -4    1    3    3    0  502 -0.46075379696E+03 -0.99747710440E+03  0.13776192330E+04  0.17621268397E+04  0.12699999809E+01 0. -1.
</event>
<event>
 5   0  0.4486226E-07  0.3409936E+04  0.7818609E-02  0.8135472E-01
       -2   -1    0    0    0  501  0.00000000000E+00  0.00000000000E+00  0.11868991265E+04  0.11868991265E+04  0.25500000920E-02 0.  1.
        2   -1    0    0  501    0  0.00000000000E+00  0.00000000000E+00 -0.24491678659E+04  0.24491678659E+04  0.25500000920E-02 0. -1.
    10030    2    1    2    0    0  0.00000000000E+00  0.00000000000E+00 -0.12622687395E+04  0.36360669924E+04  0.34099356009E+04 0.  0.
        1    1    3    3  502    0 -0.23117967454E+01 -0.38451209888E+03 -0.24023290347E+04  0.24329076616E+04  0.50400001928E-02 0. -1.
       -1    1    3    3    0  502  0.23117967454E+01  0.38451209888E+03  0.11400602952E+04  0.12031593308E+04  0.50400001928E-02 0.  1.
</event>
<event>
 5   0  0.4396257E-07  0.3286408E+04  0.7818609E-02  0.8166362E-01
       -2   -1    0    0    0  501  0.00000000000E+00  0.00000000000E+00  0.10437333857E+04  0.10437333857E+04  0.25500000920E-02 0.  1.
        2   -1    0    0  501    0  0.00000000000E+00  0.00000000000E+00 -0.25869820942E+04  0.25869820942E+04  0.25500000920E-02 0. -1.
    10030    2    1    2    0    0  0.00000000000E+00  0.00000000000E+00 -0.15432487084E+04  0.36307154799E+04  0.32864081183E+04 0.  0.
        2    1    3    3  502    0  0.36622080319E+03  0.12347306569E+04 -0.18990509844E+04  0.22945744950E+04  0.25500000920E-02 0. -1.
       -2    1    3    3    0  502 -0.36622080319E+03 -0.12347306569E+04  0.35580227601E+03  0.13361409849E+04  0.25500000920E-02 0.  1.
</event>
<event>
 5   0  0.1421875E-07  0.3390023E+04  0.7818609E-02  0.8140359E-01
       -1   -1    0    0    0  501  0.00000000000E+00  0.00000000000E+00  0.17000906725E+04  0.17000906725E+04  0.50400001928E-02 0.  1.
        1   -1    0    0  501    0  0.00000000000E+00  0.00000000000E+00 -0.16899470545E+04  0.16899470545E+04  0.50400001928E-02 0. -1.
    10030    2    1    2    0    0  0.00000000000E+00  0.00000000000E+00  0.10143617963E+02  0.33900377270E+04  0.33900225512E+04 0.  0.
        5    1    3    3  502    0 -0.60329099891E+03 -0.44295581763E+03  0.15258913105E+04  0.16995694359E+04  0.46999998093E+01 0.  1.
       -5    1    3    3    0  502  0.60329099891E+03  0.44295581763E+03 -0.15157476926E+04  0.16904682911E+04  0.46999998093E+01 0. -1.
</event>
<event>
 5   0  0.4521737E-07  0.3397576E+04  0.7818609E-02  0.8138502E-01
       -2   -1    0    0    0  501  0.00000000000E+00  0.00000000000E+00  0.14302209869E+04  0.14302209869E+04  0.25500000920E-02 0.  1.
        2   -1    0    0  501    0  0.00000000000E+00  0.00000000000E+00 -0.20177859706E+04  0.20177859706E+04  0.25500000920E-02 0. -1.
    10030    2    1    2    0    0  0.00000000000E+00  0.00000000000E+00 -0.58756498368E+03  0.34480069575E+04  0.33975755133E+04 0.  0.
        4    1    3    3  502    0 -0.66034763582E+02  0.15621942174E+04  0.38020406223E+03  0.16091513617E+04  0.12699999809E+01 0.  1.
       -4    1    3    3    0  502  0.66034763582E+02 -0.15621942174E+04 -0.96776904591E+03  0.18388555958E+04  0.12699999809E+01 0. -1.
</event>
<event>
 5   0  0.4447909E-07  0.3384003E+04  0.7818609E-02  0.8141844E-01
       -2   -1    0    0    0  501  0.00000000000E+00  0.00000000000E+00  0.13016606836E+04  0.13016606837E+04  0.25500000920E-02 0.  1.
        2   -1    0    0  501    0  0.00000000000E+00  0.00000000000E+00 -0.21993977345E+04  0.21993977345E+04  0.25500000920E-02 0. -1.
    10030    2    1    2    0    0  0.00000000000E+00  0.00000000000E+00 -0.89773705090E+03  0.35010584182E+04  0.33840032853E+04 0.  0.
        5    1    3    3  502    0  0.11176666740E+04  0.60195884007E+03 -0.16061840343E+04  0.20472866144E+04  0.46999998093E+01 0. -1.
       -5    1    3    3    0  502 -0.11176666740E+04 -0.60195884007E+03  0.70844698343E+03  0.14537718038E+04  0.46999998093E+01 0.  1.
</event>
<event>
 5   0  0.1523259E-07  0.3409036E+04  0.7818609E-02  0.8135692E-01
       -1   -1    0    0    0  501  0.00000000000E+00  0.00000000000E+00  0.14332045942E+04  0.14332045942E+04  0.50400001928E-02 0. -1.
        1   -1    0    0  501    0  0.00000000000E+00  0.00000000000E+00 -0.20271927654E+04  0.20271927654E+04  0.50400001928E-02 0.  1.
    10030    2    1    2    0    0  0.00000000000E+00  0.00000000000E+00 -0.59398817121E+03  0.34603973596E+04  0.34090362185E+04 0.  0.
        4    1    3    3  502    0  0.19978073819E+03  0.96898725876E+03 -0.17059014485E+04  0.19720420929E+04  0.12699999809E+01 0.  1.
       -4    1    3    3    0  502 -0.19978073819E+03 -0.96898725876E+03  0.11119132773E+04  0.14883552668E+04  0.12699999809E+01 0. -1.
</event>
<event>
 5   0  0.4381939E-07  0.3411016E+04  0.7818609E-02  0.8135208E-01
       -2   -1    0    0    0  501  0.00000000000E+00  0.00000000000E+00  0.10572865552E+04  0.10572865552E+04  0.25500000920E-02 0.  1.
        2   -1    0    0  501    0  0.00000000000E+00  0.00000000000E+00 -0.27511536111E+04  0.27511536111E+04  0.25500000920E-02 0. -1.
    10030    2    1    2    0    0  0.00000000000E+00  0.00000000000E+00 -0.16938670560E+04  0.38084401663E+04  0.34110161092E+04 0.  0.
        3    1    3    3  502    0 -0.35244438284E+03 -0.96801270496E+03  0.67065717862E+03  0.12292463957E+04  0.10100000352E+00 0.  1.
       -3    1    3    3    0  502  0.35244438284E+03  0.96801270496E+03 -0.23645242346E+04  0.25791937706E+04  0.10100000352E+00 0. -1.
</event>
<event>
 5   0  0.1421875E-07  0.3398252E+04  0.7818609E-02  0.8138335E-01
       -3   -1    0    0    0  501  0.00000000000E+00  0.00000000000E+00  0.26124767831E+04  0.26124767850E+04  0.10100000352E+00 0.  1.
        3   -1    0    0  501    0  0.00000000000E+00  0.00000000000E+00 -0.11050927466E+04  0.11050927512E+04  0.10100000352E+00 0. -1.
    10030    2    1    2    0    0  0.00000000000E+00  0.00000000000E+00  0.15073840364E+04  0.37175695362E+04  0.33982519953E+04 0.  0.
        4    1    3    3  502    0  0.69762696278E+03 -0.14088668726E+04  0.14588018751E+04  0.21446896670E+04  0.12699999809E+01 0.  1.
       -4    1    3    3    0  502 -0.69762696278E+03  0.14088668726E+04  0.48582161308E+02  0.15728798693E+04  0.12699999809E+01 0. -1.
</event>
<event>
 5   0  0.1435806E-07  0.3404690E+04  0.7818609E-02  0.8136756E-01
        1   -1    0    0  501    0  0.00000000000E+00  0.00000000000E+00  0.18258416166E+04  0.18258416166E+04  0.50400001928E-02 0.  1.
       -1   -1    0    0    0  501  0.00000000000E+00  0.00000000000E+00 -0.15872015484E+04  0.15872015485E+04  0.50400001928E-02 0. -1.
    10030    2    1    2    0    0  0.00000000000E+00  0.00000000000E+00  0.23864006811E+03  0.34130431650E+04  0.34046900834E+04 0.  0.
        3    1    3    3  502    0 -0.12489629513E+03  0.15630625700E+04 -0.54503885684E+03  0.16600695913E+04  0.10100000352E+00 0.  1.
       -3    1    3    3    0  502  0.12489629513E+03 -0.15630625700E+04  0.78367892496E+03  0.17529735737E+04  0.10100000352E+00 0. -1.
</event>
<event>
 5   0  0.1435806E-07  0.3402994E+04  0.7818609E-02  0.8137172E-01
       -1   -1    0    0    0  501  0.00000000000E+00  0.00000000000E+00  0.13418996662E+04  0.13418996663E+04  0.50400001928E-02 0. -1.
        1   -1    0    0  501    0  0.00000000000E+00  0.00000000000E+00 -0.21574583287E+04  0.21574583287E+04  0.50400001928E-02 0.  1.
    10030    2    1    2    0    0  0.00000000000E+00  0.00000000000E+00 -0.81555866244E+03  0.34993579949E+04  0.34029943351E+04 0.  0.
        3    1    3    3  502    0 -0.13253496020E+04 -0.18216686333E+03 -0.14889102490E+04  0.20016468403E+04  0.10100000352E+00 0.  1.
       -3    1    3    3    0  502  0.13253496020E+04  0.18216686333E+03  0.67335158652E+03  0.14977111547E+04  0.10100000352E+00 0. -1.
</event>
<event>
 5   0  0.1473755E-07  0.3421240E+04  0.7818609E-02  0.8132713E-01
        1   -1    0    0  501    0  0.00000000000E+00  0.00000000000E+00  0.17532733819E+04  0.17532733819E+04  0.50400001928E-02 0. -1.
       -1   -1    0    0    0  501  0.00000000000E+00  0.00000000000E+00 -0.16690039954E+04  0.16690039955E+04  0.50400001928E-02 0.  1.
    10030    2    1    2    0    0  0.00000000000E+00  0.00000000000E+00  0.84269386402E+02  0.34222773773E+04  0.34212397048E+04 0.  0.
        1    1    3    3  502    0  0.95340442891E+03 -0.68562265712E+03  0.12863615642E+04  0.17417762506E+04  0.50400001928E-02 0. -1.
       -1    1    3    3    0  502 -0.95340442891E+03  0.68562265712E+03 -0.12020921778E+04  0.16805011268E+04  0.50400001928E-02 0.  1.
</event>
<event>
 5   0  0.4381939E-07  0.3403817E+04  0.7818609E-02  0.8136970E-01
        2   -1    0    0  501    0  0.00000000000E+00  0.00000000000E+00  0.15609803651E+04  0.15609803651E+04  0.25500000920E-02 0. -1.
       -2   -1    0    0    0  501  0.00000000000E+00  0.00000000000E+00 -0.18555595101E+04  0.18555595101E+04  0.25500000920E-02 0.  1.
    10030    2    1    2    0    0  0.00000000000E+00  0.00000000000E+00 -0.29457914502E+03  0.34165398751E+04  0.34038166587E+04 0.  0.
        3    1    3    3  502    0 -0.15283481494E+04 -0.41468243455E+03 -0.77306391428E+03  0.17622251312E+04  0.10100000352E+00 0.  1.
       -3    1    3    3    0  502  0.15283481494E+04  0.41468243455E+03  0.47848476927E+03  0.16543147439E+04  0.10100000352E+00 0. -1.
</event>
<event>
 5   0  0.4381939E-07  0.3392898E+04  0.7818609E-02  0.8139652E-01
        2   -1    0    0  501    0  0.00000000000E+00  0.00000000000E+00  0.12207881863E+04  0.12207881863E+04  0.25500000920E-02 0.  1.
       -2   -1    0    0    0  501  0.00000000000E+00  0.00000000000E+00 -0.23574430627E+04  0.23574430627E+04  0.25500000920E-02 0. -1.
    10030    2    1    2    0    0  0.00000000000E+00  0.00000000000E+00 -0.11366548764E+04  0.35782312490E+04  0.33928976648E+04 0.  0.
        3    1    3    3  502    0  0.17759725802E+03 -0.94995029765E+02  0.12081345518E+04  0.12248077184E+04  0.10100000352E+00 0.  1.
       -3    1    3    3    0  502 -0.17759725802E+03  0.94995029765E+02 -0.23447894281E+04  0.23534235306E+04  0.10100000352E+00 0. -1.
</event>
<event>
 5   0  0.4447909E-07  0.3386850E+04  0.7818609E-02  0.8141141E-01
       -2   -1    0    0    0  501  0.00000000000E+00  0.00000000000E+00  0.15094199547E+04  0.15094199547E+04  0.25500000920E-02 0. -1.
        2   -1    0    0  501    0  0.00000000000E+00  0.00000000000E+00 -0.18998607803E+04  0.18998607804E+04  0.25500000920E-02 0.  1.
    10030    2    1    2    0    0  0.00000000000E+00  0.00000000000E+00 -0.39044082563E+03  0.34092807351E+04  0.33868497298E+04 0.  0.
        5    1    3    3  502    0 -0.36891782044E+03  0.15172330145E+04 -0.85497657718E+03  0.17801975779E+04  0.46999998093E+01 0. -1.
       -5    1    3    3    0  502  0.36891782044E+03 -0.15172330145E+04  0.46453575154E+03  0.16290831572E+04  0.46999998093E+01 0.  1.
</event>
<event>
 5   0  0.1523259E-07  0.3498774E+04  0.7818609E-02  0.8114081E-01
        1   -1    0    0  501    0  0.00000000000E+00  0.00000000000E+00  0.14589448952E+04  0.14589448952E+04  0.50400001928E-02 0. -1.
       -1   -1    0    0    0  501  0.00000000000E+00  0.00000000000E+00 -0.20976490108E+04  0.20976490108E+04  0.50400001928E-02 0.  1.
    10030    2    1    2    0    0  0.00000000000E+00  0.00000000000E+00 -0.63870411557E+03  0.35565939060E+04  0.34987736801E+04 0.  0.
        4    1    3    3  502    0  0.18856347719E+03 -0.17384245288E+04 -0.37194365189E+03  0.17877415139E+04  0.12699999809E+01 0.  1.
       -4    1    3    3    0  502 -0.18856347719E+03  0.17384245288E+04 -0.26676046368E+03  0.17688523921E+04  0.12699999809E+01 0. -1.
</event>
<event>
 5   0  0.1473755E-07  0.3397218E+04  0.7818609E-02  0.8138589E-01
        1   -1    0    0  501    0  0.00000000000E+00  0.00000000000E+00  0.27397186156E+04  0.27397186156E+04  0.50400001928E-02 0.  1.
       -1   -1    0    0    0  501  0.00000000000E+00  0.00000000000E+00 -0.10531274763E+04  0.10531274763E+04  0.50400001928E-02 0. -1.
    10030    2    1    2    0    0  0.00000000000E+00  0.00000000000E+00  0.16865911393E+04  0.37928460919E+04  0.33972182452E+04 0.  0.
        1    1    3    3  502    0  0.12795343064E+04  0.29206103576E+03 -0.36059717287E+03  0.13610797225E+04  0.50400001928E-02 0. -1.
       -1    1    3    3    0  502 -0.12795343064E+04 -0.29206103576E+03  0.20471883122E+04  0.24317663694E+04  0.50400001928E-02 0.  1.
</event>
<event>
 5   0  0.4396257E-07  0.3399906E+04  0.7818609E-02  0.8137929E-01
       -2   -1    0    0    0  501  0.00000000000E+00  0.00000000000E+00  0.28495939994E+04  0.28495939994E+04  0.25500000920E-02 0.  1.
        2   -1    0    0  501    0  0.00000000000E+00  0.00000000000E+00 -0.10141235789E+04  0.10141235790E+04  0.25500000920E-02 0. -1.
    10030    2    1    2    0    0  0.00000000000E+00  0.00000000000E+00  0.18354704205E+04  0.38637175784E+04  0.33999061548E+04 0.  0.
        2    1    3    3  502    0 -0.94308851386E+03 -0.14142478989E+04  0.93829782194E+03  0.19416271185E+04  0.25500000920E-02 0. -1.
       -2    1    3    3    0  502  0.94308851386E+03  0.14142478989E+04  0.89717259856E+03  0.19220904599E+04  0.25500000920E-02 0.  1.
</event>
<event>
 5   0  0.4381939E-07  0.3371555E+04  0.7818609E-02  0.8144923E-01
       -2   -1    0    0    0  501  0.00000000000E+00  0.00000000000E+00  0.18756021762E+04  0.18756021762E+04  0.25500000920E-02 0. -1.
        2   -1    0    0  501    0  0.00000000000E+00  0.00000000000E+00 -0.15151644506E+04  0.15151644506E+04  0.25500000920E-02 0.  1.
    10030    2    1    2    0    0  0.00000000000E+00  0.00000000000E+00  0.36043772560E+03  0.33907666269E+04  0.33715549771E+04 0.  0.
        3    1    3    3  502    0 -0.37248397952E+03 -0.16162122364E+04  0.48353219624E+03  0.17276254522E+04  0.10100000352E+00 0.  1.
       -3    1    3    3    0  502  0.37248397952E+03  0.16162122364E+04 -0.12309447064E+03  0.16631411747E+04  0.10100000352E+00 0. -1.
</event>
<event>
 5   0  0.1473755E-07  0.3398014E+04  0.7818609E-02  0.8138394E-01
       -1   -1    0    0    0  501  0.00000000000E+00  0.00000000000E+00  0.10046684168E+04  0.10046684168E+04  0.50400001928E-02 0. -1.
        1   -1    0    0  501    0  0.00000000000E+00  0.00000000000E+00 -0.28732109124E+04  0.28732109124E+04  0.50400001928E-02 0.  1.
    10030    2    1    2    0    0  0.00000000000E+00  0.00000000000E+00 -0.18685424956E+04  0.38778793292E+04  0.33980136895E+04 0.  0.
        1    1    3    3  502    0 -0.16886291159E+04  0.15784104856E+03 -0.81877571758E+03  0.18832885502E+04  0.50400001928E-02 0. -1.
       -1    1    3    3    0  502  0.16886291159E+04 -0.15784104856E+03 -0.10497667780E+04  0.19945907790E+04  0.50400001928E-02 0.  1.
</event>
<event>
 5   0  0.4447909E-07  0.3400025E+04  0.7818609E-02  0.8137900E-01
        2   -1    0    0  501    0  0.00000000000E+00  0.00000000000E+00  0.21340195219E+04  0.21340195219E+04  0.25500000920E-02 0.  1.
       -2   -1    0    0    0  501  0.00000000000E+00  0.00000000000E+00 -0.13542715431E+04  0.13542715431E+04  0.25500000920E-02 0. -1.
    10030    2    1    2    0    0  0.00000000000E+00  0.00000000000E+00  0.77974797875E+03  0.34882910650E+04  0.34000246534E+04 0.  0.
        5    1    3    3  502    0  0.98793254364E+03 -0.99483055139E+03  0.13762491480E+04  0.19646328777E+04  0.46999998093E+01 0.  1.
       -5    1    3    3    0  502 -0.98793254364E+03  0.99483055139E+03 -0.59650116927E+03  0.15236581873E+04  0.46999998093E+01 0. -1.
</event>
<event>
 5   0  0.1473755E-07  0.3410533E+04  0.7818609E-02  0.8135326E-01
       -1   -1    0    0    0  501  0.00000000000E+00  0.00000000000E+00  0.24575708580E+04  0.24575708580E+04  0.50400001928E-02 0. -1.
        1   -1    0    0  501    0  0.00000000000E+00  0.00000000000E+00 -0.11832551784E+04  0.11832551784E+04  0.50400001928E-02 0.  1.
    10030    2    1    2    0    0  0.00000000000E+00  0.00000000000E+00  0.12743156796E+04  0.36408260365E+04  0.34105327702E+04 0.  0.
        1    1    3    3  502    0 -0.57811385175E+03  0.93905747939E+03  0.20257145389E+04  0.23064179951E+04  0.50400001928E-02 0. -1.
       -1    1    3    3    0  502  0.57811385175E+03 -0.93905747939E+03 -0.75139885923E+03  0.13344080414E+04  0.50400001928E-02 0.  1.
</event>
<event>
 5   0  0.1421875E-07  0.3402941E+04  0.7818609E-02  0.8137185E-01
        1   -1    0    0  501    0  0.00000000000E+00  0.00000000000E+00  0.15854444129E+04  0.15854444129E+04  0.50400001928E-02 0.  1.
       -1   -1    0    0    0  501  0.00000000000E+00  0.00000000000E+00 -0.18259881410E+04  0.18259881410E+04  0.50400001928E-02 0. -1.
    10030    2    1    2    0    0  0.00000000000E+00  0.00000000000E+00 -0.24054372817E+03  0.34114325539E+04  0.34029414901E+04 0.  0.
        5    1    3    3  502    0  0.11882356010E+04  0.84082782540E+02 -0.13382135463E+04  0.17915946369E+04  0.46999998093E+01 0. -1.
       -5    1    3    3    0  502 -0.11882356010E+04 -0.84082782540E+02  0.10976698181E+04  0.16198379170E+04  0.46999998093E+01 0.  1.
</event>
<event>
 5   0  0.4396257E-07  0.3414135E+04  0.7818609E-02  0.8134446E-01
        2   -1    0    0  501    0  0.00000000000E+00  0.00000000000E+00  0.22274577088E+04  0.22274577088E+04  0.25500000920E-02 0. -1.
       -2   -1    0    0    0  501  0.00000000000E+00  0.00000000000E+00 -0.13082536666E+04  0.13082536666E+04  0.25500000920E-02 0.  1.
    10030    2    1    2    0    0  0.00000000000E+00  0.00000000000E+00  0.91920404214E+03  0.35357113754E+04  0.34141351554E+04 0.  0.
        2    1    3    3  502    0  0.50987526521E+03 -0.11632149359E+04 -0.72164595446E+03  0.14607582472E+04  0.25500000920E-02 0.  1.
       -2    1    3    3    0  502 -0.50987526521E+03  0.11632149359E+04  0.16408499966E+04  0.20749531283E+04  0.25500000920E-02 0. -1.
</event>
<event>
 5   0  0.1473755E-07  0.3404071E+04  0.7818609E-02  0.8136908E-01
       -1   -1    0    0    0  501  0.00000000000E+00  0.00000000000E+00  0.16380204106E+04  0.16380204106E+04  0.50400001928E-02 0. -1.
        1   -1    0    0  501    0  0.00000000000E+00  0.00000000000E+00 -0.17685528046E+04  0.17685528046E+04  0.50400001928E-02 0.  1.
    10030    2    1    2    0    0  0.00000000000E+00  0.00000000000E+00 -0.13053239405E+03  0.34065732152E+04  0.34040714395E+04 0.  0.
        1    1    3    3  502    0  0.81111482167E+03 -0.55916243015E+01 -0.15626904209E+04  0.17606646108E+04  0.50400001928E-02 0.  1.
       -1    1    3    3    0  502 -0.81111482167E+03  0.55916243015E+01  0.14321580269E+04  0.16459086044E+04  0.50400001928E-02 0. -1.
</event>
<event>
 5   0  0.1520084E-07  0.3387373E+04  0.7818609E-02  0.8141012E-01
        1   -1    0    0  501    0  0.00000000000E+00  0.00000000000E+00  0.25026600280E+04  0.25026600280E+04  0.50400001928E-02 0. -1.
       -1   -1    0    0    0  501  0.00000000000E+00  0.00000000000E+00 -0.11462100422E+04  0.11462100422E+04  0.50400001928E-02 0.  1.
    10030    2    1    2    0    0  0.00000000000E+00  0.00000000000E+00  0.13564499858E+04  0.36488700701E+04  0.33873730566E+04 0.  0.
        2    1    3    3  502    0 -0.10764936036E+04 -0.10208122318E+04 -0.20196999690E+03  0.14972267600E+04  0.25500000920E-02 0.  1.
       -2    1    3    3    0  502  0.10764936036E+04  0.10208122318E+04  0.15584199827E+04  0.21516433101E+04  0.25500000920E-02 0. -1.
</event>
<event>
 5   0  0.4447909E-07  0.3424134E+04  0.7818609E-02  0.8132008E-01
       -2   -1    0    0    0  501  0.00000000000E+00  0.00000000000E+00  0.13944909837E+04  0.13944909837E+04  0.25500000920E-02 0. -1.
        2   -1    0    0  501    0  0.00000000000E+00  0.00000000000E+00 -0.21019670646E+04  0.21019670646E+04  0.25500000920E-02 0.  1.
    10030    2    1    2    0    0  0.00000000000E+00  0.00000000000E+00 -0.70747608088E+03  0.34964580483E+04  0.34241344131E+04 0.  0.
        5    1    3    3  502    0  0.15389213777E+04  0.35858957914E+03 -0.10266615488E+04  0.18843888979E+04  0.46999998093E+01 0.  1.
       -5    1    3    3    0  502 -0.15389213777E+04 -0.35858957914E+03  0.31918546788E+03  0.16120691504E+04  0.46999998093E+01 0. -1.
</event>
<event>
 5   0  0.4521737E-07  0.3396004E+04  0.7818609E-02  0.8138888E-01
       -2   -1    0    0    0  501  0.00000000000E+00  0.00000000000E+00  0.14804005426E+04  0.14804005426E+04  0.25500000920E-02 0. -1.
        2   -1    0    0  501    0  0.00000000000E+00  0.00000000000E+00 -0.19475881614E+04  0.19475881614E+04  0.25500000920E-02 0.  1.
    10030    2    1    2    0    0  0.00000000000E+00  0.00000000000E+00 -0.46718761888E+03  0.34279887040E+04  0.33960038698E+04 0.  0.
        4    1    3    3  502    0 -0.17212858569E+03 -0.16385430997E+04  0.18107596930E+03  0.16574805758E+04  0.12699999809E+01 0. -1.
       -4    1    3    3    0  502  0.17212858569E+03  0.16385430997E+04 -0.64826358818E+03  0.17705081282E+04  0.12699999809E+01 0.  1.
</event>
<event>
 5   0  0.1520084E-07  0.3385130E+04  0.7818609E-02  0.8141566E-01
       -1   -1    0    0    0  501  0.00000000000E+00  0.00000000000E+00  0.14278468005E+04  0.14278468005E+04  0.50400001928E-02 0.  1.
        1   -1    0    0  501    0  0.00000000000E+00  0.00000000000E+00 -0.20063609666E+04  0.20063609666E+04  0.50400001928E-02 0. -1.
    10030    2    1    2    0    0  0.00000000000E+00  0.00000000000E+00 -0.57851416605E+03  0.34342077671E+04  0.33851298863E+04 0.  0.
        2    1    3    3  502    0  0.10782095633E+04  0.19474779242E+03 -0.15980435626E+04  0.19375772999E+04  0.25500000920E-02 0. -1.
       -2    1    3    3    0  502 -0.10782095633E+04 -0.19474779242E+03  0.10195293965E+04  0.14966304672E+04  0.25500000920E-02 0.  1.
</event>
<event>
 5   0  0.1435806E-07  0.3433425E+04  0.7818609E-02  0.8129751E-01
        1   -1    0    0  501    0  0.00000000000E+00  0.00000000000E+00  0.17085116530E+04  0.17085116530E+04  0.50400001928E-02 0. -1.
       -1   -1    0    0    0  501  0.00000000000E+00  0.00000000000E+00 -0.17249522970E+04  0.17249522970E+04  0.50400001928E-02 0.  1.
    10030    2    1    2    0    0  0.00000000000E+00  0.00000000000E+00 -0.16440643965E+02  0.34334639501E+04  0.34334245880E+04 0.  0.
        3    1    3    3  502    0 -0.58326828318E+03 -0.74691693260E+03  0.14232339307E+04  0.17098776640E+04  0.10100000352E+00 0. -1.
       -3    1    3    3    0  502  0.58326828318E+03  0.74691693260E+03 -0.14396745746E+04  0.17235862860E+04  0.10100000352E+00 0.  1.
</event>
<event>
 5   0  0.1520084E-07  0.3401687E+04  0.7818609E-02  0.8137492E-01
       -1   -1    0    0    0  501  0.00000000000E+00  0.00000000000E+00  0.32590515622E+04  0.32590515622E+04  0.50400001928E-02 0.  1.
        1   -1    0    0  501    0  0.00000000000E+00  0.00000000000E+00 -0.88764137145E+03  0.88764137146E+03  0.50400001928E-02 0. -1.
    10030    2    1    2    0    0  0.00000000000E+00  0.00000000000E+00  0.23714101908E+04  0.41466929337E+04  0.34016872274E+04 0.  0.
        2    1    3    3  502    0  0.75857998277E+03 -0.57875956516E+03 -0.53066135885E+03  0.10917910525E+04  0.25500000920E-02 0. -1.
       -2    1    3    3    0  502 -0.75857998277E+03  0.57875956516E+03  0.29020715496E+04  0.30549018812E+04  0.25500000920E-02 0.  1.
</event>
<event>
 5   0  0.4381939E-07  0.3394085E+04  0.7818609E-02  0.8139360E-01
       -2   -1    0    0    0  501  0.00000000000E+00  0.00000000000E+00  0.17889571171E+04  0.17889571171E+04  0.25500000920E-02 0. -1.
        2   -1    0    0  501    0  0.00000000000E+00  0.00000000000E+00 -0.16098502648E+04  0.16098502648E+04  0.25500000920E-02 0.  1.
    10030    2    1    2    0    0  0.00000000000E+00  0.00000000000E+00  0.17910685229E+03  0.33988073818E+04  0.33940849068E+04 0.  0.
        3    1    3    3  502    0  0.14511417554E+04  0.84717983297E+03  0.32742765186E+03  0.17119389420E+04  0.10100000352E+00 0. -1.
       -3    1    3    3    0  502 -0.14511417554E+04 -0.84717983297E+03 -0.14832079957E+03  0.16868684399E+04  0.10100000352E+00 0.  1.
</event>
<event>
 5   0  0.1421875E-07  0.3424111E+04  0.7818609E-02  0.8132014E-01
       -3   -1    0    0    0  501  0.00000000000E+00  0.00000000000E+00  0.16392529760E+04  0.16392529791E+04  0.10100000352E+00 0.  1.
        3   -1    0    0  501    0  0.00000000000E+00  0.00000000000E+00 -0.17880915414E+04  0.17880915443E+04  0.10100000352E+00 0. -1.
    10030    2    1    2    0    0  0.00000000000E+00  0.00000000000E+00 -0.14883856543E+03  0.34273445234E+04  0.34241112078E+04 0.  0.
        1    1    3    3  502    0  0.10580333226E+04  0.12810666703E+04 -0.48780813720E+03  0.17316244120E+04  0.50400001928E-02 0.  1.
       -1    1    3    3    0  502 -0.10580333226E+04 -0.12810666703E+04  0.33896957177E+03  0.16957201114E+04  0.50400001928E-02 0. -1.
</event>
<event>
 5   0  0.1523259E-07  0.3405346E+04  0.7818609E-02  0.8136595E-01
       -1   -1    0    0    0  501  0.00000000000E+00  0.00000000000E+00  0.27617004594E+04  0.27617004594E+04  0.50400001928E-02 0.  1.
        1   -1    0    0  501    0  0.00000000000E+00  0.00000000000E+00 -0.10497501745E+04  0.10497501746E+04  0.50400001928E-02 0. -1.
    10030    2    1    2    0    0  0.00000000000E+00  0.00000000000E+00  0.17119502849E+04  0.38114506340E+04  0.34053461142E+04 0.  0.
        4    1    3    3  502    0 -0.60612669406E+03  0.95220189638E+03  0.22827578849E+04  0.25465787235E+04  0.12699999809E+01 0.  1.
       -4    1    3    3    0  502  0.60612669406E+03 -0.95220189638E+03 -0.57080760008E+03  0.12648719105E+04  0.12699999809E+01 0. -1.
</event>
<event>
 5   0  0.1435806E-07  0.3404573E+04  0.7818609E-02  0.8136785E-01
        1   -1    0    0  501    0  0.00000000000E+00  0.00000000000E+00  0.20640853280E+04  0.20640853280E+04  0.50400001928E-02 0. -1.
       -1   -1    0    0    0  501  0.00000000000E+00  0.00000000000E+00 -0.14039048393E+04  0.14039048393E+04  0.50400001928E-02 0.  1.
    10030    2    1    2    0    0  0.00000000000E+00  0.00000000000E+00  0.66018048873E+03  0.34679901673E+04  0.34045730309E+04 0.  0.
        3    1    3    3  502    0  0.98351722565E+03  0.92188564064E+03 -0.72879209545E+03  0.15324220033E+04  0.10100000352E+00 0.  1.
       -3    1    3    3    0  502 -0.98351722565E+03 -0.92188564064E+03  0.13889725842E+04  0.19355681640E+04  0.10100000352E+00 0. -1.
</event>
<event>
 5   0  0.4486226E-07  0.3399498E+04  0.7818609E-02  0.8138030E-01
       -2   -1    0    0    0  501  0.00000000000E+00  0.00000000000E+00  0.19716883197E+04  0.19716883197E+04  0.25500000920E-02 0.  1.
        2   -1    0    0  501    0  0.00000000000E+00  0.00000000000E+00 -0.14653160577E+04  0.14653160577E+04  0.25500000920E-02 0. -1.
    10030    2    1    2    0    0  0.00000000000E+00  0.00000000000E+00  0.50637226206E+03  0.34370043774E+04  0.33994979368E+04 0.  0.
        1    1    3    3  502    0  0.16705003746E+04 -0.24673646717E+03  0.44948324557E+03  0.17474225516E+04  0.50400001928E-02 0.  1.
       -1    1    3    3    0  502 -0.16705003746E+04  0.24673646717E+03  0.56889016499E+02  0.16895818258E+04  0.50400001928E-02 0. -1.
</event>
<event>
 5   0  0.1473755E-07  0.3398909E+04  0.7818609E-02  0.8138174E-01
       -1   -1    0    0    0  501  0.00000000000E+00  0.00000000000E+00  0.11476751471E+04  0.11476751471E+04  0.50400001928E-02 0. -1.
        1   -1    0    0  501    0  0.00000000000E+00  0.00000000000E+00 -0.25165183226E+04  0.25165183226E+04  0.50400001928E-02 0.  1.
    10030    2    1    2    0    0  0.00000000000E+00  0.00000000000E+00 -0.13688431756E+04  0.36641934697E+04  0.33989089638E+04 0.  0.
        1    1    3    3  502    0  0.25284143190E+03 -0.15904405854E+04 -0.99173038913E+02  0.16134637700E+04  0.50400001928E-02 0.  1.
       -1    1    3    3    0  502 -0.25284143190E+03  0.15904405854E+04 -0.12696701367E+04  0.20507296997E+04  0.50400001928E-02 0. -1.
</event>
<event>
 5   0  0.4381939E-07  0.3393742E+04  0.7818609E-02  0.8139444E-01
        2   -1    0    0  501    0  0.00000000000E+00  0.00000000000E+00  0.21877171529E+04  0.21877171529E+04  0.25500000920E-02 0. -1.
       -2   -1    0    0    0  501  0.00000000000E+00  0.00000000000E+00 -0.13161531033E+04  0.13161531033E+04  0.25500000920E-02 0.  1.
    10030    2    1    2    0    0  0.00000000000E+00  0.00000000000E+00  0.87156404961E+03  0.35038702563E+04  0.33937417227E+04 0.  0.
        3    1    3    3  502    0 -0.66548102518E+03 -0.89871338463E+03 -0.88188528330E+03  0.14241742891E+04  0.10100000352E+00 0.  1.
       -3    1    3    3    0  502  0.66548102518E+03  0.89871338463E+03  0.17534493329E+04  0.20796959672E+04  0.10100000352E+00 0. -1.
</event>
<event>
 5   0  0.4381939E-07  0.3410977E+04  0.7818609E-02  0.8135217E-01
        2   -1    0    0  501    0  0.00000000000E+00  0.00000000000E+00  0.20426150536E+04  0.20426150536E+04  0.25500000920E-02 0. -1.
       -2   -1    0    0    0  501  0.00000000000E+00  0.00000000000E+00 -0.14240039173E+04  0.14240039173E+04  0.25500000920E-02 0.  1.
    10030    2    1    2    0    0  0.00000000000E+00  0.00000000000E+00  0.61861113629E+03  0.34666189709E+04  0.34109774774E+04 0.  0.
        3    1    3    3  502    0 -0.10393460069E+04  0.39005680599E+03  0.16251486087E+04  0.19681190117E+04  0.10100000352E+00 0. -1.
       -3    1    3    3    0  502  0.10393460069E+04 -0.39005680599E+03 -0.10065374724E+04  0.14984999591E+04  0.10100000352E+00 0.  1.
</event>
<event>
 5   0  0.4521737E-07  0.3401989E+04  0.7818609E-02  0.8137418E-01
       -2   -1    0    0    0  501  0.00000000000E+00  0.00000000000E+00  0.18390517757E+04  0.18390517757E+04  0.25500000920E-02 0.  1.
        2   -1    0    0  501    0  0.00000000000E+00  0.00000000000E+00 -0.15733008225E+04  0.15733008225E+04  0.25500000920E-02 0. -1.
    10030    2    1    2    0    0  0.00000000000E+00  0.00000000000E+00  0.26575095323E+03  0.34123525982E+04  0.34019886368E+04 0.  0.
        4    1    3    3  502    0 -0.85212007403E+03 -0.12056747285E+04  0.98020924387E+03  0.17721658913E+04  0.12699999809E+01 0.  1.
       -4    1    3    3    0  502  0.85212007403E+03  0.12056747285E+04 -0.71445829064E+03  0.16401867069E+04  0.12699999809E+01 0. -1.
</event>
<event>
 5   0  0.1421875E-07  0.3394893E+04  0.7818609E-02  0.8139161E-01
       -1   -1    0    0    0  501  0.00000000000E+00  0.00000000000E+00  0.14991272790E+04  0.14991272790E+04  0.50400001928E-02 0.  1.
        1   -1    0    0  501    0  0.00000000000E+00  0.00000000000E+00 -0.19220007640E+04  0.19220007640E+04  0.50400001928E-02 0. -1.
    10030    2    1    2    0    0  0.00000000000E+00  0.00000000000E+00 -0.42287348499E+03  0.34211280430E+04  0.33948925023E+04 0.  0.
        5    1    3    3  502    0 -0.11474903412E+04 -0.69440854318E+03  0.83697058349E+03  0.15809741160E+04  0.46999998093E+01 0.  1.
       -5    1    3    3    0  502  0.11474903412E+04  0.69440854318E+03 -0.12598440685E+04  0.18401539269E+04  0.46999998093E+01 0. -1.
</event>
<event>
 5   0  0.4521737E-07  0.3382564E+04  0.7818609E-02  0.8142199E-01
        2   -1    0    0  501    0  0.00000000000E+00  0.00000000000E+00  0.14784597287E+04  0.14784597287E+04  0.25500000920E-02 0.  1.
       -2   -1    0    0    0  501  0.00000000000E+00  0.00000000000E+00 -0.19347392160E+04  0.19347392160E+04  0.25500000920E-02 0. -1.
    10030    2    1    2    0    0  0.00000000000E+00  0.00000000000E+00 -0.45627948733E+03  0.34131989447E+04  0.33825635346E+04 0.  0.
        4    1    3    3  502    0  0.95555139111E+03  0.57863011019E+03 -0.15094993863E+04  0.18778927753E+04  0.12699999809E+01 0. -1.
       -4    1    3    3    0  502 -0.95555139111E+03 -0.57863011019E+03  0.10532198990E+04  0.15353061694E+04  0.12699999809E+01 0.  1.
</event>
<event>
 5   0  0.1421875E-07  0.3408526E+04  0.7818609E-02  0.8135817E-01
       -1   -1    0    0    0  501  0.00000000000E+00  0.00000000000E+00  0.95754691507E+03  0.95754691508E+03  0.50400001928E-02 0. -1.
        1   -1    0    0  501    0  0.00000000000E+00  0.00000000000E+00 -0.30332846659E+04  0.30332846659E+04  0.50400001928E-02 0.  1.
    10030    2    1    2    0    0  0.00000000000E+00  0.00000000000E+00 -0.20757377508E+04  0.39908315810E+04  0.34085260007E+04 0.  0.
        5    1    3    3  502    0  0.48366655132E+03  0.41777602374E+03 -0.28876520814E+04  0.29575372816E+04  0.46999998093E+01 0.  1.
       -5    1    3    3    0  502 -0.48366655132E+03 -0.41777602374E+03  0.81191433059E+03  0.10332942994E+04  0.46999998093E+01 0. -1.
</event>
<event>
 5   0  0.4486226E-07  0.3390368E+04  0.7818609E-02  0.8140274E-01
        2   -1    0    0  501    0  0.00000000000E+00  0.00000000000E+00  0.21601496070E+04  0.21601496070E+04  0.25500000920E-02 0.  1.
       -2   -1    0    0    0  501  0.00000000000E+00  0.00000000000E+00 -0.13303008579E+04  0.13303008579E+04  0.25500000920E-02 0. -1.
    10030    2    1    2    0    0  0.00000000000E+00  0.00000000000E+00  0.82984874903E+03  0.34904504649E+04  0.33903680481E+04 0.  0.
        1    1    3    3  502    0  0.12511643109E+04 -0.30143132975E+02  0.15920611727E+04  0.20250875337E+04  0.50400001928E-02 0.  1.
       -1    1    3    3    0  502 -0.12511643109E+04  0.30143132975E+02 -0.76221242363E+03  0.14653629312E+04  0.50400001928E-02 0. -1.
</event>
<event>
 5   0  0.1520084E-07  0.3538647E+04  0.7818609E-02  0.8104692E-01
       -1   -1    0    0    0  501  0.00000000000E+00  0.00000000000E+00  0.14769721382E+04  0.14769721382E+04  0.50400001928E-02 0.  1.
        1   -1    0    0  501    0  0.00000000000E+00  0.00000000000E+00 -0.21195432183E+04  0.21195432183E+04  0.50400001928E-02 0. -1.
    10030    2    1    2    0    0  0.00000000000E+00  0.00000000000E+00 -0.64257108018E+03  0.35965153565E+04  0.35386473569E+04 0.  0.
        2    1    3    3  502    0 -0.68004986979E+03 -0.91978909299E+03 -0.16931840226E+04  0.20433677925E+04  0.25500000920E-02 0. -1.
       -2    1    3    3    0  502  0.68004986979E+03  0.91978909299E+03  0.10506129424E+04  0.15531475640E+04  0.25500000920E-02 0.  1.
</event>
<event>
 5   0  0.4447909E-07  0.3357247E+04  0.7818609E-02  0.8148480E-01
       -2   -1    0    0    0  501  0.00000000000E+00  0.00000000000E+00  0.16743322194E+04  0.16743322194E+04  0.25500000920E-02 0. -1.
        2   -1    0    0  501    0  0.00000000000E+00  0.00000000000E+00 -0.16829262314E+04  0.16829262314E+04  0.25500000920E-02 0.  1.
    10030    2    1    2    0    0  0.00000000000E+00  0.00000000000E+00 -0.85940119422E+01  0.33572584508E+04  0.33572474512E+04 0.  0.
        5    1    3    3  502    0  0.14711951177E+04 -0.41210833456E+03  0.69105206950E+03  0.16768492498E+04  0.46999998093E+01 0. -1.
       -5    1    3    3    0  502 -0.14711951177E+04  0.41210833456E+03 -0.69964608144E+03  0.16804092011E+04  0.46999998093E+01 0.  1.
</event>
<event>
 5   0  0.1435806E-07  0.3405789E+04  0.7818609E-02  0.8136487E-01
       -1   -1    0    0    0  501  0.00000000000E+00  0.00000000000E+00  0.14354431480E+04  0.14354431480E+04  0.50400001928E-02 0. -1.
        1   -1    0    0  501    0  0.00000000000E+00  0.00000000000E+00 -0.20201772661E+04  0.20201772661E+04  0.50400001928E-02 0.  1.
    10030    2    1    2    0    0  0.00000000000E+00  0.00000000000E+00 -0.58473411804E+03  0.34556204141E+04  0.34057889626E+04 0.  0.
        3    1    3    3  502    0 -0.12741931091E+04 -0.73869908193E+03  0.57489365578E+03  0.15810588662E+04  0.10100000352E+00 0. -1.
       -3    1    3    3    0  502  0.12741931091E+04  0.73869908193E+03 -0.11596277738E+04  0.18745615479E+04  0.10100000352E+00 0.  1.
</event>
<event>
 5   0  0.1435806E-07  0.3349635E+04  0.7818609E-02  0.8150379E-01
        1   -1    0    0  501    0  0.00000000000E+00  0.00000000000E+00  0.20826653888E+04  0.20826653888E+04  0.50400001928E-02 0.  1.
       -1   -1    0    0    0  501  0.00000000000E+00  0.00000000000E+00 -0.13468387077E+04  0.13468387077E+04  0.50400001928E-02 0. -1.
    10030    2    1    2    0    0  0.00000000000E+00  0.00000000000E+00  0.73582668109E+03  0.34295040966E+04  0.33496354195E+04 0.  0.
        3    1    3    3  502    0  0.84653734214E+03 -0.36239630623E+03 -0.10643920009E+04  0.14074398375E+04  0.10100000352E+00 0. -1.
       -3    1    3    3    0  502 -0.84653734214E+03  0.36239630623E+03  0.18002186820E+04  0.20220642590E+04  0.10100000352E+00 0.  1.
</event>
<event>
 5   0  0.1435806E-07  0.3389059E+04  0.7818609E-02  0.8140597E-01
       -1   -1    0    0    0  501  0.00000000000E+00  0.00000000000E+00  0.13392910743E+04  0.13392910743E+04  0.50400001928E-02 0.  1.
        1   -1    0    0  501    0  0.00000000000E+00  0.00000000000E+00 -0.21439923321E+04  0.21439923321E+04  0.50400001928E-02 0. -1.
    10030    2    1    2    0    0  0.00000000000E+00  0.00000000000E+00 -0.80470125780E+03  0.34832834064E+04  0.33890587447E+04 0.  0.
        3    1    3    3  502    0  0.91814712030E+03 -0.11261079088E+04  0.49385353626E+03  0.15346023858E+04  0.10100000352E+00 0.  1.
       -3    1    3    3    0  502 -0.91814712030E+03  0.11261079088E+04 -0.12985547941E+04  0.19486810207E+04  0.10100000352E+00 0. -1.
</event>
<event>
 5   0  0.1523259E-07  0.3393322E+04  0.7818609E-02  0.8139547E-01
        1   -1    0    0  501    0  0.00000000000E+00  0.00000000000E+00  0.11383255962E+04  0.11383255962E+04  0.50400001928E-02 0. -1.
       -1   -1    0    0    0  501  0.00000000000E+00  0.00000000000E+00 -0.25288529263E+04  0.25288529263E+04  0.50400001928E-02 0.  1.
    10030    2    1    2    0    0  0.00000000000E+00  0.00000000000E+00 -0.13905273302E+04  0.36671785225E+04  0.33933216854E+04 0.  0.
        4    1    3    3  502    0  0.13842349770E+04  0.82530920176E+03 -0.12196573624E+03  0.16162051243E+04  0.12699999809E+01 0. -1.
       -4    1    3    3    0  502 -0.13842349770E+04 -0.82530920176E+03 -0.12685615939E+04  0.20509733983E+04  0.12699999809E+01 0.  1.
</event>
<event>
 5   0  0.1421875E-07  0.3396681E+04  0.7818609E-02  0.8138721E-01
        1   -1    0    0  501    0  0.00000000000E+00  0.00000000000E+00  0.19283166718E+04  0.19283166718E+04  0.50400001928E-02 0. -1.
       -1   -1    0    0    0  501  0.00000000000E+00  0.00000000000E+00 -0.14957920443E+04  0.14957920443E+04  0.50400001928E-02 0.  1.
    10030    2    1    2    0    0  0.00000000000E+00  0.00000000000E+00  0.43252462746E+03  0.34241087161E+04  0.33966811664E+04 0.  0.
        5    1    3    3  502    0 -0.76872291695E+03  0.40523125340E+03  0.16872197597E+04  0.18978619284E+04  0.46999998093E+01 0. -1.
       -5    1    3    3    0  502  0.76872291695E+03 -0.40523125340E+03 -0.12546951323E+04  0.15262467876E+04  0.46999998093E+01 0.  1.
</event>
<event>
 5   0  0.4447909E-07  0.3427793E+04  0.7818609E-02  0.8131119E-01
       -2   -1    0    0    0  501  0.00000000000E+00  0.00000000000E+00  0.15526448843E+04  0.15526448843E+04  0.25500000920E-02 0.  1.
        2   -1    0    0  501    0  0.00000000000E+00  0.00000000000E+00 -0.18918950106E+04  0.18918950106E+04  0.25500000920E-02 0. -1.
    10030    2    1    2    0    0  0.00000000000E+00  0.00000000000E+00 -0.33925012626E+03  0.34445398949E+04  0.34277929400E+04 0.  0.
        5    1    3    3  502    0 -0.12788878795E+04 -0.76759232445E+03 -0.10179454684E+04  0.18058203819E+04  0.46999998093E+01 0. -1.
       -5    1    3    3    0  502  0.12788878795E+04  0.76759232445E+03  0.67869534218E+03  0.16387195130E+04  0.46999998093E+01 0.  1.
</event>
<event>
 5   0  0.1421875E-07  0.3348179E+04  0.7818609E-02  0.8150743E-01
       -3   -1    0    0    0  501  0.00000000000E+00  0.00000000000E+00  0.25913600978E+04  0.25913600998E+04  0.10100000352E+00 0.  1.
        3   -1    0    0  501    0  0.00000000000E+00  0.00000000000E+00 -0.10815076979E+04  0.10815077027E+04  0.10100000352E+00 0. -1.
    10030    2    1    2    0    0  0.00000000000E+00  0.00000000000E+00  0.15098523999E+04  0.36728678024E+04  0.33481791506E+04 0.  0.
        4    1    3    3  502    0  0.77081610010E+03 -0.14783987998E+04  0.92039792189E+03  0.19044564629E+04  0.12699999809E+01 0.  1.
       -4    1    3    3    0  502 -0.77081610010E+03  0.14783987998E+04  0.58945447796E+03  0.17684113396E+04  0.12699999809E+01 0. -1.
</event>
<event>
 5   0  0.4486226E-07  0.3397663E+04  0.7818609E-02  0.8138480E-01
       -2   -1    0    0    0  501  0.00000000000E+00  0.00000000000E+00  0.13162432660E+04  0.13162432660E+04  0.25500000920E-02 0.  1.
        2   -1    0    0  501    0  0.00000000000E+00  0.00000000000E+00 -0.21926257377E+04  0.21926257377E+04  0.25500000920E-02 0. -1.
    10030    2    1    2    0    0  0.00000000000E+00  0.00000000000E+00 -0.87638247175E+03  0.35088690037E+04  0.33976632335E+04 0.  0.
        1    1    3    3  502    0 -0.36308662220E+03 -0.14586392198E+04  0.37927746881E+03  0.15502618060E+04  0.50400001928E-02 0. -1.
       -1    1    3    3    0  502  0.36308662220E+03  0.14586392198E+04 -0.12556599406E+04  0.19586071978E+04  0.50400001928E-02 0.  1.
</event>
<event>
 5   0  0.1473755E-07  0.3293651E+04  0.7818609E-02  0.8164513E-01
       -1   -1    0    0    0  501  0.00000000000E+00  0.00000000000E+00  0.12747413709E+04  0.12747413709E+04  0.50400001928E-02 0. -1.
        1   -1    0    0  501    0  0.00000000000E+00  0.00000000000E+00 -0.21275173858E+04  0.21275173858E+04  0.50400001928E-02 0.  1.
    10030    2    1    2    0    0  0.00000000000E+00  0.00000000000E+00 -0.85277601491E+03  0.34022587567E+04  0.32936511223E+04 0.  0.
        1    1    3    3  502    0  0.99017564436E+03  0.29544603807E+03 -0.17509736530E+04  0.20331367149E+04  0.50400001928E-02 0.  1.
       -1    1    3    3    0  502 -0.99017564436E+03 -0.29544603807E+03  0.89819763807E+03  0.13691220417E+04  0.50400001928E-02 0. -1.
</event>
<event>
 5   0  0.4521737E-07  0.3404925E+04  0.7818609E-02  0.8136699E-01
       -2   -1    0    0    0  501  0.00000000000E+00  0.00000000000E+00  0.10700557847E+04  0.10700557847E+04  0.25500000920E-02 0.  1.
        2   -1    0    0  501    0  0.00000000000E+00  0.00000000000E+00 -0.27086244781E+04  0.27086244781E+04  0.25500000920E-02 0. -1.
    10030    2    1    2    0    0  0.00000000000E+00  0.00000000000E+00 -0.16385686934E+04  0.37786802629E+04  0.34049254274E+04 0.  0.
        4    1    3    3  502    0 -0.15505821448E+02  0.14270558612E+04  0.21085906316E+03  0.14426337091E+04  0.12699999809E+01 0.  1.
       -4    1    3    3    0  502  0.15505821448E+02 -0.14270558612E+04 -0.18494277566E+04  0.23360465537E+04  0.12699999809E+01 0. -1.
</event>
<event>
 5   0  0.4381939E-07  0.3389515E+04  0.7818609E-02  0.8140485E-01
        2   -1    0    0  501    0  0.00000000000E+00  0.00000000000E+00  0.15068721262E+04  0.15068721262E+04  0.25500000920E-02 0. -1.
       -2   -1    0    0    0  501  0.00000000000E+00  0.00000000000E+00 -0.19060693392E+04  0.19060693392E+04  0.25500000920E-02 0.  1.
    10030    2    1    2    0    0  0.00000000000E+00  0.00000000000E+00 -0.39919721296E+03  0.34129414654E+04  0.33895148666E+04 0.  0.
        3    1    3    3  502    0 -0.10187067130E+04  0.43631460000E+03  0.10914759143E+04  0.15554592502E+04  0.10100000352E+00 0. -1.
       -3    1    3    3    0  502  0.10187067130E+04 -0.43631460000E+03 -0.14906731273E+04  0.18574822152E+04  0.10100000352E+00 0.  1.
</event>
<event>
 5   0  0.1435806E-07  0.3399213E+04  0.7818609E-02  0.8138100E-01
        1   -1    0    0  501    0  0.00000000000E+00  0.00000000000E+00  0.34385488200E+04  0.34385488200E+04  0.50400001928E-02 0. -1.
       -1   -1    0    0    0  501  0.00000000000E+00  0.00000000000E+00 -0.84008164856E+03  0.84008164858E+03  0.50400001928E-02 0.  1.
    10030    2    1    2    0    0  0.00000000000E+00  0.00000000000E+00  0.25984671715E+04  0.42786304686E+04  0.33992127097E+04 0.  0.
        3    1    3    3  502    0 -0.74307421074E+03  0.13320134844E+04  0.35541550954E+03  0.15661224090E+04  0.10100000352E+00 0. -1.
       -3    1    3    3    0  502  0.74307421074E+03 -0.13320134844E+04  0.22430516619E+04  0.27125080596E+04  0.10100000352E+00 0.  1.
</event>
<event>
 5   0  0.1421875E-07  0.3399508E+04  0.7818609E-02  0.8138027E-01
       -1   -1    0    0    0  501  0.00000000000E+00  0.00000000000E+00  0.18377409892E+04  0.18377409892E+04  0.50400001928E-02 0. -1.
        1   -1    0    0  501    0  0.00000000000E+00  0.00000000000E+00 -0.15721273308E+04  0.15721273308E+04  0.50400001928E-02 0.  1.
    10030    2    1    2    0    0  0.00000000000E+00  0.00000000000E+00  0.26561365847E+03  0.34098683200E+04  0.33995075150E+04 0.  0.
        5    1    3    3  502    0  0.11665318198E+04 -0.10741668832E+04 -0.48103033136E+03  0.16571189605E+04  0.46999998093E+01 0. -1.
       -5    1    3    3    0  502 -0.11665318198E+04  0.10741668832E+04  0.74664398983E+03  0.17527493595E+04  0.46999998093E+01 0.  1.
</event>
<event>
 5   0  0.1523259E-07  0.3414228E+04  0.7818609E-02  0.8134423E-01
       -1   -1    0    0    0  501  0.00000000000E+00  0.00000000000E+00  0.10803935942E+04  0.10803935942E+04  0.50400001928E-02 0.  1.
        1   -1    0    0  501    0  0.00000000000E+00  0.00000000000E+00 -0.26973864569E+04  0.26973864569E+04  0.50400001928E-02 0. -1.
    10030    2    1    2    0    0  0.00000000000E+00  0.00000000000E+00 -0.16169928627E+04  0.37777800511E+04  0.34142284922E+04 0.  0.
        4    1    3    3  502    0 -0.14998204908E+04  0.76850660617E+03 -0.11098445989E+04  0.20178752575E+04  0.12699999809E+01 0. -1.
       -4    1    3    3    0  502  0.14998204908E+04 -0.76850660617E+03 -0.50714826381E+03  0.17599047936E+04  0.12699999809E+01 0.  1.
</event>
<event>
 5   0  0.4381939E-07  0.3402528E+04  0.7818609E-02  0.8137286E-01
       -2   -1    0    0    0  501  0.00000000000E+00  0.00000000000E+00  0.12540530099E+04  0.12540530099E+04  0.25500000920E-02 0. -1.
        2   -1    0    0  501    0  0.00000000000E+00  0.00000000000E+00 -0.23079559227E+04  0.23079559227E+04  0.25500000920E-02 0.  1.
    10030    2    1    2    0    0  0.00000000000E+00  0.00000000000E+00 -0.10539029128E+04  0.35620089325E+04  0.34025279258E+04 0.  0.
        3    1    3    3  502    0 -0.58471167154E+03 -0.15888162351E+04 -0.70235878044E+03  0.18329027892E+04  0.10100000352E+00 0.  1.
       -3    1    3    3    0  502  0.58471167154E+03  0.15888162351E+04 -0.35154413238E+03  0.17291061434E+04  0.10100000352E+00 0. -1.
</event>
<event>
 5   0  0.4396257E-07  0.3397034E+04  0.7818609E-02  0.8138635E-01
       -2   -1    0    0    0  501  0.00000000000E+00  0.00000000000E+00  0.18468051512E+04  0.18468051512E+04  0.25500000920E-02 0.  1.
        2   -1    0    0  501    0  0.00000000000E+00  0.00000000000E+00 -0.15621355903E+04  0.15621355903E+04  0.25500000920E-02 0. -1.
    10030    2    1    2    0    0  0.00000000000E+00  0.00000000000E+00  0.28466956093E+03  0.34089407415E+04  0.33970340328E+04 0.  0.
        2    1    3    3  502    0 -0.48261630642E+03  0.12779716468E+04  0.11552437613E+04  0.17890551074E+04  0.25500000920E-02 0.  1.
       -2    1    3    3    0  502  0.48261630642E+03 -0.12779716468E+04 -0.87057420035E+03  0.16198856341E+04  0.25500000920E-02 0. -1.
</event>
<event>
 5   0  0.4381939E-07  0.3393389E+04  0.7818609E-02  0.8139531E-01
        2   -1    0    0  501    0  0.00000000000E+00  0.00000000000E+00  0.26377868613E+04  0.26377868613E+04  0.25500000920E-02 0. -1.
       -2   -1    0    0    0  501  0.00000000000E+00  0.00000000000E+00 -0.10913591361E+04  0.10913591361E+04  0.25500000920E-02 0.  1.
    10030    2    1    2    0    0  0.00000000000E+00  0.00000000000E+00  0.15464277252E+04  0.37291459974E+04  0.33933893323E+04 0.  0.
        3    1    3    3  502    0  0.16507115876E+04  0.14855940016E+02  0.34237254792E+03  0.16859087805E+04  0.10100000352E+00 0. -1.
       -3    1    3    3    0  502 -0.16507115876E+04 -0.14855940016E+02  0.12040551773E+04  0.20432372169E+04  0.10100000352E+00 0.  1.
</event>
<event>
 5   0  0.4396257E-07  0.3393978E+04  0.7818609E-02  0.8139386E-01
       -2   -1    0    0    0  501  0.00000000000E+00  0.00000000000E+00  0.16109814365E+04  0.16109814365E+04  0.25500000920E-02 0. -1.
        2   -1    0    0  501    0  0.00000000000E+00  0.00000000000E+00 -0.17875884579E+04  0.17875884579E+04  0.25500000920E-02 0.  1.
    10030    2    1    2    0    0  0.00000000000E+00  0.00000000000E+00 -0.17660702138E+03  0.33985698944E+04  0.33939780917E+04 0.  0.
        2    1    3    3  502    0 -0.36940581952E+03 -0.12024727990E+03  0.15658550730E+04  0.16133264324E+04  0.25500000920E-02 0. -1.
       -2    1    3    3    0  502  0.36940581952E+03  0.12024727990E+03 -0.17424620944E+04  0.17852434619E+04  0.25500000920E-02 0.  1.
</event>
<event>
 5   0  0.4381939E-07  0.3399906E+04  0.7818609E-02  0.8137929E-01
        2   -1    0    0  501    0  0.00000000000E+00  0.00000000000E+00  0.18187029267E+04  0.18187029267E+04  0.25500000920E-02 0. -1.
       -2   -1    0    0    0  501  0.00000000000E+00  0.00000000000E+00 -0.15889563800E+04  0.15889563800E+04  0.25500000920E-02 0.  1.
    10030    2    1    2    0    0  0.00000000000E+00  0.00000000000E+00  0.22974654663E+03  0.34076593067E+04  0.33999056567E+04 0.  0.
        3    1    3    3  502    0 -0.11484802244E+04  0.10357818533E+04  0.82216578711E+03  0.17515157622E+04  0.10100000352E+00 0. -1.
       -3    1    3    3    0  502  0.11484802244E+04 -0.10357818533E+04 -0.59241924048E+03  0.16561435445E+04  0.10100000352E+00 0.  1.
</event>
<event>
 5   0  0.4447909E-07  0.3396494E+04  0.7818609E-02  0.8138767E-01
       -2   -1    0    0    0  501  0.00000000000E+00  0.00000000000E+00  0.13499240111E+04  0.13499240112E+04  0.25500000920E-02 0. -1.
        2   -1    0    0  501    0  0.00000000000E+00  0.00000000000E+00 -0.21364487446E+04  0.21364487446E+04  0.25500000920E-02 0.  1.
    10030    2    1    2    0    0  0.00000000000E+00  0.00000000000E+00 -0.78652473342E+03  0.34863727557E+04  0.33964943450E+04 0.  0.
        5    1    3    3  502    0  0.84930702963E+03  0.64100206779E+02  0.11148302506E+04  0.14029610988E+04  0.46999998093E+01 0. -1.
       -5    1    3    3    0  502 -0.84930702963E+03 -0.64100206779E+02 -0.19013549840E+04  0.20834116569E+04  0.46999998093E+01 0.  1.
</event>
<event>
 5   0  0.4521737E-07  0.3392997E+04  0.7818609E-02  0.8139627E-01
       -2   -1    0    0    0  501  0.00000000000E+00  0.00000000000E+00  0.13596522475E+04  0.13596522475E+04  0.25500000920E-02 0.  1.
        2   -1    0    0  501    0  0.00000000000E+00  0.00000000000E+00 -0.21167963416E+04  0.21167963416E+04  0.25500000920E-02 0. -1.
    10030    2    1    2    0    0  0.00000000000E+00  0.00000000000E+00 -0.75714409414E+03  0.34764485891E+04  0.33929968484E+04 0.  0.
        4    1    3    3  502    0  0.15382945131E+04  0.71460955928E+03 -0.41237529170E+03  0.17455863844E+04  0.12699999809E+01 0. -1.
       -4    1    3    3    0  502 -0.15382945131E+04 -0.71460955928E+03 -0.34476880244E+03  0.17308622046E+04  0.12699999809E+01 0.  1.
</event>
<event>
 5   0  0.4521737E-07  0.3323933E+04  0.7818609E-02  0.8156832E-01
       -2   -1    0    0    0  501  0.00000000000E+00  0.00000000000E+00  0.11483954715E+04  0.11483954716E+04  0.25500000920E-02 0.  1.
        2   -1    0    0  501    0  0.00000000000E+00  0.00000000000E+00 -0.24052110408E+04  0.24052110408E+04  0.25500000920E-02 0. -1.
    10030    2    1    2    0    0  0.00000000000E+00  0.00000000000E+00 -0.12568155692E+04  0.35536065123E+04  0.33239334935E+04 0.  0.
        4    1    3    3  502    0  0.71753507593E+03  0.58388564937E+03 -0.21045175445E+04  0.22988637943E+04  0.12699999809E+01 0. -1.
       -4    1    3    3    0  502 -0.71753507593E+03 -0.58388564937E+03  0.84770197526E+03  0.12547427180E+04  0.12699999809E+01 0.  1.
</event>
<event>
 5   0  0.1473755E-07  0.3405267E+04  0.7818609E-02  0.8136615E-01
       -1   -1    0    0    0  501  0.00000000000E+00  0.00000000000E+00  0.20714261456E+04  0.20714261456E+04  0.50400001928E-02 0. -1.
        1   -1    0    0  501    0  0.00000000000E+00  0.00000000000E+00 -0.13995003337E+04  0.13995003337E+04  0.50400001928E-02 0.  1.
    10030    2    1    2    0    0  0.00000000000E+00  0.00000000000E+00  0.67192581193E+03  0.34709264793E+04  0.34052674385E+04 0.  0.
        1    1    3    3  502    0  0.14278047347E+04 -0.92674781612E+03  0.29683381905E+03  0.17278883620E+04  0.50400001928E-02 0.  1.
       -1    1    3    3    0  502 -0.14278047347E+04  0.92674781612E+03  0.37509199288E+03  0.17430381173E+04  0.50400001928E-02 0. -1.
</event>
<event>
 5   0  0.4396257E-07  0.3412375E+04  0.7818609E-02  0.8134876E-01
       -2   -1    0    0    0  501  0.00000000000E+00  0.00000000000E+00  0.22327464307E+04  0.22327464307E+04  0.25500000920E-02 0.  1.
        2   -1    0    0  501    0  0.00000000000E+00  0.00000000000E+00 -0.13038091726E+04  0.13038091726E+04  0.25500000920E-02 0. -1.
    10030    2    1    2    0    0  0.00000000000E+00  0.00000000000E+00  0.92893725812E+03  0.35365556034E+04  0.34123747019E+04 0.  0.
        2    1    3    3  502    0  0.25696164528E+03  0.16021894231E+04  0.10109477133E+04  0.19118199481E+04  0.25500000920E-02 0.  1.
       -2    1    3    3    0  502 -0.25696164528E+03 -0.16021894231E+04 -0.82010455209E+02  0.16247356553E+04  0.25500000920E-02 0. -1.
</event>
<event>
 5   0  0.1421875E-07  0.3398268E+04  0.7818609E-02  0.8138332E-01
       -1   -1    0    0    0  501  0.00000000000E+00  0.00000000000E+00  0.10954126116E+04  0.10954126116E+04  0.50400001928E-02 0.  1.
        1   -1    0    0  501    0  0.00000000000E+00  0.00000000000E+00 -0.26355876965E+04  0.26355876965E+04  0.50400001928E-02 0. -1.
    10030    2    1    2    0    0  0.00000000000E+00  0.00000000000E+00 -0.15401750850E+04  0.37310003081E+04  0.33982677950E+04 0.  0.
        5    1    3    3  502    0  0.76813467222E+03 -0.14937556588E+04 -0.10514982910E+04  0.19816678806E+04  0.46999998093E+01 0.  1.
       -5    1    3    3    0  502 -0.76813467222E+03  0.14937556588E+04 -0.48867679392E+03  0.17493324275E+04  0.46999998093E+01 0. -1.
</event>
<event>
 5   0  0.1473755E-07  0.3393157E+04  0.7818609E-02  0.8139588E-01
        1   -1    0    0  501    0  0.00000000000E+00  0.00000000000E+00  0.22806438416E+04  0.22806438416E+04  0.50400001928E-02 0.  1.
       -1   -1    0    0    0  501  0.00000000000E+00  0.00000000000E+00 -0.12620903619E+04  0.12620903619E+04  0.50400001928E-02 0. -1.
    10030    2    1    2    0    0  0.00000000000E+00  0.00000000000E+00  0.10185534797E+04  0.35427342034E+04  0.33931570027E+04 0.  0.
        1    1    3    3  502    0  0.73864909158E+02  0.10977215648E+04 -0.83913808636E+03  0.13836912180E+04  0.50400001928E-02 0. -1.
       -1    1    3    3    0  502 -0.73864909158E+02 -0.10977215648E+04  0.18576915660E+04  0.21590429855E+04  0.50400001928E-02 0.  1.
</event>
<event>
 5   0  0.1421875E-07  0.3418470E+04  0.7818609E-02  0.8133388E-01
        1   -1    0    0  501    0  0.00000000000E+00  0.00000000000E+00  0.20060986765E+04  0.20060986765E+04  0.50400001928E-02 0.  1.
       -1   -1    0    0    0  501  0.00000000000E+00  0.00000000000E+00 -0.14563016172E+04  0.14563016172E+04  0.50400001928E-02 0. -1.
    10030    2    1    2    0    0  0.00000000000E+00  0.00000000000E+00  0.54979705930E+03  0.34624002938E+04  0.34184702701E+04 0.  0.
        5    1    3    3  502    0  0.44884734547E+03 -0.85193230428E+03 -0.11554139263E+04  0.15040797924E+04  0.46999998093E+01 0. -1.
       -5    1    3    3    0  502 -0.44884734547E+03  0.85193230428E+03  0.17052109856E+04  0.19583205014E+04  0.46999998093E+01 0.  1.
</event>
<event>
 5   0  0.4486226E-07  0.3392771E+04  0.7818609E-02  0.8139683E-01
        2   -1    0    0  501    0  0.00000000000E+00  0.00000000000E+00  0.22761450494E+04  0.22761450494E+04  0.25500000920E-02 0.  1.
       -2   -1    0    0    0  501  0.00000000000E+00  0.00000000000E+00 -0.12642975365E+04  0.12642975365E+04  0.25500000920E-02 0. -1.
    10030    2    1    2    0    0  0.00000000000E+00  0.00000000000E+00  0.10118475129E+04  0.35404425860E+04  0.33927714800E+04 0.  0.
        1    1    3    3  502    0  0.32854440754E+03  0.12955289172E+03  0.22373579491E+04  0.22650598164E+04  0.50400001928E-02 0.  1.
       -1    1    3    3    0  502 -0.32854440754E+03 -0.12955289172E+03 -0.12255104362E+04  0.12753827695E+04  0.50400001928E-02 0. -1.
</event>
<event>
 5   0  0.4381939E-07  0.3401247E+04  0.7818609E-02  0.8137600E-01
        2   -1    0    0  501    0  0.00000000000E+00  0.00000000000E+00  0.33817127184E+04  0.33817127184E+04  0.25500000920E-02 0. -1.
       -2   -1    0    0    0  501  0.00000000000E+00  0.00000000000E+00 -0.85522367863E+03  0.85522367863E+03  0.25500000920E-02 0.  1.
    10030    2    1    2    0    0  0.00000000000E+00  0.00000000000E+00  0.25264890397E+04  0.42369363970E+04  0.34012472954E+04 0.  0.
        3    1    3    3  502    0  0.82471498140E+03  0.44572220024E+03 -0.50428930658E+03  0.10644861649E+04  0.10100000352E+00 0.  1.
       -3    1    3    3    0  502 -0.82471498140E+03 -0.44572220024E+03  0.30307783463E+04  0.31724502321E+04  0.10100000352E+00 0. -1.
</event>
<event>
 5   0  0.4447909E-07  0.3402185E+04  0.7818609E-02  0.8137370E-01
        2   -1    0    0  501    0  0.00000000000E+00  0.00000000000E+00  0.15051082508E+04  0.15051082508E+04  0.25500000920E-02 0.  1.
       -2   -1    0    0    0  501  0.00000000000E+00  0.00000000000E+00 -0.19225958904E+04  0.19225958904E+04  0.25500000920E-02 0. -1.
    10030    2    1    2    0    0  0.00000000000E+00  0.00000000000E+00 -0.41748763957E+03  0.34277041412E+04  0.34021845556E+04 0.  0.
        5    1    3    3  502    0  0.55216220510E+03  0.60102545677E+03 -0.17124463650E+04  0.18970000905E+04  0.46999998093E+01 0. -1.
       -5    1    3    3    0  502 -0.55216220510E+03 -0.60102545677E+03  0.12949587254E+04  0.15307040507E+04  0.46999998093E+01 0.  1.
</event>
<event>
 5   0  0.1421875E-07  0.3173587E+04  0.7818609E-02  0.8195828E-01
        1   -1    0    0  501    0  0.00000000000E+00  0.00000000000E+00  0.15201580815E+04  0.15201580816E+04  0.50400001928E-02 0. -1.
       -1   -1    0    0    0  501  0.00000000000E+00  0.00000000000E+00 -0.16563501013E+04  0.16563501013E+04  0.50400001928E-02 0.  1.
    10030    2    1    2    0    0  0.00000000000E+00  0.00000000000E+00 -0.13619201974E+03  0.31765081828E+04  0.31735872399E+04 0.  0.
        5    1    3    3  502    0  0.56200477290E+03  0.14717653307E+04  0.12168163436E+03  0.15801174208E+04  0.46999998093E+01 0. -1.
       -5    1    3    3    0  502 -0.56200477290E+03 -0.14717653307E+04 -0.25787365411E+03  0.15963907620E+04  0.46999998093E+01 0.  1.
</event>
<event>
 5   0  0.4381939E-07  0.3405095E+04  0.7818609E-02  0.8136657E-01
       -2   -1    0    0    0  501  0.00000000000E+00  0.00000000000E+00  0.13241746821E+04  0.13241746821E+04  0.25500000920E-02 0. -1.
        2   -1    0    0  501    0  0.00000000000E+00  0.00000000000E+00 -0.21890372190E+04  0.21890372190E+04  0.25500000920E-02 0.  1.
    10030    2    1    2    0    0  0.00000000000E+00  0.00000000000E+00 -0.86486253685E+03  0.35132119011E+04  0.34050948084E+04 0.  0.
        3    1    3    3  502    0  0.29558656564E+03 -0.20821385210E+03  0.12841079321E+04  0.13340380869E+04  0.10100000352E+00 0. -1.
       -3    1    3    3    0  502 -0.29558656564E+03  0.20821385210E+03 -0.21489704689E+04  0.21791738142E+04  0.10100000352E+00 0.  1.
</event>
<event>
 5   0  0.4521737E-07  0.3428974E+04  0.7818609E-02  0.8130831E-01
        2   -1    0    0  501    0  0.00000000000E+00  0.00000000000E+00  0.15290351313E+04  0.15290351313E+04  0.25500000920E-02 0.  1.
       -2   -1    0    0    0  501  0.00000000000E+00  0.00000000000E+00 -0.19224320026E+04  0.19224320026E+04  0.25500000920E-02 0. -1.
    10030    2    1    2    0    0  0.00000000000E+00  0.00000000000E+00 -0.39339687132E+03  0.34514671339E+04  0.34289742312E+04 0.  0.
        4    1    3    3  502    0  0.16682865356E+04  0.38298534850E+03 -0.98041649166E+02  0.17144887051E+04  0.12699999809E+01 0.  1.
       -4    1    3    3    0  502 -0.16682865356E+04 -0.38298534850E+03 -0.29535522215E+03  0.17369784288E+04  0.12699999809E+01 0. -1.
</event>
<event>
 5   0  0.4447909E-07  0.3402924E+04  0.7818609E-02  0.8137189E-01
        2   -1    0    0  501    0  0.00000000000E+00  0.00000000000E+00  0.22283516606E+04  0.22283516606E+04  0.25500000920E-02 0. -1.
       -2   -1    0    0    0  501  0.00000000000E+00  0.00000000000E+00 -0.12991542133E+04  0.12991542133E+04  0.25500000920E-02 0.  1.
    10030    2    1    2    0    0  0.00000000000E+00  0.00000000000E+00  0.92919744736E+03  0.35275058739E+04  0.34029237127E+04 0.  0.
        5    1    3    3  502    0 -0.13055594315E+04 -0.58892195729E+03 -0.48752425751E+03  0.15129496002E+04  0.46999998093E+01 0.  1.
       -5    1    3    3    0  502  0.13055594315E+04  0.58892195729E+03  0.14167217049E+04  0.20145562738E+04  0.46999998093E+01 0. -1.
</event>
<event>
 5   0  0.1421875E-07  0.3397665E+04  0.7818609E-02  0.8138480E-01
       -1   -1    0    0    0  501  0.00000000000E+00  0.00000000000E+00  0.12187639372E+04  0.12187639372E+04  0.50400001928E-02 0. -1.
        1   -1    0    0  501    0  0.00000000000E+00  0.00000000000E+00 -0.23679996948E+04  0.23679996948E+04  0.50400001928E-02 0.  1.
    10030    2    1    2    0    0  0.00000000000E+00  0.00000000000E+00 -0.11492357576E+04  0.35867636320E+04  0.33976654522E+04 0.  0.
        5    1    3    3  502    0  0.79211439013E+03 -0.14816752628E+03 -0.21533827023E+04  0.22992342150E+04  0.46999998093E+01 0.  1.
       -5    1    3    3    0  502 -0.79211439013E+03  0.14816752628E+03  0.10041469447E+04  0.12875294169E+04  0.46999998093E+01 0. -1.
</event>
<event>
 5   0  0.4381939E-07  0.3408799E+04  0.7818609E-02  0.8135750E-01
       -2   -1    0    0    0  501  0.00000000000E+00  0.00000000000E+00  0.17792460516E+04  0.17792460516E+04  0.25500000920E-02 0.  1.
        2   -1    0    0  501    0  0.00000000000E+00  0.00000000000E+00 -0.16327018073E+04  0.16327018073E+04  0.25500000920E-02 0. -1.
    10030    2    1    2    0    0  0.00000000000E+00  0.00000000000E+00  0.14654424432E+03  0.34119478588E+04  0.34087993452E+04 0.  0.
        3    1    3    3  502    0 -0.13554575497E+03  0.16430824058E+04  0.50597430687E+03  0.17245586257E+04  0.10100000352E+00 0.  1.
       -3    1    3    3    0  502  0.13554575497E+03 -0.16430824058E+04 -0.35943006255E+03  0.16873892331E+04  0.10100000352E+00 0. -1.
</event>
<event>
 5   0  0.4486226E-07  0.3327383E+04  0.7818609E-02  0.8155962E-01
        2   -1    0    0  501    0  0.00000000000E+00  0.00000000000E+00  0.20435342479E+04  0.20435342479E+04  0.25500000920E-02 0. -1.
       -2   -1    0    0    0  501  0.00000000000E+00  0.00000000000E+00 -0.13544523048E+04  0.13544523048E+04  0.25500000920E-02 0.  1.
    10030    2    1    2    0    0  0.00000000000E+00  0.00000000000E+00  0.68908194311E+03  0.33979865528E+04  0.33273831592E+04 0.  0.
        1    1    3    3  502    0  0.70084963709E+03 -0.67293391307E+03  0.17236929894E+04  0.19786732391E+04  0.50400001928E-02 0. -1.
       -1    1    3    3    0  502 -0.70084963709E+03  0.67293391307E+03 -0.10346110463E+04  0.14193133137E+04  0.50400001928E-02 0.  1.
</event>
<event>
 5   0  0.4521737E-07  0.3402035E+04  0.7818609E-02  0.8137407E-01
        2   -1    0    0  501    0  0.00000000000E+00  0.00000000000E+00  0.11600677803E+04  0.11600677803E+04  0.25500000920E-02 0.  1.
       -2   -1    0    0    0  501  0.00000000000E+00  0.00000000000E+00 -0.24942170647E+04  0.24942170647E+04  0.25500000920E-02 0. -1.
    10030    2    1    2    0    0  0.00000000000E+00  0.00000000000E+00 -0.13341492843E+04  0.36542848450E+04  0.34020351873E+04 0.  0.
        4    1    3    3  502    0 -0.15929114631E+04  0.24091388459E+03 -0.80652706138E+02  0.16130446060E+04  0.12699999809E+01 0.  1.
       -4    1    3    3    0  502  0.15929114631E+04 -0.24091388459E+03 -0.12534965782E+04  0.20412402390E+04  0.12699999809E+01 0. -1.
</event>
<event>
 5   0  0.4486226E-07  0.3433008E+04  0.7818609E-02  0.8129852E-01
        2   -1    0    0  501    0  0.00000000000E+00  0.00000000000E+00  0.14851412355E+04  0.14851412355E+04  0.25500000920E-02 0.  1.
       -2   -1    0    0    0  501  0.00000000000E+00  0.00000000000E+00 -0.19839101381E+04  0.19839101381E+04  0.25500000920E-02 0. -1.
    10030    2    1    2    0    0  0.00000000000E+00  0.00000000000E+00 -0.49876890256E+03  0.34690513737E+04  0.34330084496E+04 0.  0.
        1    1    3    3  502    0 -0.53260616805E+02 -0.28804046316E+03 -0.19584673041E+04  0.19802520503E+04  0.50400001928E-02 0. -1.
       -1    1    3    3    0  502  0.53260616805E+02  0.28804046316E+03  0.14596984015E+04  0.14887993233E+04  0.50400001928E-02 0.  1.
</event>
<event>
 5   0  0.4381939E-07  0.3378676E+04  0.7818609E-02  0.8143160E-01
       -2   -1    0    0    0  501  0.00000000000E+00  0.00000000000E+00  0.11564370717E+04  0.11564370717E+04  0.25500000920E-02 0. -1.
        2   -1    0    0  501    0  0.00000000000E+00  0.00000000000E+00 -0.24678061354E+04  0.24678061354E+04  0.25500000920E-02 0.  1.
    10030    2    1    2    0    0  0.00000000000E+00  0.00000000000E+00 -0.13113690637E+04  0.36242432072E+04  0.33786757766E+04 0.  0.
        3    1    3    3  502    0 -0.11002866619E+04  0.20260346478E+03 -0.20134568647E+04  0.23034077925E+04  0.10100000352E+00 0.  1.
       -3    1    3    3    0  502  0.11002866619E+04 -0.20260346478E+03  0.70208780101E+03  0.13208354147E+04  0.10100000352E+00 0. -1.
</event>
<event>
 5   0  0.4396257E-07  0.3402689E+04  0.7818609E-02  0.8137247E-01
       -2   -1    0    0    0  501  0.00000000000E+00  0.00000000000E+00  0.16732444106E+04  0.16732444106E+04  0.25500000920E-02 0.  1.
        2   -1    0    0  501    0  0.00000000000E+00  0.00000000000E+00 -0.17299163309E+04  0.17299163309E+04  0.25500000920E-02 0. -1.
    10030    2    1    2    0    0  0.00000000000E+00  0.00000000000E+00 -0.56671920298E+02  0.34031607414E+04  0.34026888376E+04 0.  0.
        2    1    3    3  502    0 -0.75578756001E+03 -0.14731754321E+04  0.36301377307E+03  0.16950633289E+04  0.25500000920E-02 0.  1.
       -2    1    3    3    0  502  0.75578756001E+03  0.14731754321E+04 -0.41968569337E+03  0.17080974125E+04  0.25500000920E-02 0. -1.
</event>
<event>
 5   0  0.4486226E-07  0.3368031E+04  0.7818609E-02  0.8145798E-01
        2   -1    0    0  501    0  0.00000000000E+00  0.00000000000E+00  0.26907278033E+04  0.26907278033E+04  0.25500000920E-02 0.  1.
       -2   -1    0    0    0  501  0.00000000000E+00  0.00000000000E+00 -0.10539555898E+04  0.10539555898E+04  0.25500000920E-02 0. -1.
    10030    2    1    2    0    0  0.00000000000E+00  0.00000000000E+00  0.16367722135E+04  0.37446833931E+04  0.33680306465E+04 0.  0.
        1    1    3    3  502    0 -0.15651123886E+04  0.78538432615E+02  0.13286042827E+03  0.15727037127E+04  0.50400001928E-02 0. -1.
       -1    1    3    3    0  502  0.15651123886E+04 -0.78538432615E+02  0.15039117852E+04  0.21719796805E+04  0.50400001928E-02 0.  1.
</event>
<event>
 5   0  0.4396257E-07  0.3453470E+04  0.7818609E-02  0.8124906E-01
        2   -1    0    0  501    0  0.00000000000E+00  0.00000000000E+00  0.99432246920E+03  0.99432246920E+03  0.25500000920E-02 0.  1.
       -2   -1    0    0    0  501  0.00000000000E+00  0.00000000000E+00 -0.29986381519E+04  0.29986381519E+04  0.25500000920E-02 0. -1.
    10030    2    1    2    0    0  0.00000000000E+00  0.00000000000E+00 -0.20043156827E+04  0.39929606211E+04  0.34534697285E+04 0.  0.
        2    1    3    3  502    0  0.81567791642E+03 -0.12516358433E+04 -0.10510902437E+01  0.14939624668E+04  0.25500000920E-02 0.  1.
       -2    1    3    3    0  502 -0.81567791642E+03  0.12516358433E+04 -0.20032645924E+04  0.24989981542E+04  0.25500000920E-02 0. -1.
</event>
<event>
 5   0  0.1473755E-07  0.3371062E+04  0.7818609E-02  0.8145045E-01
        1   -1    0    0  501    0  0.00000000000E+00  0.00000000000E+00  0.22555132369E+04  0.22555132369E+04  0.50400001928E-02 0. -1.
       -1   -1    0    0    0  501  0.00000000000E+00  0.00000000000E+00 -0.12595865011E+04  0.12595865011E+04  0.50400001928E-02 0.  1.
    10030    2    1    2    0    0  0.00000000000E+00  0.00000000000E+00  0.99592673586E+03  0.35150997380E+04  0.33710615694E+04 0.  0.
        1    1    3    3  502    0 -0.18903857184E+03 -0.11693198182E+04  0.17483543163E+04  0.21118208338E+04  0.50400001928E-02 0. -1.
       -1    1    3    3    0  502  0.18903857184E+03  0.11693198182E+04 -0.75242758043E+03  0.14032789041E+04  0.50400001928E-02 0.  1.
</event>
<event>
 5   0  0.1520084E-07  0.3328318E+04  0.7818609E-02  0.8155727E-01
       -1   -1    0    0    0  501  0.00000000000E+00  0.00000000000E+00  0.13500479795E+04  0.13500479796E+04  0.50400001928E-02 0. -1.
        1   -1    0    0  501    0  0.00000000000E+00  0.00000000000E+00 -0.20513534507E+04  0.20513534507E+04  0.50400001928E-02 0.  1.
    10030    2    1    2    0    0  0.00000000000E+00  0.00000000000E+00 -0.70130547118E+03  0.34014014303E+04  0.33283182429E+04 0.  0.
        2    1    3    3  502    0 -0.60188742742E+03 -0.10675598316E+04 -0.15011945901E+04  0.19379209651E+04  0.25500000920E-02 0. -1.
       -2    1    3    3    0  502  0.60188742742E+03  0.10675598316E+04  0.79988911897E+03  0.14634804652E+04  0.25500000920E-02 0.  1.
</event>
<event>
 5   0  0.1523259E-07  0.3434760E+04  0.7818609E-02  0.8129427E-01
       -1   -1    0    0    0  501  0.00000000000E+00  0.00000000000E+00  0.14552070110E+04  0.14552070110E+04  0.50400001928E-02 0. -1.
        1   -1    0    0  501    0  0.00000000000E+00  0.00000000000E+00 -0.20267866094E+04  0.20267866094E+04  0.50400001928E-02 0.  1.
    10030    2    1    2    0    0  0.00000000000E+00  0.00000000000E+00 -0.57157959839E+03  0.34819936204E+04  0.34347600113E+04 0.  0.
        4    1    3    3  502    0  0.80805571264E+03 -0.92517299962E+03 -0.15025001507E+04  0.19407234294E+04  0.12699999809E+01 0.  1.
       -4    1    3    3    0  502 -0.80805571264E+03  0.92517299962E+03  0.93092055227E+03  0.15412701909E+04  0.12699999809E+01 0. -1.
</event>
<event>
 5   0  0.1421875E-07  0.3390278E+04  0.7818609E-02  0.8140297E-01
       -3   -1    0    0    0  501  0.00000000000E+00  0.00000000000E+00  0.20622804826E+04  0.20622804850E+04  0.10100000352E+00 0.  1.
        3   -1    0    0  501    0  0.00000000000E+00  0.00000000000E+00 -0.13933584585E+04  0.13933584622E+04  0.10100000352E+00 0. -1.
    10030    2    1    2    0    0  0.00000000000E+00  0.00000000000E+00  0.66892202405E+03  0.34556389472E+04  0.33902778440E+04 0.  0.
        2    1    3    3  502    0 -0.35473730577E+03 -0.13656376127E+04 -0.62316844466E+03  0.15424472619E+04  0.25500000920E-02 0. -1.
       -2    1    3    3    0  502  0.35473730577E+03  0.13656376127E+04  0.12920904687E+04  0.19131916853E+04  0.25500000920E-02 0.  1.
</event>
<event>
 5   0  0.4381939E-07  0.3408145E+04  0.7818609E-02  0.8135910E-01
       -2   -1    0    0    0  501  0.00000000000E+00  0.00000000000E+00  0.10546390334E+04  0.10546390334E+04  0.25500000920E-02 0.  1.
        2   -1    0    0  501    0  0.00000000000E+00  0.00000000000E+00 -0.27534187373E+04  0.27534187373E+04  0.25500000920E-02 0. -1.
    10030    2    1    2    0    0  0.00000000000E+00  0.00000000000E+00 -0.16987797039E+04  0.38080577707E+04  0.34081448769E+04 0.  0.
        3    1    3    3  502    0  0.80375583527E+03 -0.61539911990E+03 -0.23810525102E+04  0.25873056615E+04  0.10100000352E+00 0. -1.
       -3    1    3    3    0  502 -0.80375583527E+03  0.61539911990E+03  0.68227280630E+03  0.12207521091E+04  0.10100000352E+00 0.  1.
</event>
<event>
 5   0  0.4381939E-07  0.3408957E+04  0.7818609E-02  0.8135711E-01
        2   -1    0    0  501    0  0.00000000000E+00  0.00000000000E+00  0.20596869416E+04  0.20596869416E+04  0.25500000920E-02 0. -1.
       -2   -1    0    0    0  501  0.00000000000E+00  0.00000000000E+00 -0.14105288194E+04  0.14105288194E+04  0.25500000920E-02 0.  1.
    10030    2    1    2    0    0  0.00000000000E+00  0.00000000000E+00  0.64915812217E+03  0.34702157610E+04  0.34089574888E+04 0.  0.
        3    1    3    3  502    0 -0.13043370790E+04  0.13441214489E+03  0.14331317825E+04  0.19424800016E+04  0.10100000352E+00 0. -1.
       -3    1    3    3    0  502  0.13043370790E+04 -0.13441214489E+03 -0.78397366030E+03  0.15277357594E+04  0.10100000352E+00 0.  1.
</event>
<event>
 5   0  0.1435806E-07  0.3380886E+04  0.7818609E-02  0.8142614E-01
       -1   -1    0    0    0  501  0.00000000000E+00  0.00000000000E+00  0.11489872475E+04  0.11489872476E+04  0.50400001928E-02 0.  1.
        1   -1    0    0  501    0  0.00000000000E+00  0.00000000000E+00 -0.24870575094E+04  0.24870575094E+04  0.50400001928E-02 0. -1.
    10030    2    1    2    0    0  0.00000000000E+00  0.00000000000E+00 -0.13380702619E+04  0.36360447570E+04  0.33808858971E+04 0.  0.
        3    1    3    3  502    0 -0.14785963580E+04 -0.28031710130E+03  0.15898848779E+03  0.15133083680E+04  0.10100000352E+00 0.  1.
       -3    1    3    3    0  502  0.14785963580E+04  0.28031710130E+03 -0.14970587497E+04  0.21227363890E+04  0.10100000352E+00 0. -1.
</event>
<event>
 5   0  0.1523259E-07  0.3400394E+04  0.7818609E-02  0.8137810E-01
        1   -1    0    0  501    0  0.00000000000E+00  0.00000000000E+00  0.97467841431E+03  0.97467841432E+03  0.50400001928E-02 0. -1.
       -1   -1    0    0    0  501  0.00000000000E+00  0.00000000000E+00 -0.29657671826E+04  0.29657671826E+04  0.50400001928E-02 0.  1.
    10030    2    1    2    0    0  0.00000000000E+00  0.00000000000E+00 -0.19910887683E+04  0.39404455969E+04  0.34003936565E+04 0.  0.
        4    1    3    3  502    0  0.81649988059E+03  0.34156599661E+03  0.68667345377E+03  0.11202059766E+04  0.12699999809E+01 0. -1.
       -4    1    3    3    0  502 -0.81649988059E+03 -0.34156599661E+03 -0.26777622220E+04  0.28202396203E+04  0.12699999809E+01 0.  1.
</event>
<event>
 5   0  0.1421875E-07  0.3407975E+04  0.7818609E-02  0.8135952E-01
       -1   -1    0    0    0  501  0.00000000000E+00  0.00000000000E+00  0.11593714051E+04  0.11593714051E+04  0.50400001928E-02 0.  1.
        1   -1    0    0  501    0  0.00000000000E+00  0.00000000000E+00 -0.25044374671E+04  0.25044374671E+04  0.50400001928E-02 0. -1.
    10030    2    1    2    0    0  0.00000000000E+00  0.00000000000E+00 -0.13450660620E+04  0.36638088721E+04  0.34079748738E+04 0.  0.
        5    1    3    3  502    0 -0.48969641007E+03 -0.96153458262E+03 -0.20903205869E+04  0.23524059118E+04  0.46999998093E+01 0. -1.
       -5    1    3    3    0  502  0.48969641007E+03  0.96153458262E+03  0.74525452491E+03  0.13114029604E+04  0.46999998093E+01 0.  1.
</event>
<event>
 5   0  0.4521737E-07  0.3381257E+04  0.7818609E-02  0.8142522E-01
        2   -1    0    0  501    0  0.00000000000E+00  0.00000000000E+00  0.17186665758E+04  0.17186665758E+04  0.25500000920E-02 0.  1.
       -2   -1    0    0    0  501  0.00000000000E+00  0.00000000000E+00 -0.16630481305E+04  0.16630481305E+04  0.25500000920E-02 0. -1.
    10030    2    1    2    0    0  0.00000000000E+00  0.00000000000E+00  0.55618445250E+02  0.33817147063E+04  0.33812573022E+04 0.  0.
        4    1    3    3  502    0 -0.21970009276E+03  0.39156236496E+03  0.16579482397E+04  0.17176679524E+04  0.12699999809E+01 0.  1.
       -4    1    3    3    0  502  0.21970009276E+03 -0.39156236496E+03 -0.16023297944E+04  0.16640467540E+04  0.12699999809E+01 0. -1.
</event>
<event>
 5   0  0.4521737E-07  0.3402587E+04  0.7818609E-02  0.8137272E-01
       -2   -1    0    0    0  501  0.00000000000E+00  0.00000000000E+00  0.19407451066E+04  0.19407451066E+04  0.25500000920E-02 0.  1.
        2   -1    0    0  501    0  0.00000000000E+00  0.00000000000E+00 -0.14913858489E+04  0.14913858489E+04  0.25500000920E-02 0. -1.
    10030    2    1    2    0    0  0.00000000000E+00  0.00000000000E+00  0.44935925768E+03  0.34321309554E+04  0.34025871264E+04 0.  0.
        4    1    3    3  502    0  0.26701235539E+03  0.71789085951E+03 -0.13076337433E+04  0.15154439955E+04  0.12699999809E+01 0. -1.
       -4    1    3    3    0  502 -0.26701235539E+03 -0.71789085951E+03  0.17569930009E+04  0.19166869599E+04  0.12699999809E+01 0.  1.
</event>
<event>
 5   0  0.4381939E-07  0.3398277E+04  0.7818609E-02  0.8138329E-01
        2   -1    0    0  501    0  0.00000000000E+00  0.00000000000E+00  0.15768504529E+04  0.15768504529E+04  0.25500000920E-02 0.  1.
       -2   -1    0    0    0  501  0.00000000000E+00  0.00000000000E+00 -0.18309097876E+04  0.18309097876E+04  0.25500000920E-02 0. -1.
    10030    2    1    2    0    0  0.00000000000E+00  0.00000000000E+00 -0.25405933473E+03  0.34077602405E+04  0.33982765795E+04 0.  0.
        3    1    3    3  502    0 -0.15178329724E+04  0.17112312717E+03 -0.87339897118E+03  0.17595243192E+04  0.10100000352E+00 0. -1.
       -3    1    3    3    0  502  0.15178329724E+04 -0.17112312717E+03  0.61933963645E+03  0.16482359213E+04  0.10100000352E+00 0.  1.
</event>
<event>
 5   0  0.1473755E-07  0.3389393E+04  0.7818609E-02  0.8140515E-01
       -1   -1    0    0    0  501  0.00000000000E+00  0.00000000000E+00  0.16658782695E+04  0.16658782695E+04  0.50400001928E-02 0.  1.
        1   -1    0    0  501    0  0.00000000000E+00  0.00000000000E+00 -0.17240133700E+04  0.17240133700E+04  0.50400001928E-02 0. -1.
    10030    2    1    2    0    0  0.00000000000E+00  0.00000000000E+00 -0.58135100465E+02  0.33898916395E+04  0.33893931076E+04 0.  0.
        1    1    3    3  502    0 -0.53047419122E+03  0.78345854349E+03  0.13771215587E+04  0.16708303158E+04  0.50400001928E-02 0.  1.
       -1    1    3    3    0  502  0.53047419122E+03 -0.78345854349E+03 -0.14352566592E+04  0.17190613237E+04  0.50400001928E-02 0. -1.
</event>
<event>
 5   0  0.4521737E-07  0.3422588E+04  0.7818609E-02  0.8132385E-01
        2   -1    0    0  501    0  0.00000000000E+00  0.00000000000E+00  0.21764524839E+04  0.21764524839E+04  0.25500000920E-02 0.  1.
       -2   -1    0    0    0  501  0.00000000000E+00  0.00000000000E+00 -0.13455503323E+04  0.13455503323E+04  0.25500000920E-02 0. -1.
    10030    2    1    2    0    0  0.00000000000E+00  0.00000000000E+00  0.83090215151E+03  0.35220028162E+04  0.34225875375E+04 0.  0.
        4    1    3    3  502    0  0.61604120930E+03 -0.75194609690E+03  0.18647622536E+04  0.21029192993E+04  0.12699999809E+01 0.  1.
       -4    1    3    3    0  502 -0.61604120930E+03  0.75194609690E+03 -0.10338601021E+04  0.14190835169E+04  0.12699999809E+01 0. -1.
</event>
<event>
 5   0  0.1523259E-07  0.3412719E+04  0.7818609E-02  0.8134792E-01
       -1   -1    0    0    0  501  0.00000000000E+00  0.00000000000E+00  0.27826307456E+04  0.27826307456E+04  0.50400001928E-02 0.  1.
        1   -1    0    0  501    0  0.00000000000E+00  0.00000000000E+00 -0.10463702725E+04  0.10463702725E+04  0.50400001928E-02 0. -1.
    10030    2    1    2    0    0  0.00000000000E+00  0.00000000000E+00  0.17362604731E+04  0.38290010181E+04  0.34127186181E+04 0.  0.
        4    1    3    3  502    0  0.10235016330E+03 -0.16272705625E+04  0.14326716237E+04  0.21704917954E+04  0.12699999809E+01 0.  1.
       -4    1    3    3    0  502 -0.10235016330E+03  0.16272705625E+04  0.30358884943E+03  0.16585092227E+04  0.12699999809E+01 0. -1.
</event>
<event>
 5   0  0.4486226E-07  0.3402918E+04  0.7818609E-02  0.8137191E-01
        2   -1    0    0  501    0  0.00000000000E+00  0.00000000000E+00  0.25917954163E+04  0.25917954163E+04  0.25500000920E-02 0. -1.
       -2   -1    0    0    0  501  0.00000000000E+00  0.00000000000E+00 -0.11169718951E+04  0.11169718951E+04  0.25500000920E-02 0.  1.
    10030    2    1    2    0    0  0.00000000000E+00  0.00000000000E+00  0.14748235212E+04  0.37087673114E+04  0.34029179466E+04 0.  0.
        1    1    3    3  502    0  0.84030628760E+03  0.12119532295E+04  0.16622155277E+04  0.22221399029E+04  0.50400001928E-02 0. -1.
       -1    1    3    3    0  502 -0.84030628760E+03 -0.12119532295E+04 -0.18739200649E+03  0.14866274085E+04  0.50400001928E-02 0.  1.
</event>
<event>
 5   0  0.4447909E-07  0.3399220E+04  0.7818609E-02  0.8138098E-01
        2   -1    0    0  501    0  0.00000000000E+00  0.00000000000E+00  0.27706534122E+04  0.27706534122E+04  0.25500000920E-02 0.  1.
       -2   -1    0    0    0  501  0.00000000000E+00  0.00000000000E+00 -0.10425964200E+04  0.10425964200E+04  0.25500000920E-02 0. -1.
    10030    2    1    2    0    0  0.00000000000E+00  0.00000000000E+00  0.17280569922E+04  0.38132498321E+04  0.33992195154E+04 0.  0.
        5    1    3    3  502    0 -0.39335351676E+03 -0.15956152399E+04  0.37770938861E+03  0.16862388488E+04  0.46999998093E+01 0. -1.
       -5    1    3    3    0  502  0.39335351676E+03  0.15956152399E+04  0.13503476036E+04  0.21270109834E+04  0.46999998093E+01 0.  1.
</event>
<event>
 5   0  0.1473755E-07  0.3341250E+04  0.7818609E-02  0.8152478E-01
       -1   -1    0    0    0  501  0.00000000000E+00  0.00000000000E+00  0.16648749057E+04  0.16648749057E+04  0.50400001928E-02 0.  1.
        1   -1    0    0  501    0  0.00000000000E+00  0.00000000000E+00 -0.16763949035E+04  0.16763949035E+04  0.50400001928E-02 0. -1.
    10030    2    1    2    0    0  0.00000000000E+00  0.00000000000E+00 -0.11519997823E+02  0.33412698092E+04  0.33412499499E+04 0.  0.
        1    1    3    3  502    0  0.79760094514E+03 -0.11790033107E+04 -0.88027747941E+03  0.16736500575E+04  0.50400001928E-02 0. -1.
       -1    1    3    3    0  502 -0.79760094514E+03  0.11790033107E+04  0.86875748159E+03  0.16676197517E+04  0.50400001928E-02 0.  1.
</event>
<event>
 5   0  0.1473755E-07  0.3402437E+04  0.7818609E-02  0.8137308E-01
       -1   -1    0    0    0  501  0.00000000000E+00  0.00000000000E+00  0.27222158809E+04  0.27222158809E+04  0.50400001928E-02 0.  1.
        1   -1    0    0  501    0  0.00000000000E+00  0.00000000000E+00 -0.10631576732E+04  0.10631576732E+04  0.50400001928E-02 0. -1.
    10030    2    1    2    0    0  0.00000000000E+00  0.00000000000E+00  0.16590582077E+04  0.37853735541E+04  0.34024371864E+04 0.  0.
        1    1    3    3  502    0 -0.99937603093E+03  0.13153651316E+04  0.12817312455E+04  0.20908784915E+04  0.50400001928E-02 0.  1.
       -1    1    3    3    0  502  0.99937603093E+03 -0.13153651316E+04  0.37732696217E+03  0.16944950625E+04  0.50400001928E-02 0. -1.
</event>
<event>
 5   0  0.1523259E-07  0.3409053E+04  0.7818609E-02  0.8135688E-01
        1   -1    0    0  501    0  0.00000000000E+00  0.00000000000E+00  0.16641408448E+04  0.16641408448E+04  0.50400001928E-02 0. -1.
       -1   -1    0    0    0  501  0.00000000000E+00  0.00000000000E+00 -0.17458925730E+04  0.17458925730E+04  0.50400001928E-02 0.  1.
    10030    2    1    2    0    0  0.00000000000E+00  0.00000000000E+00 -0.81751728169E+02  0.34100334178E+04  0.34090533240E+04 0.  0.
        4    1    3    3  502    0  0.95946547977E+03 -0.23217419211E+03  0.13491029490E+04  0.16716935252E+04  0.12699999809E+01 0. -1.
       -4    1    3    3    0  502 -0.95946547977E+03  0.23217419211E+03 -0.14308546771E+04  0.17383398926E+04  0.12699999809E+01 0.  1.
</event>
<event>
 5   0  0.4521737E-07  0.3398323E+04  0.7818609E-02  0.8138318E-01
        2   -1    0    0  501    0  0.00000000000E+00  0.00000000000E+00  0.24075726164E+04  0.24075726164E+04  0.25500000920E-02 0. -1.
       -2   -1    0    0    0  501  0.00000000000E+00  0.00000000000E+00 -0.11991952623E+04  0.11991952623E+04  0.25500000920E-02 0.  1.
    10030    2    1    2    0    0  0.00000000000E+00  0.00000000000E+00  0.12083773541E+04  0.36067678787E+04  0.33983229248E+04 0.  0.
        4    1    3    3  502    0  0.53787870868E+02 -0.65238555694E+03 -0.10599967980E+04  0.12458309976E+04  0.12699999809E+01 0.  1.
       -4    1    3    3    0  502 -0.53787870868E+02  0.65238555694E+03  0.22683741521E+04  0.23609368811E+04  0.12699999809E+01 0. -1.
</event>
<event>
 5   0  0.1473755E-07  0.3380265E+04  0.7818609E-02  0.8142767E-01
        1   -1    0    0  501    0  0.00000000000E+00  0.00000000000E+00  0.24387301585E+04  0.24387301586E+04  0.50400001928E-02 0. -1.
       -1   -1    0    0    0  501  0.00000000000E+00  0.00000000000E+00 -0.11713257703E+04  0.11713257703E+04  0.50400001928E-02 0.  1.
    10030    2    1    2    0    0  0.00000000000E+00  0.00000000000E+00  0.12674043882E+04  0.36100559289E+04  0.33802647716E+04 0.  0.
        1    1    3    3  502    0 -0.70988034479E+03 -0.15242237860E+04  0.81669563572E+03  0.18692725899E+04  0.50400001928E-02 0.  1.
       -1    1    3    3    0  502  0.70988034479E+03  0.15242237860E+04  0.45070875252E+03  0.17407833390E+04  0.50400001928E-02 0. -1.
</event>
<event>
 5   0  0.4486226E-07  0.3399735E+04  0.7818609E-02  0.8137971E-01
        2   -1    0    0  501    0  0.00000000000E+00  0.00000000000E+00  0.15423560729E+04  0.15423560729E+04  0.25500000920E-02 0. -1.
       -2   -1    0    0    0  501  0.00000000000E+00  0.00000000000E+00 -0.18734641562E+04  0.18734641562E+04  0.25500000920E-02 0.  1.
    10030    2    1    2    0    0  0.00000000000E+00  0.00000000000E+00 -0.33110808332E+03  0.34158202290E+04  0.33997345888E+04 0.  0.
        1    1    3    3  502    0  0.84743617238E+03 -0.10286369673E+04  0.89457177771E+03  0.16051481995E+04  0.50400001928E-02 0. -1.
       -1    1    3    3    0  502 -0.84743617238E+03  0.10286369673E+04 -0.12256798610E+04  0.18106720295E+04  0.50400001928E-02 0.  1.
</event>
<event>
 5   0  0.1421875E-07  0.3406425E+04  0.7818609E-02  0.8136331E-01
        3   -1    0    0  501    0  0.00000000000E+00  0.00000000000E+00  0.12759576851E+04  0.12759576891E+04  0.10100000352E+00 0.  1.
       -3   -1    0    0    0  501  0.00000000000E+00  0.00000000000E+00 -0.22735343722E+04  0.22735343744E+04  0.10100000352E+00 0. -1.
    10030    2    1    2    0    0  0.00000000000E+00  0.00000000000E+00 -0.99757668703E+03  0.35494920636E+04  0.34064254964E+04 0.  0.
        2    1    3    3  502    0  0.94361871043E+03  0.62857591130E+03 -0.18231562882E+04  0.21469566363E+04  0.25500000920E-02 0. -1.
       -2    1    3    3    0  502 -0.94361871043E+03 -0.62857591130E+03  0.82557960114E+03  0.14025354273E+04  0.25500000920E-02 0.  1.
</event>
<event>
 5   0  0.4381939E-07  0.3398282E+04  0.7818609E-02  0.8138328E-01
        2   -1    0    0  501    0  0.00000000000E+00  0.00000000000E+00  0.22849591773E+04  0.22849591773E+04  0.25500000920E-02 0.  1.
       -2   -1    0    0    0  501  0.00000000000E+00  0.00000000000E+00 -0.12635148990E+04  0.12635148990E+04  0.25500000920E-02 0. -1.
    10030    2    1    2    0    0  0.00000000000E+00  0.00000000000E+00  0.10214442783E+04  0.35484740763E+04  0.33982818977E+04 0.  0.
        3    1    3    3  502    0 -0.16294484047E+04  0.19070621950E+03  0.48897990589E+02  0.16412988726E+04  0.10100000352E+00 0. -1.
       -3    1    3    3    0  502  0.16294484047E+04 -0.19070621950E+03  0.97254628769E+03  0.19071752037E+04  0.10100000352E+00 0.  1.
</event>
<event>
 5   0  0.1473755E-07  0.3391305E+04  0.7818609E-02  0.8140044E-01
       -1   -1    0    0    0  501  0.00000000000E+00  0.00000000000E+00  0.21626463646E+04  0.21626463646E+04  0.50400001928E-02 0.  1.
        1   -1    0    0  501    0  0.00000000000E+00  0.00000000000E+00 -0.13294994537E+04  0.13294994537E+04  0.50400001928E-02 0. -1.
    10030    2    1    2    0    0  0.00000000000E+00  0.00000000000E+00  0.83314691088E+03  0.34921458183E+04  0.33913048582E+04 0.  0.
        1    1    3    3  502    0  0.11018256777E+03 -0.61391424524E+02  0.21578090263E+04  0.21614922852E+04  0.50400001928E-02 0.  1.
       -1    1    3    3    0  502 -0.11018256777E+03  0.61391424524E+02 -0.13246621154E+04  0.13306535331E+04  0.50400001928E-02 0. -1.
</event>
<event>
 5   0  0.1421875E-07  0.3392270E+04  0.7818609E-02  0.8139806E-01
        3   -1    0    0  501    0  0.00000000000E+00  0.00000000000E+00  0.18327332351E+04  0.18327332379E+04  0.10100000352E+00 0. -1.
       -3   -1    0    0    0  501  0.00000000000E+00  0.00000000000E+00 -0.15697178995E+04  0.15697179027E+04  0.10100000352E+00 0.  1.
    10030    2    1    2    0    0  0.00000000000E+00  0.00000000000E+00  0.26301533561E+03  0.34024511406E+04  0.33922701393E+04 0.  0.
        4    1    3    3  502    0  0.23359949730E+03  0.13602086515E+04  0.11204365009E+04  0.17776714730E+04  0.12699999809E+01 0. -1.
       -4    1    3    3    0  502 -0.23359949730E+03 -0.13602086515E+04 -0.85742116526E+03  0.16247796676E+04  0.12699999809E+01 0.  1.
</event>
<event>
 5   0  0.4447909E-07  0.3393997E+04  0.7818609E-02  0.8139381E-01
       -2   -1    0    0    0  501  0.00000000000E+00  0.00000000000E+00  0.16067503182E+04  0.16067503182E+04  0.25500000920E-02 0.  1.
        2   -1    0    0  501    0  0.00000000000E+00  0.00000000000E+00 -0.17923152309E+04  0.17923152309E+04  0.25500000920E-02 0. -1.
    10030    2    1    2    0    0  0.00000000000E+00  0.00000000000E+00 -0.18556491272E+03  0.33990655491E+04  0.33939965041E+04 0.  0.
        5    1    3    3  502    0 -0.51924269472E+03  0.23105323090E+03  0.15085998796E+04  0.16121086372E+04  0.46999998093E+01 0.  1.
       -5    1    3    3    0  502  0.51924269472E+03 -0.23105323090E+03 -0.16941647923E+04  0.17869569119E+04  0.46999998093E+01 0. -1.
</event>
<event>
 5   0  0.1473755E-07  0.3395487E+04  0.7818609E-02  0.8139015E-01
        1   -1    0    0  501    0  0.00000000000E+00  0.00000000000E+00  0.20775525358E+04  0.20775525358E+04  0.50400001928E-02 0.  1.
       -1   -1    0    0    0  501  0.00000000000E+00  0.00000000000E+00 -0.13873698323E+04  0.13873698323E+04  0.50400001928E-02 0. -1.
    10030    2    1    2    0    0  0.00000000000E+00  0.00000000000E+00  0.69018270348E+03  0.34649223681E+04  0.33954874249E+04 0.  0.
        1    1    3    3  502    0 -0.57283485369E+03  0.98703326656E+03 -0.93757685030E+03  0.14769647217E+04  0.50400001928E-02 0. -1.
       -1    1    3    3    0  502  0.57283485369E+03 -0.98703326656E+03  0.16277595538E+04  0.19879576464E+04  0.50400001928E-02 0.  1.
</event>
<event>
 5   0  0.1421875E-07  0.3394545E+04  0.7818609E-02  0.8139246E-01
       -1   -1    0    0    0  501  0.00000000000E+00  0.00000000000E+00  0.16579039004E+04  0.16579039004E+04  0.50400001928E-02 0. -1.
        1   -1    0    0  501    0  0.00000000000E+00  0.00000000000E+00 -0.17375760485E+04  0.17375760485E+04  0.50400001928E-02 0.  1.
    10030    2    1    2    0    0  0.00000000000E+00  0.00000000000E+00 -0.79672148112E+02  0.33954799489E+04  0.33945450994E+04 0.  0.
        5    1    3    3  502    0  0.10758949551E+03  0.15705027177E+04 -0.67456400359E+03  0.17126333440E+04  0.46999998093E+01 0.  1.
       -5    1    3    3    0  502 -0.10758949551E+03 -0.15705027177E+04  0.59489185548E+03  0.16828466049E+04  0.46999998093E+01 0. -1.
</event>
<event>
 5   0  0.1435806E-07  0.3402475E+04  0.7818609E-02  0.8137299E-01
        1   -1    0    0  501    0  0.00000000000E+00  0.00000000000E+00  0.25741136654E+04  0.25741136654E+04  0.50400001928E-02 0.  1.
       -1   -1    0    0    0  501  0.00000000000E+00  0.00000000000E+00 -0.11243516670E+04  0.11243516670E+04  0.50400001928E-02 0. -1.
    10030    2    1    2    0    0  0.00000000000E+00  0.00000000000E+00  0.14497619984E+04  0.36984653324E+04  0.34024749761E+04 0.  0.
        3    1    3    3  502    0  0.15820960815E+04  0.37147558313E+03  0.17793154375E+03  0.16348338645E+04  0.10100000352E+00 0. -1.
       -3    1    3    3    0  502 -0.15820960815E+04 -0.37147558313E+03  0.12718304546E+04  0.20636314680E+04  0.10100000352E+00 0.  1.
</event>
<event>
 5   0  0.4521737E-07  0.3396234E+04  0.7818609E-02  0.8138831E-01
        2   -1    0    0  501    0  0.00000000000E+00  0.00000000000E+00  0.18695721956E+04  0.18695721957E+04  0.25500000920E-02 0. -1.
       -2   -1    0    0    0  501  0.00000000000E+00  0.00000000000E+00 -0.15423854840E+04  0.15423854840E+04  0.25500000920E-02 0.  1.
    10030    2    1    2    0    0  0.00000000000E+00  0.00000000000E+00  0.32718671166E+03  0.34119576796E+04  0.33962338058E+04 0.  0.
        4    1    3    3  502    0  0.39821881527E+03  0.14915199033E+04  0.87425057735E+03  0.17741266955E+04  0.12699999809E+01 0. -1.
       -4    1    3    3    0  502 -0.39821881527E+03 -0.14915199033E+04 -0.54706386569E+03  0.16378309842E+04  0.12699999809E+01 0.  1.
</event>
<event>
 5   0  0.1520084E-07  0.3367911E+04  0.7818609E-02  0.8145827E-01
        1   -1    0    0  501    0  0.00000000000E+00  0.00000000000E+00  0.10917322894E+04  0.10917322894E+04  0.50400001928E-02 0.  1.
       -1   -1    0    0    0  501  0.00000000000E+00  0.00000000000E+00 -0.25974374895E+04  0.25974374895E+04  0.50400001928E-02 0. -1.
    10030    2    1    2    0    0  0.00000000000E+00  0.00000000000E+00 -0.15057052001E+04  0.36891697789E+04  0.33679111490E+04 0.  0.
        2    1    3    3  502    0  0.30018101231E+03 -0.15044053589E+04  0.79196698392E+01  0.15340817596E+04  0.25500000920E-02 0.  1.
       -2    1    3    3    0  502 -0.30018101231E+03  0.15044053589E+04 -0.15136248699E+04  0.21550880193E+04  0.25500000920E-02 0. -1.
</event>
<event>
 5   0  0.4486226E-07  0.3407881E+04  0.7818609E-02  0.8135975E-01
        2   -1    0    0  501    0  0.00000000000E+00  0.00000000000E+00  0.13580099334E+04  0.13580099334E+04  0.25500000920E-02 0.  1.
       -2   -1    0    0    0  501  0.00000000000E+00  0.00000000000E+00 -0.21379906324E+04  0.21379906324E+04  0.25500000920E-02 0. -1.
    10030    2    1    2    0    0  0.00000000000E+00  0.00000000000E+00 -0.77998069902E+03  0.34960005657E+04  0.34078805825E+04 0.  0.
        1    1    3    3  502    0 -0.73220636028E+03 -0.22959377332E+03 -0.19507016442E+04  0.20962052284E+04  0.50400001928E-02 0. -1.
       -1    1    3    3    0  502  0.73220636028E+03  0.22959377332E+03  0.11707209452E+04  0.13997953373E+04  0.50400001928E-02 0.  1.
</event>
<event>
 5   0  0.4521737E-07  0.3415877E+04  0.7818609E-02  0.8134021E-01
       -2   -1    0    0    0  501  0.00000000000E+00  0.00000000000E+00  0.18841623094E+04  0.18841623094E+04  0.25500000920E-02 0. -1.
        2   -1    0    0  501    0  0.00000000000E+00  0.00000000000E+00 -0.15481963395E+04  0.15481963395E+04  0.25500000920E-02 0.  1.
    10030    2    1    2    0    0  0.00000000000E+00  0.00000000000E+00  0.33596596986E+03  0.34323586489E+04  0.34158765730E+04 0.  0.
        4    1    3    3  502    0  0.13468655994E+04  0.60362434956E+03 -0.69560695146E+03  0.16316494544E+04  0.12699999809E+01 0.  1.
       -4    1    3    3    0  502 -0.13468655994E+04 -0.60362434956E+03  0.10315729213E+04  0.18007091945E+04  0.12699999809E+01 0. -1.
</event>
<event>
 5   0  0.4521737E-07  0.3427956E+04  0.7818609E-02  0.8131079E-01
        2   -1    0    0  501    0  0.00000000000E+00  0.00000000000E+00  0.21959207925E+04  0.21959207925E+04  0.25500000920E-02 0. -1.
       -2   -1    0    0    0  501  0.00000000000E+00  0.00000000000E+00 -0.13378082895E+04  0.13378082895E+04  0.25500000920E-02 0.  1.
    10030    2    1    2    0    0  0.00000000000E+00  0.00000000000E+00  0.85811250302E+03  0.35337290820E+04  0.34279562653E+04 0.  0.
        4    1    3    3  502    0  0.92877587655E+03 -0.12606289851E+03 -0.10502141015E+04  0.14076461754E+04  0.12699999809E+01 0.  1.
       -4    1    3    3    0  502 -0.92877587655E+03  0.12606289851E+03  0.19083266045E+04  0.21260829066E+04  0.12699999809E+01 0. -1.
</event>
<event>
 5   0  0.4396257E-07  0.3402701E+04  0.7818609E-02  0.8137244E-01
       -2   -1    0    0    0  501  0.00000000000E+00  0.00000000000E+00  0.18684902492E+04  0.18684902492E+04  0.25500000920E-02 0.  1.
        2   -1    0    0  501    0  0.00000000000E+00  0.00000000000E+00 -0.15491617121E+04  0.15491617121E+04  0.25500000920E-02 0. -1.
    10030    2    1    2    0    0  0.00000000000E+00  0.00000000000E+00  0.31932853707E+03  0.34176519613E+04  0.34027010174E+04 0.  0.
        2    1    3    3  502    0 -0.13252720333E+04 -0.66362181686E+03  0.99871115100E+03  0.17872223816E+04  0.25500000920E-02 0.  1.
       -2    1    3    3    0  502  0.13252720333E+04  0.66362181686E+03 -0.67938261393E+03  0.16304295797E+04  0.25500000920E-02 0. -1.
</event>
<event>
 5   0  0.4381939E-07  0.3410650E+04  0.7818609E-02  0.8135298E-01
       -2   -1    0    0    0  501  0.00000000000E+00  0.00000000000E+00  0.10640395956E+04  0.10640395956E+04  0.25500000920E-02 0. -1.
        2   -1    0    0  501    0  0.00000000000E+00  0.00000000000E+00 -0.27331055996E+04  0.27331055996E+04  0.25500000920E-02 0.  1.
    10030    2    1    2    0    0  0.00000000000E+00  0.00000000000E+00 -0.16690660040E+04  0.37971451952E+04  0.34106495433E+04 0.  0.
        3    1    3    3  502    0  0.15698689227E+04 -0.49366666898E+03 -0.33671903678E+03  0.16797544268E+04  0.10100000352E+00 0. -1.
       -3    1    3    3    0  502 -0.15698689227E+04  0.49366666898E+03 -0.13323469672E+04  0.21173907683E+04  0.10100000352E+00 0.  1.
</event>
<event>
 5   0  0.1435806E-07  0.3393183E+04  0.7818609E-02  0.8139582E-01
       -1   -1    0    0    0  501  0.00000000000E+00  0.00000000000E+00  0.17090434396E+04  0.17090434396E+04  0.50400001928E-02 0. -1.
        1   -1    0    0  501    0  0.00000000000E+00  0.00000000000E+00 -0.16842299536E+04  0.16842299536E+04  0.50400001928E-02 0.  1.
    10030    2    1    2    0    0  0.00000000000E+00  0.00000000000E+00  0.24813486007E+02  0.33932733931E+04  0.33931826670E+04 0.  0.
        3    1    3    3  502    0 -0.59121022585E+03 -0.51804071325E+03  0.15159516593E+04  0.17076314460E+04  0.10100000352E+00 0. -1.
       -3    1    3    3    0  502  0.59121022585E+03  0.51804071325E+03 -0.14911381733E+04  0.16856419471E+04  0.10100000352E+00 0.  1.
</event>
<event>
 5   0  0.1523259E-07  0.3405604E+04  0.7818609E-02  0.8136532E-01
       -1   -1    0    0    0  501  0.00000000000E+00  0.00000000000E+00  0.14775729474E+04  0.14775729474E+04  0.50400001928E-02 0. -1.
        1   -1    0    0  501    0  0.00000000000E+00  0.00000000000E+00 -0.19623634474E+04  0.19623634474E+04  0.50400001928E-02 0.  1.
    10030    2    1    2    0    0  0.00000000000E+00  0.00000000000E+00 -0.48479050001E+03  0.34399363948E+04  0.34056042888E+04 0.  0.
        4    1    3    3  502    0  0.13209789429E+04  0.80326099427E+03  0.47846581132E+03  0.16183771927E+04  0.12699999809E+01 0.  1.
       -4    1    3    3    0  502 -0.13209789429E+04 -0.80326099427E+03 -0.96325631133E+03  0.18215592021E+04  0.12699999809E+01 0. -1.
</event>
<event>
 5   0  0.4381939E-07  0.3404136E+04  0.7818609E-02  0.8136892E-01
       -2   -1    0    0    0  501  0.00000000000E+00  0.00000000000E+00  0.12026805334E+04  0.12026805334E+04  0.25500000920E-02 0.  1.
        2   -1    0    0  501    0  0.00000000000E+00  0.00000000000E+00 -0.24088151443E+04  0.24088151443E+04  0.25500000920E-02 0. -1.
    10030    2    1    2    0    0  0.00000000000E+00  0.00000000000E+00 -0.12061346109E+04  0.36114956778E+04  0.34041357686E+04 0.  0.
        3    1    3    3  502    0  0.10192738138E+03 -0.10835875172E+04 -0.19913997867E+04  0.22694105444E+04  0.10100000352E+00 0. -1.
       -3    1    3    3    0  502 -0.10192738138E+03  0.10835875172E+04  0.78526517582E+03  0.13420851333E+04  0.10100000352E+00 0.  1.
</event>
<event>
 5   0  0.4396257E-07  0.3386896E+04  0.7818609E-02  0.8141130E-01
        2   -1    0    0  501    0  0.00000000000E+00  0.00000000000E+00  0.29411847135E+04  0.29411847135E+04  0.25500000920E-02 0.  1.
       -2   -1    0    0    0  501  0.00000000000E+00  0.00000000000E+00 -0.97503768336E+03  0.97503768337E+03  0.25500000920E-02 0. -1.
    10030    2    1    2    0    0  0.00000000000E+00  0.00000000000E+00  0.19661470302E+04  0.39162223969E+04  0.33868958823E+04 0.  0.
        2    1    3    3  502    0  0.65832146626E+03 -0.14035412235E+04  0.17710901097E+04  0.23537364542E+04  0.25500000920E-02 0.  1.
       -2    1    3    3    0  502 -0.65832146626E+03  0.14035412235E+04  0.19505692041E+03  0.15624859427E+04  0.25500000920E-02 0. -1.
</event>
<event>
 5   0  0.1473755E-07  0.3297326E+04  0.7818609E-02  0.8163576E-01
        1   -1    0    0  501    0  0.00000000000E+00  0.00000000000E+00  0.18081870685E+04  0.18081870685E+04  0.50400001928E-02 0. -1.
       -1   -1    0    0    0  501  0.00000000000E+00  0.00000000000E+00 -0.15032125405E+04  0.15032125405E+04  0.50400001928E-02 0.  1.
    10030    2    1    2    0    0  0.00000000000E+00  0.00000000000E+00  0.30497452807E+03  0.33113996090E+04  0.32973258723E+04 0.  0.
        1    1    3    3  502    0  0.62711034188E+03  0.97775933643E+02  0.16805802818E+04  0.17964346907E+04  0.50400001928E-02 0. -1.
       -1    1    3    3    0  502 -0.62711034188E+03 -0.97775933643E+02 -0.13756057538E+04  0.15149649184E+04  0.50400001928E-02 0.  1.
</event>
<event>
 5   0  0.4486226E-07  0.3438124E+04  0.7818609E-02  0.8128612E-01
        2   -1    0    0  501    0  0.00000000000E+00  0.00000000000E+00  0.11167825517E+04  0.11167825517E+04  0.25500000920E-02 0. -1.
       -2   -1    0    0    0  501  0.00000000000E+00  0.00000000000E+00 -0.26461506752E+04  0.26461506752E+04  0.25500000920E-02 0.  1.
    10030    2    1    2    0    0  0.00000000000E+00  0.00000000000E+00 -0.15293681235E+04  0.37629332269E+04  0.34381244324E+04 0.  0.
        1    1    3    3  502    0 -0.13669381166E+04 -0.89431820503E+03 -0.13508659237E+04  0.21197083786E+04  0.50400001928E-02 0.  1.
       -1    1    3    3    0  502  0.13669381166E+04  0.89431820503E+03 -0.17850219980E+03  0.16432248483E+04  0.50400001928E-02 0. -1.
</event>
<event>
 5   0  0.1520084E-07  0.3405954E+04  0.7818609E-02  0.8136447E-01
       -1   -1    0    0    0  501  0.00000000000E+00  0.00000000000E+00  0.12320029986E+04  0.12320029986E+04  0.50400001928E-02 0. -1.
        1   -1    0    0  501    0  0.00000000000E+00  0.00000000000E+00 -0.23539960289E+04  0.23539960289E+04  0.50400001928E-02 0.  1.
    10030    2    1    2    0    0  0.00000000000E+00  0.00000000000E+00 -0.11219930303E+04  0.35859990275E+04  0.34059537086E+04 0.  0.
        2    1    3    3  502    0  0.10107059864E+04  0.55378577913E+03 -0.18810372136E+04  0.22060159290E+04  0.25500000920E-02 0.  1.
       -2    1    3    3    0  502 -0.10107059864E+04 -0.55378577913E+03  0.75904418324E+03  0.13799830985E+04  0.25500000920E-02 0. -1.
</event>
<event>
 5   0  0.4447909E-07  0.3400039E+04  0.7818609E-02  0.8137897E-01
       -2   -1    0    0    0  501  0.00000000000E+00  0.00000000000E+00  0.99194792373E+03  0.99194792374E+03  0.25500000920E-02 0. -1.
        2   -1    0    0  501    0  0.00000000000E+00  0.00000000000E+00 -0.29135265024E+04  0.29135265024E+04  0.25500000920E-02 0.  1.
    10030    2    1    2    0    0  0.00000000000E+00  0.00000000000E+00 -0.19215785786E+04  0.39054744261E+04  0.34000391555E+04 0.  0.
        5    1    3    3  502    0 -0.10875053259E+03  0.81414362786E+02 -0.29072742744E+04  0.29104502699E+04  0.46999998093E+01 0.  1.
       -5    1    3    3    0  502  0.10875053259E+03 -0.81414362786E+02  0.98569569577E+03  0.99502415622E+03  0.46999998093E+01 0. -1.
</event>
<event>
 5   0  0.1520084E-07  0.3396354E+04  0.7818609E-02  0.8138802E-01
        1   -1    0    0  501    0  0.00000000000E+00  0.00000000000E+00  0.20751916889E+04  0.20751916889E+04  0.50400001928E-02 0.  1.
       -1   -1    0    0    0  501  0.00000000000E+00  0.00000000000E+00 -0.13896575095E+04  0.13896575095E+04  0.50400001928E-02 0. -1.
    10030    2    1    2    0    0  0.00000000000E+00  0.00000000000E+00  0.68553417941E+03  0.34648491983E+04  0.33963543478E+04 0.  0.
        2    1    3    3  502    0  0.77330109038E+03 -0.10253605868E+04  0.14762305720E+04  0.19566848523E+04  0.25500000920E-02 0.  1.
       -2    1    3    3    0  502 -0.77330109038E+03  0.10253605868E+04 -0.79069639261E+03  0.15081643460E+04  0.25500000920E-02 0. -1.
</event>
<event>
 5   0  0.1435806E-07  0.3404370E+04  0.7818609E-02  0.8136835E-01
        1   -1    0    0  501    0  0.00000000000E+00  0.00000000000E+00  0.10964273031E+04  0.10964273032E+04  0.50400001928E-02 0.  1.
       -1   -1    0    0    0  501  0.00000000000E+00  0.00000000000E+00 -0.26426134083E+04  0.26426134083E+04  0.50400001928E-02 0. -1.
    10030    2    1    2    0    0  0.00000000000E+00  0.00000000000E+00 -0.15461861051E+04  0.37390407114E+04  0.34043698345E+04 0.  0.
        3    1    3    3  502    0  0.33490781913E+03 -0.15749710450E+04 -0.13793903841E+04  0.21202393454E+04  0.10100000352E+00 0.  1.
       -3    1    3    3    0  502 -0.33490781913E+03  0.15749710450E+04 -0.16679572099E+03  0.16188013660E+04  0.10100000352E+00 0. -1.
</event>
<event>
 5   0  0.1421875E-07  0.3402403E+04  0.7818609E-02  0.8137317E-01
       -1   -1    0    0    0  501  0.00000000000E+00  0.00000000000E+00  0.17304030936E+04  0.17304030936E+04  0.50400001928E-02 0.  1.
        1   -1    0    0  501    0  0.00000000000E+00  0.00000000000E+00 -0.16724926616E+04  0.16724926616E+04  0.50400001928E-02 0. -1.
    10030    2    1    2    0    0  0.00000000000E+00  0.00000000000E+00  0.57910432035E+02  0.34028957552E+04  0.34024029601E+04 0.  0.
        5    1    3    3  502    0 -0.12781364706E+04  0.25534193189E+03 -0.10644698156E+04  0.16828399858E+04  0.46999998093E+01 0. -1.
       -5    1    3    3    0  502  0.12781364706E+04 -0.25534193189E+03  0.11223802476E+04  0.17200557694E+04  0.46999998093E+01 0.  1.
</event>
<event>
 5   0  0.4486226E-07  0.3401576E+04  0.7818609E-02  0.8137520E-01
        2   -1    0    0  501    0  0.00000000000E+00  0.00000000000E+00  0.13310012687E+04  0.13310012687E+04  0.25500000920E-02 0. -1.
       -2   -1    0    0    0  501  0.00000000000E+00  0.00000000000E+00 -0.21733116897E+04  0.21733116897E+04  0.25500000920E-02 0.  1.
    10030    2    1    2    0    0  0.00000000000E+00  0.00000000000E+00 -0.84231042102E+03  0.35043129584E+04  0.34015764676E+04 0.  0.
        1    1    3    3  502    0 -0.13589140991E+04  0.96751121672E+03 -0.79545347940E+02  0.16700457914E+04  0.50400001928E-02 0. -1.
       -1    1    3    3    0  502  0.13589140991E+04 -0.96751121672E+03 -0.76276507308E+03  0.18342671670E+04  0.50400001928E-02 0.  1.
</event>
<event>
 5   0  0.1435806E-07  0.3407163E+04  0.7818609E-02  0.8136151E-01
        1   -1    0    0  501    0  0.00000000000E+00  0.00000000000E+00  0.15259792799E+04  0.15259792799E+04  0.50400001928E-02 0.  1.
       -1   -1    0    0    0  501  0.00000000000E+00  0.00000000000E+00 -0.19018536614E+04  0.19018536614E+04  0.50400001928E-02 0. -1.
    10030    2    1    2    0    0  0.00000000000E+00  0.00000000000E+00 -0.37587438148E+03  0.34278329414E+04  0.34071626206E+04 0.  0.
        3    1    3    3  502    0 -0.13434769446E+04  0.46040754360E+03 -0.11345405899E+04  0.18177149852E+04  0.10100000352E+00 0. -1.
       -3    1    3    3    0  502  0.13434769446E+04 -0.46040754360E+03  0.75866620842E+03  0.16101179562E+04  0.10100000352E+00 0.  1.
</event>
<event>
 5   0  0.4396257E-07  0.3400908E+04  0.7818609E-02  0.8137683E-01
       -2   -1    0    0    0  501  0.00000000000E+00  0.00000000000E+00  0.17159662144E+04  0.17159662144E+04  0.25500000920E-02 0. -1.
        2   -1    0    0  501    0  0.00000000000E+00  0.00000000000E+00 -0.16850825047E+04  0.16850825047E+04  0.25500000920E-02 0.  1.
    10030    2    1    2    0    0  0.00000000000E+00  0.00000000000E+00  0.30883709755E+02  0.34010487191E+04  0.34009084942E+04 0.  0.
        2    1    3    3  502    0  0.54700727718E+03 -0.15234650776E+04 -0.50552284844E+03  0.16957936650E+04  0.25500000920E-02 0.  1.
       -2    1    3    3    0  502 -0.54700727718E+03  0.15234650776E+04  0.53640655819E+03  0.17052550541E+04  0.25500000920E-02 0. -1.
</event>
<event>
 5   0  0.1523259E-07  0.3386004E+04  0.7818609E-02  0.8141350E-01
        1   -1    0    0  501    0  0.00000000000E+00  0.00000000000E+00  0.22890867474E+04  0.22890867474E+04  0.50400001928E-02 0. -1.
       -1   -1    0    0    0  501  0.00000000000E+00  0.00000000000E+00 -0.12521391436E+04  0.12521391436E+04  0.50400001928E-02 0.  1.
    10030    2    1    2    0    0  0.00000000000E+00  0.00000000000E+00  0.10369476038E+04  0.35412258910E+04  0.33860036146E+04 0.  0.
        4    1    3    3  502    0  0.28550762946E+03  0.13758846220E+04 -0.46910287627E+03  0.14814291144E+04  0.12699999809E+01 0.  1.
       -4    1    3    3    0  502 -0.28550762946E+03 -0.13758846220E+04  0.15060504800E+04  0.20597967766E+04  0.12699999809E+01 0. -1.
</event>
<event>
 5   0  0.1421875E-07  0.3412857E+04  0.7818609E-02  0.8134758E-01
       -1   -1    0    0    0  501  0.00000000000E+00  0.00000000000E+00  0.14277145647E+04  0.14277145647E+04  0.50400001928E-02 0. -1.
        1   -1    0    0  501    0  0.00000000000E+00  0.00000000000E+00 -0.20395524432E+04  0.20395524432E+04  0.50400001928E-02 0.  1.
    10030    2    1    2    0    0  0.00000000000E+00  0.00000000000E+00 -0.61183787851E+03  0.34672670080E+04  0.34128572948E+04 0.  0.
        5    1    3    3  502    0 -0.12994321364E+04 -0.99043673811E+03  0.19425903449E+03  0.16453715300E+04  0.46999998093E+01 0.  1.
       -5    1    3    3    0  502  0.12994321364E+04  0.99043673811E+03 -0.80609691300E+03  0.18218954779E+04  0.46999998093E+01 0. -1.
</event>
<event>
 5   0  0.4447909E-07  0.3376850E+04  0.7818609E-02  0.8143611E-01
       -2   -1    0    0    0  501  0.00000000000E+00  0.00000000000E+00  0.11310516191E+04  0.11310516191E+04  0.25500000920E-02 0. -1.
        2   -1    0    0  501    0  0.00000000000E+00  0.00000000000E+00 -0.25204680535E+04  0.25204680535E+04  0.25500000920E-02 0.  1.
    10030    2    1    2    0    0  0.00000000000E+00  0.00000000000E+00 -0.13894164344E+04  0.36515196726E+04  0.33768502915E+04 0.  0.
        5    1    3    3  502    0 -0.64561922521E+02 -0.10468607440E+04 -0.21254596721E+04  0.23701659366E+04  0.46999998093E+01 0.  1.
       -5    1    3    3    0  502  0.64561922521E+02  0.10468607440E+04  0.73604323772E+03  0.12813537360E+04  0.46999998093E+01 0. -1.
</event>
<event>
 5   0  0.1421875E-07  0.3418579E+04  0.7818609E-02  0.8133361E-01
        1   -1    0    0  501    0  0.00000000000E+00  0.00000000000E+00  0.21443922015E+04  0.21443922015E+04  0.50400001928E-02 0.  1.
       -1   -1    0    0    0  501  0.00000000000E+00  0.00000000000E+00 -0.13624704694E+04  0.13624704694E+04  0.50400001928E-02 0. -1.
    10030    2    1    2    0    0  0.00000000000E+00  0.00000000000E+00  0.78192173203E+03  0.35068626709E+04  0.34185792659E+04 0.  0.
        5    1    3    3  502    0 -0.47517851107E+03  0.15867373712E+04 -0.41979474592E+02  0.16568990521E+04  0.46999998093E+01 0. -1.
       -5    1    3    3    0  502  0.47517851107E+03 -0.15867373712E+04  0.82390120662E+03  0.18499636188E+04  0.46999998093E+01 0.  1.
</event>
<event>
 5   0  0.1520084E-07  0.3404361E+04  0.7818609E-02  0.8136837E-01
        1   -1    0    0  501    0  0.00000000000E+00  0.00000000000E+00  0.10241641946E+04  0.10241641946E+04  0.50400001928E-02 0.  1.
       -1   -1    0    0    0  501  0.00000000000E+00  0.00000000000E+00 -0.28290572390E+04  0.28290572390E+04  0.50400001928E-02 0. -1.
    10030    2    1    2    0    0  0.00000000000E+00  0.00000000000E+00 -0.18048930443E+04  0.38532214336E+04  0.34043613960E+04 0.  0.
        2    1    3    3  502    0  0.13794479867E+04 -0.95351876289E+03 -0.57179106394E+03  0.17717279137E+04  0.25500000920E-02 0.  1.
       -2    1    3    3    0  502 -0.13794479867E+04  0.95351876289E+03 -0.12331019804E+04  0.20814935199E+04  0.25500000920E-02 0. -1.
</event>
<event>
 5   0  0.4486226E-07  0.3402527E+04  0.7818609E-02  0.8137286E-01
        2   -1    0    0  501    0  0.00000000000E+00  0.00000000000E+00  0.23740252369E+04  0.23740252369E+04  0.25500000920E-02 0. -1.
       -2   -1    0    0    0  501  0.00000000000E+00  0.00000000000E+00 -0.12191517819E+04  0.12191517819E+04  0.25500000920E-02 0.  1.
    10030    2    1    2    0    0  0.00000000000E+00  0.00000000000E+00  0.11548734550E+04  0.35931770188E+04  0.34025267657E+04 0.  0.
        1    1    3    3  502    0 -0.51330051902E+03 -0.33366689289E+03 -0.10987910942E+04  0.12578365899E+04  0.50400001928E-02 0.  1.
       -1    1    3    3    0  502  0.51330051902E+03  0.33366689289E+03  0.22536645492E+04  0.23353404289E+04  0.50400001928E-02 0. -1.
</event>
<event>
 5   0  0.1473755E-07  0.3407002E+04  0.7818609E-02  0.8136190E-01
       -1   -1    0    0    0  501  0.00000000000E+00  0.00000000000E+00  0.17399802367E+04  0.17399802367E+04  0.50400001928E-02 0.  1.
        1   -1    0    0  501    0  0.00000000000E+00  0.00000000000E+00 -0.16677861730E+04  0.16677861730E+04  0.50400001928E-02 0. -1.
    10030    2    1    2    0    0  0.00000000000E+00  0.00000000000E+00  0.72194063700E+02  0.34077664097E+04  0.34070016026E+04 0.  0.
        1    1    3    3  502    0  0.16760797289E+04  0.19167348732E+03  0.27265170066E+03  0.17088946525E+04  0.50400001928E-02 0.  1.
       -1    1    3    3    0  502 -0.16760797289E+04 -0.19167348732E+03 -0.20045763696E+03  0.16988717572E+04  0.50400001928E-02 0. -1.
</event>
<event>
 5   0  0.4486226E-07  0.3401612E+04  0.7818609E-02  0.8137511E-01
       -2   -1    0    0    0  501  0.00000000000E+00  0.00000000000E+00  0.14427716238E+04  0.14427716238E+04  0.25500000920E-02 0.  1.
        2   -1    0    0  501    0  0.00000000000E+00  0.00000000000E+00 -0.20049887078E+04  0.20049887078E+04  0.25500000920E-02 0. -1.
    10030    2    1    2    0    0  0.00000000000E+00  0.00000000000E+00 -0.56221708404E+03  0.34477603316E+04  0.34016118613E+04 0.  0.
        1    1    3    3  502    0 -0.12806966940E+04  0.33982024773E+02 -0.14149458319E+04  0.19087719894E+04  0.50400001928E-02 0. -1.
       -1    1    3    3    0  502  0.12806966940E+04 -0.33982024773E+02  0.85272874791E+03  0.15389883422E+04  0.50400001928E-02 0.  1.
</event>
<event>
 5   0  0.4486226E-07  0.3406718E+04  0.7818609E-02  0.8136259E-01
       -2   -1    0    0    0  501  0.00000000000E+00  0.00000000000E+00  0.25498766024E+04  0.25498766024E+04  0.25500000920E-02 0. -1.
        2   -1    0    0  501    0  0.00000000000E+00  0.00000000000E+00 -0.11378716114E+04  0.11378716114E+04  0.25500000920E-02 0.  1.
    10030    2    1    2    0    0  0.00000000000E+00  0.00000000000E+00  0.14120049909E+04  0.36877482138E+04  0.34067181853E+04 0.  0.
        1    1    3    3  502    0  0.89585563487E+03  0.12392965588E+04  0.15182465610E+04  0.21548749150E+04  0.50400001928E-02 0. -1.
       -1    1    3    3    0  502 -0.89585563487E+03 -0.12392965588E+04 -0.10624157007E+03  0.15328732988E+04  0.50400001928E-02 0.  1.
</event>
<event>
 5   0  0.1523259E-07  0.3405968E+04  0.7818609E-02  0.8136443E-01
       -1   -1    0    0    0  501  0.00000000000E+00  0.00000000000E+00  0.20555084387E+04  0.20555084387E+04  0.50400001928E-02 0. -1.
        1   -1    0    0  501    0  0.00000000000E+00  0.00000000000E+00 -0.14109181762E+04  0.14109181762E+04  0.50400001928E-02 0.  1.
    10030    2    1    2    0    0  0.00000000000E+00  0.00000000000E+00  0.64459026250E+03  0.34664266149E+04  0.34059678316E+04 0.  0.
        4    1    3    3  502    0 -0.72382908299E+03 -0.89981830529E+03  0.15961318075E+04  0.19700862630E+04  0.12699999809E+01 0. -1.
       -4    1    3    3    0  502  0.72382908299E+03  0.89981830529E+03 -0.95154154501E+03  0.14963403519E+04  0.12699999809E+01 0.  1.
</event>
<event>
 5   0  0.1421875E-07  0.3376411E+04  0.7818609E-02  0.8143720E-01
        1   -1    0    0  501    0  0.00000000000E+00  0.00000000000E+00  0.13208923056E+04  0.13208923056E+04  0.50400001928E-02 0.  1.
       -1   -1    0    0    0  501  0.00000000000E+00  0.00000000000E+00 -0.21576603794E+04  0.21576603794E+04  0.50400001928E-02 0. -1.
    10030    2    1    2    0    0  0.00000000000E+00  0.00000000000E+00 -0.83676807382E+03  0.34785526850E+04  0.33764105161E+04 0.  0.
        5    1    3    3  502    0 -0.57027507667E+03 -0.15778123715E+04 -0.22479165343E+03  0.16927075708E+04  0.46999998093E+01 0.  1.
       -5    1    3    3    0  502  0.57027507667E+03  0.15778123715E+04 -0.61197642039E+03  0.17858451142E+04  0.46999998093E+01 0. -1.
</event>
<event>
 5   0  0.4521737E-07  0.3247300E+04  0.7818609E-02  0.8176436E-01
       -2   -1    0    0    0  501  0.00000000000E+00  0.00000000000E+00  0.25920868720E+04  0.25920868720E+04  0.25500000920E-02 0. -1.
        2   -1    0    0  501    0  0.00000000000E+00  0.00000000000E+00 -0.10170332737E+04  0.10170332737E+04  0.25500000920E-02 0.  1.
    10030    2    1    2    0    0  0.00000000000E+00  0.00000000000E+00  0.15750535983E+04  0.36091201457E+04  0.32472995532E+04 0.  0.
        4    1    3    3  502    0  0.64073905508E+03 -0.95651537652E+03  0.20599806245E+04  0.23598707567E+04  0.12699999809E+01 0. -1.
       -4    1    3    3    0  502 -0.64073905508E+03  0.95651537652E+03 -0.48492702615E+03  0.12492493890E+04  0.12699999809E+01 0.  1.
</event>
<event>
 5   0  0.1523259E-07  0.3401869E+04  0.7818609E-02  0.8137448E-01
       -1   -1    0    0    0  501  0.00000000000E+00  0.00000000000E+00  0.12140027997E+04  0.12140027997E+04  0.50400001928E-02 0.  1.
        1   -1    0    0  501    0  0.00000000000E+00  0.00000000000E+00 -0.23831727005E+04  0.23831727005E+04  0.50400001928E-02 0. -1.
    10030    2    1    2    0    0  0.00000000000E+00  0.00000000000E+00 -0.11691699008E+04  0.35971755002E+04  0.34018690925E+04 0.  0.
        4    1    3    3  502    0 -0.15655945360E+04  0.13829610176E+02  0.11833463001E+03  0.15701217172E+04  0.12699999809E+01 0. -1.
       -4    1    3    3    0  502  0.15655945360E+04 -0.13829610176E+02 -0.12875045308E+04  0.20270537830E+04  0.12699999809E+01 0.  1.
</event>
<event>
 5   0  0.1473755E-07  0.3400642E+04  0.7818609E-02  0.8137749E-01
       -1   -1    0    0    0  501  0.00000000000E+00  0.00000000000E+00  0.13826132624E+04  0.13826132624E+04  0.50400001928E-02 0. -1.
        1   -1    0    0  501    0  0.00000000000E+00  0.00000000000E+00 -0.20910336389E+04  0.20910336389E+04  0.50400001928E-02 0.  1.
    10030    2    1    2    0    0  0.00000000000E+00  0.00000000000E+00 -0.70842037646E+03  0.34736469013E+04  0.34006416108E+04 0.  0.
        1    1    3    3  502    0  0.14436101539E+04  0.84812973739E+03 -0.51613280447E+02  0.16751114167E+04  0.50400001928E-02 0. -1.
       -1    1    3    3    0  502 -0.14436101539E+04 -0.84812973739E+03 -0.65680709601E+03  0.17985354845E+04  0.50400001928E-02 0.  1.
</event>
<event>
 5   0  0.1421875E-07  0.3456372E+04  0.7818609E-02  0.8124208E-01
        1   -1    0    0  501    0  0.00000000000E+00  0.00000000000E+00  0.19422973413E+04  0.19422973413E+04  0.50400001928E-02 0.  1.
       -1   -1    0    0    0  501  0.00000000000E+00  0.00000000000E+00 -0.15376777955E+04  0.15376777956E+04  0.50400001928E-02 0. -1.
    10030    2    1    2    0    0  0.00000000000E+00  0.00000000000E+00  0.40461954573E+03  0.34799751368E+04  0.34563723723E+04 0.  0.
        5    1    3    3  502    0  0.75095857407E+03  0.13973952924E+03 -0.13584824986E+04  0.15585129788E+04  0.46999998093E+01 0. -1.
       -5    1    3    3    0  502 -0.75095857407E+03 -0.13973952924E+03  0.17631020444E+04  0.19214621580E+04  0.46999998093E+01 0.  1.
</event>
<event>
 5   0  0.4521737E-07  0.3443411E+04  0.7818609E-02  0.8127333E-01
       -2   -1    0    0    0  501  0.00000000000E+00  0.00000000000E+00  0.12324220663E+04  0.12324220663E+04  0.25500000920E-02 0.  1.
        2   -1    0    0  501    0  0.00000000000E+00  0.00000000000E+00 -0.24052385540E+04  0.24052385540E+04  0.25500000920E-02 0. -1.
    10030    2    1    2    0    0  0.00000000000E+00  0.00000000000E+00 -0.11728164877E+04  0.36376606203E+04  0.34434105585E+04 0.  0.
        4    1    3    3  502    0 -0.14201140210E+04 -0.82329777012E+03 -0.37760631706E+02  0.16419410858E+04  0.12699999809E+01 0.  1.
       -4    1    3    3    0  502  0.14201140210E+04  0.82329777012E+03 -0.11350558560E+04  0.19957195345E+04  0.12699999809E+01 0. -1.
</event>
<event>
 5   0  0.4396257E-07  0.3399904E+04  0.7818609E-02  0.8137930E-01
       -2   -1    0    0    0  501  0.00000000000E+00  0.00000000000E+00  0.13252751040E+04  0.13252751040E+04  0.25500000920E-02 0.  1.
        2   -1    0    0  501    0  0.00000000000E+00  0.00000000000E+00 -0.21805558329E+04  0.21805558329E+04  0.25500000920E-02 0. -1.
    10030    2    1    2    0    0  0.00000000000E+00  0.00000000000E+00 -0.85528072884E+03  0.35058309369E+04  0.33999037388E+04 0.  0.
        2    1    3    3  502    0  0.10256874505E+04  0.94593059163E+03  0.57370546288E+03  0.15086276507E+04  0.25500000920E-02 0.  1.
       -2    1    3    3    0  502 -0.10256874505E+04 -0.94593059163E+03 -0.14289861917E+04  0.19972032862E+04  0.25500000920E-02 0. -1.
</event>
<event>
 5   0  0.1421875E-07  0.3400753E+04  0.7818609E-02  0.8137722E-01
       -1   -1    0    0    0  501  0.00000000000E+00  0.00000000000E+00  0.20550912047E+04  0.20550912047E+04  0.50400001928E-02 0. -1.
        1   -1    0    0  501    0  0.00000000000E+00  0.00000000000E+00 -0.14068864829E+04  0.14068864829E+04  0.50400001928E-02 0.  1.
    10030    2    1    2    0    0  0.00000000000E+00  0.00000000000E+00  0.64820472183E+03  0.34619776877E+04  0.34007528796E+04 0.  0.
        5    1    3    3  502    0  0.15382100981E+03  0.36805682578E+03  0.20067762934E+04  0.20460449438E+04  0.46999998093E+01 0. -1.
       -5    1    3    3    0  502 -0.15382100981E+03 -0.36805682578E+03 -0.13585715716E+04  0.14159327439E+04  0.46999998093E+01 0.  1.
</event>
<event>
 5   0  0.1473755E-07  0.3388667E+04  0.7818609E-02  0.8140693E-01
        1   -1    0    0  501    0  0.00000000000E+00  0.00000000000E+00  0.21959233460E+04  0.21959233461E+04  0.50400001928E-02 0. -1.
       -1   -1    0    0    0  501  0.00000000000E+00  0.00000000000E+00 -0.13073163793E+04  0.13073163793E+04  0.50400001928E-02 0.  1.
    10030    2    1    2    0    0  0.00000000000E+00  0.00000000000E+00  0.88860696671E+03  0.35032397254E+04  0.33886673239E+04 0.  0.
        1    1    3    3  502    0  0.88553220565E+03 -0.36028782895E+03 -0.10018462063E+04  0.13847997790E+04  0.50400001928E-02 0.  1.
       -1    1    3    3    0  502 -0.88553220565E+03  0.36028782895E+03  0.18904531730E+04  0.21184399464E+04  0.50400001928E-02 0. -1.
</event>
<event>
 5   0  0.4381939E-07  0.3400411E+04  0.7818609E-02  0.8137805E-01
       -2   -1    0    0    0  501  0.00000000000E+00  0.00000000000E+00  0.13530633471E+04  0.13530633472E+04  0.25500000920E-02 0. -1.
        2   -1    0    0  501    0  0.00000000000E+00  0.00000000000E+00 -0.21364110269E+04  0.21364110269E+04  0.25500000920E-02 0.  1.
    10030    2    1    2    0    0  0.00000000000E+00  0.00000000000E+00 -0.78334767972E+03  0.34894743740E+04  0.34004114192E+04 0.  0.
        3    1    3    3  502    0  0.97398459991E+03 -0.54817944726E+02  0.10372953869E+04  0.14239496964E+04  0.10100000352E+00 0. -1.
       -3    1    3    3    0  502 -0.97398459991E+03  0.54817944726E+02 -0.18206430666E+04  0.20655246777E+04  0.10100000352E+00 0.  1.
</event>
<event>
 5   0  0.4521737E-07  0.3234638E+04  0.7818609E-02  0.8179729E-01
       -2   -1    0    0    0  501  0.00000000000E+00  0.00000000000E+00  0.14475481922E+04  0.14475481922E+04  0.25500000920E-02 0. -1.
        2   -1    0    0  501    0  0.00000000000E+00  0.00000000000E+00 -0.18070005824E+04  0.18070005824E+04  0.25500000920E-02 0.  1.
    10030    2    1    2    0    0  0.00000000000E+00  0.00000000000E+00 -0.35945239023E+03  0.32545487746E+04  0.32346378013E+04 0.  0.
        4    1    3    3  502    0  0.10568805100E+04  0.10279577556E+04  0.48921611860E+03  0.15533922825E+04  0.12699999809E+01 0. -1.
       -4    1    3    3    0  502 -0.10568805100E+04 -0.10279577556E+04 -0.84866850883E+03  0.17011564921E+04  0.12699999809E+01 0.  1.
</event>
<event>
 5   0  0.4521737E-07  0.3413888E+04  0.7818609E-02  0.8134506E-01
        2   -1    0    0  501    0  0.00000000000E+00  0.00000000000E+00  0.27397531363E+04  0.27397531363E+04  0.25500000920E-02 0.  1.
       -2   -1    0    0    0  501  0.00000000000E+00  0.00000000000E+00 -0.10634744458E+04  0.10634744458E+04  0.25500000920E-02 0. -1.
    10030    2    1    2    0    0  0.00000000000E+00  0.00000000000E+00  0.16762786905E+04  0.38032275822E+04  0.34138877828E+04 0.  0.
        4    1    3    3  502    0  0.76692299954E+03 -0.94413320264E+03  0.21722516922E+04  0.24896259596E+04  0.12699999809E+01 0.  1.
       -4    1    3    3    0  502 -0.76692299954E+03  0.94413320264E+03 -0.49597300168E+03  0.13136016226E+04  0.12699999809E+01 0. -1.
</event>
<event>
 5   0  0.1435806E-07  0.3390780E+04  0.7818609E-02  0.8140173E-01
       -1   -1    0    0    0  501  0.00000000000E+00  0.00000000000E+00  0.15298552619E+04  0.15298552619E+04  0.50400001928E-02 0. -1.
        1   -1    0    0  501    0  0.00000000000E+00  0.00000000000E+00 -0.18788355924E+04  0.18788355925E+04  0.50400001928E-02 0.  1.
    10030    2    1    2    0    0  0.00000000000E+00  0.00000000000E+00 -0.34898033057E+03  0.34086908543E+04  0.33907795666E+04 0.  0.
        3    1    3    3  502    0 -0.13597611773E+04 -0.23221444545E+03  0.81634933926E+03  0.16029036970E+04  0.10100000352E+00 0. -1.
       -3    1    3    3    0  502  0.13597611773E+04  0.23221444545E+03 -0.11653296698E+04  0.18057871573E+04  0.10100000352E+00 0.  1.
</event>
<event>
 5   0  0.1421875E-07  0.3402848E+04  0.7818609E-02  0.8137208E-01
       -1   -1    0    0    0  501  0.00000000000E+00  0.00000000000E+00  0.15932801326E+04  0.15932801326E+04  0.50400001928E-02 0. -1.
        1   -1    0    0  501    0  0.00000000000E+00  0.00000000000E+00 -0.18169081155E+04  0.18169081155E+04  0.50400001928E-02 0.  1.
    10030    2    1    2    0    0  0.00000000000E+00  0.00000000000E+00 -0.22362798290E+03  0.34101882481E+04  0.34028479856E+04 0.  0.
        5    1    3    3  502    0  0.45761038351E+03  0.82293861606E+03 -0.15319757151E+04  0.17982232649E+04  0.46999998093E+01 0.  1.
       -5    1    3    3    0  502 -0.45761038351E+03 -0.82293861606E+03  0.13083477322E+04  0.16119649832E+04  0.46999998093E+01 0. -1.
</event>
<event>
 5   0  0.1435806E-07  0.3407520E+04  0.7818609E-02  0.8136063E-01
       -1   -1    0    0    0  501  0.00000000000E+00  0.00000000000E+00  0.12311396508E+04  0.12311396508E+04  0.50400001928E-02 0. -1.
        1   -1    0    0  501    0  0.00000000000E+00  0.00000000000E+00 -0.23578143716E+04  0.23578143716E+04  0.50400001928E-02 0.  1.
    10030    2    1    2    0    0  0.00000000000E+00  0.00000000000E+00 -0.11266747207E+04  0.35889540224E+04  0.34075203666E+04 0.  0.
        3    1    3    3  502    0  0.16529423555E+04  0.18629685170E+03 -0.17510002104E+03  0.16725982707E+04  0.10100000352E+00 0. -1.
       -3    1    3    3    0  502 -0.16529423555E+04 -0.18629685170E+03 -0.95157469969E+03  0.19163557517E+04  0.10100000352E+00 0.  1.
</event>
<event>
 5   0  0.1520084E-07  0.3424433E+04  0.7818609E-02  0.8131936E-01
       -1   -1    0    0    0  501  0.00000000000E+00  0.00000000000E+00  0.13886297877E+04  0.13886297877E+04  0.50400001928E-02 0.  1.
        1   -1    0    0  501    0  0.00000000000E+00  0.00000000000E+00 -0.21112075656E+04  0.21112075656E+04  0.50400001928E-02 0. -1.
    10030    2    1    2    0    0  0.00000000000E+00  0.00000000000E+00 -0.72257777782E+03  0.34998373533E+04  0.34244332165E+04 0.  0.
        2    1    3    3  502    0 -0.15943779326E+04  0.60707563140E+03 -0.50975950642E+03  0.17805719779E+04  0.25500000920E-02 0.  1.
       -2    1    3    3    0  502  0.15943779326E+04 -0.60707563140E+03 -0.21281827140E+03  0.17192653754E+04  0.25500000920E-02 0. -1.
</event>
<event>
 5   0  0.4381939E-07  0.3407962E+04  0.7818609E-02  0.8135955E-01
       -2   -1    0    0    0  501  0.00000000000E+00  0.00000000000E+00  0.18059954401E+04  0.18059954402E+04  0.25500000920E-02 0.  1.
        2   -1    0    0  501    0  0.00000000000E+00  0.00000000000E+00 -0.16077286379E+04  0.16077286379E+04  0.25500000920E-02 0. -1.
    10030    2    1    2    0    0  0.00000000000E+00  0.00000000000E+00  0.19826680225E+03  0.34137240781E+04  0.34079616131E+04 0.  0.
        3    1    3    3  502    0  0.12280855897E+04  0.62127861112E+03  0.11055058906E+04  0.17653114775E+04  0.10100000352E+00 0.  1.
       -3    1    3    3    0  502 -0.12280855897E+04 -0.62127861112E+03 -0.90723908832E+03  0.16484126006E+04  0.10100000352E+00 0. -1.
</event>
<event>
 5   0  0.4381939E-07  0.3393963E+04  0.7818609E-02  0.8139390E-01
       -2   -1    0    0    0  501  0.00000000000E+00  0.00000000000E+00  0.22416859316E+04  0.22416859316E+04  0.25500000920E-02 0. -1.
        2   -1    0    0  501    0  0.00000000000E+00  0.00000000000E+00 -0.12846342927E+04  0.12846342927E+04  0.25500000920E-02 0.  1.
    10030    2    1    2    0    0  0.00000000000E+00  0.00000000000E+00  0.95705163884E+03  0.35263202243E+04  0.33939632416E+04 0.  0.
        3    1    3    3  502    0 -0.88350212539E+03 -0.63788105073E+03  0.18301330780E+04  0.21299895149E+04  0.10100000352E+00 0. -1.
       -3    1    3    3    0  502  0.88350212539E+03  0.63788105073E+03 -0.87308143912E+03  0.13963307094E+04  0.10100000352E+00 0.  1.
</event>
<event>
 5   0  0.1435806E-07  0.3397865E+04  0.7818609E-02  0.8138430E-01
        1   -1    0    0  501    0  0.00000000000E+00  0.00000000000E+00  0.16859333439E+04  0.16859333439E+04  0.50400001928E-02 0. -1.
       -1   -1    0    0    0  501  0.00000000000E+00  0.00000000000E+00 -0.17120319869E+04  0.17120319869E+04  0.50400001928E-02 0.  1.
    10030    2    1    2    0    0  0.00000000000E+00  0.00000000000E+00 -0.26098643020E+02  0.33979653309E+04  0.33978651019E+04 0.  0.
        3    1    3    3  502    0  0.14490347913E+04  0.48442204188E+03 -0.75604180307E+03  0.17046893439E+04  0.10100000352E+00 0.  1.
       -3    1    3    3    0  502 -0.14490347913E+04 -0.48442204188E+03  0.72994316005E+03  0.16932759870E+04  0.10100000352E+00 0. -1.
</event>
<event>
 5   0  0.4396257E-07  0.3403935E+04  0.7818609E-02  0.8136941E-01
       -2   -1    0    0    0  501  0.00000000000E+00  0.00000000000E+00  0.13393179852E+04  0.13393179852E+04  0.25500000920E-02 0.  1.
        2   -1    0    0  501    0  0.00000000000E+00  0.00000000000E+00 -0.21628117726E+04  0.21628117726E+04  0.25500000920E-02 0. -1.
    10030    2    1    2    0    0  0.00000000000E+00  0.00000000000E+00 -0.82349378737E+03  0.35021297578E+04  0.34039346090E+04 0.  0.
        2    1    3    3  502    0 -0.15937356561E+04 -0.46154337566E+03 -0.21764710745E+02  0.16593641348E+04  0.25500000920E-02 0.  1.
       -2    1    3    3    0  502  0.15937356561E+04  0.46154337566E+03 -0.80172907662E+03  0.18427656230E+04  0.25500000920E-02 0. -1.
</event>
<event>
 5   0  0.4486226E-07  0.3412644E+04  0.7818609E-02  0.8134810E-01
       -2   -1    0    0    0  501  0.00000000000E+00  0.00000000000E+00  0.17144834956E+04  0.17144834956E+04  0.25500000920E-02 0. -1.
        2   -1    0    0  501    0  0.00000000000E+00  0.00000000000E+00 -0.16981997107E+04  0.16981997107E+04  0.25500000920E-02 0.  1.
    10030    2    1    2    0    0  0.00000000000E+00  0.00000000000E+00  0.16283784904E+02  0.34126832064E+04  0.34126443567E+04 0.  0.
        1    1    3    3  502    0  0.99960133446E+02  0.16426117172E+04 -0.44282897670E+03  0.17041897736E+04  0.50400001928E-02 0. -1.
       -1    1    3    3    0  502 -0.99960133446E+02 -0.16426117172E+04  0.45911276160E+03  0.17084934328E+04  0.50400001928E-02 0.  1.
</event>
<event>
 5   0  0.4521737E-07  0.3400783E+04  0.7818609E-02  0.8137714E-01
       -2   -1    0    0    0  501  0.00000000000E+00  0.00000000000E+00  0.10751789555E+04  0.10751789555E+04  0.25500000920E-02 0. -1.
        2   -1    0    0  501    0  0.00000000000E+00  0.00000000000E+00 -0.26891628063E+04  0.26891628063E+04  0.25500000920E-02 0.  1.
    10030    2    1    2    0    0  0.00000000000E+00  0.00000000000E+00 -0.16139838508E+04  0.37643417618E+04  0.34007830024E+04 0.  0.
        4    1    3    3  502    0 -0.62672356713E+03  0.91297083739E+03 -0.22352982097E+04  0.24945656694E+04  0.12699999809E+01 0.  1.
       -4    1    3    3    0  502  0.62672356713E+03 -0.91297083739E+03  0.62131435889E+03  0.12697760925E+04  0.12699999809E+01 0. -1.
</event>
<event>
 5   0  0.1421875E-07  0.3400075E+04  0.7818609E-02  0.8137888E-01
        1   -1    0    0  501    0  0.00000000000E+00  0.00000000000E+00  0.19161795645E+04  0.19161795645E+04  0.50400001928E-02 0. -1.
       -1   -1    0    0    0  501  0.00000000000E+00  0.00000000000E+00 -0.15082757887E+04  0.15082757887E+04  0.50400001928E-02 0.  1.
    10030    2    1    2    0    0  0.00000000000E+00  0.00000000000E+00  0.40790377578E+03  0.34244553532E+04  0.34000748485E+04 0.  0.
        5    1    3    3  502    0  0.58949158297E+03 -0.55384327687E+02  0.18089714784E+04  0.19034094803E+04  0.46999998093E+01 0. -1.
       -5    1    3    3    0  502 -0.58949158297E+03  0.55384327687E+02 -0.14010677026E+04  0.15210458729E+04  0.46999998093E+01 0.  1.
</event>
<event>
 5   0  0.4486226E-07  0.3372375E+04  0.7818609E-02  0.8144720E-01
       -2   -1    0    0    0  501  0.00000000000E+00  0.00000000000E+00  0.15732749505E+04  0.15732749505E+04  0.25500000920E-02 0.  1.
        2   -1    0    0  501    0  0.00000000000E+00  0.00000000000E+00 -0.18072040503E+04  0.18072040503E+04  0.25500000920E-02 0. -1.
    10030    2    1    2    0    0  0.00000000000E+00  0.00000000000E+00 -0.23392909987E+03  0.33804790008E+04  0.33723753425E+04 0.  0.
        1    1    3    3  502    0 -0.87979210891E+03 -0.13396250296E+04 -0.64224616272E+03  0.17265889807E+04  0.50400001928E-02 0.  1.
       -1    1    3    3    0  502  0.87979210891E+03  0.13396250296E+04  0.40831706285E+03  0.16538900201E+04  0.50400001928E-02 0. -1.
</event>
<event>
 5   0  0.4381939E-07  0.3400607E+04  0.7818609E-02  0.8137757E-01
       -2   -1    0    0    0  501  0.00000000000E+00  0.00000000000E+00  0.11617478468E+04  0.11617478468E+04  0.25500000920E-02 0.  1.
        2   -1    0    0  501    0  0.00000000000E+00  0.00000000000E+00 -0.24885200058E+04  0.24885200058E+04  0.25500000920E-02 0. -1.
    10030    2    1    2    0    0  0.00000000000E+00  0.00000000000E+00 -0.13267721591E+04  0.36502678526E+04  0.34006074507E+04 0.  0.
        3    1    3    3  502    0  0.10464551737E+04 -0.11851881782E+04 -0.13348449837E+04  0.20691908054E+04  0.10100000352E+00 0. -1.
       -3    1    3    3    0  502 -0.10464551737E+04  0.11851881782E+04  0.80728246636E+01  0.15810770472E+04  0.10100000352E+00 0.  1.
</event>
<event>
 5   0  0.1523259E-07  0.3395430E+04  0.7818609E-02  0.8139029E-01
        1   -1    0    0  501    0  0.00000000000E+00  0.00000000000E+00  0.22337834348E+04  0.22337834348E+04  0.50400001928E-02 0. -1.
       -1   -1    0    0    0  501  0.00000000000E+00  0.00000000000E+00 -0.12902932974E+04  0.12902932974E+04  0.50400001928E-02 0.  1.
    10030    2    1    2    0    0  0.00000000000E+00  0.00000000000E+00  0.94349013744E+03  0.35240767322E+04  0.33954297482E+04 0.  0.
        4    1    3    3  502    0  0.74881018321E+03 -0.14015505566E+04 -0.14853844496E+03  0.15959717841E+04  0.12699999809E+01 0.  1.
       -4    1    3    3    0  502 -0.74881018321E+03  0.14015505566E+04  0.10920285824E+04  0.19281049481E+04  0.12699999809E+01 0. -1.
</event>
<event>
 5   0  0.4447909E-07  0.3393538E+04  0.7818609E-02  0.8139494E-01
       -2   -1    0    0    0  501  0.00000000000E+00  0.00000000000E+00  0.10945930638E+04  0.10945930638E+04  0.25500000920E-02 0. -1.
        2   -1    0    0  501    0  0.00000000000E+00  0.00000000000E+00 -0.26302236859E+04  0.26302236859E+04  0.25500000920E-02 0.  1.
    10030    2    1    2    0    0  0.00000000000E+00  0.00000000000E+00 -0.15356306220E+04  0.37248167497E+04  0.33935377427E+04 0.  0.
        5    1    3    3  502    0 -0.29765378706E+03  0.13567668810E+04  0.30178105935E+03  0.14214457584E+04  0.46999998093E+01 0. -1.
       -5    1    3    3    0  502  0.29765378706E+03 -0.13567668810E+04 -0.18374116814E+04  0.23033709912E+04  0.46999998093E+01 0.  1.
</event>
<event>
 5   0  0.4396257E-07  0.3411177E+04  0.7818609E-02  0.8135168E-01
        2   -1    0    0  501    0  0.00000000000E+00  0.00000000000E+00  0.20245902295E+04  0.20245902295E+04  0.25500000920E-02 0. -1.
       -2   -1    0    0    0  501  0.00000000000E+00  0.00000000000E+00 -0.14368500798E+04  0.14368500798E+04  0.25500000920E-02 0.  1.
    10030    2    1    2    0    0  0.00000000000E+00  0.00000000000E+00  0.58774014971E+03  0.34614403093E+04  0.34111772940E+04 0.  0.
        2    1    3    3  502    0 -0.10406857239E+04  0.95125457949E+03  0.12677620737E+04  0.18960835231E+04  0.25500000920E-02 0. -1.
       -2    1    3    3    0  502  0.10406857239E+04 -0.95125457949E+03 -0.68002192401E+03  0.15653567862E+04  0.25500000920E-02 0.  1.
</event>
<event>
 5   0  0.4396257E-07  0.3394353E+04  0.7818609E-02  0.8139294E-01
       -2   -1    0    0    0  501  0.00000000000E+00  0.00000000000E+00  0.12321536794E+04  0.12321536794E+04  0.25500000920E-02 0.  1.
        2   -1    0    0  501    0  0.00000000000E+00  0.00000000000E+00 -0.23377017993E+04  0.23377017993E+04  0.25500000920E-02 0. -1.
    10030    2    1    2    0    0  0.00000000000E+00  0.00000000000E+00 -0.11055481199E+04  0.35698554787E+04  0.33943528829E+04 0.  0.
        2    1    3    3  502    0 -0.95723363184E+03  0.36463592678E+03 -0.19759410972E+04  0.22256681704E+04  0.25500000920E-02 0. -1.
       -2    1    3    3    0  502  0.95723363184E+03 -0.36463592678E+03  0.87039297731E+03  0.13441873084E+04  0.25500000920E-02 0.  1.
</event>
<event>
 5   0  0.1435806E-07  0.3184474E+04  0.7818609E-02  0.8192930E-01
        1   -1    0    0  501    0  0.00000000000E+00  0.00000000000E+00  0.15493347704E+04  0.15493347704E+04  0.50400001928E-02 0.  1.
       -1   -1    0    0    0  501  0.00000000000E+00  0.00000000000E+00 -0.16363272256E+04  0.16363272256E+04  0.50400001928E-02 0. -1.
    10030    2    1    2    0    0  0.00000000000E+00  0.00000000000E+00 -0.86992455233E+02  0.31856619961E+04  0.31844740014E+04 0.  0.
        3    1    3    3  502    0 -0.46178161407E+03 -0.26089605735E+03 -0.15453589503E+04  0.16338431097E+04  0.10100000352E+00 0. -1.
       -3    1    3    3    0  502  0.46178161407E+03  0.26089605735E+03  0.14583664951E+04  0.15518188863E+04  0.10100000352E+00 0.  1.
</event>
<event>
 5   0  0.1520084E-07  0.3429769E+04  0.7818609E-02  0.8130638E-01
        1   -1    0    0  501    0  0.00000000000E+00  0.00000000000E+00  0.30585048861E+04  0.30585048861E+04  0.50400001928E-02 0.  1.
       -1   -1    0    0    0  501  0.00000000000E+00  0.00000000000E+00 -0.96152523933E+03  0.96152523935E+03  0.50400001928E-02 0. -1.
    10030    2    1    2    0    0  0.00000000000E+00  0.00000000000E+00  0.20969796467E+04  0.40200301254E+04  0.34297694632E+04 0.  0.
        2    1    3    3  502    0 -0.75711955917E+03 -0.14598952876E+04  0.47871773672E+03  0.17128032430E+04  0.25500000920E-02 0. -1.
       -2    1    3    3    0  502  0.75711955917E+03  0.14598952876E+04  0.16182619100E+04  0.23072268825E+04  0.25500000920E-02 0.  1.
</event>
<event>
 5   0  0.4486226E-07  0.3396292E+04  0.7818609E-02  0.8138817E-01
       -2   -1    0    0    0  501  0.00000000000E+00  0.00000000000E+00  0.12203332732E+04  0.12203332732E+04  0.25500000920E-02 0. -1.
        2   -1    0    0  501    0  0.00000000000E+00  0.00000000000E+00 -0.23630430196E+04  0.23630430196E+04  0.25500000920E-02 0.  1.
    10030    2    1    2    0    0  0.00000000000E+00  0.00000000000E+00 -0.11427097465E+04  0.35833762928E+04  0.33962921092E+04 0.  0.
        1    1    3    3  502    0 -0.50511266000E+03 -0.11410695053E+04 -0.17865458730E+04  0.21792027376E+04  0.50400001928E-02 0.  1.
       -1    1    3    3    0  502  0.50511266000E+03  0.11410695053E+04  0.64383612654E+03  0.14041735552E+04  0.50400001928E-02 0. -1.
</event>
<event>
 5   0  0.1520084E-07  0.3398720E+04  0.7818609E-02  0.8138220E-01
        1   -1    0    0  501    0  0.00000000000E+00  0.00000000000E+00  0.21437554440E+04  0.21437554440E+04  0.50400001928E-02 0. -1.
       -1   -1    0    0    0  501  0.00000000000E+00  0.00000000000E+00 -0.13470868549E+04  0.13470868549E+04  0.50400001928E-02 0.  1.
    10030    2    1    2    0    0  0.00000000000E+00  0.00000000000E+00  0.79666858913E+03  0.34908422989E+04  0.33987202172E+04 0.  0.
        2    1    3    3  502    0 -0.15700156716E+04  0.20072282121E+03 -0.23696636401E+03  0.16004349152E+04  0.25500000920E-02 0.  1.
       -2    1    3    3    0  502  0.15700156716E+04 -0.20072282121E+03  0.10336349531E+04  0.18904073837E+04  0.25500000920E-02 0. -1.
</event>
<event>
 5   0  0.1421875E-07  0.3402788E+04  0.7818609E-02  0.8137222E-01
       -1   -1    0    0    0  501  0.00000000000E+00  0.00000000000E+00  0.22163412175E+04  0.22163412175E+04  0.50400001928E-02 0. -1.
        1   -1    0    0  501    0  0.00000000000E+00  0.00000000000E+00 -0.13060899211E+04  0.13060899211E+04  0.50400001928E-02 0.  1.
    10030    2    1    2    0    0  0.00000000000E+00  0.00000000000E+00  0.91025129648E+03  0.35224311386E+04  0.34027876372E+04 0.  0.
        5    1    3    3  502    0  0.16500836611E+03 -0.85392469974E+03  0.19688345235E+04  0.21523816168E+04  0.46999998093E+01 0. -1.
       -5    1    3    3    0  502 -0.16500836611E+03  0.85392469974E+03 -0.10585832270E+04  0.13700495218E+04  0.46999998093E+01 0.  1.
</event>
<event>
 5   0  0.4447909E-07  0.3392770E+04  0.7818609E-02  0.8139683E-01
       -2   -1    0    0    0  501  0.00000000000E+00  0.00000000000E+00  0.15024839243E+04  0.15024839243E+04  0.25500000920E-02 0.  1.
        2   -1    0    0  501    0  0.00000000000E+00  0.00000000000E+00 -0.19153096246E+04  0.19153096246E+04  0.25500000920E-02 0. -1.
    10030    2    1    2    0    0  0.00000000000E+00  0.00000000000E+00 -0.41282570027E+03  0.34177935489E+04  0.33927699133E+04 0.  0.
        5    1    3    3  502    0  0.17954606410E+03 -0.61228833765E+03 -0.17898092409E+04  0.19001507851E+04  0.46999998093E+01 0. -1.
       -5    1    3    3    0  502 -0.17954606410E+03  0.61228833765E+03  0.13769835406E+04  0.15176427638E+04  0.46999998093E+01 0.  1.
</event>
<event>
 5   0  0.1520084E-07  0.3403441E+04  0.7818609E-02  0.8137062E-01
        1   -1    0    0  501    0  0.00000000000E+00  0.00000000000E+00  0.26224476724E+04  0.26224476724E+04  0.50400001928E-02 0.  1.
       -1   -1    0    0    0  501  0.00000000000E+00  0.00000000000E+00 -0.11042555579E+04  0.11042555579E+04  0.50400001928E-02 0. -1.
    10030    2    1    2    0    0  0.00000000000E+00  0.00000000000E+00  0.15181921145E+04  0.37267032303E+04  0.34034408575E+04 0.  0.
        2    1    3    3  502    0  0.56615262978E+03  0.14104707173E+04 -0.79044503354E+02  0.15219081700E+04  0.25500000920E-02 0. -1.
       -2    1    3    3    0  502 -0.56615262978E+03 -0.14104707173E+04  0.15972366178E+04  0.22047950603E+04  0.25500000920E-02 0.  1.
</event>
<event>
 5   0  0.1435806E-07  0.3401859E+04  0.7818609E-02  0.8137450E-01
       -1   -1    0    0    0  501  0.00000000000E+00  0.00000000000E+00  0.13109094439E+04  0.13109094439E+04  0.50400001928E-02 0. -1.
        1   -1    0    0  501    0  0.00000000000E+00  0.00000000000E+00 -0.22069879011E+04  0.22069879012E+04  0.50400001928E-02 0.  1.
    10030    2    1    2    0    0  0.00000000000E+00  0.00000000000E+00 -0.89607845724E+03  0.35178973451E+04  0.34018590695E+04 0.  0.
        3    1    3    3  502    0  0.10259552413E+04 -0.12670086085E+04 -0.94962673011E+03  0.18867129904E+04  0.10100000352E+00 0.  1.
       -3    1    3    3    0  502 -0.10259552413E+04  0.12670086085E+04  0.53548272870E+02  0.16311843547E+04  0.10100000352E+00 0. -1.
</event>
<event>
 5   0  0.1421875E-07  0.3371840E+04  0.7818609E-02  0.8144853E-01
        1   -1    0    0  501    0  0.00000000000E+00  0.00000000000E+00  0.20045139208E+04  0.20045139208E+04  0.50400001928E-02 0.  1.
       -1   -1    0    0    0  501  0.00000000000E+00  0.00000000000E+00 -0.14179625364E+04  0.14179625364E+04  0.50400001928E-02 0. -1.
    10030    2    1    2    0    0  0.00000000000E+00  0.00000000000E+00  0.58655138439E+03  0.34224764572E+04  0.33718396423E+04 0.  0.
        5    1    3    3  502    0  0.42578883326E+03 -0.16085782868E+04  0.56842469072E+03  0.17583938564E+04  0.46999998093E+01 0. -1.
       -5    1    3    3    0  502 -0.42578883326E+03  0.16085782868E+04  0.18126693669E+02  0.16640826008E+04  0.46999998093E+01 0.  1.
</event>
<event>
 5   0  0.4396257E-07  0.3408291E+04  0.7818609E-02  0.8135874E-01
       -2   -1    0    0    0  501  0.00000000000E+00  0.00000000000E+00  0.23590174446E+04  0.23590174446E+04  0.25500000920E-02 0. -1.
        2   -1    0    0  501    0  0.00000000000E+00  0.00000000000E+00 -0.12310682783E+04  0.12310682783E+04  0.25500000920E-02 0.  1.
    10030    2    1    2    0    0  0.00000000000E+00  0.00000000000E+00  0.11279491663E+04  0.35900857228E+04  0.34082907997E+04 0.  0.
        2    1    3    3  502    0  0.94999146633E+03 -0.18262070628E+03 -0.91381068645E+03  0.13307456854E+04  0.25500000920E-02 0.  1.
       -2    1    3    3    0  502 -0.94999146633E+03  0.18262070628E+03  0.20417598528E+04  0.22593400375E+04  0.25500000920E-02 0. -1.
</event>
<event>
 5   0  0.4486226E-07  0.3393983E+04  0.7818609E-02  0.8139385E-01
        2   -1    0    0  501    0  0.00000000000E+00  0.00000000000E+00  0.10325447424E+04  0.10325447424E+04  0.25500000920E-02 0.  1.
       -2   -1    0    0    0  501  0.00000000000E+00  0.00000000000E+00 -0.27890117443E+04  0.27890117443E+04  0.25500000920E-02 0. -1.
    10030    2    1    2    0    0  0.00000000000E+00  0.00000000000E+00 -0.17564670019E+04  0.38215564867E+04  0.33939825651E+04 0.  0.
        1    1    3    3  502    0 -0.62627561377E+02  0.11823639184E+04  0.49059550460E+03  0.12816359062E+04  0.50400001928E-02 0.  1.
       -1    1    3    3    0  502  0.62627561377E+02 -0.11823639184E+04 -0.22470625065E+04  0.25399205805E+04  0.50400001928E-02 0. -1.
</event>
<event>
 5   0  0.1435806E-07  0.3387509E+04  0.7818609E-02  0.8140979E-01
        1   -1    0    0  501    0  0.00000000000E+00  0.00000000000E+00  0.17505561342E+04  0.17505561342E+04  0.50400001928E-02 0. -1.
       -1   -1    0    0    0  501  0.00000000000E+00  0.00000000000E+00 -0.16387960318E+04  0.16387960318E+04  0.50400001928E-02 0.  1.
    10030    2    1    2    0    0  0.00000000000E+00  0.00000000000E+00  0.11176010235E+03  0.33893521660E+04  0.33875090826E+04 0.  0.
        3    1    3    3  502    0  0.75183351613E+03  0.79168048847E+02  0.15723838335E+04  0.17446811015E+04  0.10100000352E+00 0. -1.
       -3    1    3    3    0  502 -0.75183351613E+03 -0.79168048847E+02 -0.14606237312E+04  0.16446710644E+04  0.10100000352E+00 0.  1.
</event>
<event>
 5   0  0.4486226E-07  0.3404846E+04  0.7818609E-02  0.8136718E-01
        2   -1    0    0  501    0  0.00000000000E+00  0.00000000000E+00  0.22639538500E+04  0.22639538500E+04  0.25500000920E-02 0.  1.
       -2   -1    0    0    0  501  0.00000000000E+00  0.00000000000E+00 -0.12801694367E+04  0.12801694367E+04  0.25500000920E-02 0. -1.
    10030    2    1    2    0    0  0.00000000000E+00  0.00000000000E+00  0.98378441331E+03  0.35441232867E+04  0.34048462666E+04 0.  0.
        1    1    3    3  502    0  0.51481972381E+03 -0.11247438988E+04 -0.72563640746E+03  0.14340977588E+04  0.50400001928E-02 0. -1.
       -1    1    3    3    0  502 -0.51481972381E+03  0.11247438988E+04  0.17094208208E+04  0.21100255279E+04  0.50400001928E-02 0.  1.
</event>
<event>
 5   0  0.4486226E-07  0.3404866E+04  0.7818609E-02  0.8136713E-01
       -2   -1    0    0    0  501  0.00000000000E+00  0.00000000000E+00  0.16908589793E+04  0.16908589793E+04  0.25500000920E-02 0.  1.
        2   -1    0    0  501    0  0.00000000000E+00  0.00000000000E+00 -0.17140864770E+04  0.17140864770E+04  0.25500000920E-02 0. -1.
    10030    2    1    2    0    0  0.00000000000E+00  0.00000000000E+00 -0.23227497718E+02  0.34049454563E+04  0.34048662299E+04 0.  0.
        1    1    3    3  502    0  0.15526646273E+04  0.68556574403E+03 -0.14394474096E+03  0.17033754497E+04  0.50400001928E-02 0.  1.
       -1    1    3    3    0  502 -0.15526646273E+04 -0.68556574403E+03  0.12071724325E+03  0.17015700065E+04  0.50400001928E-02 0. -1.
</event>
<event>
 5   0  0.4447909E-07  0.3403653E+04  0.7818609E-02  0.8137010E-01
       -2   -1    0    0    0  501  0.00000000000E+00  0.00000000000E+00  0.12254013522E+04  0.12254013522E+04  0.25500000920E-02 0. -1.
        2   -1    0    0  501    0  0.00000000000E+00  0.00000000000E+00 -0.23634811493E+04  0.23634811493E+04  0.25500000920E-02 0.  1.
    10030    2    1    2    0    0  0.00000000000E+00  0.00000000000E+00 -0.11380797970E+04  0.35888825015E+04  0.34036527415E+04 0.  0.
        5    1    3    3  502    0  0.12783490274E+04 -0.11230049955E+04 -0.60022029345E+03  0.18043289463E+04  0.46999998093E+01 0. -1.
       -5    1    3    3    0  502 -0.12783490274E+04  0.11230049955E+04 -0.53785950358E+03  0.17845535552E+04  0.46999998093E+01 0.  1.
</event>
<event>
 5   0  0.4381939E-07  0.3429469E+04  0.7818609E-02  0.8130711E-01
        2   -1    0    0  501    0  0.00000000000E+00  0.00000000000E+00  0.23701969153E+04  0.23701969153E+04  0.25500000920E-02 0.  1.
       -2   -1    0    0    0  501  0.00000000000E+00  0.00000000000E+00 -0.12405355697E+04  0.12405355697E+04  0.25500000920E-02 0. -1.
    10030    2    1    2    0    0  0.00000000000E+00  0.00000000000E+00  0.11296613456E+04  0.36107324850E+04  0.34294685189E+04 0.  0.
        3    1    3    3  502    0  0.34249542296E+03 -0.62379005613E+03 -0.10777228831E+04  0.12914734886E+04  0.10100000352E+00 0. -1.
       -3    1    3    3    0  502 -0.34249542296E+03  0.62379005613E+03  0.22073842287E+04  0.23192589963E+04  0.10100000352E+00 0.  1.
</event>
<event>
 5   0  0.1473755E-07  0.3354155E+04  0.7818609E-02  0.8149251E-01
       -1   -1    0    0    0  501  0.00000000000E+00  0.00000000000E+00  0.11582711306E+04  0.11582711307E+04  0.50400001928E-02 0.  1.
        1   -1    0    0  501    0  0.00000000000E+00  0.00000000000E+00 -0.24282642038E+04  0.24282642038E+04  0.50400001928E-02 0. -1.
    10030    2    1    2    0    0  0.00000000000E+00  0.00000000000E+00 -0.12699930731E+04  0.35865353344E+04  0.33541546326E+04 0.  0.
        1    1    3    3  502    0 -0.69376934772E+03  0.20400645026E+03 -0.22529906697E+04  0.23661998008E+04  0.50400001928E-02 0. -1.
       -1    1    3    3    0  502  0.69376934772E+03 -0.20400645026E+03  0.98299759661E+03  0.12203355336E+04  0.50400001928E-02 0.  1.
</event>
<event>
 5   0  0.1473755E-07  0.3396202E+04  0.7818609E-02  0.8138839E-01
       -1   -1    0    0    0  501  0.00000000000E+00  0.00000000000E+00  0.11570313406E+04  0.11570313406E+04  0.50400001928E-02 0. -1.
        1   -1    0    0  501    0  0.00000000000E+00  0.00000000000E+00 -0.24921950131E+04  0.24921950131E+04  0.50400001928E-02 0.  1.
    10030    2    1    2    0    0  0.00000000000E+00  0.00000000000E+00 -0.13351636725E+04  0.36492263537E+04  0.33962024304E+04 0.  0.
        1    1    3    3  502    0 -0.99353345634E+03 -0.24436945769E+03 -0.21238086255E+04  0.23574113427E+04  0.50400001928E-02 0.  1.
       -1    1    3    3    0  502  0.99353345634E+03  0.24436945769E+03  0.78864495302E+03  0.12918150110E+04  0.50400001928E-02 0. -1.
</event>
<event>
 5   0  0.1435806E-07  0.3177075E+04  0.7818609E-02  0.8194898E-01
       -1   -1    0    0    0  501  0.00000000000E+00  0.00000000000E+00  0.16298280567E+04  0.16298280567E+04  0.50400001928E-02 0.  1.
        1   -1    0    0  501    0  0.00000000000E+00  0.00000000000E+00 -0.15482929880E+04  0.15482929881E+04  0.50400001928E-02 0. -1.
    10030    2    1    2    0    0  0.00000000000E+00  0.00000000000E+00  0.81535068649E+02  0.31781210448E+04  0.31770749767E+04 0.  0.
        3    1    3    3  502    0  0.23098524781E+03 -0.49620135967E+03 -0.14509918488E+04  0.15507892602E+04  0.10100000352E+00 0. -1.
       -3    1    3    3    0  502 -0.23098524781E+03  0.49620135967E+03  0.15325269175E+04  0.16273317845E+04  0.10100000352E+00 0.  1.
</event>
<event>
 5   0  0.4447909E-07  0.3418469E+04  0.7818609E-02  0.8133388E-01
       -2   -1    0    0    0  501  0.00000000000E+00  0.00000000000E+00  0.15116256932E+04  0.15116256932E+04  0.25500000920E-02 0. -1.
        2   -1    0    0  501    0  0.00000000000E+00  0.00000000000E+00 -0.19326755304E+04  0.19326755304E+04  0.25500000920E-02 0.  1.
    10030    2    1    2    0    0  0.00000000000E+00  0.00000000000E+00 -0.42104983715E+03  0.34443012236E+04  0.34184686562E+04 0.  0.
        5    1    3    3  502    0  0.15493116525E+04  0.59530966663E+03  0.20084917302E+03  0.16718620386E+04  0.46999998093E+01 0. -1.
       -5    1    3    3    0  502 -0.15493116525E+04 -0.59530966663E+03 -0.62189901017E+03  0.17724391850E+04  0.46999998093E+01 0.  1.
</event>
<event>
 5   0  0.4486226E-07  0.3406428E+04  0.7818609E-02  0.8136330E-01
       -2   -1    0    0    0  501  0.00000000000E+00  0.00000000000E+00  0.19222046642E+04  0.19222046642E+04  0.25500000920E-02 0.  1.
        2   -1    0    0  501    0  0.00000000000E+00  0.00000000000E+00 -0.15091726690E+04  0.15091726690E+04  0.25500000920E-02 0. -1.
    10030    2    1    2    0    0  0.00000000000E+00  0.00000000000E+00  0.41303199525E+03  0.34313773332E+04  0.34064284777E+04 0.  0.
        1    1    3    3  502    0  0.33601151525E+03 -0.14964911705E+04  0.95258155170E+03  0.18054919481E+04  0.50400001928E-02 0.  1.
       -1    1    3    3    0  502 -0.33601151525E+03  0.14964911705E+04 -0.53954955645E+03  0.16258853852E+04  0.50400001928E-02 0. -1.
</event>
<event>
 5   0  0.1421875E-07  0.3398173E+04  0.7818609E-02  0.8138355E-01
       -1   -1    0    0    0  501  0.00000000000E+00  0.00000000000E+00  0.17141663287E+04  0.17141663287E+04  0.50400001928E-02 0. -1.
        1   -1    0    0  501    0  0.00000000000E+00  0.00000000000E+00 -0.16841390902E+04  0.16841390902E+04  0.50400001928E-02 0.  1.
    10030    2    1    2    0    0  0.00000000000E+00  0.00000000000E+00  0.30027238455E+02  0.33983054189E+04  0.33981727568E+04 0.  0.
        5    1    3    3  502    0 -0.10836588651E+04 -0.13086421073E+04  0.11588513731E+02  0.16991224454E+04  0.46999998093E+01 0. -1.
       -5    1    3    3    0  502  0.10836588651E+04  0.13086421073E+04  0.18438724724E+02  0.16991829735E+04  0.46999998093E+01 0.  1.
</event>
<event>
 5   0  0.1421875E-07  0.3388574E+04  0.7818609E-02  0.8140716E-01
        1   -1    0    0  501    0  0.00000000000E+00  0.00000000000E+00  0.22634214249E+04  0.22634214249E+04  0.50400001928E-02 0. -1.
       -1   -1    0    0    0  501  0.00000000000E+00  0.00000000000E+00 -0.12682605535E+04  0.12682605535E+04  0.50400001928E-02 0.  1.
    10030    2    1    2    0    0  0.00000000000E+00  0.00000000000E+00  0.99516087136E+03  0.35316819784E+04  0.33885738057E+04 0.  0.
        5    1    3    3  502    0 -0.13712862765E+04  0.46450167541E+03 -0.41958313466E+03  0.15074017233E+04  0.46999998093E+01 0.  1.
       -5    1    3    3    0  502  0.13712862765E+04 -0.46450167541E+03  0.14147440060E+04  0.20242802551E+04  0.46999998093E+01 0. -1.
</event>
<event>
 5   0  0.4486226E-07  0.3361981E+04  0.7818609E-02  0.8147301E-01
        2   -1    0    0  501    0  0.00000000000E+00  0.00000000000E+00  0.21764528646E+04  0.21764528646E+04  0.25500000920E-02 0.  1.
       -2   -1    0    0    0  501  0.00000000000E+00  0.00000000000E+00 -0.12983187969E+04  0.12983187969E+04  0.25500000920E-02 0. -1.
    10030    2    1    2    0    0  0.00000000000E+00  0.00000000000E+00  0.87813406770E+03  0.34747716614E+04  0.33619813590E+04 0.  0.
        1    1    3    3  502    0  0.90487767190E+03  0.12355549401E+04 -0.27724269566E+03  0.15563621440E+04  0.50400001928E-02 0. -1.
       -1    1    3    3    0  502 -0.90487767190E+03 -0.12355549401E+04  0.11553767634E+04  0.19184095174E+04  0.50400001928E-02 0.  1.
</event>
<event>
 5   0  0.1435806E-07  0.3413299E+04  0.7818609E-02  0.8134650E-01
        1   -1    0    0  501    0  0.00000000000E+00  0.00000000000E+00  0.23475907696E+04  0.23475907697E+04  0.50400001928E-02 0.  1.
       -1   -1    0    0    0  501  0.00000000000E+00  0.00000000000E+00 -0.12406985235E+04  0.12406985235E+04  0.50400001928E-02 0. -1.
    10030    2    1    2    0    0  0.00000000000E+00  0.00000000000E+00  0.11068922462E+04  0.35882892931E+04  0.34132989331E+04 0.  0.
        3    1    3    3  502    0  0.12739207056E+04  0.24980544968E+03  0.17181134130E+04  0.21534136707E+04  0.10100000352E+00 0.  1.
       -3    1    3    3    0  502 -0.12739207056E+04 -0.24980544968E+03 -0.61122116684E+03  0.14348756224E+04  0.10100000352E+00 0. -1.
</event>
<event>
 5   0  0.1520084E-07  0.3373364E+04  0.7818609E-02  0.8144475E-01
        1   -1    0    0  501    0  0.00000000000E+00  0.00000000000E+00  0.24401461537E+04  0.24401461538E+04  0.50400001928E-02 0.  1.
       -1   -1    0    0    0  501  0.00000000000E+00  0.00000000000E+00 -0.11658711625E+04  0.11658711625E+04  0.50400001928E-02 0. -1.
    10030    2    1    2    0    0  0.00000000000E+00  0.00000000000E+00  0.12742749913E+04  0.36060173162E+04  0.33733639192E+04 0.  0.
        2    1    3    3  502    0 -0.46028770247E+03  0.49968482712E+03  0.22874196020E+04  0.23861764669E+04  0.25500000920E-02 0.  1.
       -2    1    3    3    0  502  0.46028770247E+03 -0.49968482712E+03 -0.10131446107E+04  0.12198408493E+04  0.25500000920E-02 0. -1.
</event>
<event>
 5   0  0.1523259E-07  0.3519455E+04  0.7818609E-02  0.8109195E-01
       -1   -1    0    0    0  501  0.00000000000E+00  0.00000000000E+00  0.11197565383E+04  0.11197565383E+04  0.50400001928E-02 0.  1.
        1   -1    0    0  501    0  0.00000000000E+00  0.00000000000E+00 -0.27654590500E+04  0.27654590500E+04  0.50400001928E-02 0. -1.
    10030    2    1    2    0    0  0.00000000000E+00  0.00000000000E+00 -0.16457025116E+04  0.38852155883E+04  0.35194549877E+04 0.  0.
        4    1    3    3  502    0 -0.26019882257E+03 -0.16529835694E+04 -0.22166164578E+03  0.16879554515E+04  0.12699999809E+01 0.  1.
       -4    1    3    3    0  502  0.26019882257E+03  0.16529835694E+04 -0.14240408659E+04  0.21972601368E+04  0.12699999809E+01 0. -1.
</event>
<event>
 5   0  0.1523259E-07  0.3382167E+04  0.7818609E-02  0.8142297E-01
        1   -1    0    0  501    0  0.00000000000E+00  0.00000000000E+00  0.21530282898E+04  0.21530282898E+04  0.50400001928E-02 0. -1.
       -1   -1    0    0    0  501  0.00000000000E+00  0.00000000000E+00 -0.13282516997E+04  0.13282516997E+04  0.50400001928E-02 0.  1.
    10030    2    1    2    0    0  0.00000000000E+00  0.00000000000E+00  0.82477659011E+03  0.34812799895E+04  0.33821670481E+04 0.  0.
        4    1    3    3  502    0 -0.10973541345E+04 -0.11808743922E+04  0.93835330637E+03  0.18652503765E+04  0.12699999809E+01 0.  1.
       -4    1    3    3    0  502  0.10973541345E+04  0.11808743922E+04 -0.11357671626E+03  0.16160296130E+04  0.12699999809E+01 0. -1.
</event>
<event>
 5   0  0.1473755E-07  0.3388819E+04  0.7818609E-02  0.8140656E-01
       -1   -1    0    0    0  501  0.00000000000E+00  0.00000000000E+00  0.18908125706E+04  0.18908125706E+04  0.50400001928E-02 0. -1.
        1   -1    0    0  501    0  0.00000000000E+00  0.00000000000E+00 -0.15184073976E+04  0.15184073976E+04  0.50400001928E-02 0.  1.
    10030    2    1    2    0    0  0.00000000000E+00  0.00000000000E+00  0.37240517302E+03  0.34092199682E+04  0.33888191422E+04 0.  0.
        1    1    3    3  502    0  0.53297384159E+03  0.11711429074E+04  0.12952852578E+04  0.18257603141E+04  0.50400001928E-02 0. -1.
       -1    1    3    3    0  502 -0.53297384159E+03 -0.11711429074E+04 -0.92288008479E+03  0.15834596541E+04  0.50400001928E-02 0.  1.
</event>
<event>
 5   0  0.1435806E-07  0.3410583E+04  0.7818609E-02  0.8135314E-01
       -1   -1    0    0    0  501  0.00000000000E+00  0.00000000000E+00  0.98818852117E+03  0.98818852119E+03  0.50400001928E-02 0. -1.
        1   -1    0    0  501    0  0.00000000000E+00  0.00000000000E+00 -0.29427775040E+04  0.29427775040E+04  0.50400001928E-02 0.  1.
    10030    2    1    2    0    0  0.00000000000E+00  0.00000000000E+00 -0.19545889828E+04  0.39309660252E+04  0.34105829119E+04 0.  0.
        3    1    3    3  502    0 -0.11452231826E+04  0.62467009307E+03  0.28858672525E+03  0.13360505871E+04  0.10100000352E+00 0. -1.
       -3    1    3    3    0  502  0.11452231826E+04 -0.62467009307E+03 -0.22431757080E+04  0.25949154380E+04  0.10100000352E+00 0.  1.
</event>
<event>
 5   0  0.1523259E-07  0.3384565E+04  0.7818609E-02  0.8141705E-01
        1   -1    0    0  501    0  0.00000000000E+00  0.00000000000E+00  0.24323469909E+04  0.24323469909E+04  0.50400001928E-02 0.  1.
       -1   -1    0    0    0  501  0.00000000000E+00  0.00000000000E+00 -0.11773894033E+04  0.11773894033E+04  0.50400001928E-02 0. -1.
    10030    2    1    2    0    0  0.00000000000E+00  0.00000000000E+00  0.12549575876E+04  0.36097363942E+04  0.33845647119E+04 0.  0.
        4    1    3    3  502    0  0.49905612736E+03 -0.36165135968E+02  0.23516485195E+04  0.24042914356E+04  0.12699999809E+01 0.  1.
       -4    1    3    3    0  502 -0.49905612736E+03  0.36165135968E+02 -0.10966909319E+04  0.12054449586E+04  0.12699999809E+01 0. -1.
</event>
<event>
 5   0  0.4381939E-07  0.3384393E+04  0.7818609E-02  0.8141747E-01
        2   -1    0    0  501    0  0.00000000000E+00  0.00000000000E+00  0.11235668510E+04  0.11235668510E+04  0.25500000920E-02 0. -1.
       -2   -1    0    0    0  501  0.00000000000E+00  0.00000000000E+00 -0.25486060588E+04  0.25486060588E+04  0.25500000920E-02 0.  1.
    10030    2    1    2    0    0  0.00000000000E+00  0.00000000000E+00 -0.14250392078E+04  0.36721729098E+04  0.33843931710E+04 0.  0.
        3    1    3    3  502    0 -0.12864424482E+04 -0.52437759207E+03  0.33588311781E+03  0.14292387871E+04  0.10100000352E+00 0. -1.
       -3    1    3    3    0  502  0.12864424482E+04  0.52437759207E+03 -0.17609223256E+04  0.22429341227E+04  0.10100000352E+00 0.  1.
</event>
<event>
 5   0  0.1520084E-07  0.3409322E+04  0.7818609E-02  0.8135622E-01
       -1   -1    0    0    0  501  0.00000000000E+00  0.00000000000E+00  0.18793773982E+04  0.18793773982E+04  0.50400001928E-02 0. -1.
        1   -1    0    0  501    0  0.00000000000E+00  0.00000000000E+00 -0.15461871717E+04  0.15461871717E+04  0.50400001928E-02 0.  1.
    10030    2    1    2    0    0  0.00000000000E+00  0.00000000000E+00  0.33319022644E+03  0.34255645699E+04  0.34093220581E+04 0.  0.
        2    1    3    3  502    0  0.47099644987E+03  0.15359326263E+04 -0.40615793917E+03  0.16570730098E+04  0.25500000920E-02 0. -1.
       -2    1    3    3    0  502 -0.47099644987E+03 -0.15359326263E+04  0.73934816561E+03  0.17684915601E+04  0.25500000920E-02 0.  1.
</event>
<event>
 5   0  0.1435806E-07  0.3403081E+04  0.7818609E-02  0.8137151E-01
       -1   -1    0    0    0  501  0.00000000000E+00  0.00000000000E+00  0.11859050696E+04  0.11859050696E+04  0.50400001928E-02 0.  1.
        1   -1    0    0  501    0  0.00000000000E+00  0.00000000000E+00 -0.24413759859E+04  0.24413759860E+04  0.50400001928E-02 0. -1.
    10030    2    1    2    0    0  0.00000000000E+00  0.00000000000E+00 -0.12554709164E+04  0.36272810555E+04  0.34030810502E+04 0.  0.
        3    1    3    3  502    0  0.14980222016E+04 -0.87652948007E+02  0.22728925241E+03  0.15177002241E+04  0.10100000352E+00 0.  1.
       -3    1    3    3    0  502 -0.14980222016E+04  0.87652948007E+02 -0.14827601688E+04  0.21095808314E+04  0.10100000352E+00 0. -1.
</event>
<event>
 5   0  0.1520084E-07  0.3409109E+04  0.7818609E-02  0.8135674E-01
       -1   -1    0    0    0  501  0.00000000000E+00  0.00000000000E+00  0.13617833385E+04  0.13617833385E+04  0.50400001928E-02 0. -1.
        1   -1    0    0  501    0  0.00000000000E+00  0.00000000000E+00 -0.21336043034E+04  0.21336043034E+04  0.50400001928E-02 0.  1.
    10030    2    1    2    0    0  0.00000000000E+00  0.00000000000E+00 -0.77182096487E+03  0.34953876419E+04  0.34091094388E+04 0.  0.
        2    1    3    3  502    0 -0.82912670005E+03 -0.72713602011E+03  0.94672542533E+03  0.14534328011E+04  0.25500000920E-02 0. -1.
       -2    1    3    3    0  502  0.82912670005E+03  0.72713602011E+03 -0.17185463902E+04  0.20419548408E+04  0.25500000920E-02 0.  1.
</event>
<event>
 5   0  0.4486226E-07  0.3411313E+04  0.7818609E-02  0.8135135E-01
       -2   -1    0    0    0  501  0.00000000000E+00  0.00000000000E+00  0.18744126784E+04  0.18744126784E+04  0.25500000920E-02 0.  1.
        2   -1    0    0  501    0  0.00000000000E+00  0.00000000000E+00 -0.15520934258E+04  0.15520934258E+04  0.25500000920E-02 0. -1.
    10030    2    1    2    0    0  0.00000000000E+00  0.00000000000E+00  0.32231925264E+03  0.34265061042E+04  0.34113127065E+04 0.  0.
        1    1    3    3  502    0  0.56459944884E+03  0.15720556822E+04 -0.18553265752E+03  0.16806409410E+04  0.50400001928E-02 0. -1.
       -1    1    3    3    0  502 -0.56459944884E+03 -0.15720556822E+04  0.50785191016E+03  0.17458651632E+04  0.50400001928E-02 0.  1.
</event>
<event>
 5   0  0.1473755E-07  0.3413946E+04  0.7818609E-02  0.8134492E-01
        1   -1    0    0  501    0  0.00000000000E+00  0.00000000000E+00  0.22519355211E+04  0.22519355211E+04  0.50400001928E-02 0.  1.
       -1   -1    0    0    0  501  0.00000000000E+00  0.00000000000E+00 -0.12938901727E+04  0.12938901727E+04  0.50400001928E-02 0. -1.
    10030    2    1    2    0    0  0.00000000000E+00  0.00000000000E+00  0.95804534840E+03  0.35458256939E+04  0.34139462447E+04 0.  0.
        1    1    3    3  502    0 -0.16776535059E+04 -0.21232198871E+03  0.23732008726E+03  0.17076073133E+04  0.50400001928E-02 0. -1.
       -1    1    3    3    0  502  0.16776535059E+04  0.21232198871E+03  0.72072526115E+03  0.18382183806E+04  0.50400001928E-02 0.  1.
</event>
<event>
 5   0  0.4396257E-07  0.3396570E+04  0.7818609E-02  0.8138749E-01
        2   -1    0    0  501    0  0.00000000000E+00  0.00000000000E+00  0.21494269145E+04  0.21494269145E+04  0.25500000920E-02 0.  1.
       -2   -1    0    0    0  501  0.00000000000E+00  0.00000000000E+00 -0.13418330109E+04  0.13418330109E+04  0.25500000920E-02 0. -1.
    10030    2    1    2    0    0  0.00000000000E+00  0.00000000000E+00  0.80759390368E+03  0.34912599254E+04  0.33965700278E+04 0.  0.
        2    1    3    3  502    0  0.11177744848E+04 -0.12530259028E+04  0.14238777480E+03  0.16851611170E+04  0.25500000920E-02 0.  1.
       -2    1    3    3    0  502 -0.11177744848E+04  0.12530259028E+04  0.66520612888E+03  0.18060988084E+04  0.25500000920E-02 0. -1.
</event>
<event>
 5   0  0.1421875E-07  0.3394392E+04  0.7818609E-02  0.8139284E-01
       -3   -1    0    0    0  501  0.00000000000E+00  0.00000000000E+00  0.16101812606E+04  0.16101812638E+04  0.10100000352E+00 0. -1.
        3   -1    0    0  501    0  0.00000000000E+00  0.00000000000E+00 -0.17889134554E+04  0.17889134583E+04  0.10100000352E+00 0.  1.
    10030    2    1    2    0    0  0.00000000000E+00  0.00000000000E+00 -0.17873219480E+03  0.33990947221E+04  0.33943923951E+04 0.  0.
        1    1    3    3  502    0  0.22725178383E+02 -0.29707578754E+03 -0.17625202007E+04  0.17875256404E+04  0.50400001928E-02 0.  1.
       -1    1    3    3    0  502 -0.22725178383E+02  0.29707578754E+03  0.15837880059E+04  0.16115690816E+04  0.50400001928E-02 0. -1.
</event>
<event>
 5   0  0.1473755E-07  0.3403650E+04  0.7818609E-02  0.8137011E-01
        1   -1    0    0  501    0  0.00000000000E+00  0.00000000000E+00  0.19899669251E+04  0.19899669251E+04  0.50400001928E-02 0. -1.
       -1   -1    0    0    0  501  0.00000000000E+00  0.00000000000E+00 -0.14554048812E+04  0.14554048812E+04  0.50400001928E-02 0.  1.
    10030    2    1    2    0    0  0.00000000000E+00  0.00000000000E+00  0.53456204393E+03  0.34453718063E+04  0.34036495567E+04 0.  0.
        1    1    3    3  502    0  0.17180569607E+03 -0.20618716674E+03  0.19684099540E+04  0.19866222822E+04  0.50400001928E-02 0. -1.
       -1    1    3    3    0  502 -0.17180569607E+03  0.20618716674E+03 -0.14338479101E+04  0.14587495242E+04  0.50400001928E-02 0.  1.
</event>
<event>
 5   0  0.1435806E-07  0.3391672E+04  0.7818609E-02  0.8139953E-01
        1   -1    0    0  501    0  0.00000000000E+00  0.00000000000E+00  0.22153049320E+04  0.22153049320E+04  0.50400001928E-02 0.  1.
       -1   -1    0    0    0  501  0.00000000000E+00  0.00000000000E+00 -0.12981775210E+04  0.12981775210E+04  0.50400001928E-02 0. -1.
    10030    2    1    2    0    0  0.00000000000E+00  0.00000000000E+00  0.91712741096E+03  0.35134824530E+04  0.33916716026E+04 0.  0.
        3    1    3    3  502    0 -0.51996120477E+03 -0.71982243924E+03 -0.10380928692E+04  0.13660676461E+04  0.10100000352E+00 0. -1.
       -3    1    3    3    0  502  0.51996120477E+03  0.71982243924E+03  0.19552202802E+04  0.21474148069E+04  0.10100000352E+00 0.  1.
</event>
<event>
 5   0  0.4381939E-07  0.3379826E+04  0.7818609E-02  0.8142875E-01
        2   -1    0    0  501    0  0.00000000000E+00  0.00000000000E+00  0.11550665314E+04  0.11550665314E+04  0.25500000920E-02 0. -1.
       -2   -1    0    0    0  501  0.00000000000E+00  0.00000000000E+00 -0.24724171364E+04  0.24724171364E+04  0.25500000920E-02 0.  1.
    10030    2    1    2    0    0  0.00000000000E+00  0.00000000000E+00 -0.13173506050E+04  0.36274836679E+04  0.33798262003E+04 0.  0.
        3    1    3    3  502    0  0.14664026364E+04 -0.78402398185E+03 -0.98204295215E+03  0.19311754623E+04  0.10100000352E+00 0. -1.
       -3    1    3    3    0  502 -0.14664026364E+04  0.78402398185E+03 -0.33530765289E+03  0.16963082056E+04  0.10100000352E+00 0.  1.
</event>
<event>
 5   0  0.4521737E-07  0.3393803E+04  0.7818609E-02  0.8139429E-01
        2   -1    0    0  501    0  0.00000000000E+00  0.00000000000E+00  0.18228459826E+04  0.18228459826E+04  0.25500000920E-02 0.  1.
       -2   -1    0    0    0  501  0.00000000000E+00  0.00000000000E+00 -0.15796590980E+04  0.15796590980E+04  0.25500000920E-02 0. -1.
    10030    2    1    2    0    0  0.00000000000E+00  0.00000000000E+00  0.24318688461E+03  0.34025050805E+04  0.33938033181E+04 0.  0.
        4    1    3    3  502    0 -0.23981254007E+03 -0.50489636819E+03 -0.14847141189E+04  0.15864450904E+04  0.12699999809E+01 0. -1.
       -4    1    3    3    0  502  0.23981254007E+03  0.50489636819E+03  0.17279010035E+04  0.18160599902E+04  0.12699999809E+01 0.  1.
</event>
<event>
 5   0  0.1473755E-07  0.3409821E+04  0.7818609E-02  0.8135500E-01
        1   -1    0    0  501    0  0.00000000000E+00  0.00000000000E+00  0.16930005954E+04  0.16930005954E+04  0.50400001928E-02 0.  1.
       -1   -1    0    0    0  501  0.00000000000E+00  0.00000000000E+00 -0.17169043211E+04  0.17169043211E+04  0.50400001928E-02 0. -1.
    10030    2    1    2    0    0  0.00000000000E+00  0.00000000000E+00 -0.23903725701E+02  0.34099049164E+04  0.34098211318E+04 0.  0.
        1    1    3    3  502    0 -0.11029102443E+04  0.12638616546E+04  0.29295356095E+03  0.17028150451E+04  0.50400001928E-02 0.  1.
       -1    1    3    3    0  502  0.11029102443E+04 -0.12638616546E+04 -0.31685728666E+03  0.17070898714E+04  0.50400001928E-02 0. -1.
</event>
<event>
 5   0  0.1421875E-07  0.3395410E+04  0.7818609E-02  0.8139034E-01
       -1   -1    0    0    0  501  0.00000000000E+00  0.00000000000E+00  0.26820101359E+04  0.26820101359E+04  0.50400001928E-02 0.  1.
        1   -1    0    0  501    0  0.00000000000E+00  0.00000000000E+00 -0.10746428259E+04  0.10746428260E+04  0.50400001928E-02 0. -1.
    10030    2    1    2    0    0  0.00000000000E+00  0.00000000000E+00  0.16073673099E+04  0.37566529618E+04  0.33954104033E+04 0.  0.
        5    1    3    3  502    0  0.67869200841E+03  0.10015918563E+03  0.25218087866E+04  0.26134644346E+04  0.46999998093E+01 0.  1.
       -5    1    3    3    0  502 -0.67869200841E+03 -0.10015918563E+03 -0.91444147663E+03  0.11431885273E+04  0.46999998093E+01 0. -1.
</event>
<event>
 5   0  0.4381939E-07  0.3398108E+04  0.7818609E-02  0.8138371E-01
        2   -1    0    0  501    0  0.00000000000E+00  0.00000000000E+00  0.15112119914E+04  0.15112119914E+04  0.25500000920E-02 0.  1.
       -2   -1    0    0    0  501  0.00000000000E+00  0.00000000000E+00 -0.19102442416E+04  0.19102442416E+04  0.25500000920E-02 0. -1.
    10030    2    1    2    0    0  0.00000000000E+00  0.00000000000E+00 -0.39903225020E+03  0.34214562330E+04  0.33981077113E+04 0.  0.
        3    1    3    3  502    0  0.48172234391E+03 -0.70741568847E+03 -0.16773512804E+04  0.18830827653E+04  0.10100000352E+00 0. -1.
       -3    1    3    3    0  502 -0.48172234391E+03  0.70741568847E+03  0.12783190302E+04  0.15383734677E+04  0.10100000352E+00 0.  1.
</event>
<event>
 5   0  0.1523259E-07  0.3406012E+04  0.7818609E-02  0.8136432E-01
        1   -1    0    0  501    0  0.00000000000E+00  0.00000000000E+00  0.12843166186E+04  0.12843166186E+04  0.50400001928E-02 0. -1.
       -1   -1    0    0    0  501  0.00000000000E+00  0.00000000000E+00 -0.22581883969E+04  0.22581883969E+04  0.50400001928E-02 0.  1.
    10030    2    1    2    0    0  0.00000000000E+00  0.00000000000E+00 -0.97387177833E+03  0.35425050155E+04  0.34060116771E+04 0.  0.
        4    1    3    3  502    0 -0.15130967285E+04  0.47818845497E+03  0.15597922528E+03  0.15945084007E+04  0.12699999809E+01 0. -1.
       -4    1    3    3    0  502  0.15130967285E+04 -0.47818845497E+03 -0.11298510036E+04  0.19479966149E+04  0.12699999809E+01 0.  1.
</event>
<event>
 5   0  0.4381939E-07  0.3401263E+04  0.7818609E-02  0.8137596E-01
       -2   -1    0    0    0  501  0.00000000000E+00  0.00000000000E+00  0.16685020396E+04  0.16685020396E+04  0.25500000920E-02 0. -1.
        2   -1    0    0  501    0  0.00000000000E+00  0.00000000000E+00 -0.17333801524E+04  0.17333801524E+04  0.25500000920E-02 0.  1.
    10030    2    1    2    0    0  0.00000000000E+00  0.00000000000E+00 -0.64878112781E+02  0.34018821920E+04  0.34012634827E+04 0.  0.
        3    1    3    3  502    0 -0.93635747891E+03  0.13929531807E+04 -0.30646775779E+03  0.17061671632E+04  0.10100000352E+00 0.  1.
       -3    1    3    3    0  502  0.93635747891E+03 -0.13929531807E+04  0.24158964501E+03  0.16957150288E+04  0.10100000352E+00 0. -1.
</event>
<event>
 5   0  0.1421875E-07  0.3405748E+04  0.7818609E-02  0.8136497E-01
        3   -1    0    0  501    0  0.00000000000E+00  0.00000000000E+00  0.16890380322E+04  0.16890380352E+04  0.10100000352E+00 0. -1.
       -3   -1    0    0    0  501  0.00000000000E+00  0.00000000000E+00 -0.17168234632E+04  0.17168234662E+04  0.10100000352E+00 0.  1.
    10030    2    1    2    0    0  0.00000000000E+00  0.00000000000E+00 -0.27785431005E+02  0.34058615014E+04  0.34057481610E+04 0.  0.
        4    1    3    3  502    0  0.16757238443E+04 -0.24522967791E+03 -0.19163586305E+03  0.17043808008E+04  0.12699999809E+01 0.  1.
       -4    1    3    3    0  502 -0.16757238443E+04  0.24522967791E+03  0.16385043205E+03  0.17014807005E+04  0.12699999809E+01 0. -1.
</event>
<event>
 5   0  0.1520084E-07  0.3387755E+04  0.7818609E-02  0.8140918E-01
       -1   -1    0    0    0  501  0.00000000000E+00  0.00000000000E+00  0.34378958373E+04  0.34378958373E+04  0.50400001928E-02 0. -1.
        1   -1    0    0  501    0  0.00000000000E+00  0.00000000000E+00 -0.83458660654E+03  0.83458660656E+03  0.50400001928E-02 0.  1.
    10030    2    1    2    0    0  0.00000000000E+00  0.00000000000E+00  0.26033092308E+04  0.42724824439E+04  0.33877554933E+04 0.  0.
        2    1    3    3  502    0 -0.65821284595E+03 -0.12309691754E+04  0.25117665533E+04  0.28735866925E+04  0.25500000920E-02 0. -1.
       -2    1    3    3    0  502  0.65821284595E+03  0.12309691754E+04  0.91542677446E+02  0.13988957513E+04  0.25500000920E-02 0.  1.
</event>
<event>
 5   0  0.4447909E-07  0.3410199E+04  0.7818609E-02  0.8135408E-01
       -2   -1    0    0    0  501  0.00000000000E+00  0.00000000000E+00  0.16403102724E+04  0.16403102724E+04  0.25500000920E-02 0.  1.
        2   -1    0    0  501    0  0.00000000000E+00  0.00000000000E+00 -0.17724473007E+04  0.17724473007E+04  0.25500000920E-02 0. -1.
    10030    2    1    2    0    0  0.00000000000E+00  0.00000000000E+00 -0.13213702827E+03  0.34127575731E+04  0.34101985365E+04 0.  0.
        5    1    3    3  502    0 -0.31060784216E+03 -0.16764556055E+04 -0.47059630782E+02  0.17056427901E+04  0.46999998093E+01 0. -1.
       -5    1    3    3    0  502  0.31060784216E+03  0.16764556055E+04 -0.85077397490E+02  0.17071147830E+04  0.46999998093E+01 0.  1.
</event>
<event>
 5   0  0.1473755E-07  0.3510274E+04  0.7818609E-02  0.8111359E-01
       -1   -1    0    0    0  501  0.00000000000E+00  0.00000000000E+00  0.22625721448E+04  0.22625721449E+04  0.50400001928E-02 0. -1.
        1   -1    0    0  501    0  0.00000000000E+00  0.00000000000E+00 -0.13615061484E+04  0.13615061484E+04  0.50400001928E-02 0.  1.
    10030    2    1    2    0    0  0.00000000000E+00  0.00000000000E+00  0.90106599645E+03  0.36240782933E+04  0.35102739987E+04 0.  0.
        1    1    3    3  502    0 -0.42727087471E+03 -0.16945770822E+04  0.28293076092E+03  0.17703676747E+04  0.50400001928E-02 0.  1.
       -1    1    3    3    0  502  0.42727087471E+03  0.16945770822E+04  0.61813523553E+03  0.18537106186E+04  0.50400001928E-02 0. -1.
</event>
<event>
 5   0  0.1473755E-07  0.3434155E+04  0.7818609E-02  0.8129574E-01
       -1   -1    0    0    0  501  0.00000000000E+00  0.00000000000E+00  0.23879775084E+04  0.23879775084E+04  0.50400001928E-02 0. -1.
        1   -1    0    0  501    0  0.00000000000E+00  0.00000000000E+00 -0.12346664682E+04  0.12346664683E+04  0.50400001928E-02 0.  1.
    10030    2    1    2    0    0  0.00000000000E+00  0.00000000000E+00  0.11533110402E+04  0.36226439767E+04  0.34341553585E+04 0.  0.
        1    1    3    3  502    0  0.11456452615E+04  0.91861460956E+02  0.19223756912E+04  0.22397477294E+04  0.50400001928E-02 0. -1.
       -1    1    3    3    0  502 -0.11456452615E+04 -0.91861460956E+02 -0.76906465102E+03  0.13828962473E+04  0.50400001928E-02 0.  1.
</event>
<event>
 5   0  0.4381939E-07  0.3425115E+04  0.7818609E-02  0.8131770E-01
       -2   -1    0    0    0  501  0.00000000000E+00  0.00000000000E+00  0.12354703206E+04  0.12354703206E+04  0.25500000920E-02 0. -1.
        2   -1    0    0  501    0  0.00000000000E+00  0.00000000000E+00 -0.23738756379E+04  0.23738756379E+04  0.25500000920E-02 0.  1.
    10030    2    1    2    0    0  0.00000000000E+00  0.00000000000E+00 -0.11384053173E+04  0.36093459585E+04  0.34251148275E+04 0.  0.
        3    1    3    3  502    0  0.16490831952E+04 -0.11125630873E+03 -0.10416472716E+04  0.19536843142E+04  0.10100000352E+00 0.  1.
       -3    1    3    3    0  502 -0.16490831952E+04  0.11125630873E+03 -0.96758045736E+02  0.16556616443E+04  0.10100000352E+00 0. -1.
</event>
<event>
 5   0  0.1523259E-07  0.3391224E+04  0.7818609E-02  0.8140064E-01
       -1   -1    0    0    0  501  0.00000000000E+00  0.00000000000E+00  0.15049018251E+04  0.15049018251E+04  0.50400001928E-02 0.  1.
        1   -1    0    0  501    0  0.00000000000E+00  0.00000000000E+00 -0.19104896923E+04  0.19104896923E+04  0.50400001928E-02 0. -1.
    10030    2    1    2    0    0  0.00000000000E+00  0.00000000000E+00 -0.40558786712E+03  0.34153915174E+04  0.33912236286E+04 0.  0.
        4    1    3    3  502    0  0.10318974711E+04  0.69599401037E+03 -0.13624676352E+04  0.18454104485E+04  0.12699999809E+01 0. -1.
       -4    1    3    3    0  502 -0.10318974711E+04 -0.69599401037E+03  0.95687976810E+03  0.15699810690E+04  0.12699999809E+01 0.  1.
</event>
<event>
 5   0  0.1473755E-07  0.3248013E+04  0.7818609E-02  0.8176251E-01
       -1   -1    0    0    0  501  0.00000000000E+00  0.00000000000E+00  0.19938429304E+04  0.19938429304E+04  0.50400001928E-02 0. -1.
        1   -1    0    0  501    0  0.00000000000E+00  0.00000000000E+00 -0.13227710941E+04  0.13227710941E+04  0.50400001928E-02 0.  1.
    10030    2    1    2    0    0  0.00000000000E+00  0.00000000000E+00  0.67107183629E+03  0.33166140245E+04  0.32480134202E+04 0.  0.
        1    1    3    3  502    0 -0.82535610914E+03  0.59478228392E+03 -0.95706713473E+03  0.13967663271E+04  0.50400001928E-02 0.  1.
       -1    1    3    3    0  502  0.82535610914E+03 -0.59478228392E+03  0.16281389710E+04  0.19198476974E+04  0.50400001928E-02 0. -1.
</event>
<event>
 5   0  0.4447909E-07  0.3405593E+04  0.7818609E-02  0.8136535E-01
        2   -1    0    0  501    0  0.00000000000E+00  0.00000000000E+00  0.26101477235E+04  0.26101477235E+04  0.25500000920E-02 0.  1.
       -2   -1    0    0    0  501  0.00000000000E+00  0.00000000000E+00 -0.11108629304E+04  0.11108629304E+04  0.25500000920E-02 0. -1.
    10030    2    1    2    0    0  0.00000000000E+00  0.00000000000E+00  0.14992847932E+04  0.37210106539E+04  0.34055932516E+04 0.  0.
        5    1    3    3  502    0  0.11315859737E+04 -0.87845651312E+03 -0.25611277661E+03  0.14552623494E+04  0.46999998093E+01 0. -1.
       -5    1    3    3    0  502 -0.11315859737E+04  0.87845651312E+03  0.17553975698E+04  0.22657483045E+04  0.46999998093E+01 0.  1.
</event>
<event>
 5   0  0.1421875E-07  0.3390253E+04  0.7818609E-02  0.8140303E-01
        1   -1    0    0  501    0  0.00000000000E+00  0.00000000000E+00  0.22665108990E+04  0.22665108990E+04  0.50400001928E-02 0.  1.
       -1   -1    0    0    0  501  0.00000000000E+00  0.00000000000E+00 -0.12677870983E+04  0.12677870983E+04  0.50400001928E-02 0. -1.
    10030    2    1    2    0    0  0.00000000000E+00  0.00000000000E+00  0.99872380069E+03  0.35342979973E+04  0.33902526607E+04 0.  0.
        5    1    3    3  502    0 -0.47935117877E+02 -0.54880416039E+03  0.21705803319E+04  0.22394027885E+04  0.46999998093E+01 0.  1.
       -5    1    3    3    0  502  0.47935117877E+02  0.54880416039E+03 -0.11718565312E+04  0.12948952088E+04  0.46999998093E+01 0. -1.
</event>
<event>
 5   0  0.4381939E-07  0.3414973E+04  0.7818609E-02  0.8134241E-01
       -2   -1    0    0    0  501  0.00000000000E+00  0.00000000000E+00  0.13175388866E+04  0.13175388866E+04  0.25500000920E-02 0.  1.
        2   -1    0    0  501    0  0.00000000000E+00  0.00000000000E+00 -0.22128454806E+04  0.22128454806E+04  0.25500000920E-02 0. -1.
    10030    2    1    2    0    0  0.00000000000E+00  0.00000000000E+00 -0.89530659402E+03  0.35303843672E+04  0.34149728964E+04 0.  0.
        3    1    3    3  502    0  0.11577948298E+04 -0.45077921856E+03  0.76317668683E+03  0.14581253161E+04  0.10100000352E+00 0.  1.
       -3    1    3    3    0  502 -0.11577948298E+04  0.45077921856E+03 -0.16584832809E+04  0.20722590511E+04  0.10100000352E+00 0. -1.
</event>
<event>
 5   0  0.1520084E-07  0.3402012E+04  0.7818609E-02  0.8137413E-01
        1   -1    0    0  501    0  0.00000000000E+00  0.00000000000E+00  0.14591663932E+04  0.14591663932E+04  0.50400001928E-02 0.  1.
       -1   -1    0    0    0  501  0.00000000000E+00  0.00000000000E+00 -0.19829273568E+04  0.19829273568E+04  0.50400001928E-02 0. -1.
    10030    2    1    2    0    0  0.00000000000E+00  0.00000000000E+00 -0.52376096357E+03  0.34420937500E+04  0.34020117337E+04 0.  0.
        2    1    3    3  502    0  0.76975890753E+03  0.82753086595E+03  0.10243505018E+04  0.15253294924E+04  0.25500000920E-02 0.  1.
       -2    1    3    3    0  502 -0.76975890753E+03 -0.82753086595E+03 -0.15481114654E+04  0.19167642576E+04  0.25500000920E-02 0. -1.
</event>
<event>
 5   0  0.1523259E-07  0.3401982E+04  0.7818609E-02  0.8137420E-01
       -1   -1    0    0    0  501  0.00000000000E+00  0.00000000000E+00  0.16342037062E+04  0.16342037062E+04  0.50400001928E-02 0.  1.
        1   -1    0    0  501    0  0.00000000000E+00  0.00000000000E+00 -0.17705072725E+04  0.17705072725E+04  0.50400001928E-02 0. -1.
    10030    2    1    2    0    0  0.00000000000E+00  0.00000000000E+00 -0.13630356634E+03  0.34047109787E+04  0.34019815088E+04 0.  0.
        4    1    3    3  502    0 -0.72347906999E+03 -0.14398136695E+04  0.47715468601E+03  0.16805247915E+04  0.12699999809E+01 0.  1.
       -4    1    3    3    0  502  0.72347906999E+03  0.14398136695E+04 -0.61345825235E+03  0.17241861872E+04  0.12699999809E+01 0. -1.
</event>
<event>
 5   0  0.1473755E-07  0.3298920E+04  0.7818609E-02  0.8163170E-01
       -1   -1    0    0    0  501  0.00000000000E+00  0.00000000000E+00  0.14579779744E+04  0.14579779744E+04  0.50400001928E-02 0.  1.
        1   -1    0    0  501    0  0.00000000000E+00  0.00000000000E+00 -0.18660903049E+04  0.18660903049E+04  0.50400001928E-02 0. -1.
    10030    2    1    2    0    0  0.00000000000E+00  0.00000000000E+00 -0.40811233050E+03  0.33240682792E+04  0.32989201643E+04 0.  0.
        1    1    3    3  502    0  0.49940299832E+03 -0.15261833720E+04 -0.58386396173E+03  0.17086650244E+04  0.50400001928E-02 0. -1.
       -1    1    3    3    0  502 -0.49940299832E+03  0.15261833720E+04  0.17575163123E+03  0.16154032548E+04  0.50400001928E-02 0.  1.
</event>
<event>
 5   0  0.1523259E-07  0.3418159E+04  0.7818609E-02  0.8133464E-01
       -1   -1    0    0    0  501  0.00000000000E+00  0.00000000000E+00  0.11750247190E+04  0.11750247190E+04  0.50400001928E-02 0. -1.
        1   -1    0    0  501    0  0.00000000000E+00  0.00000000000E+00 -0.24858649640E+04  0.24858649640E+04  0.50400001928E-02 0.  1.
    10030    2    1    2    0    0  0.00000000000E+00  0.00000000000E+00 -0.13108402450E+04  0.36608896830E+04  0.34181590254E+04 0.  0.
        4    1    3    3  502    0 -0.80317023219E+03 -0.77804583832E+03  0.72884527382E+03  0.13347864228E+04  0.12699999809E+01 0. -1.
       -4    1    3    3    0  502  0.80317023219E+03  0.77804583832E+03 -0.20396855189E+04  0.23261032602E+04  0.12699999809E+01 0.  1.
</event>
<event>
 5   0  0.4396257E-07  0.3363602E+04  0.7818609E-02  0.8146898E-01
        2   -1    0    0  501    0  0.00000000000E+00  0.00000000000E+00  0.27629868237E+04  0.27629868237E+04  0.25500000920E-02 0.  1.
       -2   -1    0    0    0  501  0.00000000000E+00  0.00000000000E+00 -0.10236943177E+04  0.10236943177E+04  0.25500000920E-02 0. -1.
    10030    2    1    2    0    0  0.00000000000E+00  0.00000000000E+00  0.17392925060E+04  0.37866811414E+04  0.33636015883E+04 0.  0.
        2    1    3    3  502    0 -0.10893107163E+03  0.53845835347E+03  0.26591259563E+04  0.27152816113E+04  0.25500000920E-02 0.  1.
       -2    1    3    3    0  502  0.10893107163E+03 -0.53845835347E+03 -0.91983345031E+03  0.10713995301E+04  0.25500000920E-02 0. -1.
</event>
<event>
 5   0  0.4486226E-07  0.3413400E+04  0.7818609E-02  0.8134625E-01
        2   -1    0    0  501    0  0.00000000000E+00  0.00000000000E+00  0.18716636281E+04  0.18716636281E+04  0.25500000920E-02 0. -1.
       -2   -1    0    0    0  501  0.00000000000E+00  0.00000000000E+00 -0.15562761209E+04  0.15562761209E+04  0.25500000920E-02 0.  1.
    10030    2    1    2    0    0  0.00000000000E+00  0.00000000000E+00  0.31538750716E+03  0.34279397490E+04  0.34134003051E+04 0.  0.
        1    1    3    3  502    0 -0.52104618222E+03 -0.99942383436E+03  0.14447487279E+04  0.18323853338E+04  0.50400001928E-02 0. -1.
       -1    1    3    3    0  502  0.52104618222E+03  0.99942383436E+03 -0.11293612208E+04  0.15955544152E+04  0.50400001928E-02 0.  1.
</event>
<event>
 5   0  0.4381939E-07  0.3410477E+04  0.7818609E-02  0.8135340E-01
        2   -1    0    0  501    0  0.00000000000E+00  0.00000000000E+00  0.32025104474E+04  0.32025104474E+04  0.25500000920E-02 0.  1.
       -2   -1    0    0    0  501  0.00000000000E+00  0.00000000000E+00 -0.90798703522E+03  0.90798703522E+03  0.25500000920E-02 0. -1.
    10030    2    1    2    0    0  0.00000000000E+00  0.00000000000E+00  0.22945234121E+04  0.41104974826E+04  0.34104767798E+04 0.  0.
        3    1    3    3  502    0  0.96479489428E+03 -0.12377138848E+04  0.19513337569E+04  0.25040903118E+04  0.10100000352E+00 0.  1.
       -3    1    3    3    0  502 -0.96479489428E+03  0.12377138848E+04  0.34318965528E+03  0.16064071708E+04  0.10100000352E+00 0. -1.
</event>
<event>
 5   0  0.4486226E-07  0.3392901E+04  0.7818609E-02  0.8139651E-01
       -2   -1    0    0    0  501  0.00000000000E+00  0.00000000000E+00  0.12821103205E+04  0.12821103205E+04  0.25500000920E-02 0.  1.
        2   -1    0    0  501    0  0.00000000000E+00  0.00000000000E+00 -0.22446925579E+04  0.22446925579E+04  0.25500000920E-02 0. -1.
    10030    2    1    2    0    0  0.00000000000E+00  0.00000000000E+00 -0.96258223733E+03  0.35268028784E+04  0.33929005260E+04 0.  0.
        1    1    3    3  502    0  0.34338847516E+03 -0.13693906814E+04  0.49646801845E+03  0.14965383311E+04  0.50400001928E-02 0.  1.
       -1    1    3    3    0  502 -0.34338847516E+03  0.13693906814E+04 -0.14590502558E+04  0.20302645473E+04  0.50400001928E-02 0. -1.
</event>
<event>
 5   0  0.4521737E-07  0.3409082E+04  0.7818609E-02  0.8135681E-01
        2   -1    0    0  501    0  0.00000000000E+00  0.00000000000E+00  0.21555785010E+04  0.21555785010E+04  0.25500000920E-02 0.  1.
       -2   -1    0    0    0  501  0.00000000000E+00  0.00000000000E+00 -0.13478795764E+04  0.13478795764E+04  0.25500000920E-02 0. -1.
    10030    2    1    2    0    0  0.00000000000E+00  0.00000000000E+00  0.80769892466E+03  0.35034580774E+04  0.34090821268E+04 0.  0.
        4    1    3    3  502    0  0.38618197383E+03 -0.15950130675E+04  0.87731552772E+03  0.18608834865E+04  0.12699999809E+01 0. -1.
       -4    1    3    3    0  502 -0.38618197383E+03  0.15950130675E+04 -0.69616603056E+02  0.16425745909E+04  0.12699999809E+01 0.  1.
</event>
<event>
 5   0  0.1435806E-07  0.3432186E+04  0.7818609E-02  0.8130052E-01
       -1   -1    0    0    0  501  0.00000000000E+00  0.00000000000E+00  0.19484957713E+04  0.19484957713E+04  0.50400001928E-02 0.  1.
        1   -1    0    0  501    0  0.00000000000E+00  0.00000000000E+00 -0.15114096195E+04  0.15114096196E+04  0.50400001928E-02 0. -1.
    10030    2    1    2    0    0  0.00000000000E+00  0.00000000000E+00  0.43708615174E+03  0.34599053909E+04  0.34321860395E+04 0.  0.
        3    1    3    3  502    0  0.74509831462E+03 -0.86347091574E+03 -0.10740850268E+04  0.15666563682E+04  0.10100000352E+00 0. -1.
       -3    1    3    3    0  502 -0.74509831462E+03  0.86347091574E+03  0.15111711786E+04  0.18932490227E+04  0.10100000352E+00 0.  1.
</event>
<event>
 5   0  0.1473755E-07  0.3401493E+04  0.7818609E-02  0.8137540E-01
       -1   -1    0    0    0  501  0.00000000000E+00  0.00000000000E+00  0.15220789151E+04  0.15220789151E+04  0.50400001928E-02 0. -1.
        1   -1    0    0  501    0  0.00000000000E+00  0.00000000000E+00 -0.19003872598E+04  0.19003872598E+04  0.50400001928E-02 0.  1.
    10030    2    1    2    0    0  0.00000000000E+00  0.00000000000E+00 -0.37830834468E+03  0.34224661749E+04  0.34014934242E+04 0.  0.
        1    1    3    3  502    0 -0.14861092283E+04  0.57868708194E+03  0.40536974872E+03  0.16455163356E+04  0.50400001928E-02 0. -1.
       -1    1    3    3    0  502  0.14861092283E+04 -0.57868708194E+03 -0.78367809340E+03  0.17769498393E+04  0.50400001928E-02 0.  1.
</event>
<event>
 5   0  0.1421875E-07  0.3397834E+04  0.7818609E-02  0.8138438E-01
       -3   -1    0    0    0  501  0.00000000000E+00  0.00000000000E+00  0.22964650493E+04  0.22964650515E+04  0.10100000352E+00 0.  1.
        3   -1    0    0  501    0  0.00000000000E+00  0.00000000000E+00 -0.12568526278E+04  0.12568526319E+04  0.10100000352E+00 0. -1.
    10030    2    1    2    0    0  0.00000000000E+00  0.00000000000E+00  0.10396124215E+04  0.35533176834E+04  0.33978335116E+04 0.  0.
        3    1    3    3  502    0  0.26164540607E+03 -0.16749687422E+04  0.40363963230E+03  0.17426713887E+04  0.10100000352E+00 0. -1.
       -3    1    3    3    0  502 -0.26164540607E+03  0.16749687422E+04  0.63597278917E+03  0.18106462948E+04  0.10100000352E+00 0.  1.
</event>
<event>
 5   0  0.1473755E-07  0.3405377E+04  0.7818609E-02  0.8136588E-01
       -1   -1    0    0    0  501  0.00000000000E+00  0.00000000000E+00  0.14433714286E+04  0.14433714286E+04  0.50400001928E-02 0. -1.
        1   -1    0    0  501    0  0.00000000000E+00  0.00000000000E+00 -0.20085949822E+04  0.20085949822E+04  0.50400001928E-02 0.  1.
    10030    2    1    2    0    0  0.00000000000E+00  0.00000000000E+00 -0.56522355363E+03  0.34519664108E+04  0.34053772825E+04 0.  0.
        1    1    3    3  502    0  0.41862055003E+03  0.14533717928E+04  0.51014634800E+03  0.15961773177E+04  0.50400001928E-02 0. -1.
       -1    1    3    3    0  502 -0.41862055003E+03 -0.14533717928E+04 -0.10753699016E+04  0.18557890932E+04  0.50400001928E-02 0.  1.
</event>
<event>
 5   0  0.1523259E-07  0.3397858E+04  0.7818609E-02  0.8138432E-01
        1   -1    0    0  501    0  0.00000000000E+00  0.00000000000E+00  0.15324314877E+04  0.15324314877E+04  0.50400001928E-02 0.  1.
       -1   -1    0    0    0  501  0.00000000000E+00  0.00000000000E+00 -0.18835165400E+04  0.18835165400E+04  0.50400001928E-02 0. -1.
    10030    2    1    2    0    0  0.00000000000E+00  0.00000000000E+00 -0.35108505225E+03  0.34159480277E+04  0.33978581804E+04 0.  0.
        4    1    3    3  502    0  0.16219818805E+04 -0.33089507722E+03 -0.55973105905E+03  0.17474602268E+04  0.12699999809E+01 0.  1.
       -4    1    3    3    0  502 -0.16219818805E+04  0.33089507722E+03  0.20864600681E+03  0.16684878009E+04  0.12699999809E+01 0. -1.
</event>
<event>
 5   0  0.1435806E-07  0.3415526E+04  0.7818609E-02  0.8134106E-01
       -1   -1    0    0    0  501  0.00000000000E+00  0.00000000000E+00  0.15641867383E+04  0.15641867383E+04  0.50400001928E-02 0. -1.
        1   -1    0    0  501    0  0.00000000000E+00  0.00000000000E+00 -0.18645177796E+04  0.18645177796E+04  0.50400001928E-02 0.  1.
    10030    2    1    2    0    0  0.00000000000E+00  0.00000000000E+00 -0.30033104131E+03  0.34287045180E+04  0.34155257190E+04 0.  0.
        3    1    3    3  502    0 -0.54195064440E+03  0.13100206792E+04  0.80565817454E+03  0.16306286473E+04  0.10100000352E+00 0. -1.
       -3    1    3    3    0  502  0.54195064440E+03 -0.13100206792E+04 -0.11059892159E+04  0.17980758707E+04  0.10100000352E+00 0.  1.
</event>
<event>
 5   0  0.4521737E-07  0.3403391E+04  0.7818609E-02  0.8137075E-01
        2   -1    0    0  501    0  0.00000000000E+00  0.00000000000E+00  0.11147461450E+04  0.11147461450E+04  0.25500000920E-02 0. -1.
       -2   -1    0    0    0  501  0.00000000000E+00  0.00000000000E+00 -0.25976917482E+04  0.25976917482E+04  0.25500000920E-02 0.  1.
    10030    2    1    2    0    0  0.00000000000E+00  0.00000000000E+00 -0.14829456032E+04  0.37124378932E+04  0.34033905813E+04 0.  0.
        4    1    3    3  502    0 -0.18303517232E+03  0.11713571571E+04 -0.20730538715E+04  0.23881234120E+04  0.12699999809E+01 0.  1.
       -4    1    3    3    0  502  0.18303517232E+03 -0.11713571571E+04  0.59010826830E+03  0.13243144812E+04  0.12699999809E+01 0. -1.
</event>
<event>
 5   0  0.1520084E-07  0.3388153E+04  0.7818609E-02  0.8140820E-01
        1   -1    0    0  501    0  0.00000000000E+00  0.00000000000E+00  0.19638370644E+04  0.19638370644E+04  0.50400001928E-02 0.  1.
       -1   -1    0    0    0  501  0.00000000000E+00  0.00000000000E+00 -0.14613713268E+04  0.14613713268E+04  0.50400001928E-02 0. -1.
    10030    2    1    2    0    0  0.00000000000E+00  0.00000000000E+00  0.50246573761E+03  0.34252083912E+04  0.33881529932E+04 0.  0.
        2    1    3    3  502    0  0.15518123641E+03 -0.51294839995E+03  0.18758865208E+04  0.19509350363E+04  0.25500000920E-02 0.  1.
       -2    1    3    3    0  502 -0.15518123641E+03  0.51294839995E+03 -0.13734207832E+04  0.14742733549E+04  0.25500000920E-02 0. -1.
</event>
<event>
 5   0  0.1435806E-07  0.3419146E+04  0.7818609E-02  0.8133223E-01
       -1   -1    0    0    0  501  0.00000000000E+00  0.00000000000E+00  0.17907063439E+04  0.17907063439E+04  0.50400001928E-02 0.  1.
        1   -1    0    0  501    0  0.00000000000E+00  0.00000000000E+00 -0.16321153087E+04  0.16321153087E+04  0.50400001928E-02 0. -1.
    10030    2    1    2    0    0  0.00000000000E+00  0.00000000000E+00  0.15859103518E+03  0.34228216526E+04  0.34191456461E+04 0.  0.
        3    1    3    3  502    0 -0.82572781129E+03 -0.14904861996E+04 -0.59647426218E+02  0.17049731245E+04  0.10100000352E+00 0. -1.
       -3    1    3    3    0  502  0.82572781129E+03  0.14904861996E+04  0.21823846139E+03  0.17178485282E+04  0.10100000352E+00 0.  1.
</event>
<event>
 5   0  0.4447909E-07  0.3406588E+04  0.7818609E-02  0.8136291E-01
        2   -1    0    0  501    0  0.00000000000E+00  0.00000000000E+00  0.10759116990E+04  0.10759116990E+04  0.25500000920E-02 0.  1.
       -2   -1    0    0    0  501  0.00000000000E+00  0.00000000000E+00 -0.26965130317E+04  0.26965130317E+04  0.25500000920E-02 0. -1.
    10030    2    1    2    0    0  0.00000000000E+00  0.00000000000E+00 -0.16206013327E+04  0.37724247308E+04  0.34065876871E+04 0.  0.
        5    1    3    3  502    0 -0.31302604301E+03  0.48684022965E+02 -0.26635957386E+04  0.26823720447E+04  0.46999998093E+01 0. -1.
       -5    1    3    3    0  502  0.31302604301E+03 -0.48684022965E+02  0.10429944059E+04  0.10900526861E+04  0.46999998093E+01 0.  1.
</event>
<event>
 5   0  0.1520084E-07  0.3406806E+04  0.7818609E-02  0.8136238E-01
        1   -1    0    0  501    0  0.00000000000E+00  0.00000000000E+00  0.12449882522E+04  0.12449882522E+04  0.50400001928E-02 0. -1.
       -1   -1    0    0    0  501  0.00000000000E+00  0.00000000000E+00 -0.23306095380E+04  0.23306095380E+04  0.50400001928E-02 0.  1.
    10030    2    1    2    0    0  0.00000000000E+00  0.00000000000E+00 -0.10856212858E+04  0.35755977903E+04  0.34068058327E+04 0.  0.
        2    1    3    3  502    0  0.67931595174E+03  0.99406710898E+03  0.72185552225E+03  0.14038215608E+04  0.25500000920E-02 0. -1.
       -2    1    3    3    0  502 -0.67931595174E+03 -0.99406710898E+03 -0.18074768081E+04  0.21717762295E+04  0.25500000920E-02 0.  1.
</event>
<event>
 5   0  0.1421875E-07  0.3419072E+04  0.7818609E-02  0.8133241E-01
        1   -1    0    0  501    0  0.00000000000E+00  0.00000000000E+00  0.12829993975E+04  0.12829993975E+04  0.50400001928E-02 0.  1.
       -1   -1    0    0    0  501  0.00000000000E+00  0.00000000000E+00 -0.22778755258E+04  0.22778755258E+04  0.50400001928E-02 0. -1.
    10030    2    1    2    0    0  0.00000000000E+00  0.00000000000E+00 -0.99487612828E+03  0.35608749233E+04  0.34190717613E+04 0.  0.
        5    1    3    3  502    0  0.14352413736E+03  0.10718143648E+04 -0.18764008466E+04  0.21657071450E+04  0.46999998093E+01 0. -1.
       -5    1    3    3    0  502 -0.14352413736E+03 -0.10718143648E+04  0.88152471837E+03  0.13951677783E+04  0.46999998093E+01 0.  1.
</event>
<event>
 5   0  0.1421875E-07  0.3393732E+04  0.7818609E-02  0.8139446E-01
       -1   -1    0    0    0  501  0.00000000000E+00  0.00000000000E+00  0.16482700072E+04  0.16482700072E+04  0.50400001928E-02 0. -1.
        1   -1    0    0  501    0  0.00000000000E+00  0.00000000000E+00 -0.17468951404E+04  0.17468951404E+04  0.50400001928E-02 0.  1.
    10030    2    1    2    0    0  0.00000000000E+00  0.00000000000E+00 -0.98625133185E+02  0.33951651476E+04  0.33937323794E+04 0.  0.
        5    1    3    3  502    0  0.46786089500E+03  0.11680124286E+04 -0.11882948340E+04  0.17306685278E+04  0.46999998093E+01 0.  1.
       -5    1    3    3    0  502 -0.46786089500E+03 -0.11680124286E+04  0.10896697008E+04  0.16644966198E+04  0.46999998093E+01 0. -1.
</event>
<event>
 5   0  0.4396257E-07  0.3430854E+04  0.7818609E-02  0.8130375E-01
       -2   -1    0    0    0  501  0.00000000000E+00  0.00000000000E+00  0.20542406307E+04  0.20542406307E+04  0.25500000920E-02 0. -1.
        2   -1    0    0  501    0  0.00000000000E+00  0.00000000000E+00 -0.14324947624E+04  0.14324947624E+04  0.25500000920E-02 0.  1.
    10030    2    1    2    0    0  0.00000000000E+00  0.00000000000E+00  0.62174586832E+03  0.34867353931E+04  0.34308535055E+04 0.  0.
        2    1    3    3  502    0 -0.51896516835E+03 -0.15645539930E+04 -0.17176749067E+03  0.16573044723E+04  0.25500000920E-02 0. -1.
       -2    1    3    3    0  502  0.51896516835E+03  0.15645539930E+04  0.79351335898E+03  0.18294309208E+04  0.25500000920E-02 0.  1.
</event>
<event>
 5   0  0.4396257E-07  0.3400405E+04  0.7818609E-02  0.8137807E-01
       -2   -1    0    0    0  501  0.00000000000E+00  0.00000000000E+00  0.17771443375E+04  0.17771443375E+04  0.25500000920E-02 0. -1.
        2   -1    0    0  501    0  0.00000000000E+00  0.00000000000E+00 -0.16265914669E+04  0.16265914669E+04  0.25500000920E-02 0.  1.
    10030    2    1    2    0    0  0.00000000000E+00  0.00000000000E+00  0.15055287065E+03  0.34037358044E+04  0.34004045729E+04 0.  0.
        2    1    3    3  502    0  0.13212379827E+04 -0.36827730359E+03 -0.93039175882E+03  0.16573855327E+04  0.25500000920E-02 0.  1.
       -2    1    3    3    0  502 -0.13212379827E+04  0.36827730359E+03  0.10809446295E+04  0.17463502716E+04  0.25500000920E-02 0. -1.
</event>
<event>
 5   0  0.4447909E-07  0.3403148E+04  0.7818609E-02  0.8137134E-01
       -2   -1    0    0    0  501  0.00000000000E+00  0.00000000000E+00  0.10834832696E+04  0.10834832696E+04  0.25500000920E-02 0. -1.
        2   -1    0    0  501    0  0.00000000000E+00  0.00000000000E+00 -0.26722642481E+04  0.26722642481E+04  0.25500000920E-02 0.  1.
    10030    2    1    2    0    0  0.00000000000E+00  0.00000000000E+00 -0.15887809784E+04  0.37557475177E+04  0.34031477222E+04 0.  0.
        5    1    3    3  502    0  0.80123452722E+03  0.89707503616E+03 -0.21226761858E+04  0.24397738969E+04  0.46999998093E+01 0.  1.
       -5    1    3    3    0  502 -0.80123452722E+03 -0.89707503616E+03  0.53389520741E+03  0.13159736208E+04  0.46999998093E+01 0. -1.
</event>
<event>
 5   0  0.4521737E-07  0.3388942E+04  0.7818609E-02  0.8140626E-01
       -2   -1    0    0    0  501  0.00000000000E+00  0.00000000000E+00  0.11870136521E+04  0.11870136521E+04  0.25500000920E-02 0.  1.
        2   -1    0    0  501    0  0.00000000000E+00  0.00000000000E+00 -0.24188698763E+04  0.24188698763E+04  0.25500000920E-02 0. -1.
    10030    2    1    2    0    0  0.00000000000E+00  0.00000000000E+00 -0.12318562242E+04  0.36058835284E+04  0.33889417616E+04 0.  0.
        4    1    3    3  502    0 -0.11112729225E+04  0.50154233870E+03  0.63615883391E+03  0.13751988586E+04  0.12699999809E+01 0.  1.
       -4    1    3    3    0  502  0.11112729225E+04 -0.50154233870E+03 -0.18680150581E+04  0.22306846698E+04  0.12699999809E+01 0. -1.
</event>
<event>
 5   0  0.1473755E-07  0.3393071E+04  0.7818609E-02  0.8139609E-01
        1   -1    0    0  501    0  0.00000000000E+00  0.00000000000E+00  0.19885059598E+04  0.19885059598E+04  0.50400001928E-02 0.  1.
       -1   -1    0    0    0  501  0.00000000000E+00  0.00000000000E+00 -0.14474351283E+04  0.14474351283E+04  0.50400001928E-02 0. -1.
    10030    2    1    2    0    0  0.00000000000E+00  0.00000000000E+00  0.54107083146E+03  0.34359410881E+04  0.33930713986E+04 0.  0.
        1    1    3    3  502    0 -0.75931700634E+03  0.14347203262E+04 -0.22889838183E+03  0.16393227869E+04  0.50400001928E-02 0.  1.
       -1    1    3    3    0  502  0.75931700634E+03 -0.14347203262E+04  0.76996921330E+03  0.17966183011E+04  0.50400001928E-02 0. -1.
</event>
<event>
 5   0  0.4521737E-07  0.3432119E+04  0.7818609E-02  0.8130068E-01
        2   -1    0    0  501    0  0.00000000000E+00  0.00000000000E+00  0.21258514474E+04  0.21258514474E+04  0.25500000920E-02 0.  1.
       -2   -1    0    0    0  501  0.00000000000E+00  0.00000000000E+00 -0.13852611527E+04  0.13852611527E+04  0.25500000920E-02 0. -1.
    10030    2    1    2    0    0  0.00000000000E+00  0.00000000000E+00  0.74059029473E+03  0.35111126001E+04  0.34321185449E+04 0.  0.
        4    1    3    3  502    0  0.44105468959E+03 -0.60464680663E+03 -0.12095050332E+04  0.14223329562E+04  0.12699999809E+01 0. -1.
       -4    1    3    3    0  502 -0.44105468959E+03  0.60464680663E+03  0.19500953280E+04  0.20887796440E+04  0.12699999809E+01 0.  1.
</event>
<event>
 5   0  0.1523259E-07  0.3442947E+04  0.7818609E-02  0.8127445E-01
        1   -1    0    0  501    0  0.00000000000E+00  0.00000000000E+00  0.14173146954E+04  0.14173146954E+04  0.50400001928E-02 0.  1.
       -1   -1    0    0    0  501  0.00000000000E+00  0.00000000000E+00 -0.20909058641E+04  0.20909058641E+04  0.50400001928E-02 0. -1.
    10030    2    1    2    0    0  0.00000000000E+00  0.00000000000E+00 -0.67359116873E+03  0.35082205596E+04  0.34429473467E+04 0.  0.
        4    1    3    3  502    0  0.11907385237E+03  0.72840650248E+03 -0.19215022746E+04  0.20583797558E+04  0.12699999809E+01 0. -1.
       -4    1    3    3    0  502 -0.11907385237E+03 -0.72840650248E+03  0.12479111058E+04  0.14498408037E+04  0.12699999809E+01 0.  1.
</event>
<event>
 5   0  0.4486226E-07  0.3402908E+04  0.7818609E-02  0.8137193E-01
       -2   -1    0    0    0  501  0.00000000000E+00  0.00000000000E+00  0.17518850660E+04  0.17518850660E+04  0.25500000920E-02 0. -1.
        2   -1    0    0  501    0  0.00000000000E+00  0.00000000000E+00 -0.16524745110E+04  0.16524745110E+04  0.25500000920E-02 0.  1.
    10030    2    1    2    0    0  0.00000000000E+00  0.00000000000E+00  0.99410554987E+02  0.34043595769E+04  0.34029078258E+04 0.  0.
        1    1    3    3  502    0 -0.83104129840E+03 -0.14324651853E+04  0.44020405822E+03  0.17135827263E+04  0.50400001928E-02 0.  1.
       -1    1    3    3    0  502  0.83104129840E+03  0.14324651853E+04 -0.34079350323E+03  0.16907768507E+04  0.50400001928E-02 0. -1.
</event>
<event>
 5   0  0.1435806E-07  0.3385830E+04  0.7818609E-02  0.8141393E-01
       -1   -1    0    0    0  501  0.00000000000E+00  0.00000000000E+00  0.18272987140E+04  0.18272987140E+04  0.50400001928E-02 0.  1.
        1   -1    0    0  501    0  0.00000000000E+00  0.00000000000E+00 -0.15684146023E+04  0.15684146023E+04  0.50400001928E-02 0. -1.
    10030    2    1    2    0    0  0.00000000000E+00  0.00000000000E+00  0.25888411164E+03  0.33957133163E+04  0.33858304658E+04 0.  0.
        3    1    3    3  502    0  0.25358056117E+03  0.16324967693E+04 -0.24124899205E+03  0.16695957263E+04  0.10100000352E+00 0.  1.
       -3    1    3    3    0  502 -0.25358056117E+03 -0.16324967693E+04  0.50013310368E+03  0.17261175900E+04  0.10100000352E+00 0. -1.
</event>
<event>
 5   0  0.4381939E-07  0.3396279E+04  0.7818609E-02  0.8138820E-01
        2   -1    0    0  501    0  0.00000000000E+00  0.00000000000E+00  0.20772758859E+04  0.20772758859E+04  0.25500000920E-02 0. -1.
       -2   -1    0    0    0  501  0.00000000000E+00  0.00000000000E+00 -0.13882015745E+04  0.13882015745E+04  0.25500000920E-02 0.  1.
    10030    2    1    2    0    0  0.00000000000E+00  0.00000000000E+00  0.68907431137E+03  0.34654774604E+04  0.33962789376E+04 0.  0.
        3    1    3    3  502    0  0.11437893971E+04 -0.22764404062E+03  0.16040292449E+04  0.19831756913E+04  0.10100000352E+00 0. -1.
       -3    1    3    3    0  502 -0.11437893971E+04  0.22764404062E+03 -0.91495493350E+03  0.14823017691E+04  0.10100000352E+00 0.  1.
</event>
<event>
 5   0  0.1421875E-07  0.3393638E+04  0.7818609E-02  0.8139469E-01
        1   -1    0    0  501    0  0.00000000000E+00  0.00000000000E+00  0.21225788047E+04  0.21225788047E+04  0.50400001928E-02 0. -1.
       -1   -1    0    0    0  501  0.00000000000E+00  0.00000000000E+00 -0.13564607819E+04  0.13564607819E+04  0.50400001928E-02 0.  1.
    10030    2    1    2    0    0  0.00000000000E+00  0.00000000000E+00  0.76611802285E+03  0.34790395866E+04  0.33936381098E+04 0.  0.
        5    1    3    3  502    0  0.26513448664E+02  0.11996319908E+04  0.16129807896E+04  0.20103604140E+04  0.46999998093E+01 0. -1.
       -5    1    3    3    0  502 -0.26513448664E+02 -0.11996319908E+04 -0.84686276680E+03  0.14686791726E+04  0.46999998093E+01 0.  1.
</event>
<event>
 5   0  0.4486226E-07  0.3376036E+04  0.7818609E-02  0.8143813E-01
       -2   -1    0    0    0  501  0.00000000000E+00  0.00000000000E+00  0.17981440154E+04  0.17981440154E+04  0.25500000920E-02 0. -1.
        2   -1    0    0  501    0  0.00000000000E+00  0.00000000000E+00 -0.15846369081E+04  0.15846369081E+04  0.25500000920E-02 0.  1.
    10030    2    1    2    0    0  0.00000000000E+00  0.00000000000E+00  0.21350710729E+03  0.33827809235E+04  0.33760363581E+04 0.  0.
        1    1    3    3  502    0  0.87704912942E+03 -0.53479697396E+03 -0.12353933477E+04  0.16066797137E+04  0.50400001928E-02 0.  1.
       -1    1    3    3    0  502 -0.87704912942E+03  0.53479697396E+03  0.14489004550E+04  0.17761012098E+04  0.50400001928E-02 0. -1.
</event>
<event>
 5   0  0.4381939E-07  0.3416267E+04  0.7818609E-02  0.8133925E-01
       -2   -1    0    0    0  501  0.00000000000E+00  0.00000000000E+00  0.12353022571E+04  0.12353022571E+04  0.25500000920E-02 0. -1.
        2   -1    0    0  501    0  0.00000000000E+00  0.00000000000E+00 -0.23619488061E+04  0.23619488061E+04  0.25500000920E-02 0.  1.
    10030    2    1    2    0    0  0.00000000000E+00  0.00000000000E+00 -0.11266465489E+04  0.35972510632E+04  0.34162673733E+04 0.  0.
        3    1    3    3  502    0  0.14083013323E+04 -0.86368133068E+02 -0.15771102772E+04  0.21161401026E+04  0.10100000352E+00 0.  1.
       -3    1    3    3    0  502 -0.14083013323E+04  0.86368133068E+02  0.45046372828E+03  0.14811109606E+04  0.10100000352E+00 0. -1.
</event>
<event>
 5   0  0.1421875E-07  0.3400082E+04  0.7818609E-02  0.8137886E-01
        3   -1    0    0  501    0  0.00000000000E+00  0.00000000000E+00  0.24124790728E+04  0.24124790749E+04  0.10100000352E+00 0. -1.
       -3   -1    0    0    0  501  0.00000000000E+00  0.00000000000E+00 -0.11979953362E+04  0.11979953405E+04  0.10100000352E+00 0.  1.
    10030    2    1    2    0    0  0.00000000000E+00  0.00000000000E+00  0.12144837365E+04  0.36104744154E+04  0.34000815811E+04 0.  0.
        3    1    3    3  502    0  0.14758720478E+04  0.69311487704E+03  0.96289305268E+02  0.16333640668E+04  0.10100000352E+00 0. -1.
       -3    1    3    3    0  502 -0.14758720478E+04 -0.69311487704E+03  0.11181944313E+04  0.19771103486E+04  0.10100000352E+00 0.  1.
</event>
<event>
 5   0  0.1523259E-07  0.3401377E+04  0.7818609E-02  0.8137568E-01
       -1   -1    0    0    0  501  0.00000000000E+00  0.00000000000E+00  0.12483458027E+04  0.12483458027E+04  0.50400001928E-02 0.  1.
        1   -1    0    0  501    0  0.00000000000E+00  0.00000000000E+00 -0.23169394170E+04  0.23169394170E+04  0.50400001928E-02 0. -1.
    10030    2    1    2    0    0  0.00000000000E+00  0.00000000000E+00 -0.10685936143E+04  0.35652852197E+04  0.34013771307E+04 0.  0.
        4    1    3    3  502    0  0.16029153764E+04 -0.11328136791E+03 -0.11180632334E+04  0.19576101193E+04  0.12699999809E+01 0. -1.
       -4    1    3    3    0  502 -0.16029153764E+04  0.11328136791E+03  0.49469619112E+02  0.16076751004E+04  0.12699999809E+01 0.  1.
</event>
<event>
 5   0  0.1520084E-07  0.3397834E+04  0.7818609E-02  0.8138438E-01
        1   -1    0    0  501    0  0.00000000000E+00  0.00000000000E+00  0.20496824064E+04  0.20496824064E+04  0.50400001928E-02 0. -1.
       -1   -1    0    0    0  501  0.00000000000E+00  0.00000000000E+00 -0.14081789392E+04  0.14081789392E+04  0.50400001928E-02 0.  1.
    10030    2    1    2    0    0  0.00000000000E+00  0.00000000000E+00  0.64150346713E+03  0.34578613456E+04  0.33978343672E+04 0.  0.
        2    1    3    3  502    0  0.14419154282E+04 -0.10973329675E+03  0.12282213923E+04  0.18972847143E+04  0.25500000920E-02 0. -1.
       -2    1    3    3    0  502 -0.14419154282E+04  0.10973329675E+03 -0.58671792513E+03  0.15605766313E+04  0.25500000920E-02 0.  1.
</event>
<event>
 5   0  0.4521737E-07  0.3339225E+04  0.7818609E-02  0.8152986E-01
       -2   -1    0    0    0  501  0.00000000000E+00  0.00000000000E+00  0.94873377215E+03  0.94873377215E+03  0.25500000920E-02 0.  1.
        2   -1    0    0  501    0  0.00000000000E+00  0.00000000000E+00 -0.29382390523E+04  0.29382390523E+04  0.25500000920E-02 0. -1.
    10030    2    1    2    0    0  0.00000000000E+00  0.00000000000E+00 -0.19895052801E+04  0.38869728244E+04  0.33392254309E+04 0.  0.
        4    1    3    3  502    0  0.10586529880E+04  0.25809686647E+03 -0.24672651267E+04  0.26971761084E+04  0.12699999809E+01 0. -1.
       -4    1    3    3    0  502 -0.10586529880E+04 -0.25809686647E+03  0.47775984659E+03  0.11897967160E+04  0.12699999809E+01 0.  1.
</event>
<event>
 5   0  0.4486226E-07  0.3406902E+04  0.7818609E-02  0.8136215E-01
        2   -1    0    0  501    0  0.00000000000E+00  0.00000000000E+00  0.17438717111E+04  0.17438717111E+04  0.25500000920E-02 0. -1.
       -2   -1    0    0    0  501  0.00000000000E+00  0.00000000000E+00 -0.16639667458E+04  0.16639667458E+04  0.25500000920E-02 0.  1.
    10030    2    1    2    0    0  0.00000000000E+00  0.00000000000E+00  0.79904965357E+02  0.34078384569E+04  0.34069015461E+04 0.  0.
        1    1    3    3  502    0 -0.12954573966E+04 -0.95735091850E+03 -0.51428823385E+03  0.16909237224E+04  0.50400001928E-02 0.  1.
       -1    1    3    3    0  502  0.12954573966E+04  0.95735091850E+03  0.59419319921E+03  0.17169147345E+04  0.50400001928E-02 0. -1.
</event>
<event>
 5   0  0.1473755E-07  0.3403887E+04  0.7818609E-02  0.8136953E-01
        1   -1    0    0  501    0  0.00000000000E+00  0.00000000000E+00  0.19862864574E+04  0.19862864574E+04  0.50400001928E-02 0. -1.
       -1   -1    0    0    0  501  0.00000000000E+00  0.00000000000E+00 -0.14583053807E+04  0.14583053807E+04  0.50400001928E-02 0.  1.
    10030    2    1    2    0    0  0.00000000000E+00  0.00000000000E+00  0.52798107665E+03  0.34445918381E+04  0.34038873239E+04 0.  0.
        1    1    3    3  502    0  0.73230498950E+03 -0.73637654215E+03 -0.11004996819E+04  0.15131492191E+04  0.50400001928E-02 0.  1.
       -1    1    3    3    0  502 -0.73230498950E+03  0.73637654215E+03  0.16284807585E+04  0.19314426190E+04  0.50400001928E-02 0. -1.
</event>
<event>
 5   0  0.4447909E-07  0.3411847E+04  0.7818609E-02  0.8135005E-01
       -2   -1    0    0    0  501  0.00000000000E+00  0.00000000000E+00  0.15402911179E+04  0.15402911179E+04  0.25500000920E-02 0. -1.
        2   -1    0    0  501    0  0.00000000000E+00  0.00000000000E+00 -0.18893667018E+04  0.18893667018E+04  0.25500000920E-02 0.  1.
    10030    2    1    2    0    0  0.00000000000E+00  0.00000000000E+00 -0.34907558391E+03  0.34296578198E+04  0.34118468602E+04 0.  0.
        5    1    3    3  502    0  0.86475747793E+02  0.10214697522E+04  0.11961324309E+04  0.15753200919E+04  0.46999998093E+01 0. -1.
       -5    1    3    3    0  502 -0.86475747793E+02 -0.10214697522E+04 -0.15452080148E+04  0.18543377278E+04  0.46999998093E+01 0.  1.
</event>
<event>
 5   0  0.1523259E-07  0.3401518E+04  0.7818609E-02  0.8137534E-01
       -1   -1    0    0    0  501  0.00000000000E+00  0.00000000000E+00  0.18842770964E+04  0.18842770964E+04  0.50400001928E-02 0.  1.
        1   -1    0    0  501    0  0.00000000000E+00  0.00000000000E+00 -0.15351148622E+04  0.15351148622E+04  0.50400001928E-02 0. -1.
    10030    2    1    2    0    0  0.00000000000E+00  0.00000000000E+00  0.34916223416E+03  0.34193919586E+04  0.34015183522E+04 0.  0.
        4    1    3    3  502    0 -0.12981880056E+04  0.37997244735E+03 -0.86181102262E+03  0.16038675164E+04  0.12699999809E+01 0. -1.
       -4    1    3    3    0  502  0.12981880056E+04 -0.37997244735E+03  0.12109732568E+04  0.18155244422E+04  0.12699999809E+01 0.  1.
</event>
<event>
 5   0  0.1421875E-07  0.3410322E+04  0.7818609E-02  0.8135378E-01
        1   -1    0    0  501    0  0.00000000000E+00  0.00000000000E+00  0.16850500268E+04  0.16850500268E+04  0.50400001928E-02 0. -1.
       -1   -1    0    0    0  501  0.00000000000E+00  0.00000000000E+00 -0.17255116251E+04  0.17255116251E+04  0.50400001928E-02 0.  1.
    10030    2    1    2    0    0  0.00000000000E+00  0.00000000000E+00 -0.40461598308E+02  0.34105616518E+04  0.34103216329E+04 0.  0.
        5    1    3    3  502    0  0.12705921994E+04 -0.11312165920E+04 -0.13641042064E+03  0.17066591365E+04  0.46999998093E+01 0. -1.
       -5    1    3    3    0  502 -0.12705921994E+04  0.11312165920E+04  0.95948822333E+02  0.17039025154E+04  0.46999998093E+01 0.  1.
</event>
<event>
 5   0  0.1520084E-07  0.3392580E+04  0.7818609E-02  0.8139730E-01
       -1   -1    0    0    0  501  0.00000000000E+00  0.00000000000E+00  0.10600087685E+04  0.10600087685E+04  0.50400001928E-02 0. -1.
        1   -1    0    0  501    0  0.00000000000E+00  0.00000000000E+00 -0.27145054185E+04  0.27145054185E+04  0.50400001928E-02 0.  1.
    10030    2    1    2    0    0  0.00000000000E+00  0.00000000000E+00 -0.16544966500E+04  0.37745141870E+04  0.33925798712E+04 0.  0.
        2    1    3    3  502    0  0.14860304957E+04 -0.44704885204E+01 -0.17373170718E+04  0.22861708657E+04  0.25500000920E-02 0.  1.
       -2    1    3    3    0  502 -0.14860304957E+04  0.44704885204E+01  0.82820421797E+02  0.14883433212E+04  0.25500000920E-02 0. -1.
</event>
<event>
 5   0  0.4521737E-07  0.3403496E+04  0.7818609E-02  0.8137049E-01
        2   -1    0    0  501    0  0.00000000000E+00  0.00000000000E+00  0.23979753523E+04  0.23979753523E+04  0.25500000920E-02 0. -1.
       -2   -1    0    0    0  501  0.00000000000E+00  0.00000000000E+00 -0.12076630466E+04  0.12076630466E+04  0.25500000920E-02 0.  1.
    10030    2    1    2    0    0  0.00000000000E+00  0.00000000000E+00  0.11903123057E+04  0.36056383990E+04  0.34034959790E+04 0.  0.
        4    1    3    3  502    0  0.10465690424E+04 -0.11529790246E+04  0.13224252766E+04  0.20429091064E+04  0.12699999809E+01 0. -1.
       -4    1    3    3    0  502 -0.10465690424E+04  0.11529790246E+04 -0.13211297097E+03  0.15627292926E+04  0.12699999809E+01 0.  1.
</event>
<event>
 5   0  0.1473755E-07  0.3363023E+04  0.7818609E-02  0.8147042E-01
       -1   -1    0    0    0  501  0.00000000000E+00  0.00000000000E+00  0.12242968269E+04  0.12242968270E+04  0.50400001928E-02 0.  1.
        1   -1    0    0  501    0  0.00000000000E+00  0.00000000000E+00 -0.23094739308E+04  0.23094739308E+04  0.50400001928E-02 0. -1.
    10030    2    1    2    0    0  0.00000000000E+00  0.00000000000E+00 -0.10851771039E+04  0.35337707578E+04  0.33630234049E+04 0.  0.
        1    1    3    3  502    0  0.85391368723E+03 -0.14424936364E+04 -0.40348471930E+03  0.17241683198E+04  0.50400001928E-02 0.  1.
       -1    1    3    3    0  502 -0.85391368723E+03  0.14424936364E+04 -0.68169238457E+03  0.18096024380E+04  0.50400001928E-02 0. -1.
</event>
<event>
 5   0  0.1435806E-07  0.3411173E+04  0.7818609E-02  0.8135170E-01
       -1   -1    0    0    0  501  0.00000000000E+00  0.00000000000E+00  0.20169516887E+04  0.20169516887E+04  0.50400001928E-02 0.  1.
        1   -1    0    0  501    0  0.00000000000E+00  0.00000000000E+00 -0.14422876456E+04  0.14422876457E+04  0.50400001928E-02 0. -1.
    10030    2    1    2    0    0  0.00000000000E+00  0.00000000000E+00  0.57466404309E+03  0.34592393344E+04  0.34111725272E+04 0.  0.
        3    1    3    3  502    0  0.42768411440E+03  0.14032093144E+04 -0.59505209408E+03  0.15830341395E+04  0.10100000352E+00 0. -1.
       -3    1    3    3    0  502 -0.42768411440E+03 -0.14032093144E+04  0.11697161372E+04  0.18762051950E+04  0.10100000352E+00 0.  1.
</event>
<event>
 5   0  0.4396257E-07  0.3463954E+04  0.7818609E-02  0.8122386E-01
        2   -1    0    0  501    0  0.00000000000E+00  0.00000000000E+00  0.11656931432E+04  0.11656931432E+04  0.25500000920E-02 0. -1.
       -2   -1    0    0    0  501  0.00000000000E+00  0.00000000000E+00 -0.25733572947E+04  0.25733572947E+04  0.25500000920E-02 0.  1.
    10030    2    1    2    0    0  0.00000000000E+00  0.00000000000E+00 -0.14076641515E+04  0.37390504379E+04  0.34639543609E+04 0.  0.
        2    1    3    3  502    0  0.55266430678E+03  0.10242904646E+04 -0.20883229153E+04  0.23907533102E+04  0.25500000920E-02 0.  1.
       -2    1    3    3    0  502 -0.55266430678E+03 -0.10242904646E+04  0.68065876379E+03  0.13482971277E+04  0.25500000920E-02 0. -1.
</event>
<event>
 5   0  0.4521737E-07  0.3384249E+04  0.7818609E-02  0.8141783E-01
        2   -1    0    0  501    0  0.00000000000E+00  0.00000000000E+00  0.13690318550E+04  0.13690318550E+04  0.25500000920E-02 0.  1.
       -2   -1    0    0    0  501  0.00000000000E+00  0.00000000000E+00 -0.20914673100E+04  0.20914673100E+04  0.25500000920E-02 0. -1.
    10030    2    1    2    0    0  0.00000000000E+00  0.00000000000E+00 -0.72243545504E+03  0.34604991650E+04  0.33842490281E+04 0.  0.
        4    1    3    3  502    0  0.46461407297E+03  0.34582275482E+03  0.12645176807E+04  0.13908508879E+04  0.12699999809E+01 0.  1.
       -4    1    3    3    0  502 -0.46461407297E+03 -0.34582275482E+03 -0.19869531357E+04  0.20696482771E+04  0.12699999809E+01 0. -1.
</event>
<event>
 5   0  0.1421875E-07  0.3415458E+04  0.7818609E-02  0.8134123E-01
        1   -1    0    0  501    0  0.00000000000E+00  0.00000000000E+00  0.22448048654E+04  0.22448048654E+04  0.50400001928E-02 0.  1.
       -1   -1    0    0    0  501  0.00000000000E+00  0.00000000000E+00 -0.12991497308E+04  0.12991497308E+04  0.50400001928E-02 0. -1.
    10030    2    1    2    0    0  0.00000000000E+00  0.00000000000E+00  0.94565513458E+03  0.35439545962E+04  0.34154575896E+04 0.  0.
        5    1    3    3  502    0 -0.23333600184E+03 -0.11031493093E+04 -0.85797354567E+03  0.14168714774E+04  0.46999998093E+01 0.  1.
       -5    1    3    3    0  502  0.23333600184E+03  0.11031493093E+04  0.18036286803E+04  0.21270831189E+04  0.46999998093E+01 0. -1.
</event>
<event>
 5   0  0.4521737E-07  0.3272363E+04  0.7818609E-02  0.8169963E-01
        2   -1    0    0  501    0  0.00000000000E+00  0.00000000000E+00  0.18892542788E+04  0.18892542788E+04  0.25500000920E-02 0. -1.
       -2   -1    0    0    0  501  0.00000000000E+00  0.00000000000E+00 -0.14170088651E+04  0.14170088651E+04  0.25500000920E-02 0.  1.
    10030    2    1    2    0    0  0.00000000000E+00  0.00000000000E+00  0.47224541364E+03  0.33062631439E+04  0.32723630981E+04 0.  0.
        4    1    3    3  502    0 -0.94986459478E+03 -0.16695432647E+03 -0.10993004279E+04  0.14623882998E+04  0.12699999809E+01 0.  1.
       -4    1    3    3    0  502  0.94986459478E+03  0.16695432647E+03  0.15715458416E+04  0.18438748441E+04  0.12699999809E+01 0. -1.
</event>
<event>
 5   0  0.1520084E-07  0.3397781E+04  0.7818609E-02  0.8138451E-01
        1   -1    0    0  501    0  0.00000000000E+00  0.00000000000E+00  0.21029060463E+04  0.21029060463E+04  0.50400001928E-02 0.  1.
       -1   -1    0    0    0  501  0.00000000000E+00  0.00000000000E+00 -0.13724957927E+04  0.13724957927E+04  0.50400001928E-02 0. -1.
    10030    2    1    2    0    0  0.00000000000E+00  0.00000000000E+00  0.73041025359E+03  0.34754018390E+04  0.33977814532E+04 0.  0.
        2    1    3    3  502    0  0.38431189201E+03  0.91082046580E+03 -0.10480017475E+04  0.14406933102E+04  0.25500000920E-02 0. -1.
       -2    1    3    3    0  502 -0.38431189201E+03 -0.91082046580E+03  0.17784120011E+04  0.20347085288E+04  0.25500000920E-02 0.  1.
</event>
<event>
 5   0  0.4447909E-07  0.3395762E+04  0.7818609E-02  0.8138947E-01
        2   -1    0    0  501    0  0.00000000000E+00  0.00000000000E+00  0.25565718954E+04  0.25565718954E+04  0.25500000920E-02 0. -1.
       -2   -1    0    0    0  501  0.00000000000E+00  0.00000000000E+00 -0.11276037296E+04  0.11276037296E+04  0.25500000920E-02 0.  1.
    10030    2    1    2    0    0  0.00000000000E+00  0.00000000000E+00  0.14289681657E+04  0.36841756250E+04  0.33957620672E+04 0.  0.
        5    1    3    3  502    0 -0.26498359379E+03 -0.10737731523E+03 -0.11012911406E+04  0.11378095004E+04  0.46999998093E+01 0.  1.
       -5    1    3    3    0  502  0.26498359379E+03  0.10737731523E+03  0.25302593064E+04  0.25463661246E+04  0.46999998093E+01 0. -1.
</event>
<event>
 5   0  0.1523259E-07  0.3356048E+04  0.7818609E-02  0.8148779E-01
       -1   -1    0    0    0  501  0.00000000000E+00  0.00000000000E+00  0.13547314589E+04  0.13547314590E+04  0.50400001928E-02 0.  1.
        1   -1    0    0  501    0  0.00000000000E+00  0.00000000000E+00 -0.20784674036E+04  0.20784674036E+04  0.50400001928E-02 0. -1.
    10030    2    1    2    0    0  0.00000000000E+00  0.00000000000E+00 -0.72373594466E+03  0.34331988626E+04  0.33560483775E+04 0.  0.
        4    1    3    3  502    0  0.17824143221E+03 -0.48105997897E+02  0.13443098096E+04  0.13569283961E+04  0.12699999809E+01 0.  1.
       -4    1    3    3    0  502 -0.17824143221E+03  0.48105997897E+02 -0.20680457543E+04  0.20762704664E+04  0.12699999809E+01 0. -1.
</event>
<event>
 5   0  0.4381939E-07  0.3348353E+04  0.7818609E-02  0.8150700E-01
       -2   -1    0    0    0  501  0.00000000000E+00  0.00000000000E+00  0.12285090393E+04  0.12285090393E+04  0.25500000920E-02 0. -1.
        2   -1    0    0  501    0  0.00000000000E+00  0.00000000000E+00 -0.22815190205E+04  0.22815190205E+04  0.25500000920E-02 0.  1.
    10030    2    1    2    0    0  0.00000000000E+00  0.00000000000E+00 -0.10530099812E+04  0.35100280598E+04  0.33483528727E+04 0.  0.
        3    1    3    3  502    0  0.10135648672E+04  0.11911788987E+04  0.99529033792E+02  0.15672035437E+04  0.10100000352E+00 0.  1.
       -3    1    3    3    0  502 -0.10135648672E+04 -0.11911788987E+04 -0.11525390150E+04  0.19428245160E+04  0.10100000352E+00 0. -1.
</event>
<event>
 5   0  0.1520084E-07  0.3396622E+04  0.7818609E-02  0.8138736E-01
        1   -1    0    0  501    0  0.00000000000E+00  0.00000000000E+00  0.22939296425E+04  0.22939296425E+04  0.50400001928E-02 0. -1.
       -1   -1    0    0    0  501  0.00000000000E+00  0.00000000000E+00 -0.12573449803E+04  0.12573449803E+04  0.50400001928E-02 0.  1.
    10030    2    1    2    0    0  0.00000000000E+00  0.00000000000E+00  0.10365846622E+04  0.35512746228E+04  0.33966223936E+04 0.  0.
        2    1    3    3  502    0 -0.90666309673E+03 -0.86439947942E+03  0.17172556359E+04  0.21256037613E+04  0.25500000920E-02 0.  1.
       -2    1    3    3    0  502  0.90666309673E+03  0.86439947942E+03 -0.68067097370E+03  0.14256708615E+04  0.25500000920E-02 0. -1.
</event>
<event>
 5   0  0.4396257E-07  0.3397556E+04  0.7818609E-02  0.8138506E-01
        2   -1    0    0  501    0  0.00000000000E+00  0.00000000000E+00  0.18503580533E+04  0.18503580533E+04  0.25500000920E-02 0.  1.
       -2   -1    0    0    0  501  0.00000000000E+00  0.00000000000E+00 -0.15596155438E+04  0.15596155438E+04  0.25500000920E-02 0. -1.
    10030    2    1    2    0    0  0.00000000000E+00  0.00000000000E+00  0.29074250951E+03  0.34099735971E+04  0.33975562874E+04 0.  0.
        2    1    3    3  502    0  0.16234590253E+04 -0.44907590628E+03  0.36653724873E+03  0.17238439405E+04  0.25500000920E-02 0. -1.
       -2    1    3    3    0  502 -0.16234590253E+04  0.44907590628E+03 -0.75794739223E+02  0.16861296566E+04  0.25500000920E-02 0.  1.
</event>
<event>
 5   0  0.4521737E-07  0.3455090E+04  0.7818609E-02  0.8124516E-01
       -2   -1    0    0    0  501  0.00000000000E+00  0.00000000000E+00  0.17727025558E+04  0.17727025558E+04  0.25500000920E-02 0.  1.
        2   -1    0    0  501    0  0.00000000000E+00  0.00000000000E+00 -0.16835374844E+04  0.16835374844E+04  0.25500000920E-02 0. -1.
    10030    2    1    2    0    0  0.00000000000E+00  0.00000000000E+00  0.89165071391E+02  0.34562400401E+04  0.34550896956E+04 0.  0.
        4    1    3    3  502    0  0.15528893338E+04 -0.13301568377E+03  0.78998237982E+03  0.17473500589E+04  0.12699999809E+01 0.  1.
       -4    1    3    3    0  502 -0.15528893338E+04  0.13301568377E+03 -0.70081730843E+03  0.17088899812E+04  0.12699999809E+01 0. -1.
</event>
<event>
 5   0  0.4447909E-07  0.3414509E+04  0.7818609E-02  0.8134355E-01
        2   -1    0    0  501    0  0.00000000000E+00  0.00000000000E+00  0.28062824296E+04  0.28062824296E+04  0.25500000920E-02 0. -1.
       -2   -1    0    0    0  501  0.00000000000E+00  0.00000000000E+00 -0.10386401538E+04  0.10386401538E+04  0.25500000920E-02 0.  1.
    10030    2    1    2    0    0  0.00000000000E+00  0.00000000000E+00  0.17676422759E+04  0.38449225834E+04  0.34145088164E+04 0.  0.
        5    1    3    3  502    0 -0.51477024395E+03  0.88366537373E+03  0.24232007388E+04  0.26301666881E+04  0.46999998093E+01 0. -1.
       -5    1    3    3    0  502  0.51477024395E+03 -0.88366537373E+03 -0.65555846294E+03  0.12147558953E+04  0.46999998093E+01 0.  1.
</event>
<event>
 5   0  0.1473755E-07  0.3387448E+04  0.7818609E-02  0.8140994E-01
        1   -1    0    0  501    0  0.00000000000E+00  0.00000000000E+00  0.14972933987E+04  0.14972933987E+04  0.50400001928E-02 0.  1.
       -1   -1    0    0    0  501  0.00000000000E+00  0.00000000000E+00 -0.19159247055E+04  0.19159247055E+04  0.50400001928E-02 0. -1.
    10030    2    1    2    0    0  0.00000000000E+00  0.00000000000E+00 -0.41863130682E+03  0.34132181043E+04  0.33874482515E+04 0.  0.
        1    1    3    3  502    0  0.65649297835E+03 -0.13055787098E+04 -0.10720904515E+04  0.18124284080E+04  0.50400001928E-02 0. -1.
       -1    1    3    3    0  502 -0.65649297835E+03  0.13055787098E+04  0.65345914463E+03  0.16007896963E+04  0.50400001928E-02 0.  1.
</event>
<event>
 5   0  0.1520084E-07  0.3401732E+04  0.7818609E-02  0.8137481E-01
       -1   -1    0    0    0  501  0.00000000000E+00  0.00000000000E+00  0.21614453176E+04  0.21614453176E+04  0.50400001928E-02 0. -1.
        1   -1    0    0  501    0  0.00000000000E+00  0.00000000000E+00 -0.13384307744E+04  0.13384307744E+04  0.50400001928E-02 0.  1.
    10030    2    1    2    0    0  0.00000000000E+00  0.00000000000E+00  0.82301454318E+03  0.34998760920E+04  0.34017318709E+04 0.  0.
        2    1    3    3  502    0  0.52355822020E+03 -0.13859006441E+04  0.12711438158E+04  0.19520861676E+04  0.25500000920E-02 0.  1.
       -2    1    3    3    0  502 -0.52355822020E+03  0.13859006441E+04 -0.44812927263E+03  0.15477899244E+04  0.25500000920E-02 0. -1.
</event>
<event>
 5   0  0.4447909E-07  0.3392845E+04  0.7818609E-02  0.8139665E-01
       -2   -1    0    0    0  501  0.00000000000E+00  0.00000000000E+00  0.24931827891E+04  0.24931827891E+04  0.25500000920E-02 0. -1.
        2   -1    0    0  501    0  0.00000000000E+00  0.00000000000E+00 -0.11542875203E+04  0.11542875203E+04  0.25500000920E-02 0.  1.
    10030    2    1    2    0    0  0.00000000000E+00  0.00000000000E+00  0.13388952688E+04  0.36474703094E+04  0.33928452835E+04 0.  0.
        5    1    3    3  502    0 -0.14683653572E+04 -0.30049209213E+03  0.15237117469E+04  0.21373141784E+04  0.46999998093E+01 0. -1.
       -5    1    3    3    0  502  0.14683653572E+04  0.30049209213E+03 -0.18481647811E+03  0.15101561310E+04  0.46999998093E+01 0.  1.
</event>
<event>
 5   0  0.1435806E-07  0.3401411E+04  0.7818609E-02  0.8137560E-01
        1   -1    0    0  501    0  0.00000000000E+00  0.00000000000E+00  0.12372547043E+04  0.12372547043E+04  0.50400001928E-02 0. -1.
       -1   -1    0    0    0  501  0.00000000000E+00  0.00000000000E+00 -0.23377558010E+04  0.23377558010E+04  0.50400001928E-02 0.  1.
    10030    2    1    2    0    0  0.00000000000E+00  0.00000000000E+00 -0.11005010968E+04  0.35750105053E+04  0.34014110967E+04 0.  0.
        3    1    3    3  502    0 -0.78648468879E+03 -0.24529903812E+03 -0.21140267355E+04  0.22688849315E+04  0.10100000352E+00 0.  1.
       -3    1    3    3    0  502  0.78648468879E+03  0.24529903812E+03  0.10135256388E+04  0.13061255738E+04  0.10100000352E+00 0. -1.
</event>
<event>
 5   0  0.4486226E-07  0.3405074E+04  0.7818609E-02  0.8136662E-01
        2   -1    0    0  501    0  0.00000000000E+00  0.00000000000E+00  0.16174480546E+04  0.16174480546E+04  0.25500000920E-02 0. -1.
       -2   -1    0    0    0  501  0.00000000000E+00  0.00000000000E+00 -0.17921026651E+04  0.17921026651E+04  0.25500000920E-02 0.  1.
    10030    2    1    2    0    0  0.00000000000E+00  0.00000000000E+00 -0.17465461051E+03  0.34095507197E+04  0.34050744305E+04 0.  0.
        1    1    3    3  502    0  0.10584965377E+04  0.88815902687E+03  0.90866195055E+03  0.16537557007E+04  0.50400001928E-02 0. -1.
       -1    1    3    3    0  502 -0.10584965377E+04 -0.88815902687E+03 -0.10833165611E+04  0.17557950190E+04  0.50400001928E-02 0.  1.
</event>
<event>
 5   0  0.1473755E-07  0.3401385E+04  0.7818609E-02  0.8137567E-01
       -1   -1    0    0    0  501  0.00000000000E+00  0.00000000000E+00  0.14814690426E+04  0.14814690426E+04  0.50400001928E-02 0. -1.
        1   -1    0    0  501    0  0.00000000000E+00  0.00000000000E+00 -0.19523557482E+04  0.19523557482E+04  0.50400001928E-02 0.  1.
    10030    2    1    2    0    0  0.00000000000E+00  0.00000000000E+00 -0.47088670561E+03  0.34338247909E+04  0.34013847775E+04 0.  0.
        1    1    3    3  502    0  0.12460899443E+04  0.78503164403E+03  0.62316189741E+03  0.15991702792E+04  0.50400001928E-02 0.  1.
       -1    1    3    3    0  502 -0.12460899443E+04 -0.78503164403E+03 -0.10940486030E+04  0.18346545117E+04  0.50400001928E-02 0. -1.
</event>
<event>
 5   0  0.4486226E-07  0.3416288E+04  0.7818609E-02  0.8133920E-01
       -2   -1    0    0    0  501  0.00000000000E+00  0.00000000000E+00  0.22842762200E+04  0.22842762200E+04  0.25500000920E-02 0.  1.
        2   -1    0    0  501    0  0.00000000000E+00  0.00000000000E+00 -0.12773218169E+04  0.12773218169E+04  0.25500000920E-02 0. -1.
    10030    2    1    2    0    0  0.00000000000E+00  0.00000000000E+00  0.10069544031E+04  0.35615980370E+04  0.34162879573E+04 0.  0.
        1    1    3    3  502    0  0.25662018082E+03 -0.11927433366E+04  0.17498468177E+04  0.21331794274E+04  0.50400001928E-02 0.  1.
       -1    1    3    3    0  502 -0.25662018082E+03  0.11927433366E+04 -0.74289241462E+03  0.14284186095E+04  0.50400001928E-02 0. -1.
</event>
<event>
 5   0  0.4486226E-07  0.3402484E+04  0.7818609E-02  0.8137297E-01
       -2   -1    0    0    0  501  0.00000000000E+00  0.00000000000E+00  0.12432864967E+04  0.12432864967E+04  0.25500000920E-02 0. -1.
        2   -1    0    0  501    0  0.00000000000E+00  0.00000000000E+00 -0.23278824004E+04  0.23278824004E+04  0.25500000920E-02 0.  1.
    10030    2    1    2    0    0  0.00000000000E+00  0.00000000000E+00 -0.10845959037E+04  0.35711688971E+04  0.34024842421E+04 0.  0.
        1    1    3    3  502    0  0.74982711618E+03 -0.12634840112E+04  0.35788923468E+03  0.15121895566E+04  0.50400001928E-02 0.  1.
       -1    1    3    3    0  502 -0.74982711618E+03  0.12634840112E+04 -0.14424851383E+04  0.20589793406E+04  0.50400001928E-02 0. -1.
</event>
<event>
 5   0  0.4447909E-07  0.3403979E+04  0.7818609E-02  0.8136930E-01
        2   -1    0    0  501    0  0.00000000000E+00  0.00000000000E+00  0.21310997499E+04  0.21310997499E+04  0.25500000920E-02 0.  1.
       -2   -1    0    0    0  501  0.00000000000E+00  0.00000000000E+00 -0.13592834209E+04  0.13592834209E+04  0.25500000920E-02 0. -1.
    10030    2    1    2    0    0  0.00000000000E+00  0.00000000000E+00  0.77181632904E+03  0.34903831708E+04  0.34039791763E+04 0.  0.
        5    1    3    3  502    0  0.60593607610E+03 -0.83200009772E+02 -0.12426979550E+04  0.13850635607E+04  0.46999998093E+01 0. -1.
       -5    1    3    3    0  502 -0.60593607610E+03  0.83200009772E+02  0.20145142840E+04  0.21053196100E+04  0.46999998093E+01 0.  1.
</event>
<event>
 5   0  0.4381939E-07  0.3375581E+04  0.7818609E-02  0.8143926E-01
       -2   -1    0    0    0  501  0.00000000000E+00  0.00000000000E+00  0.27073112415E+04  0.27073112415E+04  0.25500000920E-02 0.  1.
        2   -1    0    0  501    0  0.00000000000E+00  0.00000000000E+00 -0.10522015235E+04  0.10522015235E+04  0.25500000920E-02 0. -1.
    10030    2    1    2    0    0  0.00000000000E+00  0.00000000000E+00  0.16551097180E+04  0.37595127650E+04  0.33755811429E+04 0.  0.
        3    1    3    3  502    0 -0.14522624717E+04  0.85998254927E+03  0.82850703173E+03  0.18801755726E+04  0.10100000352E+00 0.  1.
       -3    1    3    3    0  502  0.14522624717E+04 -0.85998254927E+03  0.82660268625E+03  0.18793371925E+04  0.10100000352E+00 0. -1.
</event>
<event>
 5   0  0.1523259E-07  0.3394949E+04  0.7818609E-02  0.8139147E-01
        1   -1    0    0  501    0  0.00000000000E+00  0.00000000000E+00  0.21597668470E+04  0.21597668470E+04  0.50400001928E-02 0.  1.
       -1   -1    0    0    0  501  0.00000000000E+00  0.00000000000E+00 -0.13341345469E+04  0.13341345469E+04  0.50400001928E-02 0. -1.
    10030    2    1    2    0    0  0.00000000000E+00  0.00000000000E+00  0.82563230010E+03  0.34939013939E+04  0.33949489326E+04 0.  0.
        4    1    3    3  502    0  0.13349465347E+04  0.89500872791E+03 -0.14926683808E+03  0.16141267222E+04  0.12699999809E+01 0. -1.
       -4    1    3    3    0  502 -0.13349465347E+04 -0.89500872791E+03  0.97489913818E+03  0.18797746716E+04  0.12699999809E+01 0.  1.
</event>
<event>
 5   0  0.1435806E-07  0.3396099E+04  0.7818609E-02  0.8138865E-01
       -1   -1    0    0    0  501  0.00000000000E+00  0.00000000000E+00  0.20635037983E+04  0.20635037983E+04  0.50400001928E-02 0. -1.
        1   -1    0    0  501    0  0.00000000000E+00  0.00000000000E+00 -0.13973181899E+04  0.13973181899E+04  0.50400001928E-02 0.  1.
    10030    2    1    2    0    0  0.00000000000E+00  0.00000000000E+00  0.66618560837E+03  0.34608219882E+04  0.33960985806E+04 0.  0.
        3    1    3    3  502    0 -0.11567405658E+03  0.10699141755E+02  0.20594496500E+04  0.20627234013E+04  0.10100000352E+00 0. -1.
       -3    1    3    3    0  502  0.11567405658E+03 -0.10699141755E+02 -0.13932640416E+04  0.13980985870E+04  0.10100000352E+00 0.  1.
</event>
<event>
 5   0  0.1520084E-07  0.3405351E+04  0.7818609E-02  0.8136594E-01
        1   -1    0    0  501    0  0.00000000000E+00  0.00000000000E+00  0.21851978893E+04  0.21851978894E+04  0.50400001928E-02 0.  1.
       -1   -1    0    0    0  501  0.00000000000E+00  0.00000000000E+00 -0.13267005348E+04  0.13267005348E+04  0.50400001928E-02 0. -1.
    10030    2    1    2    0    0  0.00000000000E+00  0.00000000000E+00  0.85849735457E+03  0.35118984241E+04  0.34053506183E+04 0.  0.
        2    1    3    3  502    0  0.30161608252E+00  0.82544393144E+03  0.19650532596E+04  0.21313826705E+04  0.25500000920E-02 0.  1.
       -2    1    3    3    0  502 -0.30161608252E+00 -0.82544393144E+03 -0.11065559051E+04  0.13805157536E+04  0.25500000920E-02 0. -1.
</event>
<event>
 5   0  0.1473755E-07  0.3409765E+04  0.7818609E-02  0.8135514E-01
       -1   -1    0    0    0  501  0.00000000000E+00  0.00000000000E+00  0.16014279859E+04  0.16014279859E+04  0.50400001928E-02 0.  1.
        1   -1    0    0  501    0  0.00000000000E+00  0.00000000000E+00 -0.18150198114E+04  0.18150198114E+04  0.50400001928E-02 0. -1.
    10030    2    1    2    0    0  0.00000000000E+00  0.00000000000E+00 -0.21359182557E+03  0.34164477973E+04  0.34097645203E+04 0.  0.
        1    1    3    3  502    0 -0.16591072402E+04 -0.28692525024E+03  0.16142373218E+03  0.16914551590E+04  0.50400001928E-02 0. -1.
       -1    1    3    3    0  502  0.16591072402E+04  0.28692525024E+03 -0.37501555775E+03  0.17249926383E+04  0.50400001928E-02 0.  1.
</event>
<event>
 5   0  0.4486226E-07  0.3399887E+04  0.7818609E-02  0.8137934E-01
        2   -1    0    0  501    0  0.00000000000E+00  0.00000000000E+00  0.13668629844E+04  0.13668629844E+04  0.25500000920E-02 0. -1.
       -2   -1    0    0    0  501  0.00000000000E+00  0.00000000000E+00 -0.21141903421E+04  0.21141903421E+04  0.25500000920E-02 0.  1.
    10030    2    1    2    0    0  0.00000000000E+00  0.00000000000E+00 -0.74732735773E+03  0.34810533265E+04  0.33998873632E+04 0.  0.
        1    1    3    3  502    0  0.16944390841E+03  0.85895081738E+03 -0.18656055628E+04  0.20608231027E+04  0.50400001928E-02 0.  1.
       -1    1    3    3    0  502 -0.16944390841E+03 -0.85895081738E+03  0.11182782050E+04  0.14202302238E+04  0.50400001928E-02 0. -1.
</event>
<event>
 5   0  0.1435806E-07  0.3415157E+04  0.7818609E-02  0.8134196E-01
       -1   -1    0    0    0  501  0.00000000000E+00  0.00000000000E+00  0.11817723785E+04  0.11817723785E+04  0.50400001928E-02 0.  1.
        1   -1    0    0  501    0  0.00000000000E+00  0.00000000000E+00 -0.24673317697E+04  0.24673317697E+04  0.50400001928E-02 0. -1.
    10030    2    1    2    0    0  0.00000000000E+00  0.00000000000E+00 -0.12855593912E+04  0.36491041482E+04  0.34151571173E+04 0.  0.
        3    1    3    3  502    0 -0.72954579715E+03 -0.42109314373E+03 -0.22298812055E+04  0.23836792374E+04  0.10100000352E+00 0. -1.
       -3    1    3    3    0  502  0.72954579715E+03  0.42109314373E+03  0.94432181425E+03  0.12654249108E+04  0.10100000352E+00 0.  1.
</event>
<event>
 5   0  0.4396257E-07  0.3399970E+04  0.7818609E-02  0.8137914E-01
       -2   -1    0    0    0  501  0.00000000000E+00  0.00000000000E+00  0.19604817850E+04  0.19604817850E+04  0.25500000920E-02 0. -1.
        2   -1    0    0  501    0  0.00000000000E+00  0.00000000000E+00 -0.14741010036E+04  0.14741010036E+04  0.25500000920E-02 0.  1.
    10030    2    1    2    0    0  0.00000000000E+00  0.00000000000E+00  0.48638078143E+03  0.34345827885E+04  0.33999695097E+04 0.  0.
        2    1    3    3  502    0 -0.15372043419E+03 -0.30221443719E+03  0.19259778148E+04  0.19555955822E+04  0.25500000920E-02 0. -1.
       -2    1    3    3    0  502  0.15372043419E+03  0.30221443719E+03 -0.14395970334E+04  0.14789872063E+04  0.25500000920E-02 0.  1.
</event>
<event>
 5   0  0.1421875E-07  0.3414104E+04  0.7818609E-02  0.8134453E-01
       -1   -1    0    0    0  501  0.00000000000E+00  0.00000000000E+00  0.13396957113E+04  0.13396957113E+04  0.50400001928E-02 0.  1.
        1   -1    0    0  501    0  0.00000000000E+00  0.00000000000E+00 -0.21751411062E+04  0.21751411063E+04  0.50400001928E-02 0. -1.
    10030    2    1    2    0    0  0.00000000000E+00  0.00000000000E+00 -0.83544539497E+03  0.35148368175E+04  0.34141043988E+04 0.  0.
        5    1    3    3  502    0 -0.44258248656E+03  0.16384995546E+04 -0.22944692069E+03  0.17126669341E+04  0.46999998093E+01 0.  1.
       -5    1    3    3    0  502  0.44258248656E+03 -0.16384995546E+04 -0.60599847427E+03  0.18021698834E+04  0.46999998093E+01 0. -1.
</event>
<event>
 5   0  0.4521737E-07  0.3401492E+04  0.7818609E-02  0.8137540E-01
        2   -1    0    0  501    0  0.00000000000E+00  0.00000000000E+00  0.21498361337E+04  0.21498361337E+04  0.25500000920E-02 0. -1.
       -2   -1    0    0    0  501  0.00000000000E+00  0.00000000000E+00 -0.13454688005E+04  0.13454688005E+04  0.25500000920E-02 0.  1.
    10030    2    1    2    0    0  0.00000000000E+00  0.00000000000E+00  0.80436733321E+03  0.34953049343E+04  0.34014922868E+04 0.  0.
        4    1    3    3  502    0 -0.84708219092E+03 -0.14657591543E+04  0.23478685701E+03  0.17091297838E+04  0.12699999809E+01 0.  1.
       -4    1    3    3    0  502  0.84708219092E+03  0.14657591543E+04  0.56958047621E+03  0.17861751505E+04  0.12699999809E+01 0. -1.
</event>
<event>
 5   0  0.4486226E-07  0.3210697E+04  0.7818609E-02  0.8185998E-01
        2   -1    0    0  501    0  0.00000000000E+00  0.00000000000E+00  0.29889929302E+04  0.29889929302E+04  0.25500000920E-02 0.  1.
       -2   -1    0    0    0  501  0.00000000000E+00  0.00000000000E+00 -0.86221132320E+03  0.86221132321E+03  0.25500000920E-02 0. -1.
    10030    2    1    2    0    0  0.00000000000E+00  0.00000000000E+00  0.21267816070E+04  0.38512042534E+04  0.32106968399E+04 0.  0.
        1    1    3    3  502    0 -0.12870765219E+04  0.90914647819E+03  0.14312071820E+04  0.21287243339E+04  0.50400001928E-02 0. -1.
       -1    1    3    3    0  502  0.12870765219E+04 -0.90914647819E+03  0.69557442500E+03  0.17224799194E+04  0.50400001928E-02 0.  1.
</event>
<event>
 5   0  0.4486226E-07  0.3407668E+04  0.7818609E-02  0.8136027E-01
        2   -1    0    0  501    0  0.00000000000E+00  0.00000000000E+00  0.14869877990E+04  0.14869877990E+04  0.25500000920E-02 0.  1.
       -2   -1    0    0    0  501  0.00000000000E+00  0.00000000000E+00 -0.19523024039E+04  0.19523024039E+04  0.25500000920E-02 0. -1.
    10030    2    1    2    0    0  0.00000000000E+00  0.00000000000E+00 -0.46531460490E+03  0.34392902029E+04  0.34076677389E+04 0.  0.
        1    1    3    3  502    0  0.16691622133E+04 -0.32129728399E+03 -0.11445768613E+03  0.17036534275E+04  0.50400001928E-02 0.  1.
       -1    1    3    3    0  502 -0.16691622133E+04  0.32129728399E+03 -0.35085691877E+03  0.17356367755E+04  0.50400001928E-02 0. -1.
</event>
<event>
 5   0  0.1523259E-07  0.3390058E+04  0.7818609E-02  0.8140351E-01
       -1   -1    0    0    0  501  0.00000000000E+00  0.00000000000E+00  0.25929352575E+04  0.25929352575E+04  0.50400001928E-02 0. -1.
        1   -1    0    0  501    0  0.00000000000E+00  0.00000000000E+00 -0.11080579961E+04  0.11080579961E+04  0.50400001928E-02 0.  1.
    10030    2    1    2    0    0  0.00000000000E+00  0.00000000000E+00  0.14848772614E+04  0.37009932536E+04  0.33900576074E+04 0.  0.
        4    1    3    3  502    0  0.37830407840E+02 -0.13998215591E+04 -0.30024786429E+03  0.14321598828E+04  0.12699999809E+01 0.  1.
       -4    1    3    3    0  502 -0.37830407840E+02  0.13998215591E+04  0.17851251257E+04  0.22688333708E+04  0.12699999809E+01 0. -1.
</event>
<event>
 5   0  0.4521737E-07  0.3400361E+04  0.7818609E-02  0.8137818E-01
       -2   -1    0    0    0  501  0.00000000000E+00  0.00000000000E+00  0.20232254501E+04  0.20232254501E+04  0.25500000920E-02 0.  1.
        2   -1    0    0  501    0  0.00000000000E+00  0.00000000000E+00 -0.14287159793E+04  0.14287159793E+04  0.25500000920E-02 0. -1.
    10030    2    1    2    0    0  0.00000000000E+00  0.00000000000E+00  0.59450947083E+03  0.34519414294E+04  0.34003614692E+04 0.  0.
        4    1    3    3  502    0 -0.13769480417E+03 -0.13540876674E+04  0.13315817164E+04  0.19041073369E+04  0.12699999809E+01 0.  1.
       -4    1    3    3    0  502  0.13769480417E+03  0.13540876674E+04 -0.73707224556E+03  0.15478340926E+04  0.12699999809E+01 0. -1.
</event>
<event>
 5   0  0.4521737E-07  0.3427101E+04  0.7818609E-02  0.8131287E-01
        2   -1    0    0  501    0  0.00000000000E+00  0.00000000000E+00  0.21429146066E+04  0.21429146066E+04  0.25500000920E-02 0. -1.
       -2   -1    0    0    0  501  0.00000000000E+00  0.00000000000E+00 -0.13702156009E+04  0.13702156009E+04  0.25500000920E-02 0.  1.
    10030    2    1    2    0    0  0.00000000000E+00  0.00000000000E+00  0.77269900568E+03  0.35131302075E+04  0.34271008304E+04 0.  0.
        4    1    3    3  502    0  0.95087779675E+03  0.13604711375E+04 -0.50015779698E+02  0.16605882968E+04  0.12699999809E+01 0.  1.
       -4    1    3    3    0  502 -0.95087779675E+03 -0.13604711375E+04  0.82271478538E+03  0.18525419108E+04  0.12699999809E+01 0. -1.
</event>
<event>
 5   0  0.1520084E-07  0.3434196E+04  0.7818609E-02  0.8129564E-01
       -1   -1    0    0    0  501  0.00000000000E+00  0.00000000000E+00  0.30393012737E+04  0.30393012737E+04  0.50400001928E-02 0.  1.
        1   -1    0    0  501    0  0.00000000000E+00  0.00000000000E+00 -0.97009982261E+03  0.97009982262E+03  0.50400001928E-02 0. -1.
    10030    2    1    2    0    0  0.00000000000E+00  0.00000000000E+00  0.20692014511E+04  0.40094010963E+04  0.34341960495E+04 0.  0.
        2    1    3    3  502    0  0.66648116740E+03  0.14343932516E+03  0.28745249439E+04  0.29542622835E+04  0.25500000920E-02 0.  1.
       -2    1    3    3    0  502 -0.66648116740E+03 -0.14343932516E+03 -0.80532349275E+03  0.10551388129E+04  0.25500000920E-02 0. -1.
</event>
<event>
 5   0  0.4486226E-07  0.3386476E+04  0.7818609E-02  0.8141234E-01
        2   -1    0    0  501    0  0.00000000000E+00  0.00000000000E+00  0.25210824585E+04  0.25210824585E+04  0.25500000920E-02 0.  1.
       -2   -1    0    0    0  501  0.00000000000E+00  0.00000000000E+00 -0.11372317429E+04  0.11372317429E+04  0.25500000920E-02 0. -1.
    10030    2    1    2    0    0  0.00000000000E+00  0.00000000000E+00  0.13838507156E+04  0.36583142013E+04  0.33864760434E+04 0.  0.
        1    1    3    3  502    0  0.30956892353E+03  0.45458084648E+03  0.24219049490E+04  0.24835660343E+04  0.50400001928E-02 0.  1.
       -1    1    3    3    0  502 -0.30956892353E+03 -0.45458084648E+03 -0.10380542335E+04  0.11747481671E+04  0.50400001928E-02 0. -1.
</event>
<event>
 5   0  0.1421875E-07  0.3345908E+04  0.7818609E-02  0.8151311E-01
       -1   -1    0    0    0  501  0.00000000000E+00  0.00000000000E+00  0.18828188412E+04  0.18828188412E+04  0.50400001928E-02 0.  1.
        1   -1    0    0  501    0  0.00000000000E+00  0.00000000000E+00 -0.14864816734E+04  0.14864816734E+04  0.50400001928E-02 0. -1.
    10030    2    1    2    0    0  0.00000000000E+00  0.00000000000E+00  0.39633716782E+03  0.33693005146E+04  0.33459083680E+04 0.  0.
        5    1    3    3  502    0  0.33097267910E+03  0.39465767297E+02 -0.14526992883E+04  0.14904555590E+04  0.46999998093E+01 0. -1.
       -5    1    3    3    0  502 -0.33097267910E+03 -0.39465767297E+02  0.18490364561E+04  0.18788449556E+04  0.46999998093E+01 0.  1.
</event>
<event>
 5   0  0.1421875E-07  0.3409892E+04  0.7818609E-02  0.8135483E-01
        1   -1    0    0  501    0  0.00000000000E+00  0.00000000000E+00  0.23881467549E+04  0.23881467549E+04  0.50400001928E-02 0. -1.
       -1   -1    0    0    0  501  0.00000000000E+00  0.00000000000E+00 -0.12171949252E+04  0.12171949252E+04  0.50400001928E-02 0.  1.
    10030    2    1    2    0    0  0.00000000000E+00  0.00000000000E+00  0.11709518296E+04  0.36053416801E+04  0.34098915589E+04 0.  0.
        5    1    3    3  502    0  0.16701756242E+04 -0.29115913447E+02  0.94633561304E+03  0.19198717495E+04  0.46999998093E+01 0. -1.
       -5    1    3    3    0  502 -0.16701756242E+04  0.29115913447E+02  0.22461621661E+03  0.16854699306E+04  0.46999998093E+01 0.  1.
</event>
<event>
 5   0  0.1421875E-07  0.3398302E+04  0.7818609E-02  0.8138323E-01
        1   -1    0    0  501    0  0.00000000000E+00  0.00000000000E+00  0.18484103858E+04  0.18484103858E+04  0.50400001928E-02 0.  1.
       -1   -1    0    0    0  501  0.00000000000E+00  0.00000000000E+00 -0.15619442013E+04  0.15619442013E+04  0.50400001928E-02 0. -1.
    10030    2    1    2    0    0  0.00000000000E+00  0.00000000000E+00  0.28646618446E+03  0.34103545871E+04  0.33983018605E+04 0.  0.
        5    1    3    3  502    0 -0.14450174163E+04  0.86034125197E+03 -0.10017485725E+03  0.16847312828E+04  0.46999998093E+01 0.  1.
       -5    1    3    3    0  502  0.14450174163E+04 -0.86034125197E+03  0.38664104171E+03  0.17256233043E+04  0.46999998093E+01 0. -1.
</event>
<event>
 5   0  0.1520084E-07  0.3395167E+04  0.7818609E-02  0.8139094E-01
       -1   -1    0    0    0  501  0.00000000000E+00  0.00000000000E+00  0.12460068321E+04  0.12460068321E+04  0.50400001928E-02 0. -1.
        1   -1    0    0  501    0  0.00000000000E+00  0.00000000000E+00 -0.23128201947E+04  0.23128201947E+04  0.50400001928E-02 0.  1.
    10030    2    1    2    0    0  0.00000000000E+00  0.00000000000E+00 -0.10668133626E+04  0.35588270267E+04  0.33951670144E+04 0.  0.
        2    1    3    3  502    0 -0.38309272720E+03 -0.69620531932E+03  0.10390136029E+04  0.13080562493E+04  0.25500000920E-02 0. -1.
       -2    1    3    3    0  502  0.38309272720E+03  0.69620531932E+03 -0.21058269655E+04  0.22507707775E+04  0.25500000920E-02 0.  1.
</event>
<event>
 5   0  0.4381939E-07  0.3388199E+04  0.7818609E-02  0.8140809E-01
        2   -1    0    0  501    0  0.00000000000E+00  0.00000000000E+00  0.27167458753E+04  0.27167458753E+04  0.25500000920E-02 0. -1.
       -2   -1    0    0    0  501  0.00000000000E+00  0.00000000000E+00 -0.10564008934E+04  0.10564008934E+04  0.25500000920E-02 0.  1.
    10030    2    1    2    0    0  0.00000000000E+00  0.00000000000E+00  0.16603449819E+04  0.37731467687E+04  0.33881987957E+04 0.  0.
        3    1    3    3  502    0  0.10472963599E+04  0.98028855928E+03 -0.17342663541E+03  0.14449471038E+04  0.10100000352E+00 0.  1.
       -3    1    3    3    0  502 -0.10472963599E+04 -0.98028855928E+03  0.18337716173E+04  0.23281996649E+04  0.10100000352E+00 0. -1.
</event>
<event>
 5   0  0.4447909E-07  0.3398324E+04  0.7818609E-02  0.8138318E-01
       -2   -1    0    0    0  501  0.00000000000E+00  0.00000000000E+00  0.10588244537E+04  0.10588244537E+04  0.25500000920E-02 0.  1.
        2   -1    0    0  501    0  0.00000000000E+00  0.00000000000E+00 -0.27267520798E+04  0.27267520798E+04  0.25500000920E-02 0. -1.
    10030    2    1    2    0    0  0.00000000000E+00  0.00000000000E+00 -0.16679276262E+04  0.37855765335E+04  0.33983241642E+04 0.  0.
        5    1    3    3  502    0  0.15776513135E+04  0.63053231008E+03 -0.86067618967E+03  0.19045577583E+04  0.46999998093E+01 0. -1.
       -5    1    3    3    0  502 -0.15776513135E+04 -0.63053231008E+03 -0.80725143649E+03  0.18810187753E+04  0.46999998093E+01 0.  1.
</event>
<event>
 5   0  0.4396257E-07  0.3398312E+04  0.7818609E-02  0.8138321E-01
       -2   -1    0    0    0  501  0.00000000000E+00  0.00000000000E+00  0.15816013148E+04  0.15816013148E+04  0.25500000920E-02 0.  1.
        2   -1    0    0  501    0  0.00000000000E+00  0.00000000000E+00 -0.18254481883E+04  0.18254481883E+04  0.25500000920E-02 0. -1.
    10030    2    1    2    0    0  0.00000000000E+00  0.00000000000E+00 -0.24384687355E+03  0.34070495031E+04  0.33983120838E+04 0.  0.
        2    1    3    3  502    0 -0.89633377746E+03  0.26474657602E+03 -0.15445948913E+04  0.18053471600E+04  0.25500000920E-02 0. -1.
       -2    1    3    3    0  502  0.89633377746E+03 -0.26474657602E+03  0.13007480177E+04  0.16017023430E+04  0.25500000920E-02 0.  1.
</event>
<event>
 5   0  0.1523259E-07  0.3416581E+04  0.7818609E-02  0.8133849E-01
        1   -1    0    0  501    0  0.00000000000E+00  0.00000000000E+00  0.21349285821E+04  0.21349285821E+04  0.50400001928E-02 0. -1.
       -1   -1    0    0    0  501  0.00000000000E+00  0.00000000000E+00 -0.13669103735E+04  0.13669103735E+04  0.50400001928E-02 0.  1.
    10030    2    1    2    0    0  0.00000000000E+00  0.00000000000E+00  0.76801820863E+03  0.35018389556E+04  0.34165807619E+04 0.  0.
        4    1    3    3  502    0  0.75390753406E+03  0.85584123259E+03 -0.91950287730E+03  0.14650351325E+04  0.12699999809E+01 0.  1.
       -4    1    3    3    0  502 -0.75390753406E+03 -0.85584123259E+03  0.16875210859E+04  0.20368038231E+04  0.12699999809E+01 0. -1.
</event>
<event>
 5   0  0.4486226E-07  0.3397463E+04  0.7818609E-02  0.8138529E-01
        2   -1    0    0  501    0  0.00000000000E+00  0.00000000000E+00  0.19821058174E+04  0.19821058174E+04  0.25500000920E-02 0.  1.
       -2   -1    0    0    0  501  0.00000000000E+00  0.00000000000E+00 -0.14558703000E+04  0.14558703000E+04  0.25500000920E-02 0. -1.
    10030    2    1    2    0    0  0.00000000000E+00  0.00000000000E+00  0.52623551742E+03  0.34379761174E+04  0.33974631659E+04 0.  0.
        1    1    3    3  502    0 -0.16046243771E+04  0.48136137457E+03  0.54782811049E+03  0.17625673897E+04  0.50400001928E-02 0.  1.
       -1    1    3    3    0  502  0.16046243771E+04 -0.48136137457E+03 -0.21592593067E+02  0.16754087277E+04  0.50400001928E-02 0. -1.
</event>
<event>
 5   0  0.1520084E-07  0.3313739E+04  0.7818609E-02  0.8159408E-01
        1   -1    0    0  501    0  0.00000000000E+00  0.00000000000E+00  0.20236653788E+04  0.20236653788E+04  0.50400001928E-02 0. -1.
       -1   -1    0    0    0  501  0.00000000000E+00  0.00000000000E+00 -0.13565567643E+04  0.13565567643E+04  0.50400001928E-02 0.  1.
    10030    2    1    2    0    0  0.00000000000E+00  0.00000000000E+00  0.66710861449E+03  0.33802221431E+04  0.33137392525E+04 0.  0.
        2    1    3    3  502    0 -0.81689570525E+03  0.70747002496E+03 -0.94758306034E+03  0.14372703593E+04  0.25500000920E-02 0.  1.
       -2    1    3    3    0  502  0.81689570525E+03 -0.70747002496E+03  0.16146916748E+04  0.19429517838E+04  0.25500000920E-02 0. -1.
</event>
<event>
 5   0  0.1473755E-07  0.3372418E+04  0.7818609E-02  0.8144709E-01
       -1   -1    0    0    0  501  0.00000000000E+00  0.00000000000E+00  0.19276735586E+04  0.19276735586E+04  0.50400001928E-02 0.  1.
        1   -1    0    0  501    0  0.00000000000E+00  0.00000000000E+00 -0.14749911324E+04  0.14749911324E+04  0.50400001928E-02 0. -1.
    10030    2    1    2    0    0  0.00000000000E+00  0.00000000000E+00  0.45268242621E+03  0.34026646911E+04  0.33724183638E+04 0.  0.
        1    1    3    3  502    0 -0.64229781134E+03  0.13759315397E+04  0.96610682704E+03  0.17997490052E+04  0.50400001928E-02 0.  1.
       -1    1    3    3    0  502  0.64229781134E+03 -0.13759315397E+04 -0.51342440083E+03  0.16029156858E+04  0.50400001928E-02 0. -1.
</event>
<event>
 5   0  0.1435806E-07  0.3398749E+04  0.7818609E-02  0.8138213E-01
        1   -1    0    0  501    0  0.00000000000E+00  0.00000000000E+00  0.17011057349E+04  0.17011057349E+04  0.50400001928E-02 0.  1.
       -1   -1    0    0    0  501  0.00000000000E+00  0.00000000000E+00 -0.16976453875E+04  0.16976453875E+04  0.50400001928E-02 0. -1.
    10030    2    1    2    0    0  0.00000000000E+00  0.00000000000E+00  0.34603474130E+01  0.33987511224E+04  0.33987493608E+04 0.  0.
        3    1    3    3  502    0 -0.55767372998E+03 -0.25402969262E+03 -0.15833079409E+04  0.16977617971E+04  0.10100000352E+00 0. -1.
       -3    1    3    3    0  502  0.55767372998E+03  0.25402969262E+03  0.15867682883E+04  0.17009893253E+04  0.10100000352E+00 0.  1.
</event>
<event>
 5   0  0.1520084E-07  0.3347747E+04  0.7818609E-02  0.8150851E-01
       -1   -1    0    0    0  501  0.00000000000E+00  0.00000000000E+00  0.24791362185E+04  0.24791362185E+04  0.50400001928E-02 0. -1.
        1   -1    0    0  501    0  0.00000000000E+00  0.00000000000E+00 -0.11301729510E+04  0.11301729510E+04  0.50400001928E-02 0.  1.
    10030    2    1    2    0    0  0.00000000000E+00  0.00000000000E+00  0.13489632675E+04  0.36093091696E+04  0.33477471207E+04 0.  0.
        2    1    3    3  502    0 -0.10671418029E+04  0.12868004645E+04  0.76599984267E+03  0.18388591088E+04  0.25500000920E-02 0. -1.
       -2    1    3    3    0  502  0.10671418029E+04 -0.12868004645E+04  0.58296342486E+03  0.17704500608E+04  0.25500000920E-02 0.  1.
</event>
<event>
 5   0  0.1435806E-07  0.3533621E+04  0.7818609E-02  0.8105868E-01
        1   -1    0    0  501    0  0.00000000000E+00  0.00000000000E+00  0.18587647206E+04  0.18587647206E+04  0.50400001928E-02 0.  1.
       -1   -1    0    0    0  501  0.00000000000E+00  0.00000000000E+00 -0.16794048658E+04  0.16794048658E+04  0.50400001928E-02 0. -1.
    10030    2    1    2    0    0  0.00000000000E+00  0.00000000000E+00  0.17935985483E+03  0.35381695864E+04  0.35336205321E+04 0.  0.
        3    1    3    3  502    0  0.12119883289E+04 -0.70927782582E+03 -0.98390735146E+03  0.17146616081E+04  0.10100000352E+00 0. -1.
       -3    1    3    3    0  502 -0.12119883289E+04  0.70927782582E+03  0.11632672063E+04  0.18235079784E+04  0.10100000352E+00 0.  1.
</event>
<event>
 5   0  0.1473755E-07  0.3403863E+04  0.7818609E-02  0.8136959E-01
       -1   -1    0    0    0  501  0.00000000000E+00  0.00000000000E+00  0.14260386644E+04  0.14260386644E+04  0.50400001928E-02 0. -1.
        1   -1    0    0  501    0  0.00000000000E+00  0.00000000000E+00 -0.20312003320E+04  0.20312003320E+04  0.50400001928E-02 0.  1.
    10030    2    1    2    0    0  0.00000000000E+00  0.00000000000E+00 -0.60516166760E+03  0.34572389964E+04  0.34038626345E+04 0.  0.
        1    1    3    3  502    0  0.12583965647E+01  0.91020379836E+03 -0.17632198603E+04  0.19842925222E+04  0.50400001928E-02 0.  1.
       -1    1    3    3    0  502 -0.12583965647E+01 -0.91020379836E+03  0.11580581927E+04  0.14729464742E+04  0.50400001928E-02 0. -1.
</event>
<event>
 5   0  0.1520084E-07  0.3556645E+04  0.7818609E-02  0.8100495E-01
        1   -1    0    0  501    0  0.00000000000E+00  0.00000000000E+00  0.15839121800E+04  0.15839121800E+04  0.50400001928E-02 0. -1.
       -1   -1    0    0    0  501  0.00000000000E+00  0.00000000000E+00 -0.19965953494E+04  0.19965953494E+04  0.50400001928E-02 0.  1.
    10030    2    1    2    0    0  0.00000000000E+00  0.00000000000E+00 -0.41268316940E+03  0.35805075295E+04  0.35566454378E+04 0.  0.
        2    1    3    3  502    0  0.68273001026E+03  0.16079368451E+04 -0.54151757542E+03  0.18288855757E+04  0.25500000920E-02 0. -1.
       -2    1    3    3    0  502 -0.68273001026E+03 -0.16079368451E+04  0.12883440603E+03  0.17516219537E+04  0.25500000920E-02 0.  1.
</event>
<event>
 5   0  0.4396257E-07  0.3361901E+04  0.7818609E-02  0.8147321E-01
       -2   -1    0    0    0  501  0.00000000000E+00  0.00000000000E+00  0.13712410362E+04  0.13712410362E+04  0.25500000920E-02 0.  1.
        2   -1    0    0  501    0  0.00000000000E+00  0.00000000000E+00 -0.20606105732E+04  0.20606105732E+04  0.25500000920E-02 0. -1.
    10030    2    1    2    0    0  0.00000000000E+00  0.00000000000E+00 -0.68936953701E+03  0.34318516093E+04  0.33619005205E+04 0.  0.
        2    1    3    3  502    0 -0.25614922977E+03  0.15668016268E+03 -0.20330121262E+04  0.20550667645E+04  0.25500000920E-02 0. -1.
       -2    1    3    3    0  502  0.25614922977E+03 -0.15668016268E+03  0.13436425892E+04  0.13767848448E+04  0.25500000920E-02 0.  1.
</event>
<event>
 5   0  0.1520084E-07  0.3393253E+04  0.7818609E-02  0.8139564E-01
        1   -1    0    0  501    0  0.00000000000E+00  0.00000000000E+00  0.19571201195E+04  0.19571201195E+04  0.50400001928E-02 0.  1.
       -1   -1    0    0    0  501  0.00000000000E+00  0.00000000000E+00 -0.14708046639E+04  0.14708046639E+04  0.50400001928E-02 0. -1.
    10030    2    1    2    0    0  0.00000000000E+00  0.00000000000E+00  0.48631545560E+03  0.34279247835E+04  0.33932529524E+04 0.  0.
        2    1    3    3  502    0 -0.11681835631E+04  0.48252183672E+03  0.13865624827E+04  0.18761758122E+04  0.25500000920E-02 0.  1.
       -2    1    3    3    0  502  0.11681835631E+04 -0.48252183672E+03 -0.90024702712E+03  0.15517489712E+04  0.25500000920E-02 0. -1.
</event>
<event>
 5   0  0.1421875E-07  0.3399299E+04  0.7818609E-02  0.8138078E-01
       -1   -1    0    0    0  501  0.00000000000E+00  0.00000000000E+00  0.15949273075E+04  0.15949273075E+04  0.50400001928E-02 0.  1.
        1   -1    0    0  501    0  0.00000000000E+00  0.00000000000E+00 -0.18112474063E+04  0.18112474064E+04  0.50400001928E-02 0. -1.
    10030    2    1    2    0    0  0.00000000000E+00  0.00000000000E+00 -0.21632009886E+03  0.34061747138E+04  0.33992987212E+04 0.  0.
        5    1    3    3  502    0 -0.75572642785E+03 -0.55039555682E+03 -0.15304423895E+04  0.17934139791E+04  0.46999998093E+01 0. -1.
       -5    1    3    3    0  502  0.75572642785E+03  0.55039555682E+03  0.13141222907E+04  0.16127607348E+04  0.46999998093E+01 0.  1.
</event>
<event>
 5   0  0.4381939E-07  0.3396313E+04  0.7818609E-02  0.8138812E-01
       -2   -1    0    0    0  501  0.00000000000E+00  0.00000000000E+00  0.17816118334E+04  0.17816118334E+04  0.25500000920E-02 0.  1.
        2   -1    0    0  501    0  0.00000000000E+00  0.00000000000E+00 -0.16186100665E+04  0.16186100665E+04  0.25500000920E-02 0. -1.
    10030    2    1    2    0    0  0.00000000000E+00  0.00000000000E+00  0.16300176688E+03  0.34002219000E+04  0.33963126171E+04 0.  0.
        3    1    3    3  502    0  0.87898213052E+03 -0.26894000070E+03 -0.13480069660E+04  0.16315823915E+04  0.10100000352E+00 0. -1.
       -3    1    3    3    0  502 -0.87898213052E+03  0.26894000070E+03  0.15110087329E+04  0.17686395084E+04  0.10100000352E+00 0.  1.
</event>
<event>
 5   0  0.4381939E-07  0.3404184E+04  0.7818609E-02  0.8136880E-01
       -2   -1    0    0    0  501  0.00000000000E+00  0.00000000000E+00  0.21866963725E+04  0.21866963725E+04  0.25500000920E-02 0.  1.
        2   -1    0    0  501    0  0.00000000000E+00  0.00000000000E+00 -0.13248831503E+04  0.13248831503E+04  0.25500000920E-02 0. -1.
    10030    2    1    2    0    0  0.00000000000E+00  0.00000000000E+00  0.86181322224E+03  0.35115795228E+04  0.34041840013E+04 0.  0.
        3    1    3    3  502    0 -0.82155158021E+03 -0.55799118904E+03 -0.99502572064E+03  0.14058368899E+04  0.10100000352E+00 0. -1.
       -3    1    3    3    0  502  0.82155158021E+03  0.55799118904E+03  0.18568389429E+04  0.21057426329E+04  0.10100000352E+00 0.  1.
</event>
<event>
 5   0  0.4521737E-07  0.3397429E+04  0.7818609E-02  0.8138538E-01
       -2   -1    0    0    0  501  0.00000000000E+00  0.00000000000E+00  0.11191509770E+04  0.11191509770E+04  0.25500000920E-02 0. -1.
        2   -1    0    0  501    0  0.00000000000E+00  0.00000000000E+00 -0.25784102689E+04  0.25784102689E+04  0.25500000920E-02 0.  1.
    10030    2    1    2    0    0  0.00000000000E+00  0.00000000000E+00 -0.14592592918E+04  0.36975612459E+04  0.33974286581E+04 0.  0.
        4    1    3    3  502    0  0.11001958151E+04  0.10598304484E+04 -0.15381999553E+04  0.21678865575E+04  0.12699999809E+01 0.  1.
       -4    1    3    3    0  502 -0.11001958151E+04 -0.10598304484E+04  0.78940663493E+02  0.15296746884E+04  0.12699999809E+01 0. -1.
</event>
<event>
 5   0  0.4381939E-07  0.3514085E+04  0.7818609E-02  0.8110460E-01
       -2   -1    0    0    0  501  0.00000000000E+00  0.00000000000E+00  0.19204511769E+04  0.19204511769E+04  0.25500000920E-02 0. -1.
        2   -1    0    0  501    0  0.00000000000E+00  0.00000000000E+00 -0.16075382904E+04  0.16075382904E+04  0.25500000920E-02 0.  1.
    10030    2    1    2    0    0  0.00000000000E+00  0.00000000000E+00  0.31291288649E+03  0.35279894672E+04  0.35140852588E+04 0.  0.
        3    1    3    3  502    0 -0.10218275454E+04  0.17644077311E+03 -0.12675831262E+04  0.16376904075E+04  0.10100000352E+00 0.  1.
       -3    1    3    3    0  502  0.10218275454E+04 -0.17644077311E+03  0.15804960127E+04  0.18902990597E+04  0.10100000352E+00 0. -1.
</event>
<event>
 5   0  0.4486226E-07  0.3337193E+04  0.7818609E-02  0.8153496E-01
       -2   -1    0    0    0  501  0.00000000000E+00  0.00000000000E+00  0.12835127178E+04  0.12835127178E+04  0.25500000920E-02 0.  1.
        2   -1    0    0  501    0  0.00000000000E+00  0.00000000000E+00 -0.21692141305E+04  0.21692141305E+04  0.25500000920E-02 0. -1.
    10030    2    1    2    0    0  0.00000000000E+00  0.00000000000E+00 -0.88570141272E+03  0.34527268484E+04  0.33371927869E+04 0.  0.
        1    1    3    3  502    0 -0.62581696716E+03 -0.73555606875E+03  0.96496444797E+03  0.13652274508E+04  0.50400001928E-02 0.  1.
       -1    1    3    3    0  502  0.62581696716E+03  0.73555606875E+03 -0.18506658607E+04  0.20874993975E+04  0.50400001928E-02 0. -1.
</event>
<event>
 5   0  0.4381939E-07  0.3440188E+04  0.7818609E-02  0.8128113E-01
       -2   -1    0    0    0  501  0.00000000000E+00  0.00000000000E+00  0.27472633538E+04  0.27472633538E+04  0.25500000920E-02 0.  1.
        2   -1    0    0  501    0  0.00000000000E+00  0.00000000000E+00 -0.10769710790E+04  0.10769710790E+04  0.25500000920E-02 0. -1.
    10030    2    1    2    0    0  0.00000000000E+00  0.00000000000E+00  0.16702922749E+04  0.38242344328E+04  0.34401878893E+04 0.  0.
        3    1    3    3  502    0  0.21281433743E+03 -0.11996964509E+03  0.27278797159E+04  0.27387972566E+04  0.10100000352E+00 0.  1.
       -3    1    3    3    0  502 -0.21281433743E+03  0.11996964509E+03 -0.10575874410E+04  0.10854371763E+04  0.10100000352E+00 0. -1.
</event>
<event>
 5   0  0.4447909E-07  0.3421538E+04  0.7818609E-02  0.8132640E-01
        2   -1    0    0  501    0  0.00000000000E+00  0.00000000000E+00  0.21520618182E+04  0.21520618182E+04  0.25500000920E-02 0.  1.
       -2   -1    0    0    0  501  0.00000000000E+00  0.00000000000E+00 -0.13599660756E+04  0.13599660756E+04  0.25500000920E-02 0. -1.
    10030    2    1    2    0    0  0.00000000000E+00  0.00000000000E+00  0.79209574260E+03  0.35120278938E+04  0.34215382888E+04 0.  0.
        5    1    3    3  502    0 -0.99713443333E+03 -0.12632380498E+04 -0.19952279142E+03  0.16216901315E+04  0.46999998093E+01 0. -1.
       -5    1    3    3    0  502  0.99713443333E+03  0.12632380498E+04  0.99161853402E+03  0.18903377623E+04  0.46999998093E+01 0.  1.
</event>
<event>
 5   0  0.1421875E-07  0.3397874E+04  0.7818609E-02  0.8138428E-01
        1   -1    0    0  501    0  0.00000000000E+00  0.00000000000E+00  0.18132516348E+04  0.18132516348E+04  0.50400001928E-02 0.  1.
       -1   -1    0    0    0  501  0.00000000000E+00  0.00000000000E+00 -0.15918296392E+04  0.15918296392E+04  0.50400001928E-02 0. -1.
    10030    2    1    2    0    0  0.00000000000E+00  0.00000000000E+00  0.22142199552E+03  0.34050812740E+04  0.33978744507E+04 0.  0.
        5    1    3    3  502    0 -0.12468860536E+04  0.10316452881E+04  0.62886547269E+03  0.17362346339E+04  0.46999998093E+01 0.  1.
       -5    1    3    3    0  502  0.12468860536E+04 -0.10316452881E+04 -0.40744347718E+03  0.16688466401E+04  0.46999998093E+01 0. -1.
</event>
<event>
 5   0  0.1473755E-07  0.3389536E+04  0.7818609E-02  0.8140479E-01
        1   -1    0    0  501    0  0.00000000000E+00  0.00000000000E+00  0.24351650999E+04  0.24351650999E+04  0.50400001928E-02 0. -1.
       -1   -1    0    0    0  501  0.00000000000E+00  0.00000000000E+00 -0.11794841184E+04  0.11794841184E+04  0.50400001928E-02 0.  1.
    10030    2    1    2    0    0  0.00000000000E+00  0.00000000000E+00  0.12556809815E+04  0.36146492183E+04  0.33895359924E+04 0.  0.
        1    1    3    3  502    0  0.17672356778E+03 -0.60751032580E+03  0.23044994839E+04  0.23897736057E+04  0.50400001928E-02 0. -1.
       -1    1    3    3    0  502 -0.17672356778E+03  0.60751032580E+03 -0.10488185023E+04  0.12248756126E+04  0.50400001928E-02 0.  1.
</event>
<event>
 5   0  0.1435806E-07  0.3443699E+04  0.7818609E-02  0.8127264E-01
       -1   -1    0    0    0  501  0.00000000000E+00  0.00000000000E+00  0.16970432045E+04  0.16970432045E+04  0.50400001928E-02 0.  1.
        1   -1    0    0  501    0  0.00000000000E+00  0.00000000000E+00 -0.17470185802E+04  0.17470185803E+04  0.50400001928E-02 0. -1.
    10030    2    1    2    0    0  0.00000000000E+00  0.00000000000E+00 -0.49975375743E+02  0.34440617848E+04  0.34436991795E+04 0.  0.
        3    1    3    3  502    0 -0.10277437933E+04  0.11773305412E+04  0.69786188871E+03  0.17115419170E+04  0.10100000352E+00 0.  1.
       -3    1    3    3    0  502  0.10277437933E+04 -0.11773305412E+04 -0.74783726445E+03  0.17325198677E+04  0.10100000352E+00 0. -1.
</event>
<event>
 5   0  0.1473755E-07  0.3342069E+04  0.7818609E-02  0.8152273E-01
        1   -1    0    0  501    0  0.00000000000E+00  0.00000000000E+00  0.88062290482E+03  0.88062290483E+03  0.50400001928E-02 0.  1.
       -1   -1    0    0    0  501  0.00000000000E+00  0.00000000000E+00 -0.31708875768E+04  0.31708875768E+04  0.50400001928E-02 0. -1.
    10030    2    1    2    0    0  0.00000000000E+00  0.00000000000E+00 -0.22902646720E+04  0.40515104816E+04  0.33420689572E+04 0.  0.
        1    1    3    3  502    0 -0.20029668774E+03 -0.15326449804E+04 -0.37532569001E+03  0.15905938427E+04  0.50400001928E-02 0.  1.
       -1    1    3    3    0  502  0.20029668774E+03  0.15326449804E+04 -0.19149389819E+04  0.24609166389E+04  0.50400001928E-02 0. -1.
</event>
<event>
 5   0  0.1523259E-07  0.3394547E+04  0.7818609E-02  0.8139246E-01
        1   -1    0    0  501    0  0.00000000000E+00  0.00000000000E+00  0.16950685307E+04  0.16950685307E+04  0.50400001928E-02 0.  1.
       -1   -1    0    0    0  501  0.00000000000E+00  0.00000000000E+00 -0.16994811984E+04  0.16994811984E+04  0.50400001928E-02 0. -1.
    10030    2    1    2    0    0  0.00000000000E+00  0.00000000000E+00 -0.44126676739E+01  0.33945497291E+04  0.33945468610E+04 0.  0.
        4    1    3    3  502    0 -0.10405723355E+03  0.85279522211E+03 -0.14659862036E+04  0.16991776719E+04  0.12699999809E+01 0. -1.
       -4    1    3    3    0  502  0.10405723355E+03 -0.85279522211E+03  0.14615735359E+04  0.16953720572E+04  0.12699999809E+01 0.  1.
</event>
<event>
 5   0  0.4521737E-07  0.3398540E+04  0.7818609E-02  0.8138265E-01
       -2   -1    0    0    0  501  0.00000000000E+00  0.00000000000E+00  0.12436371962E+04  0.12436371962E+04  0.25500000920E-02 0.  1.
        2   -1    0    0  501    0  0.00000000000E+00  0.00000000000E+00 -0.23218340452E+04  0.23218340452E+04  0.25500000920E-02 0. -1.
    10030    2    1    2    0    0  0.00000000000E+00  0.00000000000E+00 -0.10781968490E+04  0.35654712414E+04  0.33985403820E+04 0.  0.
        4    1    3    3  502    0  0.27654677162E+03 -0.15630924789E+03  0.12122088637E+04  0.12531411094E+04  0.12699999809E+01 0.  1.
       -4    1    3    3    0  502 -0.27654677162E+03  0.15630924789E+03 -0.22904057127E+04  0.23123301320E+04  0.12699999809E+01 0. -1.
</event>
<event>
 5   0  0.4447909E-07  0.3427330E+04  0.7818609E-02  0.8131231E-01
       -2   -1    0    0    0  501  0.00000000000E+00  0.00000000000E+00  0.14681499233E+04  0.14681499233E+04  0.25500000920E-02 0.  1.
        2   -1    0    0  501    0  0.00000000000E+00  0.00000000000E+00 -0.20002371247E+04  0.20002371247E+04  0.25500000920E-02 0. -1.
    10030    2    1    2    0    0  0.00000000000E+00  0.00000000000E+00 -0.53208720134E+03  0.34683870480E+04  0.34273301453E+04 0.  0.
        5    1    3    3  502    0 -0.14548349548E+04  0.37993080923E+03  0.56583396534E+03  0.16065747203E+04  0.46999998093E+01 0.  1.
       -5    1    3    3    0  502  0.14548349548E+04 -0.37993080923E+03 -0.10979211667E+04  0.18618123277E+04  0.46999998093E+01 0. -1.
</event>
<event>
 5   0  0.1473755E-07  0.3401536E+04  0.7818609E-02  0.8137529E-01
        1   -1    0    0  501    0  0.00000000000E+00  0.00000000000E+00  0.10283401271E+04  0.10283401271E+04  0.50400001928E-02 0.  1.
       -1   -1    0    0    0  501  0.00000000000E+00  0.00000000000E+00 -0.28128947648E+04  0.28128947648E+04  0.50400001928E-02 0. -1.
    10030    2    1    2    0    0  0.00000000000E+00  0.00000000000E+00 -0.17845546377E+04  0.38412348920E+04  0.34015364529E+04 0.  0.
        1    1    3    3  502    0  0.25902730868E+03  0.52552921037E+03 -0.26953337301E+04  0.27582784511E+04  0.50400001928E-02 0. -1.
       -1    1    3    3    0  502 -0.25902730868E+03 -0.52552921037E+03  0.91077909237E+03  0.10829564408E+04  0.50400001928E-02 0.  1.
</event>
<event>
 5   0  0.4381939E-07  0.3394614E+04  0.7818609E-02  0.8139229E-01
        2   -1    0    0  501    0  0.00000000000E+00  0.00000000000E+00  0.10518175130E+04  0.10518175130E+04  0.25500000920E-02 0.  1.
       -2   -1    0    0    0  501  0.00000000000E+00  0.00000000000E+00 -0.27389271802E+04  0.27389271802E+04  0.25500000920E-02 0. -1.
    10030    2    1    2    0    0  0.00000000000E+00  0.00000000000E+00 -0.16871096673E+04  0.37907446932E+04  0.33946143080E+04 0.  0.
        3    1    3    3  502    0  0.13020469643E+04 -0.38797425991E+03  0.29251370644E+03  0.13897534322E+04  0.10100000352E+00 0.  1.
       -3    1    3    3    0  502 -0.13020469643E+04  0.38797425991E+03 -0.19796233737E+04  0.24009912610E+04  0.10100000352E+00 0. -1.
</event>
<event>
 5   0  0.4486226E-07  0.3395997E+04  0.7818609E-02  0.8138890E-01
       -2   -1    0    0    0  501  0.00000000000E+00  0.00000000000E+00  0.13906063568E+04  0.13906063568E+04  0.25500000920E-02 0. -1.
        2   -1    0    0  501    0  0.00000000000E+00  0.00000000000E+00 -0.20733391690E+04  0.20733391690E+04  0.25500000920E-02 0.  1.
    10030    2    1    2    0    0  0.00000000000E+00  0.00000000000E+00 -0.68273281221E+03  0.34639455257E+04  0.33959968363E+04 0.  0.
        1    1    3    3  502    0 -0.14903476584E+03 -0.68503019391E+03 -0.19188288412E+04  0.20428856674E+04  0.50400001928E-02 0.  1.
       -1    1    3    3    0  502  0.14903476584E+03  0.68503019391E+03  0.12360960290E+04  0.14210598583E+04  0.50400001928E-02 0. -1.
</event>
<event>
 5   0  0.4396257E-07  0.3403584E+04  0.7818609E-02  0.8137027E-01
       -2   -1    0    0    0  501  0.00000000000E+00  0.00000000000E+00  0.16482137707E+04  0.16482137707E+04  0.25500000920E-02 0. -1.
        2   -1    0    0  501    0  0.00000000000E+00  0.00000000000E+00 -0.17571122328E+04  0.17571122328E+04  0.25500000920E-02 0.  1.
    10030    2    1    2    0    0  0.00000000000E+00  0.00000000000E+00 -0.10889846211E+03  0.34053260036E+04  0.34035843335E+04 0.  0.
        2    1    3    3  502    0  0.74324840443E+02  0.36225631969E+03 -0.17164262106E+04  0.17558111400E+04  0.25500000920E-02 0.  1.
       -2    1    3    3    0  502 -0.74324840443E+02 -0.36225631969E+03  0.16075277485E+04  0.16495148636E+04  0.25500000920E-02 0. -1.
</event>
<event>
 5   0  0.1520084E-07  0.3338069E+04  0.7818609E-02  0.8153276E-01
       -1   -1    0    0    0  501  0.00000000000E+00  0.00000000000E+00  0.21083257571E+04  0.21083257571E+04  0.50400001928E-02 0.  1.
        1   -1    0    0  501    0  0.00000000000E+00  0.00000000000E+00 -0.13212739729E+04  0.13212739729E+04  0.50400001928E-02 0. -1.
    10030    2    1    2    0    0  0.00000000000E+00  0.00000000000E+00  0.78705178422E+03  0.34295997300E+04  0.33380688724E+04 0.  0.
        2    1    3    3  502    0  0.14842327590E+04  0.32303135336E+03  0.11041412099E+04  0.18778775119E+04  0.25500000920E-02 0.  1.
       -2    1    3    3    0  502 -0.14842327590E+04 -0.32303135336E+03 -0.31708942565E+03  0.15517222181E+04  0.25500000920E-02 0. -1.
</event>
<event>
 5   0  0.1523259E-07  0.3408940E+04  0.7818609E-02  0.8135716E-01
       -1   -1    0    0    0  501  0.00000000000E+00  0.00000000000E+00  0.18033662788E+04  0.18033662788E+04  0.50400001928E-02 0.  1.
        1   -1    0    0  501    0  0.00000000000E+00  0.00000000000E+00 -0.16109971548E+04  0.16109971548E+04  0.50400001928E-02 0. -1.
    10030    2    1    2    0    0  0.00000000000E+00  0.00000000000E+00  0.19236912402E+03  0.34143634337E+04  0.34089399785E+04 0.  0.
        4    1    3    3  502    0 -0.64468176294E+03  0.10314311703E+04  0.12921325985E+04  0.17745627911E+04  0.12699999809E+01 0. -1.
       -4    1    3    3    0  502  0.64468176294E+03 -0.10314311703E+04 -0.10997634745E+04  0.16398006425E+04  0.12699999809E+01 0.  1.
</event>
<event>
 5   0  0.4447909E-07  0.3395117E+04  0.7818609E-02  0.8139106E-01
        2   -1    0    0  501    0  0.00000000000E+00  0.00000000000E+00  0.15668487956E+04  0.15668487956E+04  0.25500000920E-02 0.  1.
       -2   -1    0    0    0  501  0.00000000000E+00  0.00000000000E+00 -0.18391725583E+04  0.18391725583E+04  0.25500000920E-02 0. -1.
    10030    2    1    2    0    0  0.00000000000E+00  0.00000000000E+00 -0.27232376274E+03  0.34060213539E+04  0.33951172633E+04 0.  0.
        5    1    3    3  502    0  0.11014816897E+04 -0.11010508780E+04  0.54136504622E+03  0.16488399413E+04  0.46999998093E+01 0.  1.
       -5    1    3    3    0  502 -0.11014816897E+04  0.11010508780E+04 -0.81368880896E+03  0.17571814126E+04  0.46999998093E+01 0. -1.
</event>
<event>
 5   0  0.1520084E-07  0.3382865E+04  0.7818609E-02  0.8142125E-01
        1   -1    0    0  501    0  0.00000000000E+00  0.00000000000E+00  0.20555673683E+04  0.20555673683E+04  0.50400001928E-02 0. -1.
       -1   -1    0    0    0  501  0.00000000000E+00  0.00000000000E+00 -0.13918025904E+04  0.13918025904E+04  0.50400001928E-02 0.  1.
    10030    2    1    2    0    0  0.00000000000E+00  0.00000000000E+00  0.66376477789E+03  0.34473699586E+04  0.33828650507E+04 0.  0.
        2    1    3    3  502    0  0.17716940265E+03  0.15499111035E+04 -0.33428780347E+03  0.15954189925E+04  0.25500000920E-02 0.  1.
       -2    1    3    3    0  502 -0.17716940265E+03 -0.15499111035E+04  0.99805258137E+03  0.18519509662E+04  0.25500000920E-02 0. -1.
</event>
<event>
 5   0  0.1421875E-07  0.3388612E+04  0.7818609E-02  0.8140707E-01
       -1   -1    0    0    0  501  0.00000000000E+00  0.00000000000E+00  0.12964617993E+04  0.12964617994E+04  0.50400001928E-02 0.  1.
        1   -1    0    0  501    0  0.00000000000E+00  0.00000000000E+00 -0.22142365071E+04  0.22142365071E+04  0.50400001928E-02 0. -1.
    10030    2    1    2    0    0  0.00000000000E+00  0.00000000000E+00 -0.91777470776E+03  0.35106983065E+04  0.33886121326E+04 0.  0.
        5    1    3    3  502    0  0.17951075827E+03 -0.16397877733E+04 -0.58273920967E+02  0.16506198817E+04  0.46999998093E+01 0.  1.
       -5    1    3    3    0  502 -0.17951075827E+03  0.16397877733E+04 -0.85950078680E+03  0.18600784248E+04  0.46999998093E+01 0. -1.
</event>
<event>
 5   0  0.1523259E-07  0.3400242E+04  0.7818609E-02  0.8137847E-01
       -1   -1    0    0    0  501  0.00000000000E+00  0.00000000000E+00  0.84112761127E+03  0.84112761129E+03  0.50400001928E-02 0.  1.
        1   -1    0    0  501    0  0.00000000000E+00  0.00000000000E+00 -0.34363540211E+04  0.34363540211E+04  0.50400001928E-02 0. -1.
    10030    2    1    2    0    0  0.00000000000E+00  0.00000000000E+00 -0.25952264098E+04  0.42774816323E+04  0.34002424909E+04 0.  0.
        4    1    3    3  502    0  0.67398727398E+03  0.28350413530E+03  0.63322271667E+03  0.96726731674E+03  0.12699999809E+01 0.  1.
       -4    1    3    3    0  502 -0.67398727398E+03 -0.28350413530E+03 -0.32284491265E+04  0.33102143156E+04  0.12699999809E+01 0. -1.
</event>
<event>
 5   0  0.1435806E-07  0.3409790E+04  0.7818609E-02  0.8135508E-01
       -1   -1    0    0    0  501  0.00000000000E+00  0.00000000000E+00  0.16493236835E+04  0.16493236835E+04  0.50400001928E-02 0. -1.
        1   -1    0    0  501    0  0.00000000000E+00  0.00000000000E+00 -0.17623382425E+04  0.17623382425E+04  0.50400001928E-02 0.  1.
    10030    2    1    2    0    0  0.00000000000E+00  0.00000000000E+00 -0.11301455902E+03  0.34116619260E+04  0.34097895546E+04 0.  0.
        3    1    3    3  502    0 -0.13447471077E+04 -0.34551408339E+02  0.99150648007E+03  0.16711145065E+04  0.10100000352E+00 0. -1.
       -3    1    3    3    0  502  0.13447471077E+04  0.34551408339E+02 -0.11045210391E+04  0.17405474195E+04  0.10100000352E+00 0.  1.
</event>
<event>
 5   0  0.1421875E-07  0.3407963E+04  0.7818609E-02  0.8135955E-01
        1   -1    0    0  501    0  0.00000000000E+00  0.00000000000E+00  0.18085973475E+04  0.18085973476E+04  0.50400001928E-02 0.  1.
       -1   -1    0    0    0  501  0.00000000000E+00  0.00000000000E+00 -0.16054166395E+04  0.16054166395E+04  0.50400001928E-02 0. -1.
    10030    2    1    2    0    0  0.00000000000E+00  0.00000000000E+00  0.20318070807E+03  0.34140139870E+04  0.34079626030E+04 0.  0.
        5    1    3    3  502    0 -0.52390423680E+03  0.10555644115E+04 -0.11313827854E+04  0.16336281625E+04  0.46999998093E+01 0. -1.
       -5    1    3    3    0  502  0.52390423680E+03 -0.10555644115E+04  0.13345634934E+04  0.17803858245E+04  0.46999998093E+01 0.  1.
</event>
<event>
 5   0  0.1473755E-07  0.3402385E+04  0.7818609E-02  0.8137321E-01
       -1   -1    0    0    0  501  0.00000000000E+00  0.00000000000E+00  0.23465045785E+04  0.23465045785E+04  0.50400001928E-02 0. -1.
        1   -1    0    0  501    0  0.00000000000E+00  0.00000000000E+00 -0.12333477993E+04  0.12333477994E+04  0.50400001928E-02 0.  1.
    10030    2    1    2    0    0  0.00000000000E+00  0.00000000000E+00  0.11131567791E+04  0.35798523778E+04  0.34023851975E+04 0.  0.
        1    1    3    3  502    0 -0.10246968819E+04  0.11470091386E+04  0.13214214440E+04  0.20277544961E+04  0.50400001928E-02 0. -1.
       -1    1    3    3    0  502  0.10246968819E+04 -0.11470091386E+04 -0.20826466483E+03  0.15520978817E+04  0.50400001928E-02 0.  1.
</event>
<event>
 5   0  0.4486226E-07  0.3397020E+04  0.7818609E-02  0.8138638E-01
        2   -1    0    0  501    0  0.00000000000E+00  0.00000000000E+00  0.26961397541E+04  0.26961397541E+04  0.25500000920E-02 0.  1.
       -2   -1    0    0    0  501  0.00000000000E+00  0.00000000000E+00 -0.10700249570E+04  0.10700249570E+04  0.25500000920E-02 0. -1.
    10030    2    1    2    0    0  0.00000000000E+00  0.00000000000E+00  0.16261147971E+04  0.37661647111E+04  0.33970203558E+04 0.  0.
        1    1    3    3  502    0  0.98389952821E+03 -0.82446970919E+03  0.20461864260E+04  0.24155097750E+04  0.50400001928E-02 0.  1.
       -1    1    3    3    0  502 -0.98389952821E+03  0.82446970919E+03 -0.42007162896E+03  0.13506549361E+04  0.50400001928E-02 0. -1.
</event>
<event>
 5   0  0.1473755E-07  0.3412453E+04  0.7818609E-02  0.8134857E-01
       -1   -1    0    0    0  501  0.00000000000E+00  0.00000000000E+00  0.19228283613E+04  0.19228283613E+04  0.50400001928E-02 0. -1.
        1   -1    0    0  501    0  0.00000000000E+00  0.00000000000E+00 -0.15140245021E+04  0.15140245022E+04  0.50400001928E-02 0.  1.
    10030    2    1    2    0    0  0.00000000000E+00  0.00000000000E+00  0.40880385910E+03  0.34368528634E+04  0.34124532245E+04 0.  0.
        1    1    3    3  502    0 -0.16521409335E+04  0.61689152048E+02  0.62912091600E+03  0.17689455454E+04  0.50400001928E-02 0.  1.
       -1    1    3    3    0  502  0.16521409335E+04 -0.61689152048E+02 -0.22031705690E+03  0.16679073180E+04  0.50400001928E-02 0. -1.
</event>
<event>
 5   0  0.4521737E-07  0.3406023E+04  0.7818609E-02  0.8136430E-01
        2   -1    0    0  501    0  0.00000000000E+00  0.00000000000E+00  0.22625699392E+04  0.22625699392E+04  0.25500000920E-02 0.  1.
       -2   -1    0    0    0  501  0.00000000000E+00  0.00000000000E+00 -0.12818377655E+04  0.12818377655E+04  0.25500000920E-02 0. -1.
    10030    2    1    2    0    0  0.00000000000E+00  0.00000000000E+00  0.98073217366E+03  0.35444077047E+04  0.34060226630E+04 0.  0.
        4    1    3    3  502    0  0.98923874203E+03  0.10083554288E+04 -0.49953025416E+03  0.14983010536E+04  0.12699999809E+01 0. -1.
       -4    1    3    3    0  502 -0.98923874203E+03 -0.10083554288E+04  0.14802624278E+04  0.20461066511E+04  0.12699999809E+01 0.  1.
</event>
<event>
 5   0  0.4447909E-07  0.3409112E+04  0.7818609E-02  0.8135673E-01
        2   -1    0    0  501    0  0.00000000000E+00  0.00000000000E+00  0.16702946386E+04  0.16702946386E+04  0.25500000920E-02 0.  1.
       -2   -1    0    0    0  501  0.00000000000E+00  0.00000000000E+00 -0.17395205444E+04  0.17395205444E+04  0.25500000920E-02 0. -1.
    10030    2    1    2    0    0  0.00000000000E+00  0.00000000000E+00 -0.69225905833E+02  0.34098151830E+04  0.34091124000E+04 0.  0.
        5    1    3    3  502    0 -0.45383614406E+03 -0.64161320682E+03  0.14782645598E+04  0.16741932241E+04  0.46999998093E+01 0.  1.
       -5    1    3    3    0  502  0.45383614406E+03  0.64161320682E+03 -0.15474904657E+04  0.17356219589E+04  0.46999998093E+01 0. -1.
</event>
<event>
 5   0  0.1520084E-07  0.3325527E+04  0.7818609E-02  0.8156430E-01
        1   -1    0    0  501    0  0.00000000000E+00  0.00000000000E+00  0.10948035702E+04  0.10948035702E+04  0.50400001928E-02 0.  1.
       -1   -1    0    0    0  501  0.00000000000E+00  0.00000000000E+00 -0.25253682579E+04  0.25253682579E+04  0.50400001928E-02 0. -1.
    10030    2    1    2    0    0  0.00000000000E+00  0.00000000000E+00 -0.14305646877E+04  0.36201718281E+04  0.33255268363E+04 0.  0.
        2    1    3    3  502    0 -0.12852942383E+04 -0.10433319181E+04 -0.88483667363E+03  0.18770878268E+04  0.25500000920E-02 0. -1.
       -2    1    3    3    0  502  0.12852942383E+04  0.10433319181E+04 -0.54572801409E+03  0.17430840013E+04  0.25500000920E-02 0.  1.
</event>
<event>
 5   0  0.1473755E-07  0.3401827E+04  0.7818609E-02  0.8137458E-01
       -1   -1    0    0    0  501  0.00000000000E+00  0.00000000000E+00  0.15237501364E+04  0.15237501364E+04  0.50400001928E-02 0. -1.
        1   -1    0    0  501    0  0.00000000000E+00  0.00000000000E+00 -0.18986750086E+04  0.18986750086E+04  0.50400001928E-02 0.  1.
    10030    2    1    2    0    0  0.00000000000E+00  0.00000000000E+00 -0.37492487221E+03  0.34224251450E+04  0.34018267465E+04 0.  0.
        1    1    3    3  502    0 -0.43490955327E+03  0.15621713670E+04  0.32904727462E+03  0.16546292057E+04  0.50400001928E-02 0. -1.
       -1    1    3    3    0  502  0.43490955327E+03 -0.15621713670E+04 -0.70397214682E+03  0.17677959393E+04  0.50400001928E-02 0.  1.
</event>
<event>
 5   0  0.4396257E-07  0.3402403E+04  0.7818609E-02  0.8137317E-01
       -2   -1    0    0    0  501  0.00000000000E+00  0.00000000000E+00  0.14751676541E+04  0.14751676541E+04  0.25500000920E-02 0.  1.
        2   -1    0    0  501    0  0.00000000000E+00  0.00000000000E+00 -0.19618690473E+04  0.19618690473E+04  0.25500000920E-02 0. -1.
    10030    2    1    2    0    0  0.00000000000E+00  0.00000000000E+00 -0.48670139312E+03  0.34370367014E+04  0.34024025395E+04 0.  0.
        2    1    3    3  502    0  0.12716865046E+04 -0.70210471875E+03 -0.11377720270E+04  0.18451728340E+04  0.25500000920E-02 0. -1.
       -2    1    3    3    0  502 -0.12716865046E+04  0.70210471875E+03  0.65107063385E+03  0.15918638674E+04  0.25500000920E-02 0.  1.
</event>
<event>
 5   0  0.1435806E-07  0.3397363E+04  0.7818609E-02  0.8138554E-01
       -1   -1    0    0    0  501  0.00000000000E+00  0.00000000000E+00  0.21855461928E+04  0.21855461928E+04  0.50400001928E-02 0. -1.
        1   -1    0    0  501    0  0.00000000000E+00  0.00000000000E+00 -0.13202733374E+04  0.13202733374E+04  0.50400001928E-02 0.  1.
    10030    2    1    2    0    0  0.00000000000E+00  0.00000000000E+00  0.86527285541E+03  0.35058195302E+04  0.33973627219E+04 0.  0.
        3    1    3    3  502    0  0.11995633126E+03 -0.80952294293E+03 -0.11034408291E+04  0.13737898639E+04  0.10100000352E+00 0.  1.
       -3    1    3    3    0  502 -0.11995633126E+03  0.80952294293E+03  0.19687136845E+04  0.21320296664E+04  0.10100000352E+00 0. -1.
</event>
<event>
 5   0  0.1435806E-07  0.3465525E+04  0.7818609E-02  0.8122009E-01
       -1   -1    0    0    0  501  0.00000000000E+00  0.00000000000E+00  0.15092055071E+04  0.15092055071E+04  0.50400001928E-02 0. -1.
        1   -1    0    0  501    0  0.00000000000E+00  0.00000000000E+00 -0.19894345678E+04  0.19894345678E+04  0.50400001928E-02 0.  1.
    10030    2    1    2    0    0  0.00000000000E+00  0.00000000000E+00 -0.48022906066E+03  0.34986400749E+04  0.34655248409E+04 0.  0.
        3    1    3    3  502    0  0.10038626983E+04 -0.11761327118E+04 -0.10295309433E+04  0.18576766258E+04  0.10100000352E+00 0.  1.
       -3    1    3    3    0  502 -0.10038626983E+04  0.11761327118E+04  0.54930188260E+03  0.16409634491E+04  0.10100000352E+00 0. -1.
</event>
<event>
 5   0  0.4396257E-07  0.3392467E+04  0.7818609E-02  0.8139758E-01
        2   -1    0    0  501    0  0.00000000000E+00  0.00000000000E+00  0.19686326479E+04  0.19686326479E+04  0.25500000920E-02 0. -1.
       -2   -1    0    0    0  501  0.00000000000E+00  0.00000000000E+00 -0.14615261988E+04  0.14615261988E+04  0.25500000920E-02 0.  1.
    10030    2    1    2    0    0  0.00000000000E+00  0.00000000000E+00  0.50710644904E+03  0.34301588467E+04  0.33924670614E+04 0.  0.
        2    1    3    3  502    0 -0.15494366108E+04  0.67989990433E+03  0.13310582194E+03  0.16972727685E+04  0.25500000920E-02 0.  1.
       -2    1    3    3    0  502  0.15494366108E+04 -0.67989990433E+03  0.37400062710E+03  0.17328860782E+04  0.25500000920E-02 0. -1.
</event>
<event>
 5   0  0.1421875E-07  0.3443832E+04  0.7818609E-02  0.8127232E-01
       -1   -1    0    0    0  501  0.00000000000E+00  0.00000000000E+00  0.18265406001E+04  0.18265406001E+04  0.50400001928E-02 0. -1.
        1   -1    0    0  501    0  0.00000000000E+00  0.00000000000E+00 -0.16232842757E+04  0.16232842757E+04  0.50400001928E-02 0.  1.
    10030    2    1    2    0    0  0.00000000000E+00  0.00000000000E+00  0.20325632435E+03  0.34498248758E+04  0.34438319558E+04 0.  0.
        5    1    3    3  502    0 -0.11602164956E+04  0.98423180442E+00  0.13761902204E+04  0.18000069161E+04  0.46999998093E+01 0. -1.
       -5    1    3    3    0  502  0.11602164956E+04 -0.98423180442E+00 -0.11729338960E+04  0.16498179596E+04  0.46999998093E+01 0.  1.
</event>
<event>
 5   0  0.4381939E-07  0.3409701E+04  0.7818609E-02  0.8135530E-01
        2   -1    0    0  501    0  0.00000000000E+00  0.00000000000E+00  0.19710477385E+04  0.19710477386E+04  0.25500000920E-02 0.  1.
       -2   -1    0    0    0  501  0.00000000000E+00  0.00000000000E+00 -0.14746040831E+04  0.14746040831E+04  0.25500000920E-02 0. -1.
    10030    2    1    2    0    0  0.00000000000E+00  0.00000000000E+00  0.49644365544E+03  0.34456518217E+04  0.34097008920E+04 0.  0.
        3    1    3    3  502    0 -0.11907439426E+04 -0.55707064393E+03  0.13451698019E+04  0.18808723097E+04  0.10100000352E+00 0.  1.
       -3    1    3    3    0  502  0.11907439426E+04  0.55707064393E+03 -0.84872614650E+03  0.15647795120E+04  0.10100000352E+00 0. -1.
</event>
<event>
 5   0  0.4381939E-07  0.3417008E+04  0.7818609E-02  0.8133745E-01
        2   -1    0    0  501    0  0.00000000000E+00  0.00000000000E+00  0.14176270094E+04  0.14176270094E+04  0.25500000920E-02 0. -1.
       -2   -1    0    0    0  501  0.00000000000E+00  0.00000000000E+00 -0.20590644314E+04  0.20590644314E+04  0.25500000920E-02 0.  1.
    10030    2    1    2    0    0  0.00000000000E+00  0.00000000000E+00 -0.64143742203E+03  0.34766914408E+04  0.34170076688E+04 0.  0.
        3    1    3    3  502    0  0.65591752879E+03 -0.12843157807E+03 -0.19205254353E+04  0.20335044707E+04  0.10100000352E+00 0.  1.
       -3    1    3    3    0  502 -0.65591752879E+03  0.12843157807E+03  0.12790880132E+04  0.14431869701E+04  0.10100000352E+00 0. -1.
</event>
<event>
 5   0  0.4396257E-07  0.3417303E+04  0.7818609E-02  0.8133673E-01
       -2   -1    0    0    0  501  0.00000000000E+00  0.00000000000E+00  0.21286873983E+04  0.21286873983E+04  0.25500000920E-02 0.  1.
        2   -1    0    0  501    0  0.00000000000E+00  0.00000000000E+00 -0.13714974364E+04  0.13714974364E+04  0.25500000920E-02 0. -1.
    10030    2    1    2    0    0  0.00000000000E+00  0.00000000000E+00  0.75718996187E+03  0.35001848346E+04  0.34173026261E+04 0.  0.
        2    1    3    3  502    0  0.78937863929E+03 -0.49917499809E+03 -0.10869094775E+04  0.14330619411E+04  0.25500000920E-02 0. -1.
       -2    1    3    3    0  502 -0.78937863929E+03  0.49917499809E+03  0.18440994393E+04  0.20671228935E+04  0.25500000920E-02 0.  1.
</event>
<event>
 5   0  0.1523259E-07  0.3412040E+04  0.7818609E-02  0.8134958E-01
        1   -1    0    0  501    0  0.00000000000E+00  0.00000000000E+00  0.17309743413E+04  0.17309743413E+04  0.50400001928E-02 0.  1.
       -1   -1    0    0    0  501  0.00000000000E+00  0.00000000000E+00 -0.16814252623E+04  0.16814252623E+04  0.50400001928E-02 0. -1.
    10030    2    1    2    0    0  0.00000000000E+00  0.00000000000E+00  0.49549078996E+02  0.34123996036E+04  0.34120398508E+04 0.  0.
        4    1    3    3  502    0  0.80039331432E+03 -0.12198908350E+04 -0.85947888683E+03  0.16933601734E+04  0.12699999809E+01 0. -1.
       -4    1    3    3    0  502 -0.80039331432E+03  0.12198908350E+04  0.90902796582E+03  0.17190394302E+04  0.12699999809E+01 0.  1.
</event>
<event>
 5   0  0.4486226E-07  0.3380280E+04  0.7818609E-02  0.8142763E-01
        2   -1    0    0  501    0  0.00000000000E+00  0.00000000000E+00  0.21916214626E+04  0.21916214626E+04  0.25500000920E-02 0. -1.
       -2   -1    0    0    0  501  0.00000000000E+00  0.00000000000E+00 -0.13034060043E+04  0.13034060043E+04  0.25500000920E-02 0.  1.
    10030    2    1    2    0    0  0.00000000000E+00  0.00000000000E+00  0.88821545839E+03  0.34950274669E+04  0.33802796177E+04 0.  0.
        1    1    3    3  502    0  0.14605623801E+04  0.55705460704E+03 -0.22037492819E+03  0.15786441684E+04  0.50400001928E-02 0.  1.
       -1    1    3    3    0  502 -0.14605623801E+04 -0.55705460704E+03  0.11085903866E+04  0.19163832985E+04  0.50400001928E-02 0. -1.
</event>
<event>
 5   0  0.4396257E-07  0.3397346E+04  0.7818609E-02  0.8138558E-01
        2   -1    0    0  501    0  0.00000000000E+00  0.00000000000E+00  0.20709159733E+04  0.20709159733E+04  0.25500000920E-02 0. -1.
       -2   -1    0    0    0  501  0.00000000000E+00  0.00000000000E+00 -0.13933403427E+04  0.13933403427E+04  0.25500000920E-02 0.  1.
    10030    2    1    2    0    0  0.00000000000E+00  0.00000000000E+00  0.67757563054E+03  0.34642563160E+04  0.33973464775E+04 0.  0.
        2    1    3    3  502    0  0.40734409921E+03 -0.12453799079E+04  0.14410917097E+04  0.19477283296E+04  0.25500000920E-02 0. -1.
       -2    1    3    3    0  502 -0.40734409921E+03  0.12453799079E+04 -0.76351607918E+03  0.15165279864E+04  0.25500000920E-02 0.  1.
</event>
<event>
 5   0  0.4486226E-07  0.3389211E+04  0.7818609E-02  0.8140559E-01
       -2   -1    0    0    0  501  0.00000000000E+00  0.00000000000E+00  0.11842006450E+04  0.11842006450E+04  0.25500000920E-02 0. -1.
        2   -1    0    0  501    0  0.00000000000E+00  0.00000000000E+00 -0.24250013713E+04  0.24250013713E+04  0.25500000920E-02 0.  1.
    10030    2    1    2    0    0  0.00000000000E+00  0.00000000000E+00 -0.12408007263E+04  0.36092020163E+04  0.33892112285E+04 0.  0.
        1    1    3    3  502    0  0.11794243225E+04  0.26735514870E+02  0.67508761271E+03  0.13592276502E+04  0.50400001928E-02 0. -1.
       -1    1    3    3    0  502 -0.11794243225E+04 -0.26735514870E+02 -0.19158883390E+04  0.22499743660E+04  0.50400001928E-02 0.  1.
</event>
<event>
 5   0  0.4381939E-07  0.3400120E+04  0.7818609E-02  0.8137877E-01
       -2   -1    0    0    0  501  0.00000000000E+00  0.00000000000E+00  0.11195640539E+04  0.11195640539E+04  0.25500000920E-02 0.  1.
        2   -1    0    0  501    0  0.00000000000E+00  0.00000000000E+00 -0.25815441102E+04  0.25815441102E+04  0.25500000920E-02 0. -1.
    10030    2    1    2    0    0  0.00000000000E+00  0.00000000000E+00 -0.14619800563E+04  0.37011081641E+04  0.34001199916E+04 0.  0.
        3    1    3    3  502    0 -0.10415378750E+04 -0.13400437316E+04 -0.62386239568E+03  0.18082374419E+04  0.10100000352E+00 0. -1.
       -3    1    3    3    0  502  0.10415378750E+04  0.13400437316E+04 -0.83811766057E+03  0.18928707221E+04  0.10100000352E+00 0.  1.
</event>
<event>
 5   0  0.1520084E-07  0.3405375E+04  0.7818609E-02  0.8136588E-01
        1   -1    0    0  501    0  0.00000000000E+00  0.00000000000E+00  0.22216045328E+04  0.22216045328E+04  0.50400001928E-02 0.  1.
       -1   -1    0    0    0  501  0.00000000000E+00  0.00000000000E+00 -0.13049781764E+04  0.13049781764E+04  0.50400001928E-02 0. -1.
    10030    2    1    2    0    0  0.00000000000E+00  0.00000000000E+00  0.91662635633E+03  0.35265827092E+04  0.34053754166E+04 0.  0.
        2    1    3    3  502    0 -0.21710505589E+03 -0.14349727102E+04 -0.46380899978E+03  0.15236141482E+04  0.25500000920E-02 0. -1.
       -2    1    3    3    0  502  0.21710505589E+03  0.14349727102E+04  0.13804353561E+04  0.20029685611E+04  0.25500000920E-02 0.  1.
</event>
<event>
 5   0  0.4486226E-07  0.3540381E+04  0.7818609E-02  0.8104286E-01
        2   -1    0    0  501    0  0.00000000000E+00  0.00000000000E+00  0.27042068584E+04  0.27042068584E+04  0.25500000920E-02 0.  1.
       -2   -1    0    0    0  501  0.00000000000E+00  0.00000000000E+00 -0.11587773094E+04  0.11587773094E+04  0.25500000920E-02 0. -1.
    10030    2    1    2    0    0  0.00000000000E+00  0.00000000000E+00  0.15454295491E+04  0.38629841678E+04  0.35403805148E+04 0.  0.
        1    1    3    3  502    0 -0.12919441597E+04  0.10210515871E+04  0.14814460614E+04  0.22150278753E+04  0.50400001928E-02 0.  1.
       -1    1    3    3    0  502  0.12919441597E+04 -0.10210515871E+04  0.63983487650E+02  0.16479562925E+04  0.50400001928E-02 0. -1.
</event>
<event>
 5   0  0.4521737E-07  0.3408652E+04  0.7818609E-02  0.8135786E-01
       -2   -1    0    0    0  501  0.00000000000E+00  0.00000000000E+00  0.19540979373E+04  0.19540979373E+04  0.25500000920E-02 0. -1.
        2   -1    0    0  501    0  0.00000000000E+00  0.00000000000E+00 -0.14864793858E+04  0.14864793858E+04  0.25500000920E-02 0.  1.
    10030    2    1    2    0    0  0.00000000000E+00  0.00000000000E+00  0.46761855145E+03  0.34405773231E+04  0.34086515232E+04 0.  0.
        4    1    3    3  502    0 -0.15780838295E+04 -0.37653470332E+03 -0.29318978131E+03  0.16486627359E+04  0.12699999809E+01 0.  1.
       -4    1    3    3    0  502  0.15780838295E+04  0.37653470332E+03  0.76080833276E+03  0.17919145872E+04  0.12699999809E+01 0. -1.
</event>
<event>
 5   0  0.1473755E-07  0.3399562E+04  0.7818609E-02  0.8138014E-01
        1   -1    0    0  501    0  0.00000000000E+00  0.00000000000E+00  0.15912129062E+04  0.15912129062E+04  0.50400001928E-02 0.  1.
       -1   -1    0    0    0  501  0.00000000000E+00  0.00000000000E+00 -0.18157571611E+04  0.18157571611E+04  0.50400001928E-02 0. -1.
    10030    2    1    2    0    0  0.00000000000E+00  0.00000000000E+00 -0.22454425486E+03  0.34069700673E+04  0.33995624596E+04 0.  0.
        1    1    3    3  502    0 -0.59292255669E+03  0.15847760083E+04  0.49895404041E+02  0.16927970068E+04  0.50400001928E-02 0.  1.
       -1    1    3    3    0  502  0.59292255669E+03 -0.15847760083E+04 -0.27443965890E+03  0.17141730605E+04  0.50400001928E-02 0. -1.
</event>
<event>
 5   0  0.1520084E-07  0.3406742E+04  0.7818609E-02  0.8136253E-01
        1   -1    0    0  501    0  0.00000000000E+00  0.00000000000E+00  0.12388461073E+04  0.12388461073E+04  0.50400001928E-02 0.  1.
       -1   -1    0    0    0  501  0.00000000000E+00  0.00000000000E+00 -0.23420774357E+04  0.23420774357E+04  0.50400001928E-02 0. -1.
    10030    2    1    2    0    0  0.00000000000E+00  0.00000000000E+00 -0.11032313284E+04  0.35809235430E+04  0.34067424407E+04 0.  0.
        2    1    3    3  502    0  0.12075636464E+04 -0.40805744069E+03 -0.17393221729E+04  0.21563771600E+04  0.25500000920E-02 0. -1.
       -2    1    3    3    0  502 -0.12075636464E+04  0.40805744069E+03  0.63609084453E+03  0.14245463830E+04  0.25500000920E-02 0.  1.
</event>
<event>
 5   0  0.1421875E-07  0.3366544E+04  0.7818609E-02  0.8146167E-01
       -1   -1    0    0    0  501  0.00000000000E+00  0.00000000000E+00  0.13913949665E+04  0.13913949665E+04  0.50400001928E-02 0. -1.
        1   -1    0    0  501    0  0.00000000000E+00  0.00000000000E+00 -0.20363766434E+04  0.20363766434E+04  0.50400001928E-02 0.  1.
    10030    2    1    2    0    0  0.00000000000E+00  0.00000000000E+00 -0.64498167691E+03  0.34277716099E+04  0.33665437538E+04 0.  0.
        5    1    3    3  502    0 -0.71249247866E+02  0.11915619543E+04 -0.15308717240E+04  0.19412590429E+04  0.46999998093E+01 0.  1.
       -5    1    3    3    0  502  0.71249247866E+02 -0.11915619543E+04  0.88589004710E+03  0.14865125670E+04  0.46999998093E+01 0. -1.
</event>
<event>
 5   0  0.1435806E-07  0.3382019E+04  0.7818609E-02  0.8142334E-01
        1   -1    0    0  501    0  0.00000000000E+00  0.00000000000E+00  0.25621485599E+04  0.25621485599E+04  0.50400001928E-02 0.  1.
       -1   -1    0    0    0  501  0.00000000000E+00  0.00000000000E+00 -0.11160605210E+04  0.11160605210E+04  0.50400001928E-02 0. -1.
    10030    2    1    2    0    0  0.00000000000E+00  0.00000000000E+00  0.14460880389E+04  0.36782090809E+04  0.33820188388E+04 0.  0.
        3    1    3    3  502    0 -0.97899886978E+03 -0.16226321344E+02  0.22224865716E+04  0.24286104364E+04  0.10100000352E+00 0.  1.
       -3    1    3    3    0  502  0.97899886978E+03  0.16226321344E+02 -0.77639853270E+03  0.12495986445E+04  0.10100000352E+00 0. -1.
</event>
<event>
 5   0  0.4521737E-07  0.3397496E+04  0.7818609E-02  0.8138521E-01
       -2   -1    0    0    0  501  0.00000000000E+00  0.00000000000E+00  0.20083436063E+04  0.20083436063E+04  0.25500000920E-02 0. -1.
        2   -1    0    0  501    0  0.00000000000E+00  0.00000000000E+00 -0.14368776834E+04  0.14368776834E+04  0.25500000920E-02 0.  1.
    10030    2    1    2    0    0  0.00000000000E+00  0.00000000000E+00  0.57146592290E+03  0.34452212896E+04  0.33974956120E+04 0.  0.
        4    1    3    3  502    0  0.44239538265E+03 -0.14602559250E+03  0.19422981497E+04  0.19973885109E+04  0.12699999809E+01 0. -1.
       -4    1    3    3    0  502 -0.44239538265E+03  0.14602559250E+03 -0.13708322268E+04  0.14478327787E+04  0.12699999809E+01 0.  1.
</event>
<event>
 5   0  0.1473755E-07  0.3306940E+04  0.7818609E-02  0.8161132E-01
        1   -1    0    0  501    0  0.00000000000E+00  0.00000000000E+00  0.96149612400E+03  0.96149612401E+03  0.50400001928E-02 0. -1.
       -1   -1    0    0    0  501  0.00000000000E+00  0.00000000000E+00 -0.28434462740E+04  0.28434462740E+04  0.50400001928E-02 0.  1.
    10030    2    1    2    0    0  0.00000000000E+00  0.00000000000E+00 -0.18819501500E+04  0.38049423980E+04  0.33069397160E+04 0.  0.
        1    1    3    3  502    0 -0.10769377622E+04  0.35505868874E+03  0.44361504563E+03  0.12176435952E+04  0.50400001928E-02 0. -1.
       -1    1    3    3    0  502  0.10769377622E+04 -0.35505868874E+03 -0.23255651956E+04  0.25872988028E+04  0.50400001928E-02 0.  1.
</event>
<event>
 5   0  0.4447909E-07  0.3416747E+04  0.7818609E-02  0.8133808E-01
        2   -1    0    0  501    0  0.00000000000E+00  0.00000000000E+00  0.17071515125E+04  0.17071515125E+04  0.25500000920E-02 0. -1.
       -2   -1    0    0    0  501  0.00000000000E+00  0.00000000000E+00 -0.17095968339E+04  0.17095968339E+04  0.25500000920E-02 0.  1.
    10030    2    1    2    0    0  0.00000000000E+00  0.00000000000E+00 -0.24453214796E+01  0.34167483464E+04  0.34167474714E+04 0.  0.
        5    1    3    3  502    0 -0.11631463326E+04 -0.12161802517E+04  0.29291162725E+03  0.17081636652E+04  0.46999998093E+01 0. -1.
       -5    1    3    3    0  502  0.11631463326E+04  0.12161802517E+04 -0.29535694873E+03  0.17085846812E+04  0.46999998093E+01 0.  1.
</event>
<event>
 5   0  0.4447909E-07  0.3393212E+04  0.7818609E-02  0.8139574E-01
        2   -1    0    0  501    0  0.00000000000E+00  0.00000000000E+00  0.14946725631E+04  0.14946725631E+04  0.25500000920E-02 0. -1.
       -2   -1    0    0    0  501  0.00000000000E+00  0.00000000000E+00 -0.19258205645E+04  0.19258205645E+04  0.25500000920E-02 0.  1.
    10030    2    1    2    0    0  0.00000000000E+00  0.00000000000E+00 -0.43114800141E+03  0.34204931276E+04  0.33932115521E+04 0.  0.
        5    1    3    3  502    0 -0.12046459293E+04  0.10824320283E+04  0.29407788568E+03  0.16460057120E+04  0.46999998093E+01 0. -1.
       -5    1    3    3    0  502  0.12046459293E+04 -0.10824320283E+04 -0.72522588709E+03  0.17744874157E+04  0.46999998093E+01 0.  1.
</event>
<event>
 5   0  0.4447909E-07  0.3402932E+04  0.7818609E-02  0.8137187E-01
       -2   -1    0    0    0  501  0.00000000000E+00  0.00000000000E+00  0.10643162922E+04  0.10643162922E+04  0.25500000920E-02 0. -1.
        2   -1    0    0  501    0  0.00000000000E+00  0.00000000000E+00 -0.27200434655E+04  0.27200434655E+04  0.25500000920E-02 0.  1.
    10030    2    1    2    0    0  0.00000000000E+00  0.00000000000E+00 -0.16557271732E+04  0.37843597577E+04  0.34029320157E+04 0.  0.
        5    1    3    3  502    0  0.14081444367E+04 -0.46250704397E+03 -0.17570934211E+04  0.22987350654E+04  0.46999998093E+01 0.  1.
       -5    1    3    3    0  502 -0.14081444367E+04  0.46250704397E+03  0.10136624781E+03  0.14856246924E+04  0.46999998093E+01 0. -1.
</event>
<event>
 5   0  0.4396257E-07  0.3398609E+04  0.7818609E-02  0.8138248E-01
        2   -1    0    0  501    0  0.00000000000E+00  0.00000000000E+00  0.28592498779E+04  0.28592498779E+04  0.25500000920E-02 0.  1.
       -2   -1    0    0    0  501  0.00000000000E+00  0.00000000000E+00 -0.10099276994E+04  0.10099276994E+04  0.25500000920E-02 0. -1.
    10030    2    1    2    0    0  0.00000000000E+00  0.00000000000E+00  0.18493221785E+04  0.38691775773E+04  0.33986089220E+04 0.  0.
        2    1    3    3  502    0  0.16044207492E+04  0.13233211213E+03  0.30531634812E+03  0.16385651652E+04  0.25500000920E-02 0. -1.
       -2    1    3    3    0  502 -0.16044207492E+04 -0.13233211213E+03  0.15440058304E+04  0.22306124120E+04  0.25500000920E-02 0.  1.
</event>
<event>
 5   0  0.1523259E-07  0.3370274E+04  0.7818609E-02  0.8145241E-01
       -1   -1    0    0    0  501  0.00000000000E+00  0.00000000000E+00  0.11834366318E+04  0.11834366318E+04  0.50400001928E-02 0.  1.
        1   -1    0    0  501    0  0.00000000000E+00  0.00000000000E+00 -0.23995257166E+04  0.23995257166E+04  0.50400001928E-02 0. -1.
    10030    2    1    2    0    0  0.00000000000E+00  0.00000000000E+00 -0.12160890848E+04  0.35829623484E+04  0.33702739544E+04 0.  0.
        4    1    3    3  502    0 -0.36888988973E+03 -0.13470427911E+04  0.39437079232E+03  0.14512525509E+04  0.12699999809E+01 0.  1.
       -4    1    3    3    0  502  0.36888988973E+03  0.13470427911E+04 -0.16104598771E+04  0.21317097975E+04  0.12699999809E+01 0. -1.
</event>
<event>
 5   0  0.4486226E-07  0.3392220E+04  0.7818609E-02  0.8139818E-01
       -2   -1    0    0    0  501  0.00000000000E+00  0.00000000000E+00  0.23098535543E+04  0.23098535543E+04  0.25500000920E-02 0. -1.
        2   -1    0    0  501    0  0.00000000000E+00  0.00000000000E+00 -0.12454422584E+04  0.12454422584E+04  0.25500000920E-02 0.  1.
    10030    2    1    2    0    0  0.00000000000E+00  0.00000000000E+00  0.10644112958E+04  0.35552958127E+04  0.33922200561E+04 0.  0.
        1    1    3    3  502    0  0.10903879631E+04  0.10544338465E+04 -0.26323486823E+03  0.15395029206E+04  0.50400001928E-02 0.  1.
       -1    1    3    3    0  502 -0.10903879631E+04 -0.10544338465E+04  0.13276461640E+04  0.20157928921E+04  0.50400001928E-02 0. -1.
</event>
<event>
 5   0  0.4447909E-07  0.3404876E+04  0.7818609E-02  0.8136711E-01
       -2   -1    0    0    0  501  0.00000000000E+00  0.00000000000E+00  0.17011573640E+04  0.17011573640E+04  0.25500000920E-02 0. -1.
        2   -1    0    0  501    0  0.00000000000E+00  0.00000000000E+00 -0.17037198034E+04  0.17037198034E+04  0.25500000920E-02 0.  1.
    10030    2    1    2    0    0  0.00000000000E+00  0.00000000000E+00 -0.25624393300E+01  0.34048771674E+04  0.34048762032E+04 0.  0.
        5    1    3    3  502    0  0.16215887275E+02  0.12518949850E+04  0.11523088917E+04  0.17015704159E+04  0.46999998093E+01 0.  1.
       -5    1    3    3    0  502 -0.16215887275E+02 -0.12518949850E+04 -0.11548713310E+04  0.17033067515E+04  0.46999998093E+01 0. -1.
</event>
<event>
 5   0  0.4521737E-07  0.3401562E+04  0.7818609E-02  0.8137523E-01
       -2   -1    0    0    0  501  0.00000000000E+00  0.00000000000E+00  0.97225342838E+03  0.97225342838E+03  0.25500000920E-02 0. -1.
        2   -1    0    0  501    0  0.00000000000E+00  0.00000000000E+00 -0.29752077889E+04  0.29752077889E+04  0.25500000920E-02 0.  1.
    10030    2    1    2    0    0  0.00000000000E+00  0.00000000000E+00 -0.20029543606E+04  0.39474612173E+04  0.34015619782E+04 0.  0.
        4    1    3    3  502    0 -0.30955020140E+03  0.15195045223E+04 -0.19084793667E+03  0.15624147555E+04  0.12699999809E+01 0. -1.
       -4    1    3    3    0  502  0.30955020140E+03 -0.15195045223E+04 -0.18121064239E+04  0.23850464618E+04  0.12699999809E+01 0.  1.
</event>
<event>
 5   0  0.4381939E-07  0.3401060E+04  0.7818609E-02  0.8137646E-01
       -2   -1    0    0    0  501  0.00000000000E+00  0.00000000000E+00  0.11541405714E+04  0.11541405714E+04  0.25500000920E-02 0.  1.
        2   -1    0    0  501    0  0.00000000000E+00  0.00000000000E+00 -0.25055886111E+04  0.25055886111E+04  0.25500000920E-02 0. -1.
    10030    2    1    2    0    0  0.00000000000E+00  0.00000000000E+00 -0.13514480398E+04  0.36597291825E+04  0.34010595239E+04 0.  0.
        3    1    3    3  502    0 -0.10954727419E+03  0.15610929846E+04 -0.13917576118E+04  0.20942781983E+04  0.10100000352E+00 0. -1.
       -3    1    3    3    0  502  0.10954727419E+03 -0.15610929846E+04  0.40309571982E+02  0.15654509841E+04  0.10100000352E+00 0.  1.
</event>
<event>
 5   0  0.4447909E-07  0.3396495E+04  0.7818609E-02  0.8138767E-01
       -2   -1    0    0    0  501  0.00000000000E+00  0.00000000000E+00  0.16075677576E+04  0.16075677576E+04  0.25500000920E-02 0. -1.
        2   -1    0    0  501    0  0.00000000000E+00  0.00000000000E+00 -0.17940422109E+04  0.17940422109E+04  0.25500000920E-02 0.  1.
    10030    2    1    2    0    0  0.00000000000E+00  0.00000000000E+00 -0.18647445338E+03  0.34016099685E+04  0.33964949074E+04 0.  0.
        5    1    3    3  502    0  0.10019783969E+04  0.56825616242E+03  0.11564988062E+04  0.16322951181E+04  0.46999998093E+01 0. -1.
       -5    1    3    3    0  502 -0.10019783969E+04 -0.56825616242E+03 -0.13429732595E+04  0.17693148504E+04  0.46999998093E+01 0.  1.
</event>
<event>
 5   0  0.1523259E-07  0.3416064E+04  0.7818609E-02  0.8133975E-01
        1   -1    0    0  501    0  0.00000000000E+00  0.00000000000E+00  0.21311953095E+04  0.21311953095E+04  0.50400001928E-02 0.  1.
       -1   -1    0    0    0  501  0.00000000000E+00  0.00000000000E+00 -0.13688908994E+04  0.13688908994E+04  0.50400001928E-02 0. -1.
    10030    2    1    2    0    0  0.00000000000E+00  0.00000000000E+00  0.76230441010E+03  0.35000862090E+04  0.34160643227E+04 0.  0.
        4    1    3    3  502    0 -0.14720442758E+04  0.54409422925E+03 -0.30953453730E+03  0.15996143670E+04  0.12699999809E+01 0.  1.
       -4    1    3    3    0  502  0.14720442758E+04 -0.54409422925E+03  0.10718389474E+04  0.19004718420E+04  0.12699999809E+01 0. -1.
</event>
<event>
 5   0  0.1435806E-07  0.3394889E+04  0.7818609E-02  0.8139162E-01
       -1   -1    0    0    0  501  0.00000000000E+00  0.00000000000E+00  0.10333846116E+04  0.10333846116E+04  0.50400001928E-02 0. -1.
        1   -1    0    0  501    0  0.00000000000E+00  0.00000000000E+00 -0.27882330439E+04  0.27882330439E+04  0.50400001928E-02 0.  1.
    10030    2    1    2    0    0  0.00000000000E+00  0.00000000000E+00 -0.17548484323E+04  0.38216176555E+04  0.33948885820E+04 0.  0.
        3    1    3    3  502    0  0.96031667403E+03 -0.30205129541E+03 -0.24159171251E+04  0.26172693146E+04  0.10100000352E+00 0.  1.
       -3    1    3    3    0  502 -0.96031667403E+03  0.30205129541E+03  0.66106869279E+03  0.12043483409E+04  0.10100000352E+00 0. -1.
</event>
<event>
 5   0  0.1421875E-07  0.3404956E+04  0.7818609E-02  0.8136691E-01
       -1   -1    0    0    0  501  0.00000000000E+00  0.00000000000E+00  0.13796959000E+04  0.13796959000E+04  0.50400001928E-02 0. -1.
        1   -1    0    0  501    0  0.00000000000E+00  0.00000000000E+00 -0.21007756680E+04  0.21007756680E+04  0.50400001928E-02 0.  1.
    10030    2    1    2    0    0  0.00000000000E+00  0.00000000000E+00 -0.72107976798E+03  0.34804715680E+04  0.34049561383E+04 0.  0.
        5    1    3    3  502    0 -0.10456847899E+04 -0.83643214348E+02  0.10100773016E+04  0.14562730213E+04  0.46999998093E+01 0. -1.
       -5    1    3    3    0  502  0.10456847899E+04  0.83643214348E+02 -0.17311570696E+04  0.20241985468E+04  0.46999998093E+01 0.  1.
</event>
<event>
 5   0  0.4486226E-07  0.3396703E+04  0.7818609E-02  0.8138716E-01
        2   -1    0    0  501    0  0.00000000000E+00  0.00000000000E+00  0.33005276606E+04  0.33005276606E+04  0.25500000920E-02 0.  1.
       -2   -1    0    0    0  501  0.00000000000E+00  0.00000000000E+00 -0.87392003826E+03  0.87392003827E+03  0.25500000920E-02 0. -1.
    10030    2    1    2    0    0  0.00000000000E+00  0.00000000000E+00  0.24266076224E+04  0.41744476989E+04  0.33967026714E+04 0.  0.
        1    1    3    3  502    0  0.21308217347E+03  0.34549201683E+03  0.32400356230E+04  0.32653636221E+04  0.50400001928E-02 0.  1.
       -1    1    3    3    0  502 -0.21308217347E+03 -0.34549201683E+03 -0.81342800065E+03  0.90908407676E+03  0.50400001928E-02 0. -1.
</event>
<event>
 5   0  0.4447909E-07  0.3435937E+04  0.7818609E-02  0.8129142E-01
        2   -1    0    0  501    0  0.00000000000E+00  0.00000000000E+00  0.15695943290E+04  0.15695943290E+04  0.25500000920E-02 0.  1.
       -2   -1    0    0    0  501  0.00000000000E+00  0.00000000000E+00 -0.18803688022E+04  0.18803688022E+04  0.25500000920E-02 0. -1.
    10030    2    1    2    0    0  0.00000000000E+00  0.00000000000E+00 -0.31077447324E+03  0.34499631312E+04  0.34359372569E+04 0.  0.
        5    1    3    3  502    0 -0.66509818010E+03  0.14628545028E+04  0.45462486017E+03  0.16700313587E+04  0.46999998093E+01 0.  1.
       -5    1    3    3    0  502  0.66509818010E+03 -0.14628545028E+04 -0.76539933341E+03  0.17799317726E+04  0.46999998093E+01 0. -1.
</event>
<event>
 5   0  0.1421875E-07  0.3284693E+04  0.7818609E-02  0.8166801E-01
        1   -1    0    0  501    0  0.00000000000E+00  0.00000000000E+00  0.26858181663E+04  0.26858181663E+04  0.50400001928E-02 0. -1.
       -1   -1    0    0    0  501  0.00000000000E+00  0.00000000000E+00 -0.10042756360E+04  0.10042756361E+04  0.50400001928E-02 0.  1.
    10030    2    1    2    0    0  0.00000000000E+00  0.00000000000E+00  0.16815425303E+04  0.36900938024E+04  0.32846928303E+04 0.  0.
        5    1    3    3  502    0  0.12147814597E+04  0.10965956125E+04  0.68565886145E+03  0.17743635750E+04  0.46999998093E+01 0. -1.
       -5    1    3    3    0  502 -0.12147814597E+04 -0.10965956125E+04  0.99588366883E+03  0.19157302274E+04  0.46999998093E+01 0.  1.
</event>
<event>
 5   0  0.1473755E-07  0.3431882E+04  0.7818609E-02  0.8130125E-01
        1   -1    0    0  501    0  0.00000000000E+00  0.00000000000E+00  0.13454836555E+04  0.13454836556E+04  0.50400001928E-02 0. -1.
       -1   -1    0    0    0  501  0.00000000000E+00  0.00000000000E+00 -0.21883977355E+04  0.21883977355E+04  0.50400001928E-02 0.  1.
    10030    2    1    2    0    0  0.00000000000E+00  0.00000000000E+00 -0.84291407997E+03  0.35338813911E+04  0.34318819240E+04 0.  0.
        1    1    3    3  502    0  0.20668563945E+03 -0.52798266287E+03 -0.20891503597E+04  0.21647248950E+04  0.50400001928E-02 0.  1.
       -1    1    3    3    0  502 -0.20668563945E+03  0.52798266287E+03  0.12462362797E+04  0.13691564961E+04  0.50400001928E-02 0. -1.
</event>
<event>
 5   0  0.4521737E-07  0.3399336E+04  0.7818609E-02  0.8138069E-01
        2   -1    0    0  501    0  0.00000000000E+00  0.00000000000E+00  0.22138047112E+04  0.22138047112E+04  0.25500000920E-02 0. -1.
       -2   -1    0    0    0  501  0.00000000000E+00  0.00000000000E+00 -0.13049346821E+04  0.13049346821E+04  0.25500000920E-02 0.  1.
    10030    2    1    2    0    0  0.00000000000E+00  0.00000000000E+00  0.90887002908E+03  0.35187393933E+04  0.33993355509E+04 0.  0.
        4    1    3    3  502    0  0.15934450925E+04 -0.45183516719E+03  0.59392969232E+02  0.16573326217E+04  0.12699999809E+01 0.  1.
       -4    1    3    3    0  502 -0.15934450925E+04  0.45183516719E+03  0.84947705985E+03  0.18614067716E+04  0.12699999809E+01 0. -1.
</event>
<event>
 5   0  0.1473755E-07  0.3421661E+04  0.7818609E-02  0.8132610E-01
       -1   -1    0    0    0  501  0.00000000000E+00  0.00000000000E+00  0.27255923674E+04  0.27255923674E+04  0.50400001928E-02 0.  1.
        1   -1    0    0  501    0  0.00000000000E+00  0.00000000000E+00 -0.10738734996E+04  0.10738734996E+04  0.50400001928E-02 0. -1.
    10030    2    1    2    0    0  0.00000000000E+00  0.00000000000E+00  0.16517188677E+04  0.37994658670E+04  0.34216612422E+04 0.  0.
        1    1    3    3  502    0  0.16015081975E+04 -0.35453742337E+03  0.13657728040E+04  0.21344462147E+04  0.50400001928E-02 0. -1.
       -1    1    3    3    0  502 -0.16015081975E+04  0.35453742337E+03  0.28594606374E+03  0.16650196523E+04  0.50400001928E-02 0.  1.
</event>
<event>
 5   0  0.4521737E-07  0.3389303E+04  0.7818609E-02  0.8140537E-01
       -2   -1    0    0    0  501  0.00000000000E+00  0.00000000000E+00  0.26073983595E+04  0.26073983595E+04  0.25500000920E-02 0. -1.
        2   -1    0    0  501    0  0.00000000000E+00  0.00000000000E+00 -0.11014212370E+04  0.11014212370E+04  0.25500000920E-02 0.  1.
    10030    2    1    2    0    0  0.00000000000E+00  0.00000000000E+00  0.15059771225E+04  0.37088195965E+04  0.33893031298E+04 0.  0.
        4    1    3    3  502    0 -0.98100358329E+03 -0.13738333019E+04  0.59047409041E+03  0.17884203186E+04  0.12699999809E+01 0.  1.
       -4    1    3    3    0  502  0.98100358329E+03  0.13738333019E+04  0.91550303209E+03  0.19203992778E+04  0.12699999809E+01 0. -1.
</event>
<event>
 5   0  0.4486226E-07  0.3408167E+04  0.7818609E-02  0.8135905E-01
        2   -1    0    0  501    0  0.00000000000E+00  0.00000000000E+00  0.25000201694E+04  0.25000201694E+04  0.25500000920E-02 0. -1.
       -2   -1    0    0    0  501  0.00000000000E+00  0.00000000000E+00 -0.11615510695E+04  0.11615510695E+04  0.25500000920E-02 0.  1.
    10030    2    1    2    0    0  0.00000000000E+00  0.00000000000E+00  0.13384690998E+04  0.36615712389E+04  0.34081673090E+04 0.  0.
        1    1    3    3  502    0 -0.15268270480E+03  0.12511348611E+04  0.19013484148E+04  0.22811786961E+04  0.50400001928E-02 0. -1.
       -1    1    3    3    0  502  0.15268270480E+03 -0.12511348611E+04 -0.56287931494E+03  0.13803925428E+04  0.50400001928E-02 0.  1.
</event>
<event>
 5   0  0.1520084E-07  0.3383421E+04  0.7818609E-02  0.8141987E-01
        1   -1    0    0  501    0  0.00000000000E+00  0.00000000000E+00  0.11090650722E+04  0.11090650723E+04  0.50400001928E-02 0.  1.
       -1   -1    0    0    0  501  0.00000000000E+00  0.00000000000E+00 -0.25804475975E+04  0.25804475975E+04  0.50400001928E-02 0. -1.
    10030    2    1    2    0    0  0.00000000000E+00  0.00000000000E+00 -0.14713825253E+04  0.36895126698E+04  0.33834209323E+04 0.  0.
        2    1    3    3  502    0 -0.99256203729E+03  0.62342247063E+03  0.59452311629E+03  0.13142650838E+04  0.25500000920E-02 0. -1.
       -2    1    3    3    0  502  0.99256203729E+03 -0.62342247063E+03 -0.20659056416E+04  0.23752475860E+04  0.25500000920E-02 0.  1.
</event>
<event>
 5   0  0.1473755E-07  0.3403163E+04  0.7818609E-02  0.8137131E-01
        1   -1    0    0  501    0  0.00000000000E+00  0.00000000000E+00  0.16352604142E+04  0.16352604142E+04  0.50400001928E-02 0.  1.
       -1   -1    0    0    0  501  0.00000000000E+00  0.00000000000E+00 -0.17705919493E+04  0.17705919493E+04  0.50400001928E-02 0. -1.
    10030    2    1    2    0    0  0.00000000000E+00  0.00000000000E+00 -0.13533153503E+03  0.34058523635E+04  0.34031626023E+04 0.  0.
        1    1    3    3  502    0  0.11412810611E+03  0.76536424456E+03  0.14489762451E+04  0.16426624152E+04  0.50400001928E-02 0.  1.
       -1    1    3    3    0  502 -0.11412810611E+03 -0.76536424456E+03 -0.15843077802E+04  0.17631899483E+04  0.50400001928E-02 0. -1.
</event>
<event>
 5   0  0.1421875E-07  0.3396827E+04  0.7818609E-02  0.8138686E-01
       -3   -1    0    0    0  501  0.00000000000E+00  0.00000000000E+00  0.17769987628E+04  0.17769987657E+04  0.10100000352E+00 0. -1.
        3   -1    0    0  501    0  0.00000000000E+00  0.00000000000E+00 -0.16233032380E+04  0.16233032411E+04  0.10100000352E+00 0.  1.
    10030    2    1    2    0    0  0.00000000000E+00  0.00000000000E+00  0.15369552482E+03  0.34003020068E+04  0.33968266696E+04 0.  0.
        5    1    3    3  502    0 -0.16410964284E+04  0.12912571368E+03  0.49526444162E+03  0.17190636679E+04  0.46999998093E+01 0.  1.
       -5    1    3    3    0  502  0.16410964284E+04 -0.12912571368E+03 -0.34156891680E+03  0.16812383389E+04  0.46999998093E+01 0. -1.
</event>
<event>
 5   0  0.4521737E-07  0.3407136E+04  0.7818609E-02  0.8136157E-01
        2   -1    0    0  501    0  0.00000000000E+00  0.00000000000E+00  0.14464575038E+04  0.14464575038E+04  0.25500000920E-02 0. -1.
       -2   -1    0    0    0  501  0.00000000000E+00  0.00000000000E+00 -0.20063798275E+04  0.20063798275E+04  0.25500000920E-02 0.  1.
    10030    2    1    2    0    0  0.00000000000E+00  0.00000000000E+00 -0.55992232377E+03  0.34528373313E+04  0.34071355458E+04 0.  0.
        4    1    3    3  502    0 -0.47408036199E+03  0.16329691749E+04 -0.17463912285E+03  0.17093393320E+04  0.12699999809E+01 0. -1.
       -4    1    3    3    0  502  0.47408036199E+03 -0.16329691749E+04 -0.38528320092E+03  0.17434979993E+04  0.12699999809E+01 0.  1.
</event>
<event>
 5   0  0.1523259E-07  0.3420301E+04  0.7818609E-02  0.8132942E-01
       -1   -1    0    0    0  501  0.00000000000E+00  0.00000000000E+00  0.23977738953E+04  0.23977738953E+04  0.50400001928E-02 0.  1.
        1   -1    0    0  501    0  0.00000000000E+00  0.00000000000E+00 -0.12197205934E+04  0.12197205935E+04  0.50400001928E-02 0. -1.
    10030    2    1    2    0    0  0.00000000000E+00  0.00000000000E+00  0.11780533018E+04  0.36174944887E+04  0.34203006877E+04 0.  0.
        4    1    3    3  502    0  0.10708223616E+04 -0.12982076224E+04  0.91088905104E+03  0.19135631783E+04  0.12699999809E+01 0. -1.
       -4    1    3    3    0  502 -0.10708223616E+04  0.12982076224E+04  0.26716425077E+03  0.17039313105E+04  0.12699999809E+01 0.  1.
</event>
<event>
 5   0  0.4521737E-07  0.3400506E+04  0.7818609E-02  0.8137782E-01
       -2   -1    0    0    0  501  0.00000000000E+00  0.00000000000E+00  0.25457722397E+04  0.25457722397E+04  0.25500000920E-02 0.  1.
        2   -1    0    0  501    0  0.00000000000E+00  0.00000000000E+00 -0.11355532003E+04  0.11355532003E+04  0.25500000920E-02 0. -1.
    10030    2    1    2    0    0  0.00000000000E+00  0.00000000000E+00  0.14102190394E+04  0.36813254400E+04  0.34005057354E+04 0.  0.
        4    1    3    3  502    0  0.89200895898E+02  0.14039605610E+04  0.17388453656E+04  0.22366597584E+04  0.12699999809E+01 0.  1.
       -4    1    3    3    0  502 -0.89200895898E+02 -0.14039605610E+04 -0.32862632620E+03  0.14446656816E+04  0.12699999809E+01 0. -1.
</event>
<event>
 5   0  0.1520084E-07  0.3403193E+04  0.7818609E-02  0.8137123E-01
       -1   -1    0    0    0  501  0.00000000000E+00  0.00000000000E+00  0.22613451255E+04  0.22613451255E+04  0.50400001928E-02 0.  1.
        1   -1    0    0  501    0  0.00000000000E+00  0.00000000000E+00 -0.12804015754E+04  0.12804015754E+04  0.50400001928E-02 0. -1.
    10030    2    1    2    0    0  0.00000000000E+00  0.00000000000E+00  0.98094355011E+03  0.35417467010E+04  0.34031925372E+04 0.  0.
        2    1    3    3  502    0  0.55953756303E+03 -0.10515972412E+04 -0.77410835401E+03  0.14206276028E+04  0.25500000920E-02 0.  1.
       -2    1    3    3    0  502 -0.55953756303E+03  0.10515972412E+04  0.17550519041E+04  0.21211190981E+04  0.25500000920E-02 0. -1.
</event>
<event>
 5   0  0.4486226E-07  0.3396080E+04  0.7818609E-02  0.8138869E-01
        2   -1    0    0  501    0  0.00000000000E+00  0.00000000000E+00  0.16094793900E+04  0.16094793900E+04  0.25500000920E-02 0. -1.
       -2   -1    0    0    0  501  0.00000000000E+00  0.00000000000E+00 -0.17914731909E+04  0.17914731909E+04  0.25500000920E-02 0.  1.
    10030    2    1    2    0    0  0.00000000000E+00  0.00000000000E+00 -0.18199380087E+03  0.34009525809E+04  0.33960796095E+04 0.  0.
        1    1    3    3  502    0  0.15505302671E+04  0.69096376141E+03 -0.48934850902E+02  0.16982254410E+04  0.50400001928E-02 0. -1.
       -1    1    3    3    0  502 -0.15505302671E+04 -0.69096376141E+03 -0.13305894997E+03  0.17027271399E+04  0.50400001928E-02 0.  1.
</event>
<event>
 5   0  0.1435806E-07  0.3404083E+04  0.7818609E-02  0.8136905E-01
       -1   -1    0    0    0  501  0.00000000000E+00  0.00000000000E+00  0.16327717072E+04  0.16327717073E+04  0.50400001928E-02 0.  1.
        1   -1    0    0  501    0  0.00000000000E+00  0.00000000000E+00 -0.17742496060E+04  0.17742496060E+04  0.50400001928E-02 0. -1.
    10030    2    1    2    0    0  0.00000000000E+00  0.00000000000E+00 -0.14147789878E+03  0.34070213133E+04  0.34040825832E+04 0.  0.
        3    1    3    3  502    0 -0.78870883419E+03 -0.26241794115E+03 -0.15572887421E+04  0.17652402209E+04  0.10100000352E+00 0. -1.
       -3    1    3    3    0  502  0.78870883419E+03  0.26241794115E+03  0.14158108433E+04  0.16417810924E+04  0.10100000352E+00 0.  1.
</event>
<event>
 5   0  0.1473755E-07  0.3385258E+04  0.7818609E-02  0.8141534E-01
       -1   -1    0    0    0  501  0.00000000000E+00  0.00000000000E+00  0.15272770698E+04  0.15272770698E+04  0.50400001928E-02 0.  1.
        1   -1    0    0  501    0  0.00000000000E+00  0.00000000000E+00 -0.18758834132E+04  0.18758834132E+04  0.50400001928E-02 0. -1.
    10030    2    1    2    0    0  0.00000000000E+00  0.00000000000E+00 -0.34860634338E+03  0.34031604830E+04  0.33852584673E+04 0.  0.
        1    1    3    3  502    0 -0.11486874251E+04 -0.31838344904E+03  0.10337767920E+04  0.15778292927E+04  0.50400001928E-02 0.  1.
       -1    1    3    3    0  502  0.11486874251E+04  0.31838344904E+03 -0.13823831354E+04  0.18253311903E+04  0.50400001928E-02 0. -1.
</event>
<event>
 5   0  0.1435806E-07  0.3397889E+04  0.7818609E-02  0.8138425E-01
       -1   -1    0    0    0  501  0.00000000000E+00  0.00000000000E+00  0.11296276929E+04  0.11296276929E+04  0.50400001928E-02 0. -1.
        1   -1    0    0  501    0  0.00000000000E+00  0.00000000000E+00 -0.25551897100E+04  0.25551897100E+04  0.50400001928E-02 0.  1.
    10030    2    1    2    0    0  0.00000000000E+00  0.00000000000E+00 -0.14255620171E+04  0.36848174030E+04  0.33978893785E+04 0.  0.
        3    1    3    3  502    0 -0.66309295314E+03  0.12798976199E+04  0.26236355244E+03  0.14651501035E+04  0.10100000352E+00 0. -1.
       -3    1    3    3    0  502  0.66309295314E+03 -0.12798976199E+04 -0.16879255695E+04  0.22196672995E+04  0.10100000352E+00 0.  1.
</event>
<event>
 5   0  0.4381939E-07  0.3381653E+04  0.7818609E-02  0.8142424E-01
        2   -1    0    0  501    0  0.00000000000E+00  0.00000000000E+00  0.14783786616E+04  0.14783786616E+04  0.25500000920E-02 0. -1.
       -2   -1    0    0    0  501  0.00000000000E+00  0.00000000000E+00 -0.19338042273E+04  0.19338042273E+04  0.25500000920E-02 0.  1.
    10030    2    1    2    0    0  0.00000000000E+00  0.00000000000E+00 -0.45542556571E+03  0.34121828890E+04  0.33816533858E+04 0.  0.
        3    1    3    3  502    0  0.41731610885E+03  0.16384721420E+04 -0.24012016047E+03  0.17077474627E+04  0.10100000352E+00 0. -1.
       -3    1    3    3    0  502 -0.41731610885E+03 -0.16384721420E+04 -0.21530540525E+03  0.17044354263E+04  0.10100000352E+00 0.  1.
</event>
<event>
 5   0  0.4396257E-07  0.3402487E+04  0.7818609E-02  0.8137296E-01
        2   -1    0    0  501    0  0.00000000000E+00  0.00000000000E+00  0.17029481092E+04  0.17029481092E+04  0.25500000920E-02 0. -1.
       -2   -1    0    0    0  501  0.00000000000E+00  0.00000000000E+00 -0.16995401821E+04  0.16995401821E+04  0.25500000920E-02 0.  1.
    10030    2    1    2    0    0  0.00000000000E+00  0.00000000000E+00  0.34079270920E+01  0.34024882913E+04  0.34024865846E+04 0.  0.
        2    1    3    3  502    0  0.44609004334E+03 -0.15647939992E+04  0.49834508183E+03  0.17017415806E+04  0.25500000920E-02 0. -1.
       -2    1    3    3    0  502 -0.44609004334E+03  0.15647939992E+04 -0.49493715474E+03  0.17007467106E+04  0.25500000920E-02 0.  1.
</event>
<event>
 5   0  0.1523259E-07  0.3427207E+04  0.7818609E-02  0.8131261E-01
       -1   -1    0    0    0  501  0.00000000000E+00  0.00000000000E+00  0.17133918219E+04  0.17133918219E+04  0.50400001928E-02 0.  1.
        1   -1    0    0  501    0  0.00000000000E+00  0.00000000000E+00 -0.17138152399E+04  0.17138152399E+04  0.50400001928E-02 0. -1.
    10030    2    1    2    0    0  0.00000000000E+00  0.00000000000E+00 -0.42341798539E+00  0.34272070618E+04  0.34272070356E+04 0.  0.
        4    1    3    3  502    0 -0.12858242510E+04 -0.11125925800E+04  0.21245975271E+03  0.17135772562E+04  0.12699999809E+01 0. -1.
       -4    1    3    3    0  502  0.12858242510E+04  0.11125925800E+04 -0.21288317069E+03  0.17136298056E+04  0.12699999809E+01 0.  1.
</event>
<event>
 5   0  0.4486226E-07  0.3282211E+04  0.7818609E-02  0.8167437E-01
       -2   -1    0    0    0  501  0.00000000000E+00  0.00000000000E+00  0.15390248455E+04  0.15390248455E+04  0.25500000920E-02 0.  1.
        2   -1    0    0  501    0  0.00000000000E+00  0.00000000000E+00 -0.17499573589E+04  0.17499573589E+04  0.25500000920E-02 0. -1.
    10030    2    1    2    0    0  0.00000000000E+00  0.00000000000E+00 -0.21093251341E+03  0.32889822043E+04  0.32822113605E+04 0.  0.
        1    1    3    3  502    0 -0.35734837766E+02 -0.16271166325E+04  0.10578214621E+03  0.16309430944E+04  0.50400001928E-02 0. -1.
       -1    1    3    3    0  502  0.35734837766E+02  0.16271166325E+04 -0.31671465962E+03  0.16580391100E+04  0.50400001928E-02 0.  1.
</event>
<event>
 5   0  0.4447909E-07  0.3388377E+04  0.7818609E-02  0.8140765E-01
        2   -1    0    0  501    0  0.00000000000E+00  0.00000000000E+00  0.15086964638E+04  0.15086964638E+04  0.25500000920E-02 0. -1.
       -2   -1    0    0    0  501  0.00000000000E+00  0.00000000000E+00 -0.19024865489E+04  0.19024865489E+04  0.25500000920E-02 0.  1.
    10030    2    1    2    0    0  0.00000000000E+00  0.00000000000E+00 -0.39379008514E+03  0.34111830127E+04  0.33883770325E+04 0.  0.
        5    1    3    3  502    0 -0.14000619070E+04  0.76973443775E+03 -0.76423773245E+03  0.17710860651E+04  0.46999998093E+01 0.  1.
       -5    1    3    3    0  502  0.14000619070E+04 -0.76973443775E+03  0.37044764731E+03  0.16400969476E+04  0.46999998093E+01 0. -1.
</event>
<event>
 5   0  0.1523259E-07  0.3162803E+04  0.7818609E-02  0.8198710E-01
        1   -1    0    0  501    0  0.00000000000E+00  0.00000000000E+00  0.13193668613E+04  0.13193668613E+04  0.50400001928E-02 0. -1.
       -1   -1    0    0    0  501  0.00000000000E+00  0.00000000000E+00 -0.18954780794E+04  0.18954780794E+04  0.50400001928E-02 0.  1.
    10030    2    1    2    0    0  0.00000000000E+00  0.00000000000E+00 -0.57611121814E+03  0.32148449408E+04  0.31628031645E+04 0.  0.
        4    1    3    3  502    0 -0.13480088018E+04 -0.15052551265E+03  0.53836844369E+03  0.14593244512E+04  0.12699999809E+01 0. -1.
       -4    1    3    3    0  502  0.13480088018E+04  0.15052551265E+03 -0.11144796618E+04  0.17555204896E+04  0.12699999809E+01 0.  1.
</event>
<event>
 5   0  0.4486226E-07  0.3391610E+04  0.7818609E-02  0.8139968E-01
        2   -1    0    0  501    0  0.00000000000E+00  0.00000000000E+00  0.24473513566E+04  0.24473513566E+04  0.25500000920E-02 0. -1.
       -2   -1    0    0    0  501  0.00000000000E+00  0.00000000000E+00 -0.11750479166E+04  0.11750479166E+04  0.25500000920E-02 0.  1.
    10030    2    1    2    0    0  0.00000000000E+00  0.00000000000E+00  0.12723034400E+04  0.36223992732E+04  0.33916103035E+04 0.  0.
        1    1    3    3  502    0  0.68872913191E+03 -0.54840762194E+03 -0.91183731597E+03  0.12674959676E+04  0.50400001928E-02 0.  1.
       -1    1    3    3    0  502 -0.68872913191E+03  0.54840762194E+03  0.21841407560E+04  0.23549033056E+04  0.50400001928E-02 0. -1.
</event>
<event>
 5   0  0.1473755E-07  0.3403477E+04  0.7818609E-02  0.8137054E-01
       -1   -1    0    0    0  501  0.00000000000E+00  0.00000000000E+00  0.13551085736E+04  0.13551085736E+04  0.50400001928E-02 0.  1.
        1   -1    0    0  501    0  0.00000000000E+00  0.00000000000E+00 -0.21370343517E+04  0.21370343517E+04  0.50400001928E-02 0. -1.
    10030    2    1    2    0    0  0.00000000000E+00  0.00000000000E+00 -0.78192577814E+03  0.34921429253E+04  0.34034767941E+04 0.  0.
        1    1    3    3  502    0  0.60611733411E+03 -0.61236615214E-03 -0.20225254496E+04  0.21113946616E+04  0.50400001928E-02 0. -1.
       -1    1    3    3    0  502 -0.60611733411E+03  0.61236615214E-03  0.12405996715E+04  0.13807482637E+04  0.50400001928E-02 0.  1.
</event>
<event>
 5   0  0.4486226E-07  0.3317738E+04  0.7818609E-02  0.8158397E-01
       -2   -1    0    0    0  501  0.00000000000E+00  0.00000000000E+00  0.16355255295E+04  0.16355255295E+04  0.25500000920E-02 0. -1.
        2   -1    0    0  501    0  0.00000000000E+00  0.00000000000E+00 -0.16825454463E+04  0.16825454463E+04  0.25500000920E-02 0.  1.
    10030    2    1    2    0    0  0.00000000000E+00  0.00000000000E+00 -0.47019916797E+02  0.33180709758E+04  0.33177378028E+04 0.  0.
        1    1    3    3  502    0  0.34852993878E+03  0.72798111881E+03 -0.14729368384E+04  0.16795751122E+04  0.50400001928E-02 0.  1.
       -1    1    3    3    0  502 -0.34852993878E+03 -0.72798111881E+03  0.14259169217E+04  0.16384958636E+04  0.50400001928E-02 0. -1.
</event>
<event>
 5   0  0.1523259E-07  0.3395671E+04  0.7818609E-02  0.8138970E-01
       -1   -1    0    0    0  501  0.00000000000E+00  0.00000000000E+00  0.22373271061E+04  0.22373271061E+04  0.50400001928E-02 0.  1.
        1   -1    0    0  501    0  0.00000000000E+00  0.00000000000E+00 -0.12884329851E+04  0.12884329852E+04  0.50400001928E-02 0. -1.
    10030    2    1    2    0    0  0.00000000000E+00  0.00000000000E+00  0.94889412091E+03  0.35257600912E+04  0.33956713869E+04 0.  0.
        4    1    3    3  502    0 -0.94237742983E+02  0.49086382015E+03 -0.12103104018E+04  0.13094582558E+04  0.12699999809E+01 0. -1.
       -4    1    3    3    0  502  0.94237742983E+02 -0.49086382015E+03  0.21592045227E+04  0.22163018354E+04  0.12699999809E+01 0.  1.
</event>
<event>
 5   0  0.4396257E-07  0.3389720E+04  0.7818609E-02  0.8140434E-01
        2   -1    0    0  501    0  0.00000000000E+00  0.00000000000E+00  0.13323656951E+04  0.13323656951E+04  0.25500000920E-02 0. -1.
       -2   -1    0    0    0  501  0.00000000000E+00  0.00000000000E+00 -0.21559770221E+04  0.21559770221E+04  0.25500000920E-02 0.  1.
    10030    2    1    2    0    0  0.00000000000E+00  0.00000000000E+00 -0.82361132697E+03  0.34883427173E+04  0.33897196485E+04 0.  0.
        2    1    3    3  502    0 -0.11286799478E+03  0.41919193200E+03 -0.20977910364E+04  0.21422390838E+04  0.25500000920E-02 0.  1.
       -2    1    3    3    0  502  0.11286799478E+03 -0.41919193200E+03  0.12741797094E+04  0.13461036334E+04  0.25500000920E-02 0. -1.
</event>
<event>
 5   0  0.4396257E-07  0.3623748E+04  0.7818609E-02  0.8085073E-01
        2   -1    0    0  501    0  0.00000000000E+00  0.00000000000E+00  0.14540839775E+04  0.14540839775E+04  0.25500000920E-02 0.  1.
       -2   -1    0    0    0  501  0.00000000000E+00  0.00000000000E+00 -0.22577014795E+04  0.22577014795E+04  0.25500000920E-02 0. -1.
    10030    2    1    2    0    0  0.00000000000E+00  0.00000000000E+00 -0.80361750202E+03  0.37117854570E+04  0.36237480858E+04 0.  0.
        2    1    3    3  502    0 -0.10331684814E+04  0.13352422934E+04  0.27187691808E+03  0.17100368861E+04  0.25500000920E-02 0.  1.
       -2    1    3    3    0  502  0.10331684814E+04 -0.13352422934E+04 -0.10754944201E+04  0.20017485709E+04  0.25500000920E-02 0. -1.
</event>
<event>
 5   0  0.1523259E-07  0.3401751E+04  0.7818609E-02  0.8137477E-01
        1   -1    0    0  501    0  0.00000000000E+00  0.00000000000E+00  0.19858094946E+04  0.19858094946E+04  0.50400001928E-02 0.  1.
       -1   -1    0    0    0  501  0.00000000000E+00  0.00000000000E+00 -0.14568249235E+04  0.14568249235E+04  0.50400001928E-02 0. -1.
    10030    2    1    2    0    0  0.00000000000E+00  0.00000000000E+00  0.52898457111E+03  0.34426344182E+04  0.34017505877E+04 0.  0.
        4    1    3    3  502    0  0.31164216621E+03  0.14255204805E+04 -0.61993639798E+03  0.15854186294E+04  0.12699999809E+01 0. -1.
       -4    1    3    3    0  502 -0.31164216621E+03 -0.14255204805E+04  0.11489209691E+04  0.18572157888E+04  0.12699999809E+01 0.  1.
</event>
<event>
 5   0  0.1421875E-07  0.3399154E+04  0.7818609E-02  0.8138114E-01
       -1   -1    0    0    0  501  0.00000000000E+00  0.00000000000E+00  0.11530411942E+04  0.11530411942E+04  0.50400001928E-02 0.  1.
        1   -1    0    0  501    0  0.00000000000E+00  0.00000000000E+00 -0.25051683308E+04  0.25051683308E+04  0.50400001928E-02 0. -1.
    10030    2    1    2    0    0  0.00000000000E+00  0.00000000000E+00 -0.13521271366E+04  0.36582095251E+04  0.33991541795E+04 0.  0.
        5    1    3    3  502    0 -0.18006750127E+03 -0.20178471186E+03 -0.24818553592E+04  0.24965515194E+04  0.46999998093E+01 0. -1.
       -5    1    3    3    0  502  0.18006750127E+03  0.20178471186E+03  0.11297282227E+04  0.11616580056E+04  0.46999998093E+01 0.  1.
</event>
<event>
 5   0  0.1520084E-07  0.3399558E+04  0.7818609E-02  0.8138015E-01
       -1   -1    0    0    0  501  0.00000000000E+00  0.00000000000E+00  0.14296520904E+04  0.14296520904E+04  0.50400001928E-02 0.  1.
        1   -1    0    0  501    0  0.00000000000E+00  0.00000000000E+00 -0.20209448382E+04  0.20209448382E+04  0.50400001928E-02 0. -1.
    10030    2    1    2    0    0  0.00000000000E+00  0.00000000000E+00 -0.59129274777E+03  0.34505969287E+04  0.33995576257E+04 0.  0.
        2    1    3    3  502    0 -0.21136019704E+02 -0.14043268443E+04 -0.12674482125E+04  0.18918259931E+04  0.25500000920E-02 0. -1.
       -2    1    3    3    0  502  0.21136019704E+02  0.14043268443E+04  0.67615546475E+03  0.15587709355E+04  0.25500000920E-02 0.  1.
</event>
<event>
 5   0  0.4381939E-07  0.3407480E+04  0.7818609E-02  0.8136073E-01
       -2   -1    0    0    0  501  0.00000000000E+00  0.00000000000E+00  0.14944289984E+04  0.14944289984E+04  0.25500000920E-02 0.  1.
        2   -1    0    0  501    0  0.00000000000E+00  0.00000000000E+00 -0.19423673063E+04  0.19423673063E+04  0.25500000920E-02 0. -1.
    10030    2    1    2    0    0  0.00000000000E+00  0.00000000000E+00 -0.44793830782E+03  0.34367963047E+04  0.34074800238E+04 0.  0.
        3    1    3    3  502    0 -0.61934296716E+02  0.12440259002E+04  0.94848360664E+03  0.15655853409E+04  0.10100000352E+00 0.  1.
       -3    1    3    3    0  502  0.61934296716E+02 -0.12440259002E+04 -0.13964219145E+04  0.18712109638E+04  0.10100000352E+00 0. -1.
</event>
<event>
 5   0  0.1520084E-07  0.3414023E+04  0.7818609E-02  0.8134473E-01
        1   -1    0    0  501    0  0.00000000000E+00  0.00000000000E+00  0.26498328707E+04  0.26498328707E+04  0.50400001928E-02 0.  1.
       -1   -1    0    0    0  501  0.00000000000E+00  0.00000000000E+00 -0.10996500756E+04  0.10996500756E+04  0.50400001928E-02 0. -1.
    10030    2    1    2    0    0  0.00000000000E+00  0.00000000000E+00  0.15501827951E+04  0.37494829463E+04  0.34140233840E+04 0.  0.
        2    1    3    3  502    0 -0.10777503019E+04  0.97653999738E+03 -0.20643102063E+03  0.14689417436E+04  0.25500000920E-02 0. -1.
       -2    1    3    3    0  502  0.10777503019E+04 -0.97653999738E+03  0.17566138157E+04  0.22805412027E+04  0.25500000920E-02 0.  1.
</event>
<event>
 5   0  0.1473755E-07  0.3394000E+04  0.7818609E-02  0.8139380E-01
       -1   -1    0    0    0  501  0.00000000000E+00  0.00000000000E+00  0.25850633668E+04  0.25850633669E+04  0.50400001928E-02 0.  1.
        1   -1    0    0  501    0  0.00000000000E+00  0.00000000000E+00 -0.11140188342E+04  0.11140188342E+04  0.50400001928E-02 0. -1.
    10030    2    1    2    0    0  0.00000000000E+00  0.00000000000E+00  0.14710445327E+04  0.36990822010E+04  0.33940001639E+04 0.  0.
        1    1    3    3  502    0  0.12597521198E+04  0.44187304293E+03  0.18773501096E+04  0.23036211979E+04  0.50400001928E-02 0.  1.
       -1    1    3    3    0  502 -0.12597521198E+04 -0.44187304293E+03 -0.40630557695E+03  0.13954610031E+04  0.50400001928E-02 0. -1.
</event>
<event>
 5   0  0.4486226E-07  0.3452708E+04  0.7818609E-02  0.8125090E-01
       -2   -1    0    0    0  501  0.00000000000E+00  0.00000000000E+00  0.18289485549E+04  0.18289485549E+04  0.25500000920E-02 0.  1.
        2   -1    0    0  501    0  0.00000000000E+00  0.00000000000E+00 -0.16295142411E+04  0.16295142412E+04  0.25500000920E-02 0. -1.
    10030    2    1    2    0    0  0.00000000000E+00  0.00000000000E+00  0.19943431374E+03  0.34584627960E+04  0.34527077586E+04 0.  0.
        1    1    3    3  502    0  0.12590851387E+04 -0.11338864423E+04 -0.23144526427E+03  0.17101347201E+04  0.50400001928E-02 0. -1.
       -1    1    3    3    0  502 -0.12590851387E+04  0.11338864423E+04  0.43087957801E+03  0.17483280760E+04  0.50400001928E-02 0.  1.
</event>
<event>
 5   0  0.1421875E-07  0.3402124E+04  0.7818609E-02  0.8137385E-01
       -3   -1    0    0    0  501  0.00000000000E+00  0.00000000000E+00  0.22640010135E+04  0.22640010157E+04  0.10100000352E+00 0. -1.
        3   -1    0    0  501    0  0.00000000000E+00  0.00000000000E+00 -0.12780968717E+04  0.12780968757E+04  0.10100000352E+00 0.  1.
    10030    2    1    2    0    0  0.00000000000E+00  0.00000000000E+00  0.98590414174E+03  0.35420978914E+04  0.34021244092E+04 0.  0.
        4    1    3    3  502    0  0.13263137093E+04 -0.10433489027E+04  0.26983141008E+03  0.17089457542E+04  0.12699999809E+01 0.  1.
       -4    1    3    3    0  502 -0.13263137093E+04  0.10433489027E+04  0.71607273166E+03  0.18331521372E+04  0.12699999809E+01 0. -1.
</event>
<event>
 5   0  0.1421875E-07  0.3393214E+04  0.7818609E-02  0.8139574E-01
       -1   -1    0    0    0  501  0.00000000000E+00  0.00000000000E+00  0.25871482828E+04  0.25871482828E+04  0.50400001928E-02 0.  1.
        1   -1    0    0  501    0  0.00000000000E+00  0.00000000000E+00 -0.11126054007E+04  0.11126054007E+04  0.50400001928E-02 0. -1.
    10030    2    1    2    0    0  0.00000000000E+00  0.00000000000E+00  0.14745428821E+04  0.36997536835E+04  0.33932139053E+04 0.  0.
        5    1    3    3  502    0 -0.44235627840E+03  0.15762854195E+04  0.12225620695E+04  0.20432902155E+04  0.46999998093E+01 0.  1.
       -5    1    3    3    0  502  0.44235627840E+03 -0.15762854195E+04  0.25198081256E+03  0.16564634680E+04  0.46999998093E+01 0. -1.
</event>
<event>
 5   0  0.4396257E-07  0.3407868E+04  0.7818609E-02  0.8135978E-01
        2   -1    0    0  501    0  0.00000000000E+00  0.00000000000E+00  0.17298970319E+04  0.17298970319E+04  0.25500000920E-02 0.  1.
       -2   -1    0    0    0  501  0.00000000000E+00  0.00000000000E+00 -0.16783607033E+04  0.16783607033E+04  0.25500000920E-02 0. -1.
    10030    2    1    2    0    0  0.00000000000E+00  0.00000000000E+00  0.51536328632E+02  0.34082577351E+04  0.34078680720E+04 0.  0.
        2    1    3    3  502    0 -0.76681972508E+03  0.11244446832E+04  0.10510696928E+04  0.17196324711E+04  0.25500000920E-02 0.  1.
       -2    1    3    3    0  502  0.76681972508E+03 -0.11244446832E+04 -0.99953336419E+03  0.16886252641E+04  0.25500000920E-02 0. -1.
</event>
<event>
 5   0  0.4396257E-07  0.3409917E+04  0.7818609E-02  0.8135477E-01
       -2   -1    0    0    0  501  0.00000000000E+00  0.00000000000E+00  0.16551597559E+04  0.16551597559E+04  0.25500000920E-02 0. -1.
        2   -1    0    0  501    0  0.00000000000E+00  0.00000000000E+00 -0.17562551796E+04  0.17562551796E+04  0.25500000920E-02 0.  1.
    10030    2    1    2    0    0  0.00000000000E+00  0.00000000000E+00 -0.10109542368E+03  0.34114149355E+04  0.34099166526E+04 0.  0.
        2    1    3    3  502    0  0.14866678103E+04 -0.74593518356E+03  0.32415980420E+03  0.16946032146E+04  0.25500000920E-02 0. -1.
       -2    1    3    3    0  502 -0.14866678103E+04  0.74593518356E+03 -0.42525522788E+03  0.17168117209E+04  0.25500000920E-02 0.  1.
</event>
<event>
 5   0  0.1435806E-07  0.3398633E+04  0.7818609E-02  0.8138242E-01
       -1   -1    0    0    0  501  0.00000000000E+00  0.00000000000E+00  0.17973842629E+04  0.17973842629E+04  0.50400001928E-02 0. -1.
        1   -1    0    0  501    0  0.00000000000E+00  0.00000000000E+00 -0.16065993575E+04  0.16065993575E+04  0.50400001928E-02 0.  1.
    10030    2    1    2    0    0  0.00000000000E+00  0.00000000000E+00  0.19078490545E+03  0.34039836204E+04  0.33986329028E+04 0.  0.
        3    1    3    3  502    0 -0.18419573056E+03 -0.11008960905E+04 -0.11879429398E+04  0.16300640195E+04  0.10100000352E+00 0.  1.
       -3    1    3    3    0  502  0.18419573056E+03  0.11008960905E+04  0.13787278452E+04  0.17739196009E+04  0.10100000352E+00 0. -1.
</event>
<event>
 5   0  0.4447909E-07  0.3398109E+04  0.7818609E-02  0.8138371E-01
       -2   -1    0    0    0  501  0.00000000000E+00  0.00000000000E+00  0.13228963200E+04  0.13228963200E+04  0.25500000920E-02 0.  1.
        2   -1    0    0  501    0  0.00000000000E+00  0.00000000000E+00 -0.21821707736E+04  0.21821707736E+04  0.25500000920E-02 0. -1.
    10030    2    1    2    0    0  0.00000000000E+00  0.00000000000E+00 -0.85927445358E+03  0.35050670936E+04  0.33981087010E+04 0.  0.
        5    1    3    3  502    0  0.85353254342E+03 -0.27996071038E+03 -0.19172055897E+04  0.21172140103E+04  0.46999998093E+01 0. -1.
       -5    1    3    3    0  502 -0.85353254342E+03  0.27996071038E+03  0.10579311362E+04  0.13878530833E+04  0.46999998093E+01 0.  1.
</event>
<event>
 5   0  0.1523259E-07  0.3421332E+04  0.7818609E-02  0.8132691E-01
        1   -1    0    0  501    0  0.00000000000E+00  0.00000000000E+00  0.19662457504E+04  0.19662457504E+04  0.50400001928E-02 0. -1.
       -1   -1    0    0    0  501  0.00000000000E+00  0.00000000000E+00 -0.14883074623E+04  0.14883074623E+04  0.50400001928E-02 0.  1.
    10030    2    1    2    0    0  0.00000000000E+00  0.00000000000E+00  0.47793828812E+03  0.34545532127E+04  0.34213320347E+04 0.  0.
        4    1    3    3  502    0 -0.32354240779E+03  0.94515823003E+03  0.16411116853E+04  0.19212633724E+04  0.12699999809E+01 0. -1.
       -4    1    3    3    0  502  0.32354240779E+03 -0.94515823003E+03 -0.11631733972E+04  0.15332898403E+04  0.12699999809E+01 0.  1.
</event>
<event>
 5   0  0.4396257E-07  0.3402075E+04  0.7818609E-02  0.8137397E-01
       -2   -1    0    0    0  501  0.00000000000E+00  0.00000000000E+00  0.12627693607E+04  0.12627693607E+04  0.25500000920E-02 0. -1.
        2   -1    0    0  501    0  0.00000000000E+00  0.00000000000E+00 -0.22914147328E+04  0.22914147328E+04  0.25500000920E-02 0.  1.
    10030    2    1    2    0    0  0.00000000000E+00  0.00000000000E+00 -0.10286453720E+04  0.35541840935E+04  0.34020748477E+04 0.  0.
        2    1    3    3  502    0  0.53447119154E+03 -0.13773474443E+02 -0.22013539555E+04  0.22653495096E+04  0.25500000920E-02 0.  1.
       -2    1    3    3    0  502 -0.53447119154E+03  0.13773474443E+02  0.11727085834E+04  0.12888345840E+04  0.25500000920E-02 0. -1.
</event>
<event>
 5   0  0.1421875E-07  0.3394999E+04  0.7818609E-02  0.8139135E-01
        1   -1    0    0  501    0  0.00000000000E+00  0.00000000000E+00  0.17134186924E+04  0.17134186924E+04  0.50400001928E-02 0.  1.
       -1   -1    0    0    0  501  0.00000000000E+00  0.00000000000E+00 -0.16817282137E+04  0.16817282137E+04  0.50400001928E-02 0. -1.
    10030    2    1    2    0    0  0.00000000000E+00  0.00000000000E+00  0.31690478677E+02  0.33951469061E+04  0.33949990025E+04 0.  0.
        5    1    3    3  502    0 -0.10902815312E+04 -0.90184588213E+03  0.95367213285E+03  0.17063271783E+04  0.46999998093E+01 0.  1.
       -5    1    3    3    0  502  0.10902815312E+04  0.90184588213E+03 -0.92198165418E+03  0.16888197278E+04  0.46999998093E+01 0. -1.
</event>
<event>
 5   0  0.1421875E-07  0.3223312E+04  0.7818609E-02  0.8182688E-01
        3   -1    0    0  501    0  0.00000000000E+00  0.00000000000E+00  0.17718732560E+04  0.17718732589E+04  0.10100000352E+00 0. -1.
       -3   -1    0    0    0  501  0.00000000000E+00  0.00000000000E+00 -0.14659260556E+04  0.14659260591E+04  0.10100000352E+00 0.  1.
    10030    2    1    2    0    0  0.00000000000E+00  0.00000000000E+00  0.30594720040E+03  0.32377993179E+04  0.32233120752E+04 0.  0.
        4    1    3    3  502    0  0.61262383222E+03  0.17827222541E+03  0.16396066986E+04  0.17593750837E+04  0.12699999809E+01 0. -1.
       -4    1    3    3    0  502 -0.61262383222E+03 -0.17827222541E+03 -0.13336594982E+04  0.14784242342E+04  0.12699999809E+01 0.  1.
</event>
<event>
 5   0  0.1520084E-07  0.3395206E+04  0.7818609E-02  0.8139084E-01
       -1   -1    0    0    0  501  0.00000000000E+00  0.00000000000E+00  0.10345320880E+04  0.10345320881E+04  0.50400001928E-02 0. -1.
        1   -1    0    0  501    0  0.00000000000E+00  0.00000000000E+00 -0.27856614010E+04  0.27856614010E+04  0.50400001928E-02 0.  1.
    10030    2    1    2    0    0  0.00000000000E+00  0.00000000000E+00 -0.17511293129E+04  0.38201934890E+04  0.33952060944E+04 0.  0.
        2    1    3    3  502    0 -0.17089798189E+03 -0.81601574313E+03 -0.25394392960E+04  0.26727962420E+04  0.25500000920E-02 0.  1.
       -2    1    3    3    0  502  0.17089798189E+03  0.81601574313E+03  0.78830998302E+03  0.11473972471E+04  0.25500000920E-02 0. -1.
</event>
<event>
 5   0  0.1421875E-07  0.3397505E+04  0.7818609E-02  0.8138519E-01
       -1   -1    0    0    0  501  0.00000000000E+00  0.00000000000E+00  0.97010999566E+03  0.97010999568E+03  0.50400001928E-02 0.  1.
        1   -1    0    0  501    0  0.00000000000E+00  0.00000000000E+00 -0.29746725220E+04  0.29746725220E+04  0.50400001928E-02 0. -1.
    10030    2    1    2    0    0  0.00000000000E+00  0.00000000000E+00 -0.20045625263E+04  0.39447825177E+04  0.33975047005E+04 0.  0.
        5    1    3    3  502    0  0.36647355906E+03 -0.62037939122E+02 -0.29268730879E+04  0.29503829816E+04  0.46999998093E+01 0. -1.
       -5    1    3    3    0  502 -0.36647355906E+03  0.62037939122E+02  0.92231056157E+03  0.99439953608E+03  0.46999998093E+01 0.  1.
</event>
<event>
 5   0  0.4396257E-07  0.3438449E+04  0.7818609E-02  0.8128534E-01
        2   -1    0    0  501    0  0.00000000000E+00  0.00000000000E+00  0.16688546064E+04  0.16688546064E+04  0.25500000920E-02 0.  1.
       -2   -1    0    0    0  501  0.00000000000E+00  0.00000000000E+00 -0.17711150651E+04  0.17711150651E+04  0.25500000920E-02 0. -1.
    10030    2    1    2    0    0  0.00000000000E+00  0.00000000000E+00 -0.10226045866E+03  0.34399696715E+04  0.34384493801E+04 0.  0.
        2    1    3    3  502    0  0.15191751687E+04 -0.78016775430E+03 -0.24915363635E+03  0.17258715052E+04  0.25500000920E-02 0. -1.
       -2    1    3    3    0  502 -0.15191751687E+04  0.78016775430E+03  0.14689317769E+03  0.17140981663E+04  0.25500000920E-02 0.  1.
</event>
<event>
 5   0  0.4396257E-07  0.3382164E+04  0.7818609E-02  0.8142298E-01
        2   -1    0    0  501    0  0.00000000000E+00  0.00000000000E+00  0.23532570805E+04  0.23532570805E+04  0.25500000920E-02 0.  1.
       -2   -1    0    0    0  501  0.00000000000E+00  0.00000000000E+00 -0.12152343036E+04  0.12152343036E+04  0.25500000920E-02 0. -1.
    10030    2    1    2    0    0  0.00000000000E+00  0.00000000000E+00  0.11380227769E+04  0.35684913841E+04  0.33821642357E+04 0.  0.
        2    1    3    3  502    0 -0.74730934346E+03  0.29210082833E+03 -0.10016094923E+04  0.12833611042E+04  0.25500000920E-02 0. -1.
       -2    1    3    3    0  502  0.74730934346E+03 -0.29210082833E+03  0.21396322692E+04  0.22851302799E+04  0.25500000920E-02 0.  1.
</event>
<event>
 5   0  0.1523259E-07  0.3386402E+04  0.7818609E-02  0.8141252E-01
        1   -1    0    0  501    0  0.00000000000E+00  0.00000000000E+00  0.21740070589E+04  0.21740070589E+04  0.50400001928E-02 0.  1.
       -1   -1    0    0    0  501  0.00000000000E+00  0.00000000000E+00 -0.13187306357E+04  0.13187306357E+04  0.50400001928E-02 0. -1.
    10030    2    1    2    0    0  0.00000000000E+00  0.00000000000E+00  0.85527642315E+03  0.34927376946E+04  0.33864020499E+04 0.  0.
        4    1    3    3  502    0 -0.13140005100E+04  0.28419629282E+03 -0.63403507786E+03  0.14863939471E+04  0.12699999809E+01 0. -1.
       -4    1    3    3    0  502  0.13140005100E+04 -0.28419629282E+03  0.14893115010E+04  0.20063437475E+04  0.12699999809E+01 0.  1.
</event>
<event>
 5   0  0.4521737E-07  0.3395078E+04  0.7818609E-02  0.8139115E-01
        2   -1    0    0  501    0  0.00000000000E+00  0.00000000000E+00  0.23586803640E+04  0.23586803640E+04  0.25500000920E-02 0.  1.
       -2   -1    0    0    0  501  0.00000000000E+00  0.00000000000E+00 -0.12217163285E+04  0.12217163285E+04  0.25500000920E-02 0. -1.
    10030    2    1    2    0    0  0.00000000000E+00  0.00000000000E+00  0.11369640354E+04  0.35803966925E+04  0.33950777985E+04 0.  0.
        4    1    3    3  502    0 -0.91363847708E+03 -0.48346350467E+03  0.19885201848E+04  0.22411350618E+04  0.12699999809E+01 0.  1.
       -4    1    3    3    0  502  0.91363847708E+03  0.48346350467E+03 -0.85155614932E+03  0.13392616307E+04  0.12699999809E+01 0. -1.
</event>
<event>
 5   0  0.1421875E-07  0.3356965E+04  0.7818609E-02  0.8148550E-01
       -3   -1    0    0    0  501  0.00000000000E+00  0.00000000000E+00  0.13191467779E+04  0.13191467817E+04  0.10100000352E+00 0.  1.
        3   -1    0    0  501    0  0.00000000000E+00  0.00000000000E+00 -0.21357011352E+04  0.21357011376E+04  0.10100000352E+00 0. -1.
    10030    2    1    2    0    0  0.00000000000E+00  0.00000000000E+00 -0.81655435732E+03  0.34548479193E+04  0.33569648683E+04 0.  0.
        4    1    3    3  502    0 -0.60030896077E+03 -0.39578045408E+03  0.11526164467E+04  0.13585062762E+04  0.12699999809E+01 0.  1.
       -4    1    3    3    0  502  0.60030896077E+03  0.39578045408E+03 -0.19691708041E+04  0.20963416431E+04  0.12699999809E+01 0. -1.
</event>
<event>
 5   0  0.1421875E-07  0.3437018E+04  0.7818609E-02  0.8128880E-01
        1   -1    0    0  501    0  0.00000000000E+00  0.00000000000E+00  0.17773735604E+04  0.17773735605E+04  0.50400001928E-02 0. -1.
       -1   -1    0    0    0  501  0.00000000000E+00  0.00000000000E+00 -0.16615943933E+04  0.16615943933E+04  0.50400001928E-02 0.  1.
    10030    2    1    2    0    0  0.00000000000E+00  0.00000000000E+00  0.11577916715E+03  0.34389679538E+04  0.34370184421E+04 0.  0.
        5    1    3    3  502    0  0.16265292527E+04 -0.15569406460E+03  0.59055777561E+03  0.17374172291E+04  0.46999998093E+01 0. -1.
       -5    1    3    3    0  502 -0.16265292527E+04  0.15569406460E+03 -0.47477860846E+03  0.17015507247E+04  0.46999998093E+01 0.  1.
</event>
<event>
 5   0  0.4396257E-07  0.3398113E+04  0.7818609E-02  0.8138370E-01
       -2   -1    0    0    0  501  0.00000000000E+00  0.00000000000E+00  0.12911543713E+04  0.12911543713E+04  0.25500000920E-02 0.  1.
        2   -1    0    0  501    0  0.00000000000E+00  0.00000000000E+00 -0.22358236945E+04  0.22358236945E+04  0.25500000920E-02 0. -1.
    10030    2    1    2    0    0  0.00000000000E+00  0.00000000000E+00 -0.94466932327E+03  0.35269780658E+04  0.33981133216E+04 0.  0.
        2    1    3    3  502    0  0.91138464672E+03 -0.10727274480E+04  0.51528951741E+03  0.14989627876E+04  0.25500000920E-02 0.  1.
       -2    1    3    3    0  502 -0.91138464672E+03  0.10727274480E+04 -0.14599588407E+04  0.20280152782E+04  0.25500000920E-02 0. -1.
</event>
<event>
 5   0  0.1473755E-07  0.3380506E+04  0.7818609E-02  0.8142707E-01
        1   -1    0    0  501    0  0.00000000000E+00  0.00000000000E+00  0.14198830537E+04  0.14198830537E+04  0.50400001928E-02 0. -1.
       -1   -1    0    0    0  501  0.00000000000E+00  0.00000000000E+00 -0.20121058238E+04  0.20121058238E+04  0.50400001928E-02 0.  1.
    10030    2    1    2    0    0  0.00000000000E+00  0.00000000000E+00 -0.59222277016E+03  0.34319888775E+04  0.33805058565E+04 0.  0.
        1    1    3    3  502    0 -0.14136093111E+04 -0.68512499900E+03  0.33730341015E+03  0.16066926088E+04  0.50400001928E-02 0. -1.
       -1    1    3    3    0  502  0.14136093111E+04  0.68512499900E+03 -0.92952618031E+03  0.18252962687E+04  0.50400001928E-02 0.  1.
</event>
<event>
 5   0  0.4396257E-07  0.3399047E+04  0.7818609E-02  0.8138140E-01
        2   -1    0    0  501    0  0.00000000000E+00  0.00000000000E+00  0.12590546515E+04  0.12590546515E+04  0.25500000920E-02 0. -1.
       -2   -1    0    0    0  501  0.00000000000E+00  0.00000000000E+00 -0.22940859292E+04  0.22940859292E+04  0.25500000920E-02 0.  1.
    10030    2    1    2    0    0  0.00000000000E+00  0.00000000000E+00 -0.10350312777E+04  0.35531405807E+04  0.33990466664E+04 0.  0.
        2    1    3    3  502    0  0.12029253998E+04  0.55095947386E+03  0.59751557768E+03  0.14517612493E+04  0.25500000920E-02 0.  1.
       -2    1    3    3    0  502 -0.12029253998E+04 -0.55095947386E+03 -0.16325468554E+04  0.21013793314E+04  0.25500000920E-02 0. -1.
</event>
<event>
 5   0  0.4396257E-07  0.3407470E+04  0.7818609E-02  0.8136075E-01
       -2   -1    0    0    0  501  0.00000000000E+00  0.00000000000E+00  0.90236022879E+03  0.90236022879E+03  0.25500000920E-02 0.  1.
        2   -1    0    0  501    0  0.00000000000E+00  0.00000000000E+00 -0.32168015055E+04  0.32168015055E+04  0.25500000920E-02 0. -1.
    10030    2    1    2    0    0  0.00000000000E+00  0.00000000000E+00 -0.23144412767E+04  0.41191617343E+04  0.34074704650E+04 0.  0.
        2    1    3    3  502    0  0.14532098348E+04 -0.82816829083E+03 -0.76544450407E+03  0.18394528618E+04  0.25500000920E-02 0.  1.
       -2    1    3    3    0  502 -0.14532098348E+04  0.82816829083E+03 -0.15489967726E+04  0.22797088725E+04  0.25500000920E-02 0. -1.
</event>
<event>
 5   0  0.1435806E-07  0.3393009E+04  0.7818609E-02  0.8139624E-01
       -1   -1    0    0    0  501  0.00000000000E+00  0.00000000000E+00  0.17720225284E+04  0.17720225284E+04  0.50400001928E-02 0.  1.
        1   -1    0    0  501    0  0.00000000000E+00  0.00000000000E+00 -0.16242050472E+04  0.16242050472E+04  0.50400001928E-02 0. -1.
    10030    2    1    2    0    0  0.00000000000E+00  0.00000000000E+00  0.14781748123E+03  0.33962275756E+04  0.33930092451E+04 0.  0.
        3    1    3    3  502    0  0.66930842287E+03 -0.82451744804E+03  0.13981621687E+04  0.17557506222E+04  0.10100000352E+00 0.  1.
       -3    1    3    3    0  502 -0.66930842287E+03  0.82451744804E+03 -0.12503446875E+04  0.16404769534E+04  0.10100000352E+00 0. -1.
</event>
<event>
 5   0  0.1473755E-07  0.3407629E+04  0.7818609E-02  0.8136037E-01
        1   -1    0    0  501    0  0.00000000000E+00  0.00000000000E+00  0.22196843916E+04  0.22196843916E+04  0.50400001928E-02 0. -1.
       -1   -1    0    0    0  501  0.00000000000E+00  0.00000000000E+00 -0.13078360980E+04  0.13078360980E+04  0.50400001928E-02 0.  1.
    10030    2    1    2    0    0  0.00000000000E+00  0.00000000000E+00  0.91184829364E+03  0.35275204897E+04  0.34076287201E+04 0.  0.
        1    1    3    3  502    0 -0.10835353554E+04  0.58349361977E+03 -0.76386700564E+03  0.14484496792E+04  0.50400001928E-02 0.  1.
       -1    1    3    3    0  502  0.10835353554E+04 -0.58349361977E+03  0.16757152993E+04  0.20790708105E+04  0.50400001928E-02 0. -1.
</event>
<event>
 5   0  0.1435806E-07  0.3402708E+04  0.7818609E-02  0.8137242E-01
       -1   -1    0    0    0  501  0.00000000000E+00  0.00000000000E+00  0.15543233935E+04  0.15543233935E+04  0.50400001928E-02 0. -1.
        1   -1    0    0  501    0  0.00000000000E+00  0.00000000000E+00 -0.18622926564E+04  0.18622926564E+04  0.50400001928E-02 0.  1.
    10030    2    1    2    0    0  0.00000000000E+00  0.00000000000E+00 -0.30796926294E+03  0.34166160499E+04  0.34027077696E+04 0.  0.
        3    1    3    3  502    0 -0.46870173549E+03 -0.15215634779E+04 -0.75624317445E+03  0.17625948154E+04  0.10100000352E+00 0.  1.
       -3    1    3    3    0  502  0.46870173549E+03  0.15215634779E+04  0.44827391152E+03  0.16540212345E+04  0.10100000352E+00 0. -1.
</event>
<event>
 5   0  0.1421875E-07  0.3392315E+04  0.7818609E-02  0.8139795E-01
        3   -1    0    0  501    0  0.00000000000E+00  0.00000000000E+00  0.11758382432E+04  0.11758382475E+04  0.10100000352E+00 0. -1.
       -3   -1    0    0    0  501  0.00000000000E+00  0.00000000000E+00 -0.24467233402E+04  0.24467233423E+04  0.10100000352E+00 0.  1.
    10030    2    1    2    0    0  0.00000000000E+00  0.00000000000E+00 -0.12708850970E+04  0.36225615898E+04  0.33923153659E+04 0.  0.
        5    1    3    3  502    0 -0.84942351758E+03 -0.11608296588E+04  0.32438627933E+03  0.14745488656E+04  0.46999998093E+01 0. -1.
       -5    1    3    3    0  502  0.84942351758E+03  0.11608296588E+04 -0.15952713763E+04  0.21480127241E+04  0.46999998093E+01 0.  1.
</event>
<event>
 5   0  0.1523259E-07  0.3402845E+04  0.7818609E-02  0.8137208E-01
        1   -1    0    0  501    0  0.00000000000E+00  0.00000000000E+00  0.15922852903E+04  0.15922852903E+04  0.50400001928E-02 0. -1.
       -1   -1    0    0    0  501  0.00000000000E+00  0.00000000000E+00 -0.18180404346E+04  0.18180404346E+04  0.50400001928E-02 0.  1.
    10030    2    1    2    0    0  0.00000000000E+00  0.00000000000E+00 -0.22575514435E+03  0.34103257249E+04  0.34028453043E+04 0.  0.
        4    1    3    3  502    0 -0.15618095091E+04  0.42981652151E+03  0.40869538184E+03  0.16706360204E+04  0.12699999809E+01 0. -1.
       -4    1    3    3    0  502  0.15618095091E+04 -0.42981652151E+03 -0.63445052619E+03  0.17396897045E+04  0.12699999809E+01 0.  1.
</event>
<event>
 5   0  0.1523259E-07  0.3404231E+04  0.7818609E-02  0.8136869E-01
       -1   -1    0    0    0  501  0.00000000000E+00  0.00000000000E+00  0.19189523085E+04  0.19189523085E+04  0.50400001928E-02 0.  1.
        1   -1    0    0  501    0  0.00000000000E+00  0.00000000000E+00 -0.15097804370E+04  0.15097804370E+04  0.50400001928E-02 0. -1.
    10030    2    1    2    0    0  0.00000000000E+00  0.00000000000E+00  0.40917187144E+03  0.34287327455E+04  0.34042306943E+04 0.  0.
        4    1    3    3  502    0 -0.10963826127E+04  0.12946216642E+04  0.34376501911E+03  0.17309754730E+04  0.12699999809E+01 0. -1.
       -4    1    3    3    0  502  0.10963826127E+04 -0.12946216642E+04  0.65406852333E+02  0.16977572725E+04  0.12699999809E+01 0.  1.
</event>
<event>
 5   0  0.4486226E-07  0.3447390E+04  0.7818609E-02  0.8126372E-01
        2   -1    0    0  501    0  0.00000000000E+00  0.00000000000E+00  0.11853123030E+04  0.11853123030E+04  0.25500000920E-02 0.  1.
       -2   -1    0    0    0  501  0.00000000000E+00  0.00000000000E+00 -0.25066174519E+04  0.25066174519E+04  0.25500000920E-02 0. -1.
    10030    2    1    2    0    0  0.00000000000E+00  0.00000000000E+00 -0.13213051489E+04  0.36919297549E+04  0.34473900299E+04 0.  0.
        1    1    3    3  502    0  0.12520443637E+04  0.50608555221E+03  0.48649142639E+03  0.14354133839E+04  0.50400001928E-02 0.  1.
       -1    1    3    3    0  502 -0.12520443637E+04 -0.50608555221E+03 -0.18077965753E+04  0.22565163710E+04  0.50400001928E-02 0. -1.
</event>
<event>
 5   0  0.4381939E-07  0.3402945E+04  0.7818609E-02  0.8137184E-01
       -2   -1    0    0    0  501  0.00000000000E+00  0.00000000000E+00  0.18326230043E+04  0.18326230043E+04  0.25500000920E-02 0. -1.
        2   -1    0    0  501    0  0.00000000000E+00  0.00000000000E+00 -0.15797076511E+04  0.15797076512E+04  0.25500000920E-02 0.  1.
    10030    2    1    2    0    0  0.00000000000E+00  0.00000000000E+00  0.25291535313E+03  0.34123306554E+04  0.34029449490E+04 0.  0.
        3    1    3    3  502    0 -0.23678298765E+03  0.56731460308E+02 -0.15621476636E+04  0.15810091635E+04  0.10100000352E+00 0.  1.
       -3    1    3    3    0  502  0.23678298765E+03 -0.56731460308E+02  0.18150630168E+04  0.18313214919E+04  0.10100000352E+00 0. -1.
</event>
<event>
 5   0  0.1421875E-07  0.3390437E+04  0.7818609E-02  0.8140257E-01
       -3   -1    0    0    0  501  0.00000000000E+00  0.00000000000E+00  0.25896185201E+04  0.25896185220E+04  0.10100000352E+00 0. -1.
        3   -1    0    0  501    0  0.00000000000E+00  0.00000000000E+00 -0.11097252773E+04  0.11097252819E+04  0.10100000352E+00 0.  1.
    10030    2    1    2    0    0  0.00000000000E+00  0.00000000000E+00  0.14798932427E+04  0.36993438040E+04  0.33904366341E+04 0.  0.
        4    1    3    3  502    0  0.44252627881E+03  0.29214291335E+03  0.24968007112E+04  0.25524874914E+04  0.12699999809E+01 0. -1.
       -4    1    3    3    0  502 -0.44252627881E+03 -0.29214291335E+03 -0.10169074685E+04  0.11468563126E+04  0.12699999809E+01 0.  1.
</event>
<event>
 5   0  0.4396257E-07  0.3313925E+04  0.7818609E-02  0.8159361E-01
        2   -1    0    0  501    0  0.00000000000E+00  0.00000000000E+00  0.20773228411E+04  0.20773228411E+04  0.25500000920E-02 0. -1.
       -2   -1    0    0    0  501  0.00000000000E+00  0.00000000000E+00 -0.13216651734E+04  0.13216651734E+04  0.25500000920E-02 0.  1.
    10030    2    1    2    0    0  0.00000000000E+00  0.00000000000E+00  0.75565766774E+03  0.33989880146E+04  0.33139253178E+04 0.  0.
        2    1    3    3  502    0 -0.11227081069E+04 -0.95485647254E+03 -0.39877265547E+03  0.15268411860E+04  0.25500000920E-02 0.  1.
       -2    1    3    3    0  502  0.11227081069E+04  0.95485647254E+03  0.11544303232E+04  0.18721468286E+04  0.25500000920E-02 0. -1.
</event>
<event>
 5   0  0.4521737E-07  0.3396298E+04  0.7818609E-02  0.8138815E-01
       -2   -1    0    0    0  501  0.00000000000E+00  0.00000000000E+00  0.12887531752E+04  0.12887531753E+04  0.25500000920E-02 0. -1.
        2   -1    0    0  501    0  0.00000000000E+00  0.00000000000E+00 -0.22375970804E+04  0.22375970804E+04  0.25500000920E-02 0.  1.
    10030    2    1    2    0    0  0.00000000000E+00  0.00000000000E+00 -0.94884390513E+03  0.35263502556E+04  0.33962981861E+04 0.  0.
        4    1    3    3  502    0 -0.43116249280E+03 -0.83153530243E+03  0.99627673182E+03  0.13674505452E+04  0.12699999809E+01 0. -1.
       -4    1    3    3    0  502  0.43116249280E+03  0.83153530243E+03 -0.19451206370E+04  0.21588997104E+04  0.12699999809E+01 0.  1.
</event>
<event>
 5   0  0.1523259E-07  0.3397911E+04  0.7818609E-02  0.8138419E-01
        1   -1    0    0  501    0  0.00000000000E+00  0.00000000000E+00  0.14890301735E+04  0.14890301736E+04  0.50400001928E-02 0. -1.
       -1   -1    0    0    0  501  0.00000000000E+00  0.00000000000E+00 -0.19384765055E+04  0.19384765055E+04  0.50400001928E-02 0.  1.
    10030    2    1    2    0    0  0.00000000000E+00  0.00000000000E+00 -0.44944633192E+03  0.34275066790E+04  0.33979111274E+04 0.  0.
        4    1    3    3  502    0  0.68585055706E+03  0.39209842382E+03  0.12924772393E+04  0.15148040096E+04  0.12699999809E+01 0. -1.
       -4    1    3    3    0  502 -0.68585055706E+03 -0.39209842382E+03 -0.17419235712E+04  0.19127026694E+04  0.12699999809E+01 0.  1.
</event>
<event>
 5   0  0.4447909E-07  0.3387988E+04  0.7818609E-02  0.8140861E-01
       -2   -1    0    0    0  501  0.00000000000E+00  0.00000000000E+00  0.11966982438E+04  0.11966982438E+04  0.25500000920E-02 0. -1.
        2   -1    0    0  501    0  0.00000000000E+00  0.00000000000E+00 -0.23979445983E+04  0.23979445983E+04  0.25500000920E-02 0.  1.
    10030    2    1    2    0    0  0.00000000000E+00  0.00000000000E+00 -0.12012463545E+04  0.35946428420E+04  0.33879882464E+04 0.  0.
        5    1    3    3  502    0  0.10668090897E+04 -0.42509753887E+03 -0.19218955983E+04  0.22388600519E+04  0.46999998093E+01 0.  1.
       -5    1    3    3    0  502 -0.10668090897E+04  0.42509753887E+03  0.72064924376E+03  0.13557827901E+04  0.46999998093E+01 0. -1.
</event>
<event>
 5   0  0.4381939E-07  0.3411311E+04  0.7818609E-02  0.8135136E-01
        2   -1    0    0  501    0  0.00000000000E+00  0.00000000000E+00  0.18062276554E+04  0.18062276554E+04  0.25500000920E-02 0. -1.
       -2   -1    0    0    0  501  0.00000000000E+00  0.00000000000E+00 -0.16106836141E+04  0.16106836141E+04  0.25500000920E-02 0.  1.
    10030    2    1    2    0    0  0.00000000000E+00  0.00000000000E+00  0.19554404131E+03  0.34169112695E+04  0.34113113537E+04 0.  0.
        3    1    3    3  502    0  0.15657771066E+04  0.60911204083E+03 -0.19696575962E+03  0.16915882911E+04  0.10100000352E+00 0.  1.
       -3    1    3    3    0  502 -0.15657771066E+04 -0.60911204083E+03  0.39250980093E+03  0.17253229784E+04  0.10100000352E+00 0. -1.
</event>
<event>
 5   0  0.1523259E-07  0.3402573E+04  0.7818609E-02  0.8137275E-01
        1   -1    0    0  501    0  0.00000000000E+00  0.00000000000E+00  0.22714225146E+04  0.22714225146E+04  0.50400001928E-02 0. -1.
       -1   -1    0    0    0  501  0.00000000000E+00  0.00000000000E+00 -0.12742566425E+04  0.12742566425E+04  0.50400001928E-02 0.  1.
    10030    2    1    2    0    0  0.00000000000E+00  0.00000000000E+00  0.99716587208E+03  0.35456791571E+04  0.34025726897E+04 0.  0.
        4    1    3    3  502    0  0.77475863693E+03  0.55193115444E+03 -0.97123455919E+03  0.13594767841E+04  0.12699999809E+01 0.  1.
       -4    1    3    3    0  502 -0.77475863693E+03 -0.55193115444E+03  0.19684004313E+04  0.21862023729E+04  0.12699999809E+01 0. -1.
</event>
<event>
 5   0  0.1435806E-07  0.3447692E+04  0.7818609E-02  0.8126299E-01
       -1   -1    0    0    0  501  0.00000000000E+00  0.00000000000E+00  0.21230144784E+04  0.21230144784E+04  0.50400001928E-02 0. -1.
        1   -1    0    0  501    0  0.00000000000E+00  0.00000000000E+00 -0.13997291235E+04  0.13997291235E+04  0.50400001928E-02 0.  1.
    10030    2    1    2    0    0  0.00000000000E+00  0.00000000000E+00  0.72328535490E+03  0.35227436019E+04  0.34476920948E+04 0.  0.
        3    1    3    3  502    0 -0.18302153086E+03 -0.17102134377E+04  0.47955983018E+03  0.17855824048E+04  0.10100000352E+00 0. -1.
       -3    1    3    3    0  502  0.18302153086E+03  0.17102134377E+04  0.24372552473E+03  0.17371611972E+04  0.10100000352E+00 0.  1.
</event>
<event>
 5   0  0.4521737E-07  0.3399257E+04  0.7818609E-02  0.8138089E-01
       -2   -1    0    0    0  501  0.00000000000E+00  0.00000000000E+00  0.16722357513E+04  0.16722357513E+04  0.25500000920E-02 0. -1.
        2   -1    0    0  501    0  0.00000000000E+00  0.00000000000E+00 -0.17274699948E+04  0.17274699948E+04  0.25500000920E-02 0.  1.
    10030    2    1    2    0    0  0.00000000000E+00  0.00000000000E+00 -0.55234243420E+02  0.33997057461E+04  0.33992570274E+04 0.  0.
        4    1    3    3  502    0 -0.77824482806E+03 -0.14203493807E+04  0.48789063019E+03  0.16914775363E+04  0.12699999809E+01 0.  1.
       -4    1    3    3    0  502  0.77824482806E+03  0.14203493807E+04 -0.54312487361E+03  0.17082282099E+04  0.12699999809E+01 0. -1.
</event>
<event>
 5   0  0.4381939E-07  0.3409838E+04  0.7818609E-02  0.8135496E-01
       -2   -1    0    0    0  501  0.00000000000E+00  0.00000000000E+00  0.24823410683E+04  0.24823410683E+04  0.25500000920E-02 0. -1.
        2   -1    0    0  501    0  0.00000000000E+00  0.00000000000E+00 -0.11709709839E+04  0.11709709839E+04  0.25500000920E-02 0.  1.
    10030    2    1    2    0    0  0.00000000000E+00  0.00000000000E+00  0.13113700844E+04  0.36533120522E+04  0.34098383323E+04 0.  0.
        3    1    3    3  502    0 -0.38795021683E+03  0.14891746152E+04 -0.13061327078E+03  0.15444112930E+04  0.10100000352E+00 0.  1.
       -3    1    3    3    0  502  0.38795021683E+03 -0.14891746152E+04  0.14419833552E+04  0.21089007592E+04  0.10100000352E+00 0. -1.
</event>
<event>
 5   0  0.4396257E-07  0.3404036E+04  0.7818609E-02  0.8136916E-01
        2   -1    0    0  501    0  0.00000000000E+00  0.00000000000E+00  0.21955304249E+04  0.21955304249E+04  0.25500000920E-02 0. -1.
       -2   -1    0    0    0  501  0.00000000000E+00  0.00000000000E+00 -0.13194377645E+04  0.13194377645E+04  0.25500000920E-02 0.  1.
    10030    2    1    2    0    0  0.00000000000E+00  0.00000000000E+00  0.87609266045E+03  0.35149681894E+04  0.34040362840E+04 0.  0.
        2    1    3    3  502    0  0.78206364099E+03 -0.40660666417E+03  0.19414868877E+04  0.21322110245E+04  0.25500000920E-02 0. -1.
       -2    1    3    3    0  502 -0.78206364099E+03  0.40660666417E+03 -0.10653942272E+04  0.13827571650E+04  0.25500000920E-02 0.  1.
</event>
<event>
 5   0  0.4396257E-07  0.3397619E+04  0.7818609E-02  0.8138491E-01
       -2   -1    0    0    0  501  0.00000000000E+00  0.00000000000E+00  0.15216387436E+04  0.15216387436E+04  0.25500000920E-02 0. -1.
        2   -1    0    0  501    0  0.00000000000E+00  0.00000000000E+00 -0.18966089911E+04  0.18966089911E+04  0.25500000920E-02 0.  1.
    10030    2    1    2    0    0  0.00000000000E+00  0.00000000000E+00 -0.37497024749E+03  0.34182477347E+04  0.33976190029E+04 0.  0.
        2    1    3    3  502    0  0.17308550486E+03 -0.15228192569E+04  0.54977836937E+03  0.16282485488E+04  0.25500000920E-02 0.  1.
       -2    1    3    3    0  502 -0.17308550486E+03  0.15228192569E+04 -0.92474861686E+03  0.17899991859E+04  0.25500000920E-02 0. -1.
</event>
<event>
 5   0  0.4521737E-07  0.3399134E+04  0.7818609E-02  0.8138119E-01
       -2   -1    0    0    0  501  0.00000000000E+00  0.00000000000E+00  0.21360640614E+04  0.21360640614E+04  0.25500000920E-02 0. -1.
        2   -1    0    0  501    0  0.00000000000E+00  0.00000000000E+00 -0.13522668082E+04  0.13522668082E+04  0.25500000920E-02 0.  1.
    10030    2    1    2    0    0  0.00000000000E+00  0.00000000000E+00  0.78379725325E+03  0.34883308696E+04  0.33991343194E+04 0.  0.
        4    1    3    3  502    0  0.14942628657E+03  0.10476754418E+04 -0.97287640898E+03  0.14375124927E+04  0.12699999809E+01 0.  1.
       -4    1    3    3    0  502 -0.14942628657E+03 -0.10476754418E+04  0.17566736622E+04  0.20508183769E+04  0.12699999809E+01 0. -1.
</event>
<event>
 5   0  0.4447909E-07  0.3393394E+04  0.7818609E-02  0.8139530E-01
        2   -1    0    0  501    0  0.00000000000E+00  0.00000000000E+00  0.12924347668E+04  0.12924347668E+04  0.25500000920E-02 0. -1.
       -2   -1    0    0    0  501  0.00000000000E+00  0.00000000000E+00 -0.22274083238E+04  0.22274083238E+04  0.25500000920E-02 0.  1.
    10030    2    1    2    0    0  0.00000000000E+00  0.00000000000E+00 -0.93497355702E+03  0.35198430906E+04  0.33933935566E+04 0.  0.
        5    1    3    3  502    0 -0.13039496736E+04  0.74774291004E+03 -0.12838029983E+04  0.19767590747E+04  0.46999998093E+01 0.  1.
       -5    1    3    3    0  502  0.13039496736E+04 -0.74774291004E+03  0.34882944130E+03  0.15430840159E+04  0.46999998093E+01 0. -1.
</event>
<event>
 5   0  0.4447909E-07  0.3400860E+04  0.7818609E-02  0.8137695E-01
        2   -1    0    0  501    0  0.00000000000E+00  0.00000000000E+00  0.17969619546E+04  0.17969619546E+04  0.25500000920E-02 0. -1.
       -2   -1    0    0    0  501  0.00000000000E+00  0.00000000000E+00 -0.16090840835E+04  0.16090840835E+04  0.25500000920E-02 0.  1.
    10030    2    1    2    0    0  0.00000000000E+00  0.00000000000E+00  0.18787787113E+03  0.34060460381E+04  0.34008604087E+04 0.  0.
        5    1    3    3  502    0 -0.47270263394E+03 -0.74992077537E+03  0.15472241817E+04  0.17831863918E+04  0.46999998093E+01 0. -1.
       -5    1    3    3    0  502  0.47270263394E+03  0.74992077537E+03 -0.13593463106E+04  0.16228596463E+04  0.46999998093E+01 0.  1.
</event>
<event>
 5   0  0.4381939E-07  0.3391759E+04  0.7818609E-02  0.8139932E-01
       -2   -1    0    0    0  501  0.00000000000E+00  0.00000000000E+00  0.10083161670E+04  0.10083161670E+04  0.25500000920E-02 0. -1.
        2   -1    0    0  501    0  0.00000000000E+00  0.00000000000E+00 -0.28522876434E+04  0.28522876434E+04  0.25500000920E-02 0.  1.
    10030    2    1    2    0    0  0.00000000000E+00  0.00000000000E+00 -0.18439714764E+04  0.38606038104E+04  0.33917592743E+04 0.  0.
        3    1    3    3  502    0  0.15892334887E+04 -0.56859946163E+03 -0.73481930299E+03  0.18409040843E+04  0.10100000352E+00 0.  1.
       -3    1    3    3    0  502 -0.15892334887E+04  0.56859946163E+03 -0.11091521734E+04  0.20196997261E+04  0.10100000352E+00 0. -1.
</event>
<event>
 5   0  0.1473755E-07  0.3404893E+04  0.7818609E-02  0.8136706E-01
       -1   -1    0    0    0  501  0.00000000000E+00  0.00000000000E+00  0.14063276074E+04  0.14063276074E+04  0.50400001928E-02 0.  1.
        1   -1    0    0  501    0  0.00000000000E+00  0.00000000000E+00 -0.20609168394E+04  0.20609168394E+04  0.50400001928E-02 0. -1.
    10030    2    1    2    0    0  0.00000000000E+00  0.00000000000E+00 -0.65458923202E+03  0.34672444469E+04  0.34048930955E+04 0.  0.
        1    1    3    3  502    0 -0.14899479821E+04  0.79869486889E+03 -0.53213937569E+03  0.17722953473E+04  0.50400001928E-02 0. -1.
       -1    1    3    3    0  502  0.14899479821E+04 -0.79869486889E+03 -0.12244985634E+03  0.16949490996E+04  0.50400001928E-02 0.  1.
</event>
<event>
 5   0  0.1473755E-07  0.3377001E+04  0.7818609E-02  0.8143574E-01
        1   -1    0    0  501    0  0.00000000000E+00  0.00000000000E+00  0.16623380712E+04  0.16623380712E+04  0.50400001928E-02 0.  1.
       -1   -1    0    0    0  501  0.00000000000E+00  0.00000000000E+00 -0.17150745423E+04  0.17150745423E+04  0.50400001928E-02 0. -1.
    10030    2    1    2    0    0  0.00000000000E+00  0.00000000000E+00 -0.52736471139E+02  0.33774126135E+04  0.33770008627E+04 0.  0.
        1    1    3    3  502    0  0.14093190002E+04  0.57920313662E+03  0.70130372945E+03  0.16773441026E+04  0.50400001928E-02 0.  1.
       -1    1    3    3    0  502 -0.14093190002E+04 -0.57920313662E+03 -0.75404020058E+03  0.17000685109E+04  0.50400001928E-02 0. -1.
</event>
<event>
 5   0  0.4396257E-07  0.3398722E+04  0.7818609E-02  0.8138220E-01
        2   -1    0    0  501    0  0.00000000000E+00  0.00000000000E+00  0.15577781013E+04  0.15577781013E+04  0.25500000920E-02 0. -1.
       -2   -1    0    0    0  501  0.00000000000E+00  0.00000000000E+00 -0.18538120594E+04  0.18538120594E+04  0.25500000920E-02 0.  1.
    10030    2    1    2    0    0  0.00000000000E+00  0.00000000000E+00 -0.29603395807E+03  0.34115901607E+04  0.33987220128E+04 0.  0.
        2    1    3    3  502    0 -0.12555142818E+04 -0.97450661211E+03 -0.75183301950E+03  0.17581900176E+04  0.25500000920E-02 0.  1.
       -2    1    3    3    0  502  0.12555142818E+04  0.97450661211E+03  0.45579906143E+03  0.16534001431E+04  0.25500000920E-02 0. -1.
</event>
<event>
 5   0  0.4521737E-07  0.3400112E+04  0.7818609E-02  0.8137879E-01
        2   -1    0    0  501    0  0.00000000000E+00  0.00000000000E+00  0.28911201402E+04  0.28911201402E+04  0.25500000920E-02 0.  1.
       -2   -1    0    0    0  501  0.00000000000E+00  0.00000000000E+00 -0.99967864317E+03  0.99967864317E+03  0.25500000920E-02 0. -1.
    10030    2    1    2    0    0  0.00000000000E+00  0.00000000000E+00  0.18914414971E+04  0.38907987834E+04  0.34001123858E+04 0.  0.
        4    1    3    3  502    0 -0.19500956691E+03  0.15105772747E+04  0.81541840285E+02  0.15252944367E+04  0.12699999809E+01 0. -1.
       -4    1    3    3    0  502  0.19500956691E+03 -0.15105772747E+04  0.18098996568E+04  0.23655043467E+04  0.12699999809E+01 0.  1.
</event>
<event>
 5   0  0.1421875E-07  0.3395506E+04  0.7818609E-02  0.8139010E-01
        1   -1    0    0  501    0  0.00000000000E+00  0.00000000000E+00  0.14257353435E+04  0.14257353435E+04  0.50400001928E-02 0. -1.
       -1   -1    0    0    0  501  0.00000000000E+00  0.00000000000E+00 -0.20216697051E+04  0.20216697051E+04  0.50400001928E-02 0.  1.
    10030    2    1    2    0    0  0.00000000000E+00  0.00000000000E+00 -0.59593436166E+03  0.34474050486E+04  0.33955064138E+04 0.  0.
        5    1    3    3  502    0  0.43456752731E+03  0.88711590219E+03  0.11039051864E+04  0.14813683911E+04  0.46999998093E+01 0. -1.
       -5    1    3    3    0  502 -0.43456752731E+03 -0.88711590219E+03 -0.16998395480E+04  0.19660366575E+04  0.46999998093E+01 0.  1.
</event>
<event>
 5   0  0.4486226E-07  0.3407379E+04  0.7818609E-02  0.8136098E-01
        2   -1    0    0  501    0  0.00000000000E+00  0.00000000000E+00  0.24442472393E+04  0.24442472393E+04  0.25500000920E-02 0. -1.
       -2   -1    0    0    0  501  0.00000000000E+00  0.00000000000E+00 -0.11875061439E+04  0.11875061439E+04  0.25500000920E-02 0.  1.
    10030    2    1    2    0    0  0.00000000000E+00  0.00000000000E+00  0.12567410953E+04  0.36317533832E+04  0.34073794118E+04 0.  0.
        1    1    3    3  502    0  0.96160380293E+03 -0.37626040001E+03  0.20727065792E+04  0.23156783727E+04  0.50400001928E-02 0. -1.
       -1    1    3    3    0  502 -0.96160380293E+03  0.37626040001E+03 -0.81596548385E+03  0.13160750105E+04  0.50400001928E-02 0.  1.
</event>
<event>
 5   0  0.1421875E-07  0.3376088E+04  0.7818609E-02  0.8143800E-01
        1   -1    0    0  501    0  0.00000000000E+00  0.00000000000E+00  0.16944631218E+04  0.16944631218E+04  0.50400001928E-02 0. -1.
       -1   -1    0    0    0  501  0.00000000000E+00  0.00000000000E+00 -0.16816496187E+04  0.16816496187E+04  0.50400001928E-02 0.  1.
    10030    2    1    2    0    0  0.00000000000E+00  0.00000000000E+00  0.12813503126E+02  0.33761127405E+04  0.33760884246E+04 0.  0.
        5    1    3    3  502    0  0.58016660226E+03  0.55753652821E+03  0.14903415971E+04  0.16936884108E+04  0.46999998093E+01 0. -1.
       -5    1    3    3    0  502 -0.58016660226E+03 -0.55753652821E+03 -0.14775280940E+04  0.16824243297E+04  0.46999998093E+01 0.  1.
</event>
<event>
 5   0  0.1523259E-07  0.3412247E+04  0.7818609E-02  0.8134907E-01
       -1   -1    0    0    0  501  0.00000000000E+00  0.00000000000E+00  0.27802574016E+04  0.27802574016E+04  0.50400001928E-02 0. -1.
        1   -1    0    0  501    0  0.00000000000E+00  0.00000000000E+00 -0.10469740310E+04  0.10469740310E+04  0.50400001928E-02 0.  1.
    10030    2    1    2    0    0  0.00000000000E+00  0.00000000000E+00  0.17332833706E+04  0.38272314327E+04  0.34122469424E+04 0.  0.
        4    1    3    3  502    0  0.12828406009E+04  0.47476187409E+03 -0.27706416267E+03  0.13956521800E+04  0.12699999809E+01 0.  1.
       -4    1    3    3    0  502 -0.12828406009E+04 -0.47476187409E+03  0.20103475333E+04  0.24315792527E+04  0.12699999809E+01 0. -1.
</event>
<event>
 5   0  0.1473755E-07  0.3391953E+04  0.7818609E-02  0.8139884E-01
       -1   -1    0    0    0  501  0.00000000000E+00  0.00000000000E+00  0.14716948384E+04  0.14716948384E+04  0.50400001928E-02 0. -1.
        1   -1    0    0  501    0  0.00000000000E+00  0.00000000000E+00 -0.19544378881E+04  0.19544378882E+04  0.50400001928E-02 0.  1.
    10030    2    1    2    0    0  0.00000000000E+00  0.00000000000E+00 -0.48274304977E+03  0.34261327265E+04  0.33919529194E+04 0.  0.
        1    1    3    3  502    0 -0.90659168569E+03 -0.11650691413E+04  0.60193159149E+03  0.15942447207E+04  0.50400001928E-02 0. -1.
       -1    1    3    3    0  502  0.90659168569E+03  0.11650691413E+04 -0.10846746413E+04  0.18318880059E+04  0.50400001928E-02 0.  1.
</event>
<event>
 5   0  0.1473755E-07  0.3351911E+04  0.7818609E-02  0.8149811E-01
       -1   -1    0    0    0  501  0.00000000000E+00  0.00000000000E+00  0.15243991114E+04  0.15243991114E+04  0.50400001928E-02 0.  1.
        1   -1    0    0  501    0  0.00000000000E+00  0.00000000000E+00 -0.18425793302E+04  0.18425793302E+04  0.50400001928E-02 0. -1.
    10030    2    1    2    0    0  0.00000000000E+00  0.00000000000E+00 -0.31818021882E+03  0.33669784416E+04  0.33519106752E+04 0.  0.
        1    1    3    3  502    0 -0.48139383400E+03  0.14856387048E+04 -0.77007093175E+03  0.17412270457E+04  0.50400001928E-02 0. -1.
       -1    1    3    3    0  502  0.48139383400E+03 -0.14856387048E+04  0.45189071292E+03  0.16257513959E+04  0.50400001928E-02 0.  1.
</event>
<event>
 5   0  0.1473755E-07  0.3372031E+04  0.7818609E-02  0.8144805E-01
       -1   -1    0    0    0  501  0.00000000000E+00  0.00000000000E+00  0.10904969224E+04  0.10904969224E+04  0.50400001928E-02 0. -1.
        1   -1    0    0  501    0  0.00000000000E+00  0.00000000000E+00 -0.26067452703E+04  0.26067452703E+04  0.50400001928E-02 0.  1.
    10030    2    1    2    0    0  0.00000000000E+00  0.00000000000E+00 -0.15162483479E+04  0.36972421927E+04  0.33720306611E+04 0.  0.
        1    1    3    3  502    0  0.50391578877E+03 -0.15909269802E+04 -0.49482256387E+03  0.17406404420E+04  0.50400001928E-02 0.  1.
       -1    1    3    3    0  502 -0.50391578877E+03  0.15909269802E+04 -0.10214257840E+04  0.19566017507E+04  0.50400001928E-02 0. -1.
</event>
<event>
 5   0  0.1520084E-07  0.3395744E+04  0.7818609E-02  0.8138952E-01
        1   -1    0    0  501    0  0.00000000000E+00  0.00000000000E+00  0.23384967058E+04  0.23384967058E+04  0.50400001928E-02 0.  1.
       -1   -1    0    0    0  501  0.00000000000E+00  0.00000000000E+00 -0.12327443935E+04  0.12327443935E+04  0.50400001928E-02 0. -1.
    10030    2    1    2    0    0  0.00000000000E+00  0.00000000000E+00  0.11057523123E+04  0.35712410993E+04  0.33957436319E+04 0.  0.
        2    1    3    3  502    0 -0.91287557559E+03 -0.33871857608E+03 -0.90994324526E+03  0.13326923125E+04  0.25500000920E-02 0. -1.
       -2    1    3    3    0  502  0.91287557559E+03  0.33871857608E+03  0.20156955575E+04  0.22385487868E+04  0.25500000920E-02 0.  1.
</event>
<event>
 5   0  0.1421875E-07  0.3405213E+04  0.7818609E-02  0.8136628E-01
        1   -1    0    0  501    0  0.00000000000E+00  0.00000000000E+00  0.21760875804E+04  0.21760875804E+04  0.50400001928E-02 0.  1.
       -1   -1    0    0    0  501  0.00000000000E+00  0.00000000000E+00 -0.13321467725E+04  0.13321467725E+04  0.50400001928E-02 0. -1.
    10030    2    1    2    0    0  0.00000000000E+00  0.00000000000E+00  0.84394080790E+03  0.35082343530E+04  0.34052125026E+04 0.  0.
        5    1    3    3  502    0 -0.15374823376E+04  0.73142481924E+03  0.42550230117E+03  0.17549668096E+04  0.46999998093E+01 0.  1.
       -5    1    3    3    0  502  0.15374823376E+04 -0.73142481924E+03  0.41843850673E+03  0.17532675433E+04  0.46999998093E+01 0. -1.
</event>
<event>
 5   0  0.4381939E-07  0.3168598E+04  0.7818609E-02  0.8197160E-01
        2   -1    0    0  501    0  0.00000000000E+00  0.00000000000E+00  0.23488999149E+04  0.23488999149E+04  0.25500000920E-02 0.  1.
       -2   -1    0    0    0  501  0.00000000000E+00  0.00000000000E+00 -0.10685869639E+04  0.10685869639E+04  0.25500000920E-02 0. -1.
    10030    2    1    2    0    0  0.00000000000E+00  0.00000000000E+00  0.12803129510E+04  0.34174868788E+04  0.31685983201E+04 0.  0.
        3    1    3    3  502    0  0.78064092633E+03  0.60079367245E+03 -0.69813510426E+03  0.12073714949E+04  0.10100000352E+00 0. -1.
       -3    1    3    3    0  502 -0.78064092633E+03 -0.60079367245E+03  0.19784480552E+04  0.22101153839E+04  0.10100000352E+00 0.  1.
</event>
<event>
 5   0  0.1435806E-07  0.3444497E+04  0.7818609E-02  0.8127071E-01
       -1   -1    0    0    0  501  0.00000000000E+00  0.00000000000E+00  0.18312898543E+04  0.18312898543E+04  0.50400001928E-02 0.  1.
        1   -1    0    0  501    0  0.00000000000E+00  0.00000000000E+00 -0.16197002889E+04  0.16197002889E+04  0.50400001928E-02 0. -1.
    10030    2    1    2    0    0  0.00000000000E+00  0.00000000000E+00  0.21158956538E+03  0.34509901432E+04  0.34444974705E+04 0.  0.
        3    1    3    3  502    0  0.94391340275E+03  0.13229085242E+04  0.67702844148E+03  0.17605189565E+04  0.10100000352E+00 0.  1.
       -3    1    3    3    0  502 -0.94391340275E+03 -0.13229085242E+04 -0.46543887611E+03  0.16904711867E+04  0.10100000352E+00 0. -1.
</event>
<event>
 5   0  0.1520084E-07  0.3391428E+04  0.7818609E-02  0.8140013E-01
        1   -1    0    0  501    0  0.00000000000E+00  0.00000000000E+00  0.96484744387E+03  0.96484744389E+03  0.50400001928E-02 0.  1.
       -1   -1    0    0    0  501  0.00000000000E+00  0.00000000000E+00 -0.29802079838E+04  0.29802079838E+04  0.50400001928E-02 0. -1.
    10030    2    1    2    0    0  0.00000000000E+00  0.00000000000E+00 -0.20153605399E+04  0.39450554277E+04  0.33914280505E+04 0.  0.
        2    1    3    3  502    0  0.85782841355E+03  0.10937649732E+04 -0.21374371096E+04  0.25496722929E+04  0.25500000920E-02 0. -1.
       -2    1    3    3    0  502 -0.85782841355E+03 -0.10937649732E+04  0.12207656971E+03  0.13953831347E+04  0.25500000920E-02 0.  1.
</event>
<event>
 5   0  0.4447909E-07  0.3400546E+04  0.7818609E-02  0.8137772E-01
       -2   -1    0    0    0  501  0.00000000000E+00  0.00000000000E+00  0.16094161420E+04  0.16094161420E+04  0.25500000920E-02 0.  1.
        2   -1    0    0  501    0  0.00000000000E+00  0.00000000000E+00 -0.17962585586E+04  0.17962585586E+04  0.25500000920E-02 0. -1.
    10030    2    1    2    0    0  0.00000000000E+00  0.00000000000E+00 -0.18684241657E+03  0.34056747005E+04  0.34005455558E+04 0.  0.
        5    1    3    3  502    0 -0.31578099167E+03 -0.84581336642E+03 -0.15363537124E+04  0.17819996367E+04  0.46999998093E+01 0. -1.
       -5    1    3    3    0  502  0.31578099167E+03  0.84581336642E+03  0.13495112958E+04  0.16236750639E+04  0.46999998093E+01 0.  1.
</event>
<event>
 5   0  0.4381939E-07  0.3400744E+04  0.7818609E-02  0.8137724E-01
        2   -1    0    0  501    0  0.00000000000E+00  0.00000000000E+00  0.12995111149E+04  0.12995111149E+04  0.25500000920E-02 0. -1.
       -2   -1    0    0    0  501  0.00000000000E+00  0.00000000000E+00 -0.22248869441E+04  0.22248869441E+04  0.25500000920E-02 0.  1.
    10030    2    1    2    0    0  0.00000000000E+00  0.00000000000E+00 -0.92537582925E+03  0.35243980590E+04  0.34007442204E+04 0.  0.
        3    1    3    3  502    0 -0.46165370894E+03 -0.15261444379E+04 -0.10749520546E+04  0.19229568176E+04  0.10100000352E+00 0.  1.
       -3    1    3    3    0  502  0.46165370894E+03  0.15261444379E+04  0.14957622535E+03  0.16014412414E+04  0.10100000352E+00 0. -1.
</event>
<event>
 5   0  0.1473755E-07  0.3403350E+04  0.7818609E-02  0.8137085E-01
       -1   -1    0    0    0  501  0.00000000000E+00  0.00000000000E+00  0.15854360246E+04  0.15854360246E+04  0.50400001928E-02 0. -1.
        1   -1    0    0  501    0  0.00000000000E+00  0.00000000000E+00 -0.18264366741E+04  0.18264366741E+04  0.50400001928E-02 0.  1.
    10030    2    1    2    0    0  0.00000000000E+00  0.00000000000E+00 -0.24100064954E+03  0.34118726987E+04  0.34033504079E+04 0.  0.
        1    1    3    3  502    0  0.15750468057E+04 -0.64296368091E+03 -0.15963350190E+03  0.17087005560E+04  0.50400001928E-02 0. -1.
       -1    1    3    3    0  502 -0.15750468057E+04  0.64296368091E+03 -0.81367147635E+02  0.17031721427E+04  0.50400001928E-02 0.  1.
</event>
<event>
 5   0  0.4521737E-07  0.3411418E+04  0.7818609E-02  0.8135110E-01
        2   -1    0    0  501    0  0.00000000000E+00  0.00000000000E+00  0.18881195192E+04  0.18881195192E+04  0.25500000920E-02 0.  1.
       -2   -1    0    0    0  501  0.00000000000E+00  0.00000000000E+00 -0.15409215330E+04  0.15409215330E+04  0.25500000920E-02 0. -1.
    10030    2    1    2    0    0  0.00000000000E+00  0.00000000000E+00  0.34719798617E+03  0.34290410522E+04  0.34114184874E+04 0.  0.
        4    1    3    3  502    0 -0.60294570871E+03 -0.12949373492E+04  0.11106357040E+04  0.18093975643E+04  0.12699999809E+01 0.  1.
       -4    1    3    3    0  502  0.60294570871E+03  0.12949373492E+04 -0.76343771781E+03  0.16196434879E+04  0.12699999809E+01 0. -1.
</event>
<event>
 5   0  0.4486226E-07  0.3400897E+04  0.7818609E-02  0.8137686E-01
        2   -1    0    0  501    0  0.00000000000E+00  0.00000000000E+00  0.18754064192E+04  0.18754064192E+04  0.25500000920E-02 0.  1.
       -2   -1    0    0    0  501  0.00000000000E+00  0.00000000000E+00 -0.15418125812E+04  0.15418125812E+04  0.25500000920E-02 0. -1.
    10030    2    1    2    0    0  0.00000000000E+00  0.00000000000E+00  0.33359383799E+03  0.34172190005E+04  0.34008970653E+04 0.  0.
        1    1    3    3  502    0  0.14690093859E+04 -0.25077682305E+03  0.98965799509E+03  0.17889383830E+04  0.50400001928E-02 0.  1.
       -1    1    3    3    0  502 -0.14690093859E+04  0.25077682305E+03 -0.65606415710E+03  0.16282806175E+04  0.50400001928E-02 0. -1.
</event>
<event>
 5   0  0.4381939E-07  0.3352035E+04  0.7818609E-02  0.8149780E-01
       -2   -1    0    0    0  501  0.00000000000E+00  0.00000000000E+00  0.17477409416E+04  0.17477409416E+04  0.25500000920E-02 0.  1.
        2   -1    0    0  501    0  0.00000000000E+00  0.00000000000E+00 -0.16072370368E+04  0.16072370368E+04  0.25500000920E-02 0. -1.
    10030    2    1    2    0    0  0.00000000000E+00  0.00000000000E+00  0.14050390483E+03  0.33549779784E+04  0.33520345894E+04 0.  0.
        3    1    3    3  502    0 -0.11867746152E+04  0.76327617610E+03 -0.83498097704E+03  0.16395785283E+04  0.10100000352E+00 0. -1.
       -3    1    3    3    0  502  0.11867746152E+04 -0.76327617610E+03  0.97548488187E+03  0.17153994501E+04  0.10100000352E+00 0.  1.
</event>
<event>
 5   0  0.1421875E-07  0.3404450E+04  0.7818609E-02  0.8136815E-01
        1   -1    0    0  501    0  0.00000000000E+00  0.00000000000E+00  0.21990884209E+04  0.21990884209E+04  0.50400001928E-02 0.  1.
       -1   -1    0    0    0  501  0.00000000000E+00  0.00000000000E+00 -0.13176232994E+04  0.13176232994E+04  0.50400001928E-02 0. -1.
    10030    2    1    2    0    0  0.00000000000E+00  0.00000000000E+00  0.88146512149E+03  0.35167117203E+04  0.34044501117E+04 0.  0.
        5    1    3    3  502    0  0.60970912131E+03 -0.91729727386E+03  0.17813607783E+04  0.20943848294E+04  0.46999998093E+01 0.  1.
       -5    1    3    3    0  502 -0.60970912131E+03  0.91729727386E+03 -0.89989565682E+03  0.14223268908E+04  0.46999998093E+01 0. -1.
</event>
<event>
 5   0  0.1520084E-07  0.3427320E+04  0.7818609E-02  0.8131233E-01
       -1   -1    0    0    0  501  0.00000000000E+00  0.00000000000E+00  0.10475317498E+04  0.10475317498E+04  0.50400001928E-02 0.  1.
        1   -1    0    0  501    0  0.00000000000E+00  0.00000000000E+00 -0.28033813717E+04  0.28033813717E+04  0.50400001928E-02 0. -1.
    10030    2    1    2    0    0  0.00000000000E+00  0.00000000000E+00 -0.17558496219E+04  0.38509131215E+04  0.34273202323E+04 0.  0.
        2    1    3    3  502    0  0.73615431592E+03 -0.57579094735E+03  0.73597591547E+03  0.11895877185E+04  0.25500000920E-02 0.  1.
       -2    1    3    3    0  502 -0.73615431592E+03  0.57579094735E+03 -0.24918255374E+04  0.26613254030E+04  0.25500000920E-02 0. -1.
</event>
<event>
 5   0  0.1435806E-07  0.3358370E+04  0.7818609E-02  0.8148200E-01
       -1   -1    0    0    0  501  0.00000000000E+00  0.00000000000E+00  0.12711031880E+04  0.12711031881E+04  0.50400001928E-02 0.  1.
        1   -1    0    0  501    0  0.00000000000E+00  0.00000000000E+00 -0.22182789586E+04  0.22182789586E+04  0.50400001928E-02 0. -1.
    10030    2    1    2    0    0  0.00000000000E+00  0.00000000000E+00 -0.94717577056E+03  0.34893821467E+04  0.33583695188E+04 0.  0.
        3    1    3    3  502    0 -0.14351678517E+04  0.12180341008E+03  0.42328885516E+03  0.15012382550E+04  0.10100000352E+00 0.  1.
       -3    1    3    3    0  502  0.14351678517E+04 -0.12180341008E+03 -0.13704646257E+04  0.19881438916E+04  0.10100000352E+00 0. -1.
</event>
<event>
 5   0  0.4396257E-07  0.3406477E+04  0.7818609E-02  0.8136318E-01
        2   -1    0    0  501    0  0.00000000000E+00  0.00000000000E+00  0.15606115640E+04  0.15606115640E+04  0.25500000920E-02 0.  1.
       -2   -1    0    0    0  501  0.00000000000E+00  0.00000000000E+00 -0.18589006077E+04  0.18589006077E+04  0.25500000920E-02 0. -1.
    10030    2    1    2    0    0  0.00000000000E+00  0.00000000000E+00 -0.29828904364E+03  0.34195121717E+04  0.34064772330E+04 0.  0.
        2    1    3    3  502    0 -0.68099523218E+03 -0.95614602444E+01 -0.17162639576E+04  0.18464582042E+04  0.25500000920E-02 0. -1.
       -2    1    3    3    0  502  0.68099523218E+03  0.95614602444E+01  0.14179749140E+04  0.15730539674E+04  0.25500000920E-02 0.  1.
</event>
<event>
 5   0  0.4521737E-07  0.3410707E+04  0.7818609E-02  0.8135283E-01
        2   -1    0    0  501    0  0.00000000000E+00  0.00000000000E+00  0.19034513193E+04  0.19034513193E+04  0.25500000920E-02 0.  1.
       -2   -1    0    0    0  501  0.00000000000E+00  0.00000000000E+00 -0.15278726657E+04  0.15278726657E+04  0.25500000920E-02 0. -1.
    10030    2    1    2    0    0  0.00000000000E+00  0.00000000000E+00  0.37557865360E+03  0.34313239850E+04  0.34107073995E+04 0.  0.
        4    1    3    3  502    0  0.11974414315E+04  0.72044178412E+03 -0.79552723250E+03  0.16080321939E+04  0.12699999809E+01 0. -1.
       -4    1    3    3    0  502 -0.11974414315E+04 -0.72044178412E+03  0.11711058861E+04  0.18232917911E+04  0.12699999809E+01 0.  1.
</event>
<event>
 5   0  0.1520084E-07  0.3407918E+04  0.7818609E-02  0.8135966E-01
       -1   -1    0    0    0  501  0.00000000000E+00  0.00000000000E+00  0.21463376133E+04  0.21463376133E+04  0.50400001928E-02 0. -1.
        1   -1    0    0  501    0  0.00000000000E+00  0.00000000000E+00 -0.13527587848E+04  0.13527587848E+04  0.50400001928E-02 0.  1.
    10030    2    1    2    0    0  0.00000000000E+00  0.00000000000E+00  0.79357882852E+03  0.34990963980E+04  0.34079184623E+04 0.  0.
        2    1    3    3  502    0  0.95658606014E+03  0.85275779631E+03  0.15498785460E+04  0.20110634642E+04  0.25500000920E-02 0. -1.
       -2    1    3    3    0  502 -0.95658606014E+03 -0.85275779631E+03 -0.75629971746E+03  0.14880329339E+04  0.25500000920E-02 0.  1.
</event>
<event>
 5   0  0.1421875E-07  0.3375652E+04  0.7818609E-02  0.8143908E-01
        1   -1    0    0  501    0  0.00000000000E+00  0.00000000000E+00  0.19339576940E+04  0.19339576940E+04  0.50400001928E-02 0. -1.
       -1   -1    0    0    0  501  0.00000000000E+00  0.00000000000E+00 -0.14730194492E+04  0.14730194492E+04  0.50400001928E-02 0.  1.
    10030    2    1    2    0    0  0.00000000000E+00  0.00000000000E+00  0.46093824482E+03  0.34069771432E+04  0.33756524094E+04 0.  0.
        5    1    3    3  502    0 -0.35190158108E+03 -0.63204644352E+03 -0.13086137073E+04  0.14952623029E+04  0.46999998093E+01 0.  1.
       -5    1    3    3    0  502  0.35190158108E+03  0.63204644352E+03  0.17695519521E+04  0.19117148403E+04  0.46999998093E+01 0. -1.
</event>
<event>
 5   0  0.1520084E-07  0.3387991E+04  0.7818609E-02  0.8140860E-01
       -1   -1    0    0    0  501  0.00000000000E+00  0.00000000000E+00  0.12955612208E+04  0.12955612208E+04  0.50400001928E-02 0.  1.
        1   -1    0    0  501    0  0.00000000000E+00  0.00000000000E+00 -0.22149632455E+04  0.22149632455E+04  0.50400001928E-02 0. -1.
    10030    2    1    2    0    0  0.00000000000E+00  0.00000000000E+00 -0.91940202476E+03  0.35105244663E+04  0.33879908420E+04 0.  0.
        2    1    3    3  502    0 -0.84643521527E+03  0.94552219186E+03  0.70300386394E+03  0.14507512611E+04  0.25500000920E-02 0.  1.
       -2    1    3    3    0  502  0.84643521527E+03 -0.94552219186E+03 -0.16224058887E+04  0.20597732052E+04  0.25500000920E-02 0. -1.
</event>
<event>
 5   0  0.4396257E-07  0.3397421E+04  0.7818609E-02  0.8138540E-01
        2   -1    0    0  501    0  0.00000000000E+00  0.00000000000E+00  0.21531556723E+04  0.21531556723E+04  0.25500000920E-02 0. -1.
       -2   -1    0    0    0  501  0.00000000000E+00  0.00000000000E+00 -0.13401802356E+04  0.13401802356E+04  0.25500000920E-02 0.  1.
    10030    2    1    2    0    0  0.00000000000E+00  0.00000000000E+00  0.81297543667E+03  0.34933359080E+04  0.33974205959E+04 0.  0.
        2    1    3    3  502    0  0.89040431175E+03  0.76420807387E+03 -0.85651534330E+03  0.14527396022E+04  0.25500000920E-02 0.  1.
       -2    1    3    3    0  502 -0.89040431175E+03 -0.76420807387E+03  0.16694907800E+04  0.20405963057E+04  0.25500000920E-02 0. -1.
</event>
<event>
 5   0  0.4381939E-07  0.3402393E+04  0.7818609E-02  0.8137319E-01
        2   -1    0    0  501    0  0.00000000000E+00  0.00000000000E+00  0.15174010731E+04  0.15174010731E+04  0.25500000920E-02 0. -1.
       -2   -1    0    0    0  501  0.00000000000E+00  0.00000000000E+00 -0.19072540474E+04  0.19072540474E+04  0.25500000920E-02 0.  1.
    10030    2    1    2    0    0  0.00000000000E+00  0.00000000000E+00 -0.38985297438E+03  0.34246551205E+04  0.34023928863E+04 0.  0.
        3    1    3    3  502    0  0.13310762805E+04  0.39961337108E+03 -0.11824752783E+04  0.18247472989E+04  0.10100000352E+00 0.  1.
       -3    1    3    3    0  502 -0.13310762805E+04 -0.39961337108E+03  0.79262230391E+03  0.15999078216E+04  0.10100000352E+00 0. -1.
</event>
<event>
 5   0  0.4396257E-07  0.3395335E+04  0.7818609E-02  0.8139052E-01
       -2   -1    0    0    0  501  0.00000000000E+00  0.00000000000E+00  0.22498546463E+04  0.22498546463E+04  0.25500000920E-02 0. -1.
        2   -1    0    0  501    0  0.00000000000E+00  0.00000000000E+00 -0.12810052567E+04  0.12810052567E+04  0.25500000920E-02 0.  1.
    10030    2    1    2    0    0  0.00000000000E+00  0.00000000000E+00  0.96884938951E+03  0.35308599030E+04  0.33953354054E+04 0.  0.
        2    1    3    3  502    0  0.75710225868E+03 -0.12511929671E+04  0.13810387957E+04  0.20114561457E+04  0.25500000920E-02 0. -1.
       -2    1    3    3    0  502 -0.75710225868E+03  0.12511929671E+04 -0.41218940623E+03  0.15194037572E+04  0.25500000920E-02 0.  1.
</event>
<event>
 5   0  0.1435806E-07  0.3398012E+04  0.7818609E-02  0.8138394E-01
       -1   -1    0    0    0  501  0.00000000000E+00  0.00000000000E+00  0.20509733847E+04  0.20509733847E+04  0.50400001928E-02 0.  1.
        1   -1    0    0  501    0  0.00000000000E+00  0.00000000000E+00 -0.14074400898E+04  0.14074400898E+04  0.50400001928E-02 0. -1.
    10030    2    1    2    0    0  0.00000000000E+00  0.00000000000E+00  0.64353329483E+03  0.34584134745E+04  0.33980124572E+04 0.  0.
        3    1    3    3  502    0  0.25841933533E+03 -0.16262817801E+04  0.74759245647E+03  0.18084433837E+04  0.10100000352E+00 0. -1.
       -3    1    3    3    0  502 -0.25841933533E+03  0.16262817801E+04 -0.10405916163E+03  0.16499700908E+04  0.10100000352E+00 0.  1.
</event>
<event>
 5   0  0.1421875E-07  0.3405309E+04  0.7818609E-02  0.8136604E-01
        1   -1    0    0  501    0  0.00000000000E+00  0.00000000000E+00  0.15270366507E+04  0.15270366507E+04  0.50400001928E-02 0.  1.
       -1   -1    0    0    0  501  0.00000000000E+00  0.00000000000E+00 -0.18984696904E+04  0.18984696904E+04  0.50400001928E-02 0. -1.
    10030    2    1    2    0    0  0.00000000000E+00  0.00000000000E+00 -0.37143303970E+03  0.34255063410E+04  0.34053092649E+04 0.  0.
        5    1    3    3  502    0 -0.53047990599E+02  0.51200029918E+02  0.15254237052E+04  0.15272115449E+04  0.46999998093E+01 0.  1.
       -5    1    3    3    0  502  0.53047990599E+02 -0.51200029918E+02 -0.18968567449E+04  0.18982947962E+04  0.46999998093E+01 0. -1.
</event>
<event>
 5   0  0.4447909E-07  0.3403289E+04  0.7818609E-02  0.8137100E-01
       -2   -1    0    0    0  501  0.00000000000E+00  0.00000000000E+00  0.11257062274E+04  0.11257062274E+04  0.25500000920E-02 0.  1.
        2   -1    0    0  501    0  0.00000000000E+00  0.00000000000E+00 -0.25722467426E+04  0.25722467426E+04  0.25500000920E-02 0. -1.
    10030    2    1    2    0    0  0.00000000000E+00  0.00000000000E+00 -0.14465405152E+04  0.36979529700E+04  0.34032891011E+04 0.  0.
        5    1    3    3  502    0 -0.46057790093E+03 -0.78824939235E+03 -0.22836047732E+04  0.24593377071E+04  0.46999998093E+01 0. -1.
       -5    1    3    3    0  502  0.46057790093E+03  0.78824939235E+03  0.83706425800E+03  0.12386152629E+04  0.46999998093E+01 0.  1.
</event>
<event>
 5   0  0.1421875E-07  0.3409661E+04  0.7818609E-02  0.8135539E-01
       -1   -1    0    0    0  501  0.00000000000E+00  0.00000000000E+00  0.15832547570E+04  0.15832547570E+04  0.50400001928E-02 0. -1.
        1   -1    0    0  501    0  0.00000000000E+00  0.00000000000E+00 -0.18357417258E+04  0.18357417258E+04  0.50400001928E-02 0.  1.
    10030    2    1    2    0    0  0.00000000000E+00  0.00000000000E+00 -0.25248696883E+03  0.34189964827E+04  0.34096608746E+04 0.  0.
        5    1    3    3  502    0 -0.47618815134E+03 -0.16337933999E+04 -0.22844753101E+03  0.17170458332E+04  0.46999998093E+01 0.  1.
       -5    1    3    3    0  502  0.47618815134E+03  0.16337933999E+04 -0.24039437812E+02  0.17019506495E+04  0.46999998093E+01 0. -1.
</event>
<event>
 5   0  0.1520084E-07  0.3402866E+04  0.7818609E-02  0.8137203E-01
       -1   -1    0    0    0  501  0.00000000000E+00  0.00000000000E+00  0.17208833760E+04  0.17208833760E+04  0.50400001928E-02 0. -1.
        1   -1    0    0  501    0  0.00000000000E+00  0.00000000000E+00 -0.16822020025E+04  0.16822020025E+04  0.50400001928E-02 0.  1.
    10030    2    1    2    0    0  0.00000000000E+00  0.00000000000E+00  0.38681373463E+02  0.34030853785E+04  0.34028655343E+04 0.  0.
        2    1    3    3  502    0  0.10869202285E+04 -0.15557941597E+03 -0.12804636075E+04  0.16867683860E+04  0.25500000920E-02 0.  1.
       -2    1    3    3    0  502 -0.10869202285E+04  0.15557941597E+03  0.13191449810E+04  0.17163169925E+04  0.25500000920E-02 0. -1.
</event>
<event>
 5   0  0.4447909E-07  0.3423549E+04  0.7818609E-02  0.8132151E-01
       -2   -1    0    0    0  501  0.00000000000E+00  0.00000000000E+00  0.16214581810E+04  0.16214581810E+04  0.25500000920E-02 0.  1.
        2   -1    0    0  501    0  0.00000000000E+00  0.00000000000E+00 -0.18071214082E+04  0.18071214082E+04  0.25500000920E-02 0. -1.
    10030    2    1    2    0    0  0.00000000000E+00  0.00000000000E+00 -0.18566322724E+03  0.34285795893E+04  0.34235489139E+04 0.  0.
        5    1    3    3  502    0 -0.90455176126E+02 -0.16779776945E+04  0.23377399258E+03  0.16966035635E+04  0.46999998093E+01 0. -1.
       -5    1    3    3    0  502  0.90455176126E+02  0.16779776945E+04 -0.41943721981E+03  0.17319760257E+04  0.46999998093E+01 0.  1.
</event>
<event>
 5   0  0.1473755E-07  0.3420615E+04  0.7818609E-02  0.8132865E-01
       -1   -1    0    0    0  501  0.00000000000E+00  0.00000000000E+00  0.26729833799E+04  0.26729833799E+04  0.50400001928E-02 0. -1.
        1   -1    0    0  501    0  0.00000000000E+00  0.00000000000E+00 -0.10943399501E+04  0.10943399501E+04  0.50400001928E-02 0.  1.
    10030    2    1    2    0    0  0.00000000000E+00  0.00000000000E+00  0.15786434298E+04  0.37673233300E+04  0.34206154409E+04 0.  0.
        1    1    3    3  502    0  0.99304539640E+02 -0.16478980138E+04  0.29712019784E+03  0.16774115975E+04  0.50400001928E-02 0. -1.
       -1    1    3    3    0  502 -0.99304539640E+02  0.16478980138E+04  0.12815232320E+04  0.20899117325E+04  0.50400001928E-02 0.  1.
</event>
<event>
 5   0  0.4381939E-07  0.3404665E+04  0.7818609E-02  0.8136762E-01
       -2   -1    0    0    0  501  0.00000000000E+00  0.00000000000E+00  0.12332822738E+04  0.12332822738E+04  0.25500000920E-02 0. -1.
        2   -1    0    0  501    0  0.00000000000E+00  0.00000000000E+00 -0.23497745855E+04  0.23497745855E+04  0.25500000920E-02 0.  1.
    10030    2    1    2    0    0  0.00000000000E+00  0.00000000000E+00 -0.11164923117E+04  0.35830568593E+04  0.34046646493E+04 0.  0.
        3    1    3    3  502    0 -0.15422379246E+04 -0.27452324887E+02 -0.13161790173E+04  0.20277028041E+04  0.10100000352E+00 0.  1.
       -3    1    3    3    0  502  0.15422379246E+04  0.27452324887E+02  0.19968670552E+03  0.15553540551E+04  0.10100000352E+00 0. -1.
</event>
<event>
 5   0  0.4486226E-07  0.3399149E+04  0.7818609E-02  0.8138115E-01
        2   -1    0    0  501    0  0.00000000000E+00  0.00000000000E+00  0.16948780620E+04  0.16948780620E+04  0.25500000920E-02 0.  1.
       -2   -1    0    0    0  501  0.00000000000E+00  0.00000000000E+00 -0.17042834683E+04  0.17042834683E+04  0.25500000920E-02 0. -1.
    10030    2    1    2    0    0  0.00000000000E+00  0.00000000000E+00 -0.94054063276E+01  0.33991615303E+04  0.33991485180E+04 0.  0.
        1    1    3    3  502    0 -0.12798754203E+03  0.10334791757E+03 -0.16963034147E+04  0.17042613877E+04  0.50400001928E-02 0. -1.
       -1    1    3    3    0  502  0.12798754203E+03 -0.10334791757E+03  0.16868980083E+04  0.16949001426E+04  0.50400001928E-02 0.  1.
</event>
<event>
 5   0  0.4381939E-07  0.3389432E+04  0.7818609E-02  0.8140505E-01
        2   -1    0    0  501    0  0.00000000000E+00  0.00000000000E+00  0.11992419228E+04  0.11992419228E+04  0.25500000920E-02 0.  1.
       -2   -1    0    0    0  501  0.00000000000E+00  0.00000000000E+00 -0.23948988113E+04  0.23948988113E+04  0.25500000920E-02 0. -1.
    10030    2    1    2    0    0  0.00000000000E+00  0.00000000000E+00 -0.11956568884E+04  0.35941407341E+04  0.33894324336E+04 0.  0.
        3    1    3    3  502    0 -0.65387117771E+03  0.20292290095E+03 -0.22417288719E+04  0.23439440194E+04  0.10100000352E+00 0. -1.
       -3    1    3    3    0  502  0.65387117771E+03 -0.20292290095E+03  0.10460719835E+04  0.12501967147E+04  0.10100000352E+00 0.  1.
</event>
<event>
 5   0  0.1520084E-07  0.3408330E+04  0.7818609E-02  0.8135865E-01
       -1   -1    0    0    0  501  0.00000000000E+00  0.00000000000E+00  0.29578083891E+04  0.29578083891E+04  0.50400001928E-02 0. -1.
        1   -1    0    0  501    0  0.00000000000E+00  0.00000000000E+00 -0.98186808043E+03  0.98186808044E+03  0.50400001928E-02 0.  1.
    10030    2    1    2    0    0  0.00000000000E+00  0.00000000000E+00  0.19759403087E+04  0.39396764695E+04  0.34083295881E+04 0.  0.
        2    1    3    3  502    0  0.56830017539E+03 -0.16054313933E+04  0.91669155717E+03  0.19340885344E+04  0.25500000920E-02 0.  1.
       -2    1    3    3    0  502 -0.56830017539E+03  0.16054313933E+04  0.10592487515E+04  0.20055879351E+04  0.25500000920E-02 0. -1.
</event>
<event>
 5   0  0.4521737E-07  0.3408599E+04  0.7818609E-02  0.8135799E-01
       -2   -1    0    0    0  501  0.00000000000E+00  0.00000000000E+00  0.10036401496E+04  0.10036401496E+04  0.25500000920E-02 0. -1.
        2   -1    0    0  501    0  0.00000000000E+00  0.00000000000E+00 -0.28941009814E+04  0.28941009814E+04  0.25500000920E-02 0.  1.
    10030    2    1    2    0    0  0.00000000000E+00  0.00000000000E+00 -0.18904608317E+04  0.38977411310E+04  0.34085985049E+04 0.  0.
        4    1    3    3  502    0  0.18809820538E+03  0.90561405400E+03  0.69166328124E+03  0.11549534437E+04  0.12699999809E+01 0. -1.
       -4    1    3    3    0  502 -0.18809820538E+03 -0.90561405400E+03 -0.25821241130E+04  0.27427876873E+04  0.12699999809E+01 0.  1.
</event>
<event>
 5   0  0.1421875E-07  0.3405204E+04  0.7818609E-02  0.8136630E-01
        1   -1    0    0  501    0  0.00000000000E+00  0.00000000000E+00  0.15519147284E+04  0.15519147284E+04  0.50400001928E-02 0. -1.
       -1   -1    0    0    0  501  0.00000000000E+00  0.00000000000E+00 -0.18679203471E+04  0.18679203471E+04  0.50400001928E-02 0.  1.
    10030    2    1    2    0    0  0.00000000000E+00  0.00000000000E+00 -0.31600561876E+03  0.34198350755E+04  0.34052037226E+04 0.  0.
        5    1    3    3  502    0 -0.13000329216E+04 -0.30209017603E+03  0.90365189921E+03  0.16118166511E+04  0.46999998093E+01 0. -1.
       -5    1    3    3    0  502  0.13000329216E+04  0.30209017603E+03 -0.12196575180E+04  0.18080184244E+04  0.46999998093E+01 0.  1.
</event>
<event>
 5   0  0.1520084E-07  0.3364314E+04  0.7818609E-02  0.8146721E-01
       -1   -1    0    0    0  501  0.00000000000E+00  0.00000000000E+00  0.11224906226E+04  0.11224906226E+04  0.50400001928E-02 0. -1.
        1   -1    0    0  501    0  0.00000000000E+00  0.00000000000E+00 -0.25208698799E+04  0.25208698799E+04  0.50400001928E-02 0.  1.
    10030    2    1    2    0    0  0.00000000000E+00  0.00000000000E+00 -0.13983792573E+04  0.36433605025E+04  0.33643143736E+04 0.  0.
        2    1    3    3  502    0 -0.11419863183E+04  0.11505731494E+03  0.63255804491E+03  0.13105344776E+04  0.25500000920E-02 0. -1.
       -2    1    3    3    0  502  0.11419863183E+04 -0.11505731494E+03 -0.20309373022E+04  0.23328260249E+04  0.25500000920E-02 0.  1.
</event>
<event>
 5   0  0.1520084E-07  0.3420648E+04  0.7818609E-02  0.8132857E-01
       -1   -1    0    0    0  501  0.00000000000E+00  0.00000000000E+00  0.12463547828E+04  0.12463547828E+04  0.50400001928E-02 0. -1.
        1   -1    0    0  501    0  0.00000000000E+00  0.00000000000E+00 -0.23470111419E+04  0.23470111419E+04  0.50400001928E-02 0.  1.
    10030    2    1    2    0    0  0.00000000000E+00  0.00000000000E+00 -0.11006563591E+04  0.35933659247E+04  0.34206482204E+04 0.  0.
        2    1    3    3  502    0 -0.49296466237E+03 -0.12089363251E+04 -0.17109525847E+04  0.21521849231E+04  0.25500000920E-02 0.  1.
       -2    1    3    3    0  502  0.49296466237E+03  0.12089363251E+04  0.61029622554E+03  0.14411810016E+04  0.25500000920E-02 0. -1.
</event>
<event>
 5   0  0.1435806E-07  0.3381286E+04  0.7818609E-02  0.8142515E-01
        1   -1    0    0  501    0  0.00000000000E+00  0.00000000000E+00  0.13633092766E+04  0.13633092766E+04  0.50400001928E-02 0. -1.
       -1   -1    0    0    0  501  0.00000000000E+00  0.00000000000E+00 -0.20965705444E+04  0.20965705444E+04  0.50400001928E-02 0.  1.
    10030    2    1    2    0    0  0.00000000000E+00  0.00000000000E+00 -0.73326126783E+03  0.34598798210E+04  0.33812861886E+04 0.  0.
        3    1    3    3  502    0 -0.11711253540E+04 -0.12174027495E+04 -0.29670472391E+03  0.17151203318E+04  0.10100000352E+00 0. -1.
       -3    1    3    3    0  502  0.11711253540E+04  0.12174027495E+04 -0.43655654392E+03  0.17447594893E+04  0.10100000352E+00 0.  1.
</event>
<event>
 5   0  0.1421875E-07  0.3391813E+04  0.7818609E-02  0.8139919E-01
       -1   -1    0    0    0  501  0.00000000000E+00  0.00000000000E+00  0.15956715689E+04  0.15956715690E+04  0.50400001928E-02 0.  1.
        1   -1    0    0  501    0  0.00000000000E+00  0.00000000000E+00 -0.18024381494E+04  0.18024381494E+04  0.50400001928E-02 0. -1.
    10030    2    1    2    0    0  0.00000000000E+00  0.00000000000E+00 -0.20676658044E+03  0.33981097184E+04  0.33918132671E+04 0.  0.
        5    1    3    3  502    0  0.17721892191E+03 -0.15704622546E+04  0.51283491962E+03  0.16615595036E+04  0.46999998093E+01 0. -1.
       -5    1    3    3    0  502 -0.17721892191E+03  0.15704622546E+04 -0.71960150007E+03  0.17365502147E+04  0.46999998093E+01 0.  1.
</event>
<event>
 5   0  0.4447909E-07  0.3395908E+04  0.7818609E-02  0.8138911E-01
       -2   -1    0    0    0  501  0.00000000000E+00  0.00000000000E+00  0.17053465784E+04  0.17053465784E+04  0.25500000920E-02 0. -1.
        2   -1    0    0  501    0  0.00000000000E+00  0.00000000000E+00 -0.16905936483E+04  0.16905936483E+04  0.25500000920E-02 0.  1.
    10030    2    1    2    0    0  0.00000000000E+00  0.00000000000E+00  0.14752930145E+02  0.33959402267E+04  0.33959081811E+04 0.  0.
        5    1    3    3  502    0 -0.12722387105E+04 -0.10929379050E+04  0.27180551547E+03  0.16991188684E+04  0.46999998093E+01 0. -1.
       -5    1    3    3    0  502  0.12722387105E+04  0.10929379050E+04 -0.25705258533E+03  0.16968213584E+04  0.46999998093E+01 0.  1.
</event>
<event>
 5   0  0.1435806E-07  0.3371882E+04  0.7818609E-02  0.8144842E-01
        1   -1    0    0  501    0  0.00000000000E+00  0.00000000000E+00  0.16319147815E+04  0.16319147815E+04  0.50400001928E-02 0. -1.
       -1   -1    0    0    0  501  0.00000000000E+00  0.00000000000E+00 -0.17417562286E+04  0.17417562286E+04  0.50400001928E-02 0.  1.
    10030    2    1    2    0    0  0.00000000000E+00  0.00000000000E+00 -0.10984144714E+03  0.33736710101E+04  0.33718824032E+04 0.  0.
        3    1    3    3  502    0  0.63934018038E+02 -0.93830790211E+03 -0.14549086209E+04  0.17324169195E+04  0.10100000352E+00 0.  1.
       -3    1    3    3    0  502 -0.63934018038E+02  0.93830790211E+03  0.13450671737E+04  0.16412540906E+04  0.10100000352E+00 0. -1.
</event>
<event>
 5   0  0.1421875E-07  0.3398717E+04  0.7818609E-02  0.8138221E-01
        1   -1    0    0  501    0  0.00000000000E+00  0.00000000000E+00  0.18745902559E+04  0.18745902559E+04  0.50400001928E-02 0.  1.
       -1   -1    0    0    0  501  0.00000000000E+00  0.00000000000E+00 -0.15405069397E+04  0.15405069398E+04  0.50400001928E-02 0. -1.
    10030    2    1    2    0    0  0.00000000000E+00  0.00000000000E+00  0.33408331617E+03  0.34150971957E+04  0.33987169923E+04 0.  0.
        5    1    3    3  502    0 -0.13047620999E+04  0.10819525452E+04  0.44916763849E+02  0.16956016788E+04  0.46999998093E+01 0.  1.
       -5    1    3    3    0  502  0.13047620999E+04 -0.10819525452E+04  0.28916655232E+03  0.17194955169E+04  0.46999998093E+01 0. -1.
</event>
<event>
 5   0  0.1523259E-07  0.3358826E+04  0.7818609E-02  0.8148086E-01
       -1   -1    0    0    0  501  0.00000000000E+00  0.00000000000E+00  0.17603982012E+04  0.17603982012E+04  0.50400001928E-02 0. -1.
        1   -1    0    0  501    0  0.00000000000E+00  0.00000000000E+00 -0.16021529604E+04  0.16021529604E+04  0.50400001928E-02 0.  1.
    10030    2    1    2    0    0  0.00000000000E+00  0.00000000000E+00  0.15824524079E+03  0.33625511615E+04  0.33588255027E+04 0.  0.
        4    1    3    3  502    0 -0.31783997317E+03  0.78717022746E+03  0.15297869951E+04  0.17495453921E+04  0.12699999809E+01 0. -1.
       -4    1    3    3    0  502  0.31783997317E+03 -0.78717022746E+03 -0.13715417543E+04  0.16130057695E+04  0.12699999809E+01 0.  1.
</event>
<event>
 5   0  0.1520084E-07  0.3401589E+04  0.7818609E-02  0.8137516E-01
       -1   -1    0    0    0  501  0.00000000000E+00  0.00000000000E+00  0.13680747542E+04  0.13680747542E+04  0.50400001928E-02 0. -1.
        1   -1    0    0  501    0  0.00000000000E+00  0.00000000000E+00 -0.21144328529E+04  0.21144328529E+04  0.50400001928E-02 0.  1.
    10030    2    1    2    0    0  0.00000000000E+00  0.00000000000E+00 -0.74635809873E+03  0.34825076071E+04  0.34015891613E+04 0.  0.
        2    1    3    3  502    0  0.33348129218E+03 -0.10560603509E+04 -0.16947106578E+04  0.20244795506E+04  0.25500000920E-02 0.  1.
       -2    1    3    3    0  502 -0.33348129218E+03  0.10560603509E+04  0.94835255911E+03  0.14580280565E+04  0.25500000920E-02 0. -1.
</event>
<event>
 5   0  0.4396257E-07  0.3403484E+04  0.7818609E-02  0.8137052E-01
       -2   -1    0    0    0  501  0.00000000000E+00  0.00000000000E+00  0.97540538971E+03  0.97540538972E+03  0.25500000920E-02 0.  1.
        2   -1    0    0  501    0  0.00000000000E+00  0.00000000000E+00 -0.29689453513E+04  0.29689453513E+04  0.25500000920E-02 0. -1.
    10030    2    1    2    0    0  0.00000000000E+00  0.00000000000E+00 -0.19935399616E+04  0.39443507410E+04  0.34034836844E+04 0.  0.
        2    1    3    3  502    0  0.12923207695E+04  0.50962973453E+03  0.14233856671E+03  0.13964511109E+04  0.25500000920E-02 0.  1.
       -2    1    3    3    0  502 -0.12923207695E+04 -0.50962973453E+03 -0.21358785283E+04  0.25478996301E+04  0.25500000920E-02 0. -1.
</event>
<event>
 5   0  0.4381939E-07  0.3400546E+04  0.7818609E-02  0.8137772E-01
       -2   -1    0    0    0  501  0.00000000000E+00  0.00000000000E+00  0.10417551843E+04  0.10417551843E+04  0.25500000920E-02 0. -1.
        2   -1    0    0  501    0  0.00000000000E+00  0.00000000000E+00 -0.27750547878E+04  0.27750547878E+04  0.25500000920E-02 0.  1.
    10030    2    1    2    0    0  0.00000000000E+00  0.00000000000E+00 -0.17332996035E+04  0.38168099721E+04  0.34005456691E+04 0.  0.
        3    1    3    3  502    0  0.71527044799E+03 -0.14697710174E+04 -0.34128344643E+03  0.16698242598E+04  0.10100000352E+00 0. -1.
       -3    1    3    3    0  502 -0.71527044799E+03  0.14697710174E+04 -0.13920161571E+04  0.21469857124E+04  0.10100000352E+00 0.  1.
</event>
<event>
 5   0  0.4521737E-07  0.3386870E+04  0.7818609E-02  0.8141136E-01
       -2   -1    0    0    0  501  0.00000000000E+00  0.00000000000E+00  0.14181765182E+04  0.14181765182E+04  0.25500000920E-02 0.  1.
        2   -1    0    0  501    0  0.00000000000E+00  0.00000000000E+00 -0.20221196394E+04  0.20221196394E+04  0.25500000920E-02 0. -1.
    10030    2    1    2    0    0  0.00000000000E+00  0.00000000000E+00 -0.60394312121E+03  0.34402961576E+04  0.33868702895E+04 0.  0.
        4    1    3    3  502    0 -0.13771806556E+03  0.13208441420E+04 -0.13693206378E+04  0.19075209396E+04  0.12699999809E+01 0. -1.
       -4    1    3    3    0  502  0.13771806556E+03 -0.13208441420E+04  0.76537751655E+03  0.15327752180E+04  0.12699999809E+01 0.  1.
</event>
<event>
 5   0  0.1421875E-07  0.3401253E+04  0.7818609E-02  0.8137599E-01
       -1   -1    0    0    0  501  0.00000000000E+00  0.00000000000E+00  0.23407750543E+04  0.23407750543E+04  0.50400001928E-02 0.  1.
        1   -1    0    0  501    0  0.00000000000E+00  0.00000000000E+00 -0.12355440566E+04  0.12355440566E+04  0.50400001928E-02 0. -1.
    10030    2    1    2    0    0  0.00000000000E+00  0.00000000000E+00  0.11052309977E+04  0.35763191109E+04  0.34012531257E+04 0.  0.
        5    1    3    3  502    0 -0.99868077168E+03  0.70353154450E+03 -0.69140790538E+03  0.14037047052E+04  0.46999998093E+01 0. -1.
       -5    1    3    3    0  502  0.99868077168E+03 -0.70353154450E+03  0.17966389031E+04  0.21726144057E+04  0.46999998093E+01 0.  1.
</event>
<event>
 5   0  0.4486226E-07  0.3408772E+04  0.7818609E-02  0.8135757E-01
       -2   -1    0    0    0  501  0.00000000000E+00  0.00000000000E+00  0.13893365477E+04  0.13893365477E+04  0.25500000920E-02 0. -1.
        2   -1    0    0  501    0  0.00000000000E+00  0.00000000000E+00 -0.20908763791E+04  0.20908763791E+04  0.25500000920E-02 0.  1.
    10030    2    1    2    0    0  0.00000000000E+00  0.00000000000E+00 -0.70153983135E+03  0.34802129268E+04  0.34087716088E+04 0.  0.
        1    1    3    3  502    0 -0.34716923514E+03  0.74089447391E+03 -0.18772575609E+04  0.20478151892E+04  0.50400001928E-02 0.  1.
       -1    1    3    3    0  502  0.34716923514E+03 -0.74089447391E+03  0.11757177295E+04  0.14323977376E+04  0.50400001928E-02 0. -1.
</event>
<event>
 5   0  0.4447909E-07  0.3201904E+04  0.7818609E-02  0.8188315E-01
       -2   -1    0    0    0  501  0.00000000000E+00  0.00000000000E+00  0.12366159695E+04  0.12366159695E+04  0.25500000920E-02 0.  1.
        2   -1    0    0  501    0  0.00000000000E+00  0.00000000000E+00 -0.20726298617E+04  0.20726298617E+04  0.25500000920E-02 0. -1.
    10030    2    1    2    0    0  0.00000000000E+00  0.00000000000E+00 -0.83601389224E+03  0.33092458312E+04  0.32019039247E+04 0.  0.
        5    1    3    3  502    0 -0.79684561140E+03 -0.13861267552E+04 -0.33331603301E+03  0.16332274728E+04  0.46999998093E+01 0. -1.
       -5    1    3    3    0  502  0.79684561140E+03  0.13861267552E+04 -0.50269785923E+03  0.16760183584E+04  0.46999998093E+01 0.  1.
</event>
<event>
 5   0  0.1523259E-07  0.3398991E+04  0.7818609E-02  0.8138154E-01
       -1   -1    0    0    0  501  0.00000000000E+00  0.00000000000E+00  0.17372822105E+04  0.17372822105E+04  0.50400001928E-02 0.  1.
        1   -1    0    0  501    0  0.00000000000E+00  0.00000000000E+00 -0.16625303496E+04  0.16625303496E+04  0.50400001928E-02 0. -1.
    10030    2    1    2    0    0  0.00000000000E+00  0.00000000000E+00  0.74751860902E+02  0.33998125602E+04  0.33989906743E+04 0.  0.
        4    1    3    3  502    0 -0.60812549993E+03 -0.15706775807E+04 -0.18947860563E+03  0.16949184173E+04  0.12699999809E+01 0. -1.
       -4    1    3    3    0  502  0.60812549993E+03  0.15706775807E+04  0.26423046654E+03  0.17048941429E+04  0.12699999809E+01 0.  1.
</event>
<event>
 5   0  0.1520084E-07  0.3407569E+04  0.7818609E-02  0.8136051E-01
        1   -1    0    0  501    0  0.00000000000E+00  0.00000000000E+00  0.11234396577E+04  0.11234396577E+04  0.50400001928E-02 0.  1.
       -1   -1    0    0    0  501  0.00000000000E+00  0.00000000000E+00 -0.25839229648E+04  0.25839229648E+04  0.50400001928E-02 0. -1.
    10030    2    1    2    0    0  0.00000000000E+00  0.00000000000E+00 -0.14604833071E+04  0.37073626226E+04  0.34075689465E+04 0.  0.
        2    1    3    3  502    0  0.54768538915E+03  0.15567427028E+04 -0.11911575365E+04  0.20352551204E+04  0.25500000920E-02 0. -1.
       -2    1    3    3    0  502 -0.54768538915E+03 -0.15567427028E+04 -0.26932577056E+03  0.16721075022E+04  0.25500000920E-02 0.  1.
</event>
<event>
 5   0  0.1520084E-07  0.3400717E+04  0.7818609E-02  0.8137730E-01
        1   -1    0    0  501    0  0.00000000000E+00  0.00000000000E+00  0.25640952698E+04  0.25640952698E+04  0.50400001928E-02 0. -1.
       -1   -1    0    0    0  501  0.00000000000E+00  0.00000000000E+00 -0.11275787304E+04  0.11275787304E+04  0.50400001928E-02 0.  1.
    10030    2    1    2    0    0  0.00000000000E+00  0.00000000000E+00  0.14365165394E+04  0.36916740002E+04  0.34007171531E+04 0.  0.
        2    1    3    3  502    0 -0.83551135912E+03 -0.10011783290E+04  0.19028507285E+04  0.23067895813E+04  0.25500000920E-02 0. -1.
       -2    1    3    3    0  502  0.83551135912E+03  0.10011783290E+04 -0.46633418910E+03  0.13848844188E+04  0.25500000920E-02 0.  1.
</event>
<event>
 5   0  0.1421875E-07  0.3404580E+04  0.7818609E-02  0.8136783E-01
       -1   -1    0    0    0  501  0.00000000000E+00  0.00000000000E+00  0.16104279718E+04  0.16104279718E+04  0.50400001928E-02 0. -1.
        1   -1    0    0  501    0  0.00000000000E+00  0.00000000000E+00 -0.17993915906E+04  0.17993915906E+04  0.50400001928E-02 0.  1.
    10030    2    1    2    0    0  0.00000000000E+00  0.00000000000E+00 -0.18896361884E+03  0.34098195624E+04  0.34045795921E+04 0.  0.
        5    1    3    3  502    0 -0.50627055738E+02 -0.14702827912E+04  0.76326721207E+03  0.16573754891E+04  0.46999998093E+01 0.  1.
       -5    1    3    3    0  502  0.50627055738E+02  0.14702827912E+04 -0.95223083091E+03  0.17524440733E+04  0.46999998093E+01 0. -1.
</event>
<event>
 5   0  0.1523259E-07  0.3408487E+04  0.7818609E-02  0.8135826E-01
        1   -1    0    0  501    0  0.00000000000E+00  0.00000000000E+00  0.10388435115E+04  0.10388435115E+04  0.50400001928E-02 0.  1.
       -1   -1    0    0    0  501  0.00000000000E+00  0.00000000000E+00 -0.27958460383E+04  0.27958460383E+04  0.50400001928E-02 0. -1.
    10030    2    1    2    0    0  0.00000000000E+00  0.00000000000E+00 -0.17570025268E+04  0.38346895497E+04  0.34084873571E+04 0.  0.
        4    1    3    3  502    0 -0.33865302888E+03 -0.14554031419E+04 -0.18004593262E+04  0.23397734030E+04  0.12699999809E+01 0. -1.
       -4    1    3    3    0  502  0.33865302888E+03  0.14554031419E+04  0.43456799405E+02  0.14949161467E+04  0.12699999809E+01 0.  1.
</event>
<event>
 5   0  0.4396257E-07  0.3427592E+04  0.7818609E-02  0.8131167E-01
        2   -1    0    0  501    0  0.00000000000E+00  0.00000000000E+00  0.24285628864E+04  0.24285628864E+04  0.25500000920E-02 0. -1.
       -2   -1    0    0    0  501  0.00000000000E+00  0.00000000000E+00 -0.12093971129E+04  0.12093971129E+04  0.25500000920E-02 0.  1.
    10030    2    1    2    0    0  0.00000000000E+00  0.00000000000E+00  0.12191657735E+04  0.36379599992E+04  0.34275921246E+04 0.  0.
        2    1    3    3  502    0  0.10052658209E+04 -0.16149668769E+03  0.20727628241E+04  0.23093259354E+04  0.25500000920E-02 0. -1.
       -2    1    3    3    0  502 -0.10052658209E+04  0.16149668769E+03 -0.85359705065E+03  0.13286340639E+04  0.25500000920E-02 0.  1.
</event>
<event>
 5   0  0.4396257E-07  0.3422344E+04  0.7818609E-02  0.8132444E-01
       -2   -1    0    0    0  501  0.00000000000E+00  0.00000000000E+00  0.12051625980E+04  0.12051625980E+04  0.25500000920E-02 0. -1.
        2   -1    0    0  501    0  0.00000000000E+00  0.00000000000E+00 -0.24296384348E+04  0.24296384348E+04  0.25500000920E-02 0.  1.
    10030    2    1    2    0    0  0.00000000000E+00  0.00000000000E+00 -0.12244758368E+04  0.36348010329E+04  0.34223438567E+04 0.  0.
        2    1    3    3  502    0 -0.15575345629E+04  0.18245393791E+03  0.11503916255E+03  0.15723986018E+04  0.25500000920E-02 0. -1.
       -2    1    3    3    0  502  0.15575345629E+04 -0.18245393791E+03 -0.13395149993E+04  0.20624024310E+04  0.25500000920E-02 0.  1.
</event>
<event>
 5   0  0.4381939E-07  0.3403135E+04  0.7818609E-02  0.8137137E-01
        2   -1    0    0  501    0  0.00000000000E+00  0.00000000000E+00  0.24149210905E+04  0.24149210905E+04  0.25500000920E-02 0.  1.
       -2   -1    0    0    0  501  0.00000000000E+00  0.00000000000E+00 -0.11989341656E+04  0.11989341656E+04  0.25500000920E-02 0. -1.
    10030    2    1    2    0    0  0.00000000000E+00  0.00000000000E+00  0.12159869249E+04  0.36138552561E+04  0.34031346742E+04 0.  0.
        3    1    3    3  502    0 -0.52438329392E+03 -0.16136560369E+04  0.74426612018E+03  0.18527805353E+04  0.10100000352E+00 0. -1.
       -3    1    3    3    0  502  0.52438329392E+03  0.16136560369E+04  0.47172080474E+03  0.17610747208E+04  0.10100000352E+00 0.  1.
</event>
<event>
 5   0  0.1473755E-07  0.3397065E+04  0.7818609E-02  0.8138627E-01
       -1   -1    0    0    0  501  0.00000000000E+00  0.00000000000E+00  0.22376102038E+04  0.22376102038E+04  0.50400001928E-02 0. -1.
        1   -1    0    0  501    0  0.00000000000E+00  0.00000000000E+00 -0.12893274296E+04  0.12893274296E+04  0.50400001928E-02 0.  1.
    10030    2    1    2    0    0  0.00000000000E+00  0.00000000000E+00  0.94828277422E+03  0.35269376334E+04  0.33970647404E+04 0.  0.
        1    1    3    3  502    0 -0.91763603913E+03  0.78098080482E+02  0.19558889674E+04  0.21618642102E+04  0.50400001928E-02 0. -1.
       -1    1    3    3    0  502  0.91763603913E+03 -0.78098080482E+02 -0.10076061931E+04  0.13650734233E+04  0.50400001928E-02 0.  1.
</event>
<event>
 5   0  0.1520084E-07  0.3401000E+04  0.7818609E-02  0.8137661E-01
       -1   -1    0    0    0  501  0.00000000000E+00  0.00000000000E+00  0.17712713185E+04  0.17712713185E+04  0.50400001928E-02 0. -1.
        1   -1    0    0  501    0  0.00000000000E+00  0.00000000000E+00 -0.16325565291E+04  0.16325565291E+04  0.50400001928E-02 0.  1.
    10030    2    1    2    0    0  0.00000000000E+00  0.00000000000E+00  0.13871478943E+03  0.34038278477E+04  0.34010001799E+04 0.  0.
        2    1    3    3  502    0 -0.15505844910E+04 -0.63798076197E+03  0.35308708294E+03  0.17134766425E+04  0.25500000920E-02 0. -1.
       -2    1    3    3    0  502  0.15505844910E+04  0.63798076197E+03 -0.21437229352E+03  0.16903512051E+04  0.25500000920E-02 0.  1.
</event>
<event>
 5   0  0.1520084E-07  0.3415202E+04  0.7818609E-02  0.8134185E-01
        1   -1    0    0  501    0  0.00000000000E+00  0.00000000000E+00  0.14277643482E+04  0.14277643482E+04  0.50400001928E-02 0.  1.
       -1   -1    0    0    0  501  0.00000000000E+00  0.00000000000E+00 -0.20422847130E+04  0.20422847130E+04  0.50400001928E-02 0. -1.
    10030    2    1    2    0    0  0.00000000000E+00  0.00000000000E+00 -0.61452036478E+03  0.34700490612E+04  0.34152020743E+04 0.  0.
        2    1    3    3  502    0  0.13937227461E+04 -0.63027130112E+03 -0.10785266334E+04  0.18716101905E+04  0.25500000920E-02 0. -1.
       -2    1    3    3    0  502 -0.13937227461E+04  0.63027130112E+03  0.46400626862E+03  0.15984388707E+04  0.25500000920E-02 0.  1.
</event>
<event>
 5   0  0.4381939E-07  0.3401865E+04  0.7818609E-02  0.8137449E-01
        2   -1    0    0  501    0  0.00000000000E+00  0.00000000000E+00  0.18666194502E+04  0.18666194502E+04  0.25500000920E-02 0. -1.
       -2   -1    0    0    0  501  0.00000000000E+00  0.00000000000E+00 -0.15499527620E+04  0.15499527620E+04  0.25500000920E-02 0.  1.
    10030    2    1    2    0    0  0.00000000000E+00  0.00000000000E+00  0.31666668819E+03  0.34165722122E+04  0.34018653544E+04 0.  0.
        3    1    3    3  502    0 -0.12642568229E+04 -0.34426417042E+03  0.12475998821E+04  0.18092453148E+04  0.10100000352E+00 0. -1.
       -3    1    3    3    0  502  0.12642568229E+04  0.34426417042E+03 -0.93093319389E+03  0.16073268974E+04  0.10100000352E+00 0.  1.
</event>
<event>
 5   0  0.4396257E-07  0.3398745E+04  0.7818609E-02  0.8138214E-01
        2   -1    0    0  501    0  0.00000000000E+00  0.00000000000E+00  0.22026764523E+04  0.22026764523E+04  0.25500000920E-02 0. -1.
       -2   -1    0    0    0  501  0.00000000000E+00  0.00000000000E+00 -0.13110717273E+04  0.13110717273E+04  0.25500000920E-02 0.  1.
    10030    2    1    2    0    0  0.00000000000E+00  0.00000000000E+00  0.89160472491E+03  0.35137481796E+04  0.33987449572E+04 0.  0.
        2    1    3    3  502    0  0.10699150965E+04 -0.32338174829E+03  0.17691834436E+04  0.20926786963E+04  0.25500000920E-02 0. -1.
       -2    1    3    3    0  502 -0.10699150965E+04  0.32338174829E+03 -0.87757871870E+03  0.14210694833E+04  0.25500000920E-02 0.  1.
</event>
<event>
 5   0  0.4396257E-07  0.3399877E+04  0.7818609E-02  0.8137937E-01
        2   -1    0    0  501    0  0.00000000000E+00  0.00000000000E+00  0.11591356688E+04  0.11591356688E+04  0.25500000920E-02 0.  1.
       -2   -1    0    0    0  501  0.00000000000E+00  0.00000000000E+00 -0.24930562153E+04  0.24930562153E+04  0.25500000920E-02 0. -1.
    10030    2    1    2    0    0  0.00000000000E+00  0.00000000000E+00 -0.13339205465E+04  0.36521918841E+04  0.33998766940E+04 0.  0.
        2    1    3    3  502    0  0.38221941990E+03 -0.77389244979E+03  0.90623533415E+03  0.12515045704E+04  0.25500000920E-02 0.  1.
       -2    1    3    3    0  502 -0.38221941990E+03  0.77389244979E+03 -0.22401558807E+04  0.24006873138E+04  0.25500000920E-02 0. -1.
</event>
<event>
 5   0  0.1523259E-07  0.3417398E+04  0.7818609E-02  0.8133649E-01
       -1   -1    0    0    0  501  0.00000000000E+00  0.00000000000E+00  0.13362856988E+04  0.13362856988E+04  0.50400001928E-02 0.  1.
        1   -1    0    0  501    0  0.00000000000E+00  0.00000000000E+00 -0.21849014159E+04  0.21849014159E+04  0.50400001928E-02 0. -1.
    10030    2    1    2    0    0  0.00000000000E+00  0.00000000000E+00 -0.84861571708E+03  0.35211871147E+04  0.34173981421E+04 0.  0.
        4    1    3    3  502    0  0.10454844623E+04 -0.87027723510E+03 -0.14897484287E+04  0.20173676463E+04  0.12699999809E+01 0. -1.
       -4    1    3    3    0  502 -0.10454844623E+04  0.87027723510E+03  0.64113271160E+03  0.15038194684E+04  0.12699999809E+01 0.  1.
</event>
<event>
 5   0  0.1421875E-07  0.3397275E+04  0.7818609E-02  0.8138575E-01
       -3   -1    0    0    0  501  0.00000000000E+00  0.00000000000E+00  0.29362665360E+04  0.29362665378E+04  0.10100000352E+00 0.  1.
        3   -1    0    0  501    0  0.00000000000E+00  0.00000000000E+00 -0.98266616416E+03  0.98266616935E+03  0.10100000352E+00 0. -1.
    10030    2    1    2    0    0  0.00000000000E+00  0.00000000000E+00  0.19536003719E+04  0.39189327071E+04  0.33972752538E+04 0.  0.
        5    1    3    3  502    0  0.68136994984E+02  0.16210375139E+04  0.15569603568E+04  0.22486780370E+04  0.46999998093E+01 0.  1.
       -5    1    3    3    0  502 -0.68136994984E+02 -0.16210375139E+04  0.39664001511E+03  0.16702546701E+04  0.46999998093E+01 0. -1.
</event>
<event>
 5   0  0.4486226E-07  0.3369513E+04  0.7818609E-02  0.8145430E-01
        2   -1    0    0  501    0  0.00000000000E+00  0.00000000000E+00  0.12332425383E+04  0.12332425383E+04  0.25500000920E-02 0.  1.
       -2   -1    0    0    0  501  0.00000000000E+00  0.00000000000E+00 -0.23015781645E+04  0.23015781645E+04  0.25500000920E-02 0. -1.
    10030    2    1    2    0    0  0.00000000000E+00  0.00000000000E+00 -0.10683356262E+04  0.35348207028E+04  0.33695127824E+04 0.  0.
        1    1    3    3  502    0 -0.27921194927E+03 -0.61491247677E+03  0.10850340967E+04  0.12780358593E+04  0.50400001928E-02 0.  1.
       -1    1    3    3    0  502  0.27921194927E+03  0.61491247677E+03 -0.21533697229E+04  0.22567848435E+04  0.50400001928E-02 0. -1.
</event>
<event>
 5   0  0.4381939E-07  0.3406019E+04  0.7818609E-02  0.8136431E-01
        2   -1    0    0  501    0  0.00000000000E+00  0.00000000000E+00  0.11050148981E+04  0.11050148981E+04  0.25500000920E-02 0.  1.
       -2   -1    0    0    0  501  0.00000000000E+00  0.00000000000E+00 -0.26246171825E+04  0.26246171825E+04  0.25500000920E-02 0. -1.
    10030    2    1    2    0    0  0.00000000000E+00  0.00000000000E+00 -0.15196022845E+04  0.37296320806E+04  0.34060188422E+04 0.  0.
        3    1    3    3  502    0  0.11656703639E+04  0.12393535157E+04 -0.84068796556E+03  0.18977725891E+04  0.10100000352E+00 0.  1.
       -3    1    3    3    0  502 -0.11656703639E+04 -0.12393535157E+04 -0.67891431893E+03  0.18318594916E+04  0.10100000352E+00 0. -1.
</event>
<event>
 5   0  0.1520084E-07  0.3236918E+04  0.7818609E-02  0.8179135E-01
       -1   -1    0    0    0  501  0.00000000000E+00  0.00000000000E+00  0.21571939191E+04  0.21571939191E+04  0.50400001928E-02 0. -1.
        1   -1    0    0  501    0  0.00000000000E+00  0.00000000000E+00 -0.12142673543E+04  0.12142673543E+04  0.50400001928E-02 0.  1.
    10030    2    1    2    0    0  0.00000000000E+00  0.00000000000E+00  0.94292656474E+03  0.33714612734E+04  0.32369183820E+04 0.  0.
        2    1    3    3  502    0 -0.34888902861E+03  0.14158726189E+04  0.12027809499E+04  0.18902647541E+04  0.25500000920E-02 0. -1.
       -2    1    3    3    0  502  0.34888902861E+03 -0.14158726189E+04 -0.25985438516E+03  0.14811965193E+04  0.25500000920E-02 0.  1.
</event>
<event>
 5   0  0.4381939E-07  0.3327879E+04  0.7818609E-02  0.8155838E-01
       -2   -1    0    0    0  501  0.00000000000E+00  0.00000000000E+00  0.15655535985E+04  0.15655535985E+04  0.25500000920E-02 0.  1.
        2   -1    0    0  501    0  0.00000000000E+00  0.00000000000E+00 -0.17685082723E+04  0.17685082723E+04  0.25500000920E-02 0. -1.
    10030    2    1    2    0    0  0.00000000000E+00  0.00000000000E+00 -0.20295467384E+03  0.33340618708E+04  0.33278788978E+04 0.  0.
        3    1    3    3  502    0  0.37951621485E+03 -0.15679254733E+04  0.30704444827E+03  0.16421629489E+04  0.10100000352E+00 0.  1.
       -3    1    3    3    0  502 -0.37951621485E+03  0.15679254733E+04 -0.50999912211E+03  0.16918989219E+04  0.10100000352E+00 0. -1.
</event>
<event>
 5   0  0.4396257E-07  0.3400720E+04  0.7818609E-02  0.8137730E-01
        2   -1    0    0  501    0  0.00000000000E+00  0.00000000000E+00  0.24299718994E+04  0.24299718994E+04  0.25500000920E-02 0. -1.
       -2   -1    0    0    0  501  0.00000000000E+00  0.00000000000E+00 -0.11898181317E+04  0.11898181317E+04  0.25500000920E-02 0.  1.
    10030    2    1    2    0    0  0.00000000000E+00  0.00000000000E+00  0.12401537676E+04  0.36197900311E+04  0.34007202916E+04 0.  0.
        2    1    3    3  502    0  0.14189438008E+04  0.76424777235E+03  0.11969765195E+04  0.20075430146E+04  0.25500000920E-02 0. -1.
       -2    1    3    3    0  502 -0.14189438008E+04 -0.76424777235E+03  0.43177248114E+02  0.16122470165E+04  0.25500000920E-02 0.  1.
</event>
<event>
 5   0  0.4447909E-07  0.3392344E+04  0.7818609E-02  0.8139788E-01
       -2   -1    0    0    0  501  0.00000000000E+00  0.00000000000E+00  0.14796099954E+04  0.14796099954E+04  0.25500000920E-02 0.  1.
        2   -1    0    0  501    0  0.00000000000E+00  0.00000000000E+00 -0.19444308606E+04  0.19444308606E+04  0.25500000920E-02 0. -1.
    10030    2    1    2    0    0  0.00000000000E+00  0.00000000000E+00 -0.46482086522E+03  0.34240408560E+04  0.33923439311E+04 0.  0.
        5    1    3    3  502    0 -0.80012431924E+03  0.81743920894E+03  0.10317180478E+04  0.15404122847E+04  0.46999998093E+01 0.  1.
       -5    1    3    3    0  502  0.80012431924E+03 -0.81743920894E+03 -0.14965389130E+04  0.18836285713E+04  0.46999998093E+01 0. -1.
</event>
<event>
 5   0  0.1421875E-07  0.3395396E+04  0.7818609E-02  0.8139037E-01
       -1   -1    0    0    0  501  0.00000000000E+00  0.00000000000E+00  0.14686903032E+04  0.14686903032E+04  0.50400001928E-02 0.  1.
        1   -1    0    0  501    0  0.00000000000E+00  0.00000000000E+00 -0.19624145163E+04  0.19624145163E+04  0.50400001928E-02 0. -1.
    10030    2    1    2    0    0  0.00000000000E+00  0.00000000000E+00 -0.49372421301E+03  0.34311048195E+04  0.33953963957E+04 0.  0.
        5    1    3    3  502    0 -0.15875547803E+04  0.56363860181E+03 -0.34561161130E+02  0.16850030320E+04  0.46999998093E+01 0. -1.
       -5    1    3    3    0  502  0.15875547803E+04 -0.56363860181E+03 -0.45916305189E+03  0.17461017875E+04  0.46999998093E+01 0.  1.
</event>
<event>
 5   0  0.1421875E-07  0.3379388E+04  0.7818609E-02  0.8142984E-01
       -1   -1    0    0    0  501  0.00000000000E+00  0.00000000000E+00  0.11782293414E+04  0.11782293414E+04  0.50400001928E-02 0. -1.
        1   -1    0    0  501    0  0.00000000000E+00  0.00000000000E+00 -0.24231836355E+04  0.24231836355E+04  0.50400001928E-02 0.  1.
    10030    2    1    2    0    0  0.00000000000E+00  0.00000000000E+00 -0.12449542941E+04  0.36014129769E+04  0.33793881452E+04 0.  0.
        5    1    3    3  502    0 -0.24434219565E+03 -0.12771457004E+04 -0.17723665056E+04  0.21982059432E+04  0.46999998093E+01 0.  1.
       -5    1    3    3    0  502  0.24434219565E+03  0.12771457004E+04  0.52741221155E+03  0.14032070337E+04  0.46999998093E+01 0. -1.
</event>
<event>
 5   0  0.4486226E-07  0.3397362E+04  0.7818609E-02  0.8138554E-01
       -2   -1    0    0    0  501  0.00000000000E+00  0.00000000000E+00  0.12217166578E+04  0.12217166578E+04  0.25500000920E-02 0.  1.
        2   -1    0    0  501    0  0.00000000000E+00  0.00000000000E+00 -0.23618542699E+04  0.23618542699E+04  0.25500000920E-02 0. -1.
    10030    2    1    2    0    0  0.00000000000E+00  0.00000000000E+00 -0.11401376121E+04  0.35835709277E+04  0.33973617439E+04 0.  0.
        1    1    3    3  502    0 -0.10935508724E+03  0.38269529579E+03  0.11718381030E+04  0.12375858613E+04  0.50400001928E-02 0.  1.
       -1    1    3    3    0  502  0.10935508724E+03 -0.38269529579E+03 -0.23119757151E+04  0.23459850664E+04  0.50400001928E-02 0. -1.
</event>
<event>
 5   0  0.1523259E-07  0.3387309E+04  0.7818609E-02  0.8141028E-01
        1   -1    0    0  501    0  0.00000000000E+00  0.00000000000E+00  0.24114687913E+04  0.24114687913E+04  0.50400001928E-02 0. -1.
       -1   -1    0    0    0  501  0.00000000000E+00  0.00000000000E+00 -0.11895094566E+04  0.11895094566E+04  0.50400001928E-02 0.  1.
    10030    2    1    2    0    0  0.00000000000E+00  0.00000000000E+00  0.12219593347E+04  0.36009782479E+04  0.33873086258E+04 0.  0.
        4    1    3    3  502    0  0.70474201944E+03 -0.14636372699E+04  0.10162375101E+03  0.16276438098E+04  0.12699999809E+01 0.  1.
       -4    1    3    3    0  502 -0.70474201944E+03  0.14636372699E+04  0.11203355837E+04  0.19733344381E+04  0.12699999809E+01 0. -1.
</event>
<event>
 5   0  0.4396257E-07  0.3391930E+04  0.7818609E-02  0.8139890E-01
       -2   -1    0    0    0  501  0.00000000000E+00  0.00000000000E+00  0.13032416192E+04  0.13032416192E+04  0.25500000920E-02 0.  1.
        2   -1    0    0  501    0  0.00000000000E+00  0.00000000000E+00 -0.22070333010E+04  0.22070333010E+04  0.25500000920E-02 0. -1.
    10030    2    1    2    0    0  0.00000000000E+00  0.00000000000E+00 -0.90379168177E+03  0.35102749202E+04  0.33919302191E+04 0.  0.
        2    1    3    3  502    0 -0.13192877747E+03 -0.14309299782E+04 -0.13840623254E+04  0.19951426830E+04  0.25500000920E-02 0. -1.
       -2    1    3    3    0  502  0.13192877747E+03  0.14309299782E+04  0.48027064366E+03  0.15151322372E+04  0.25500000920E-02 0.  1.
</event>
<event>
 5   0  0.1473755E-07  0.3420037E+04  0.7818609E-02  0.8133006E-01
       -1   -1    0    0    0  501  0.00000000000E+00  0.00000000000E+00  0.13621418332E+04  0.13621418332E+04  0.50400001928E-02 0.  1.
        1   -1    0    0  501    0  0.00000000000E+00  0.00000000000E+00 -0.21467393746E+04  0.21467393746E+04  0.50400001928E-02 0. -1.
    10030    2    1    2    0    0  0.00000000000E+00  0.00000000000E+00 -0.78459754144E+03  0.35088812078E+04  0.34200371384E+04 0.  0.
        1    1    3    3  502    0  0.12570182618E+04 -0.10020892497E+04 -0.99044078716E+03  0.18881871538E+04  0.50400001928E-02 0. -1.
       -1    1    3    3    0  502 -0.12570182618E+04  0.10020892497E+04  0.20584324571E+03  0.16206940540E+04  0.50400001928E-02 0.  1.
</event>
<event>
 5   0  0.4521737E-07  0.3404369E+04  0.7818609E-02  0.8136835E-01
        2   -1    0    0  501    0  0.00000000000E+00  0.00000000000E+00  0.19291878233E+04  0.19291878233E+04  0.25500000920E-02 0.  1.
       -2   -1    0    0    0  501  0.00000000000E+00  0.00000000000E+00 -0.15018917529E+04  0.15018917529E+04  0.25500000920E-02 0. -1.
    10030    2    1    2    0    0  0.00000000000E+00  0.00000000000E+00  0.42729607032E+03  0.34310795762E+04  0.34043685356E+04 0.  0.
        4    1    3    3  502    0 -0.14138750179E+04 -0.67912091228E+03  0.88003317482E+03  0.17985293385E+04  0.12699999809E+01 0.  1.
       -4    1    3    3    0  502  0.14138750179E+04  0.67912091228E+03 -0.45273710451E+03  0.16325502377E+04  0.12699999809E+01 0. -1.
</event>
<event>
 5   0  0.1523259E-07  0.3394063E+04  0.7818609E-02  0.8139365E-01
        1   -1    0    0  501    0  0.00000000000E+00  0.00000000000E+00  0.17058310711E+04  0.17058310711E+04  0.50400001928E-02 0. -1.
       -1   -1    0    0    0  501  0.00000000000E+00  0.00000000000E+00 -0.16882770423E+04  0.16882770423E+04  0.50400001928E-02 0.  1.
    10030    2    1    2    0    0  0.00000000000E+00  0.00000000000E+00  0.17554028760E+02  0.33941081134E+04  0.33940627191E+04 0.  0.
        4    1    3    3  502    0 -0.64490605756E+03 -0.99675767610E+03  0.12214284355E+04  0.17033257832E+04  0.12699999809E+01 0. -1.
       -4    1    3    3    0  502  0.64490605756E+03  0.99675767610E+03 -0.12038744067E+04  0.16907823301E+04  0.12699999809E+01 0.  1.
</event>
<event>
 5   0  0.4447909E-07  0.3416751E+04  0.7818609E-02  0.8133807E-01
        2   -1    0    0  501    0  0.00000000000E+00  0.00000000000E+00  0.26251713531E+04  0.26251713531E+04  0.25500000920E-02 0. -1.
       -2   -1    0    0    0  501  0.00000000000E+00  0.00000000000E+00 -0.11117545994E+04  0.11117545994E+04  0.25500000920E-02 0.  1.
    10030    2    1    2    0    0  0.00000000000E+00  0.00000000000E+00  0.15134167537E+04  0.37369259524E+04  0.34167506938E+04 0.  0.
        5    1    3    3  502    0 -0.48923967619E+03 -0.90648008451E+03 -0.73389205858E+03  0.12647850600E+04  0.46999998093E+01 0.  1.
       -5    1    3    3    0  502  0.48923967619E+03  0.90648008451E+03  0.22473088123E+04  0.24721408924E+04  0.46999998093E+01 0. -1.
</event>
<event>
 5   0  0.1523259E-07  0.3403250E+04  0.7818609E-02  0.8137109E-01
        1   -1    0    0  501    0  0.00000000000E+00  0.00000000000E+00  0.28529031552E+04  0.28529031552E+04  0.50400001928E-02 0. -1.
       -1   -1    0    0    0  501  0.00000000000E+00  0.00000000000E+00 -0.10149407566E+04  0.10149407566E+04  0.50400001928E-02 0.  1.
    10030    2    1    2    0    0  0.00000000000E+00  0.00000000000E+00  0.18379623986E+04  0.38678439118E+04  0.34032500272E+04 0.  0.
        4    1    3    3  502    0 -0.13982540078E+04 -0.82246368088E+03  0.15028946785E+04  0.22113920512E+04  0.12699999809E+01 0. -1.
       -4    1    3    3    0  502  0.13982540078E+04  0.82246368088E+03  0.33506772017E+03  0.16564518606E+04  0.12699999809E+01 0.  1.
</event>
<event>
 5   0  0.1421875E-07  0.3382929E+04  0.7818609E-02  0.8142109E-01
        1   -1    0    0  501    0  0.00000000000E+00  0.00000000000E+00  0.10140021711E+04  0.10140021711E+04  0.50400001928E-02 0. -1.
       -1   -1    0    0    0  501  0.00000000000E+00  0.00000000000E+00 -0.28215437965E+04  0.28215437965E+04  0.50400001928E-02 0.  1.
    10030    2    1    2    0    0  0.00000000000E+00  0.00000000000E+00 -0.18075416255E+04  0.38355459676E+04  0.33829286339E+04 0.  0.
        5    1    3    3  502    0  0.12878099619E+04 -0.61680202466E+03  0.12425651485E+03  0.14333042270E+04  0.46999998093E+01 0. -1.
       -5    1    3    3    0  502 -0.12878099619E+04  0.61680202466E+03 -0.19317981403E+04  0.24022417407E+04  0.46999998093E+01 0.  1.
</event>
<event>
 5   0  0.4486226E-07  0.3398822E+04  0.7818609E-02  0.8138196E-01
        2   -1    0    0  501    0  0.00000000000E+00  0.00000000000E+00  0.22336650432E+04  0.22336650432E+04  0.25500000920E-02 0.  1.
       -2   -1    0    0    0  501  0.00000000000E+00  0.00000000000E+00 -0.12929412398E+04  0.12929412398E+04  0.25500000920E-02 0. -1.
    10030    2    1    2    0    0  0.00000000000E+00  0.00000000000E+00  0.94072380346E+03  0.35266062830E+04  0.33988219431E+04 0.  0.
        1    1    3    3  502    0 -0.91198391604E+03 -0.11794683776E+04 -0.37585993079E+03  0.15375730891E+04  0.50400001928E-02 0. -1.
       -1    1    3    3    0  502  0.91198391604E+03  0.11794683776E+04  0.13165837342E+04  0.19890331938E+04  0.50400001928E-02 0.  1.
</event>
<event>
 5   0  0.1421875E-07  0.3496042E+04  0.7818609E-02  0.8114729E-01
        1   -1    0    0  501    0  0.00000000000E+00  0.00000000000E+00  0.25509932095E+04  0.25509932095E+04  0.50400001928E-02 0.  1.
       -1   -1    0    0    0  501  0.00000000000E+00  0.00000000000E+00 -0.11977992860E+04  0.11977992860E+04  0.50400001928E-02 0. -1.
    10030    2    1    2    0    0  0.00000000000E+00  0.00000000000E+00  0.13531939235E+04  0.37487924956E+04  0.34960422452E+04 0.  0.
        5    1    3    3  502    0 -0.25536375275E+03  0.16506443866E+04  0.12385123285E+03  0.16748727579E+04  0.46999998093E+01 0. -1.
       -5    1    3    3    0  502  0.25536375275E+03 -0.16506443866E+04  0.12293426906E+04  0.20739197377E+04  0.46999998093E+01 0.  1.
</event>
<event>
 5   0  0.4486226E-07  0.3400289E+04  0.7818609E-02  0.8137835E-01
        2   -1    0    0  501    0  0.00000000000E+00  0.00000000000E+00  0.20175082063E+04  0.20175082063E+04  0.25500000920E-02 0.  1.
       -2   -1    0    0    0  501  0.00000000000E+00  0.00000000000E+00 -0.14327038296E+04  0.14327038296E+04  0.25500000920E-02 0. -1.
    10030    2    1    2    0    0  0.00000000000E+00  0.00000000000E+00  0.58480437668E+03  0.34502120359E+04  0.34002892427E+04 0.  0.
        1    1    3    3  502    0 -0.60880928622E+03  0.13559038816E+04  0.11299713517E+04  0.18670723978E+04  0.50400001928E-02 0.  1.
       -1    1    3    3    0  502  0.60880928622E+03 -0.13559038816E+04 -0.54516697504E+03  0.15831396381E+04  0.50400001928E-02 0. -1.
</event>
<event>
 5   0  0.1435806E-07  0.3385168E+04  0.7818609E-02  0.8141556E-01
       -1   -1    0    0    0  501  0.00000000000E+00  0.00000000000E+00  0.19316519872E+04  0.19316519872E+04  0.50400001928E-02 0. -1.
        1   -1    0    0  501    0  0.00000000000E+00  0.00000000000E+00 -0.14831041438E+04  0.14831041438E+04  0.50400001928E-02 0.  1.
    10030    2    1    2    0    0  0.00000000000E+00  0.00000000000E+00  0.44854784334E+03  0.34147561310E+04  0.33851682775E+04 0.  0.
        3    1    3    3  502    0  0.11872728415E+04  0.78273238983E+03 -0.70165653789E+03  0.15857517781E+04  0.10100000352E+00 0.  1.
       -3    1    3    3    0  502 -0.11872728415E+04 -0.78273238983E+03  0.11502043812E+04  0.18290043530E+04  0.10100000352E+00 0. -1.
</event>
<event>
 5   0  0.1421875E-07  0.3377903E+04  0.7818609E-02  0.8143351E-01
       -1   -1    0    0    0  501  0.00000000000E+00  0.00000000000E+00  0.12961243147E+04  0.12961243148E+04  0.50400001928E-02 0. -1.
        1   -1    0    0  501    0  0.00000000000E+00  0.00000000000E+00 -0.22008359867E+04  0.22008359867E+04  0.50400001928E-02 0.  1.
    10030    2    1    2    0    0  0.00000000000E+00  0.00000000000E+00 -0.90471167192E+03  0.34969603014E+04  0.33779029205E+04 0.  0.
        5    1    3    3  502    0 -0.54642977056E+03 -0.92965218739E+03  0.89334294721E+03  0.14003293880E+04  0.46999998093E+01 0. -1.
       -5    1    3    3    0  502  0.54642977056E+03  0.92965218739E+03 -0.17980546191E+04  0.20966309134E+04  0.46999998093E+01 0.  1.
</event>
<event>
 5   0  0.4521737E-07  0.3404051E+04  0.7818609E-02  0.8136913E-01
       -2   -1    0    0    0  501  0.00000000000E+00  0.00000000000E+00  0.12275544790E+04  0.12275544790E+04  0.25500000920E-02 0. -1.
        2   -1    0    0  501    0  0.00000000000E+00  0.00000000000E+00 -0.23598881172E+04  0.23598881172E+04  0.25500000920E-02 0.  1.
    10030    2    1    2    0    0  0.00000000000E+00  0.00000000000E+00 -0.11323336382E+04  0.35874425963E+04  0.34040512501E+04 0.  0.
        4    1    3    3  502    0  0.45664456105E+03 -0.13172800306E+04  0.46271837564E+03  0.14689659091E+04  0.12699999809E+01 0. -1.
       -4    1    3    3    0  502 -0.45664456105E+03  0.13172800306E+04 -0.15950520139E+04  0.21184766871E+04  0.12699999809E+01 0.  1.
</event>
<event>
 5   0  0.4396257E-07  0.3404583E+04  0.7818609E-02  0.8136782E-01
        2   -1    0    0  501    0  0.00000000000E+00  0.00000000000E+00  0.24903186098E+04  0.24903186098E+04  0.25500000920E-02 0. -1.
       -2   -1    0    0    0  501  0.00000000000E+00  0.00000000000E+00 -0.11636250210E+04  0.11636250210E+04  0.25500000920E-02 0.  1.
    10030    2    1    2    0    0  0.00000000000E+00  0.00000000000E+00  0.13266935888E+04  0.36539436308E+04  0.34045834075E+04 0.  0.
        2    1    3    3  502    0 -0.67023829014E+03 -0.51739055975E+03 -0.92159828033E+03  0.12515013972E+04  0.25500000920E-02 0.  1.
       -2    1    3    3    0  502  0.67023829014E+03  0.51739055975E+03  0.22482918691E+04  0.24024422336E+04  0.25500000920E-02 0. -1.
</event>
<event>
 5   0  0.1473755E-07  0.3383057E+04  0.7818609E-02  0.8142077E-01
       -1   -1    0    0    0  501  0.00000000000E+00  0.00000000000E+00  0.13773552749E+04  0.13773552749E+04  0.50400001928E-02 0.  1.
        1   -1    0    0  501    0  0.00000000000E+00  0.00000000000E+00 -0.20773642804E+04  0.20773642804E+04  0.50400001928E-02 0. -1.
    10030    2    1    2    0    0  0.00000000000E+00  0.00000000000E+00 -0.70000900546E+03  0.34547195553E+04  0.33830569901E+04 0.  0.
        1    1    3    3  502    0 -0.48611748300E+03 -0.13119221304E+04 -0.13208366788E+04  0.19240736513E+04  0.50400001928E-02 0. -1.
       -1    1    3    3    0  502  0.48611748300E+03  0.13119221304E+04  0.62082767332E+03  0.15306459040E+04  0.50400001928E-02 0.  1.
</event>
<event>
 5   0  0.4447909E-07  0.3401062E+04  0.7818609E-02  0.8137646E-01
       -2   -1    0    0    0  501  0.00000000000E+00  0.00000000000E+00  0.18334309542E+04  0.18334309542E+04  0.25500000920E-02 0. -1.
        2   -1    0    0  501    0  0.00000000000E+00  0.00000000000E+00 -0.15772645564E+04  0.15772645564E+04  0.25500000920E-02 0.  1.
    10030    2    1    2    0    0  0.00000000000E+00  0.00000000000E+00  0.25616639771E+03  0.34106955106E+04  0.34010619875E+04 0.  0.
        5    1    3    3  502    0  0.12516343513E+04  0.11481079692E+04  0.43922233716E+02  0.16990266952E+04  0.46999998093E+01 0. -1.
       -5    1    3    3    0  502 -0.12516343513E+04 -0.11481079692E+04  0.21224416399E+03  0.17116688154E+04  0.46999998093E+01 0.  1.
</event>
<event>
 5   0  0.1473755E-07  0.3396714E+04  0.7818609E-02  0.8138713E-01
        1   -1    0    0  501    0  0.00000000000E+00  0.00000000000E+00  0.95799044331E+03  0.95799044332E+03  0.50400001928E-02 0. -1.
       -1   -1    0    0    0  501  0.00000000000E+00  0.00000000000E+00 -0.30109026446E+04  0.30109026446E+04  0.50400001928E-02 0.  1.
    10030    2    1    2    0    0  0.00000000000E+00  0.00000000000E+00 -0.20529122013E+04  0.39688930879E+04  0.33967136820E+04 0.  0.
        1    1    3    3  502    0 -0.21110777913E+02 -0.85349825637E+02 -0.30082416943E+04  0.30095262666E+04  0.50400001928E-02 0.  1.
       -1    1    3    3    0  502  0.21110777913E+02  0.85349825637E+02  0.95532949302E+03  0.95936682136E+03  0.50400001928E-02 0. -1.
</event>
<event>
 5   0  0.4521737E-07  0.3409287E+04  0.7818609E-02  0.8135631E-01
       -2   -1    0    0    0  501  0.00000000000E+00  0.00000000000E+00  0.15315605018E+04  0.15315605018E+04  0.25500000920E-02 0.  1.
        2   -1    0    0  501    0  0.00000000000E+00  0.00000000000E+00 -0.18972864849E+04  0.18972864849E+04  0.25500000920E-02 0. -1.
    10030    2    1    2    0    0  0.00000000000E+00  0.00000000000E+00 -0.36572598308E+03  0.34288469867E+04  0.34092867529E+04 0.  0.
        4    1    3    3  502    0 -0.11752170703E+04 -0.74711727018E+03 -0.11716046177E+04  0.18198841641E+04  0.12699999809E+01 0. -1.
       -4    1    3    3    0  502  0.11752170703E+04  0.74711727018E+03  0.80587863458E+03  0.16089628226E+04  0.12699999809E+01 0.  1.
</event>
<event>
 5   0  0.1520084E-07  0.3390998E+04  0.7818609E-02  0.8140119E-01
       -1   -1    0    0    0  501  0.00000000000E+00  0.00000000000E+00  0.22920609447E+04  0.22920609447E+04  0.50400001928E-02 0. -1.
        1   -1    0    0  501    0  0.00000000000E+00  0.00000000000E+00 -0.12542063316E+04  0.12542063316E+04  0.50400001928E-02 0.  1.
    10030    2    1    2    0    0  0.00000000000E+00  0.00000000000E+00  0.10378546131E+04  0.35462672764E+04  0.33909982892E+04 0.  0.
        2    1    3    3  502    0 -0.35592197666E+03  0.10545018130E+04 -0.81872696844E+03  0.13816542172E+04  0.25500000920E-02 0.  1.
       -2    1    3    3    0  502  0.35592197666E+03 -0.10545018130E+04  0.18565815815E+04  0.21646130592E+04  0.25500000920E-02 0. -1.
</event>
<event>
 5   0  0.1520084E-07  0.3406208E+04  0.7818609E-02  0.8136384E-01
        1   -1    0    0  501    0  0.00000000000E+00  0.00000000000E+00  0.18659691641E+04  0.18659691641E+04  0.50400001928E-02 0. -1.
       -1   -1    0    0    0  501  0.00000000000E+00  0.00000000000E+00 -0.15544539131E+04  0.15544539131E+04  0.50400001928E-02 0.  1.
    10030    2    1    2    0    0  0.00000000000E+00  0.00000000000E+00  0.31151525102E+03  0.34204230773E+04  0.34062079026E+04 0.  0.
        2    1    3    3  502    0  0.86825085227E+03 -0.18012401918E+03 -0.13043597050E+04  0.15772312592E+04  0.25500000920E-02 0.  1.
       -2    1    3    3    0  502 -0.86825085227E+03  0.18012401918E+03  0.16158749561E+04  0.18431918181E+04  0.25500000920E-02 0. -1.
</event>
<event>
 5   0  0.4396257E-07  0.3390174E+04  0.7818609E-02  0.8140322E-01
        2   -1    0    0  501    0  0.00000000000E+00  0.00000000000E+00  0.15324804391E+04  0.15324804391E+04  0.25500000920E-02 0.  1.
       -2   -1    0    0    0  501  0.00000000000E+00  0.00000000000E+00 -0.18749472426E+04  0.18749472426E+04  0.25500000920E-02 0. -1.
    10030    2    1    2    0    0  0.00000000000E+00  0.00000000000E+00 -0.34246680350E+03  0.34074276818E+04  0.33901740214E+04 0.  0.
        2    1    3    3  502    0 -0.65580659675E+03 -0.15150973809E+04 -0.55752991542E+03  0.17425389443E+04  0.25500000920E-02 0.  1.
       -2    1    3    3    0  502  0.65580659675E+03  0.15150973809E+04  0.21506311192E+03  0.16648887374E+04  0.25500000920E-02 0. -1.
</event>
<event>
 5   0  0.1421875E-07  0.3305689E+04  0.7818609E-02  0.8161449E-01
       -1   -1    0    0    0  501  0.00000000000E+00  0.00000000000E+00  0.12273486116E+04  0.12273486116E+04  0.50400001928E-02 0. -1.
        1   -1    0    0  501    0  0.00000000000E+00  0.00000000000E+00 -0.22258507443E+04  0.22258507443E+04  0.50400001928E-02 0.  1.
    10030    2    1    2    0    0  0.00000000000E+00  0.00000000000E+00 -0.99850213271E+03  0.34531993559E+04  0.33056889271E+04 0.  0.
        5    1    3    3  502    0  0.11973450692E+04 -0.77165653911E+03  0.37647950054E+03  0.14733797655E+04  0.46999998093E+01 0. -1.
       -5    1    3    3    0  502 -0.11973450692E+04  0.77165653911E+03 -0.13749816333E+04  0.19798195905E+04  0.46999998093E+01 0.  1.
</event>
<event>
 5   0  0.1473755E-07  0.3396453E+04  0.7818609E-02  0.8138777E-01
        1   -1    0    0  501    0  0.00000000000E+00  0.00000000000E+00  0.19665629651E+04  0.19665629651E+04  0.50400001928E-02 0.  1.
       -1   -1    0    0    0  501  0.00000000000E+00  0.00000000000E+00 -0.14665046131E+04  0.14665046131E+04  0.50400001928E-02 0. -1.
    10030    2    1    2    0    0  0.00000000000E+00  0.00000000000E+00  0.50005835193E+03  0.34330675782E+04  0.33964532444E+04 0.  0.
        1    1    3    3  502    0 -0.14132787367E+04  0.55842724722E+03 -0.51628344841E+03  0.16049131993E+04  0.50400001928E-02 0. -1.
       -1    1    3    3    0  502  0.14132787367E+04 -0.55842724722E+03  0.10163418003E+04  0.18281543789E+04  0.50400001928E-02 0.  1.
</event>
<event>
 5   0  0.1421875E-07  0.3389776E+04  0.7818609E-02  0.8140420E-01
       -1   -1    0    0    0  501  0.00000000000E+00  0.00000000000E+00  0.15556748366E+04  0.15556748366E+04  0.50400001928E-02 0. -1.
        1   -1    0    0  501    0  0.00000000000E+00  0.00000000000E+00 -0.18465592626E+04  0.18465592626E+04  0.50400001928E-02 0.  1.
    10030    2    1    2    0    0  0.00000000000E+00  0.00000000000E+00 -0.29088442596E+03  0.34022340992E+04  0.33897762635E+04 0.  0.
        5    1    3    3  502    0 -0.31152187298E+02  0.11830909399E+04  0.10722556638E+04  0.15970062396E+04  0.46999998093E+01 0. -1.
       -5    1    3    3    0  502  0.31152187298E+02 -0.11830909399E+04 -0.13631400898E+04  0.18052278596E+04  0.46999998093E+01 0.  1.
</event>
<event>
 5   0  0.4396257E-07  0.3401182E+04  0.7818609E-02  0.8137616E-01
        2   -1    0    0  501    0  0.00000000000E+00  0.00000000000E+00  0.17024027129E+04  0.17024027129E+04  0.25500000920E-02 0.  1.
       -2   -1    0    0    0  501  0.00000000000E+00  0.00000000000E+00 -0.16987809689E+04  0.16987809689E+04  0.25500000920E-02 0. -1.
    10030    2    1    2    0    0  0.00000000000E+00  0.00000000000E+00  0.36217440543E+01  0.34011836818E+04  0.34011817535E+04 0.  0.
        2    1    3    3  502    0  0.79492761807E+03  0.11018704240E+04 -0.10209218237E+04  0.16995027859E+04  0.25500000920E-02 0. -1.
       -2    1    3    3    0  502 -0.79492761807E+03 -0.11018704240E+04  0.10245435677E+04  0.17016808959E+04  0.25500000920E-02 0.  1.
</event>
<event>
 5   0  0.4396257E-07  0.3402543E+04  0.7818609E-02  0.8137282E-01
       -2   -1    0    0    0  501  0.00000000000E+00  0.00000000000E+00  0.23432981553E+04  0.23432981553E+04  0.25500000920E-02 0. -1.
        2   -1    0    0  501    0  0.00000000000E+00  0.00000000000E+00 -0.12351502161E+04  0.12351502161E+04  0.25500000920E-02 0.  1.
    10030    2    1    2    0    0  0.00000000000E+00  0.00000000000E+00  0.11081479393E+04  0.35784483714E+04  0.34025432975E+04 0.  0.
        2    1    3    3  502    0 -0.10333062129E+04  0.75367663209E+03 -0.62578649976E+03  0.14238535524E+04  0.25500000920E-02 0.  1.
       -2    1    3    3    0  502  0.10333062129E+04 -0.75367663209E+03  0.17339344390E+04  0.21545948190E+04  0.25500000920E-02 0. -1.
</event>
<event>
 5   0  0.1473755E-07  0.3398736E+04  0.7818609E-02  0.8138217E-01
        1   -1    0    0  501    0  0.00000000000E+00  0.00000000000E+00  0.10789360810E+04  0.10789360810E+04  0.50400001928E-02 0. -1.
       -1   -1    0    0    0  501  0.00000000000E+00  0.00000000000E+00 -0.26765733027E+04  0.26765733027E+04  0.50400001928E-02 0.  1.
    10030    2    1    2    0    0  0.00000000000E+00  0.00000000000E+00 -0.15976372217E+04  0.37555093838E+04  0.33987359473E+04 0.  0.
        1    1    3    3  502    0  0.11422862387E+04  0.21433264591E+03 -0.21687594301E+04  0.24605433953E+04  0.50400001928E-02 0.  1.
       -1    1    3    3    0  502 -0.11422862387E+04 -0.21433264591E+03  0.57112220846E+03  0.12949659885E+04  0.50400001928E-02 0. -1.
</event>
<event>
 5   0  0.4381939E-07  0.3418785E+04  0.7818609E-02  0.8133311E-01
       -2   -1    0    0    0  501  0.00000000000E+00  0.00000000000E+00  0.16706899414E+04  0.16706899414E+04  0.25500000920E-02 0. -1.
        2   -1    0    0  501    0  0.00000000000E+00  0.00000000000E+00 -0.17489912057E+04  0.17489912057E+04  0.25500000920E-02 0.  1.
    10030    2    1    2    0    0  0.00000000000E+00  0.00000000000E+00 -0.78301264269E+02  0.34196811471E+04  0.34187845881E+04 0.  0.
        3    1    3    3  502    0  0.86955093747E+03 -0.13062531661E+04  0.63896951090E+03  0.16943134930E+04  0.10100000352E+00 0. -1.
       -3    1    3    3    0  502 -0.86955093747E+03  0.13062531661E+04 -0.71727077517E+03  0.17253676541E+04  0.10100000352E+00 0.  1.
</event>
<event>
 5   0  0.4381939E-07  0.3400040E+04  0.7818609E-02  0.8137896E-01
        2   -1    0    0  501    0  0.00000000000E+00  0.00000000000E+00  0.24112837113E+04  0.24112837113E+04  0.25500000920E-02 0. -1.
       -2   -1    0    0    0  501  0.00000000000E+00  0.00000000000E+00 -0.11985601005E+04  0.11985601005E+04  0.25500000920E-02 0.  1.
    10030    2    1    2    0    0  0.00000000000E+00  0.00000000000E+00  0.12127236108E+04  0.36098438118E+04  0.34000402629E+04 0.  0.
        3    1    3    3  502    0  0.42361694470E+03  0.12520899533E+04 -0.52866511804E+03  0.14236106856E+04  0.10100000352E+00 0.  1.
       -3    1    3    3    0  502 -0.42361694470E+03 -0.12520899533E+04  0.17413887289E+04  0.21862331262E+04  0.10100000352E+00 0. -1.
</event>
<event>
 5   0  0.4521737E-07  0.3421880E+04  0.7818609E-02  0.8132557E-01
        2   -1    0    0  501    0  0.00000000000E+00  0.00000000000E+00  0.19224858475E+04  0.19224858475E+04  0.25500000920E-02 0.  1.
       -2   -1    0    0    0  501  0.00000000000E+00  0.00000000000E+00 -0.15226722643E+04  0.15226722643E+04  0.25500000920E-02 0. -1.
    10030    2    1    2    0    0  0.00000000000E+00  0.00000000000E+00  0.39981358323E+03  0.34451581118E+04  0.34218801139E+04 0.  0.
        4    1    3    3  502    0 -0.12207240913E+04  0.11894017345E+04  0.35082806827E+03  0.17400936008E+04  0.12699999809E+01 0. -1.
       -4    1    3    3    0  502  0.12207240913E+04 -0.11894017345E+04  0.48985514959E+02  0.17050645110E+04  0.12699999809E+01 0.  1.
</event>
<event>
 5   0  0.1523259E-07  0.3506323E+04  0.7818609E-02  0.8112293E-01
        1   -1    0    0  501    0  0.00000000000E+00  0.00000000000E+00  0.25041036465E+04  0.25041036465E+04  0.50400001928E-02 0.  1.
       -1   -1    0    0    0  501  0.00000000000E+00  0.00000000000E+00 -0.12274156058E+04  0.12274156058E+04  0.50400001928E-02 0. -1.
    10030    2    1    2    0    0  0.00000000000E+00  0.00000000000E+00  0.12766880407E+04  0.37315192523E+04  0.35063233703E+04 0.  0.
        4    1    3    3  502    0 -0.66058629285E+03 -0.15559373003E+04  0.14344001940E+03  0.16964350223E+04  0.12699999809E+01 0. -1.
       -4    1    3    3    0  502  0.66058629285E+03  0.15559373003E+04  0.11332480213E+04  0.20350842300E+04  0.12699999809E+01 0.  1.
</event>
<event>
 5   0  0.1523259E-07  0.3205862E+04  0.7818609E-02  0.8187271E-01
       -1   -1    0    0    0  501  0.00000000000E+00  0.00000000000E+00  0.86005530755E+03  0.86005530756E+03  0.50400001928E-02 0.  1.
        1   -1    0    0  501    0  0.00000000000E+00  0.00000000000E+00 -0.29874685658E+04  0.29874685658E+04  0.50400001928E-02 0. -1.
    10030    2    1    2    0    0  0.00000000000E+00  0.00000000000E+00 -0.21274132582E+04  0.38475238733E+04  0.32058622529E+04 0.  0.
        4    1    3    3  502    0  0.40901829597E+03  0.14625619863E+03 -0.29154840214E+04  0.29476661164E+04  0.12699999809E+01 0. -1.
       -4    1    3    3    0  502 -0.40901829597E+03 -0.14625619863E+03  0.78807076314E+03  0.89985775693E+03  0.12699999809E+01 0.  1.
</event>
<event>
 5   0  0.4447909E-07  0.3390720E+04  0.7818609E-02  0.8140188E-01
        2   -1    0    0  501    0  0.00000000000E+00  0.00000000000E+00  0.12125782062E+04  0.12125782062E+04  0.25500000920E-02 0.  1.
       -2   -1    0    0    0  501  0.00000000000E+00  0.00000000000E+00 -0.23703588853E+04  0.23703588853E+04  0.25500000920E-02 0. -1.
    10030    2    1    2    0    0  0.00000000000E+00  0.00000000000E+00 -0.11577806791E+04  0.35829370916E+04  0.33907199975E+04 0.  0.
        5    1    3    3  502    0  0.97178551374E+03 -0.12304295533E+04 -0.12603520142E+04  0.20116742430E+04  0.46999998093E+01 0. -1.
       -5    1    3    3    0  502 -0.97178551374E+03  0.12304295533E+04  0.10257133505E+03  0.15712628486E+04  0.46999998093E+01 0.  1.
</event>
<event>
 5   0  0.1523259E-07  0.3393081E+04  0.7818609E-02  0.8139607E-01
        1   -1    0    0  501    0  0.00000000000E+00  0.00000000000E+00  0.20836238753E+04  0.20836238753E+04  0.50400001928E-02 0. -1.
       -1   -1    0    0    0  501  0.00000000000E+00  0.00000000000E+00 -0.13813671387E+04  0.13813671387E+04  0.50400001928E-02 0.  1.
    10030    2    1    2    0    0  0.00000000000E+00  0.00000000000E+00  0.70225673657E+03  0.34649910140E+04  0.33930809308E+04 0.  0.
        4    1    3    3  502    0  0.57885743626E+03  0.14531371453E+04 -0.31972981559E+03  0.15965313221E+04  0.12699999809E+01 0.  1.
       -4    1    3    3    0  502 -0.57885743626E+03 -0.14531371453E+04  0.10219865522E+04  0.18684596919E+04  0.12699999809E+01 0. -1.
</event>
<event>
 5   0  0.4381939E-07  0.3235013E+04  0.7818609E-02  0.8179631E-01
        2   -1    0    0  501    0  0.00000000000E+00  0.00000000000E+00  0.19098796480E+04  0.19098796480E+04  0.25500000920E-02 0. -1.
       -2   -1    0    0    0  501  0.00000000000E+00  0.00000000000E+00 -0.13698910751E+04  0.13698910751E+04  0.25500000920E-02 0.  1.
    10030    2    1    2    0    0  0.00000000000E+00  0.00000000000E+00  0.53998857297E+03  0.32797707231E+04  0.32350128805E+04 0.  0.
        3    1    3    3  502    0 -0.72440298839E+02 -0.12176648038E+04  0.13469394800E+04  0.18171959565E+04  0.10100000352E+00 0. -1.
       -3    1    3    3    0  502  0.72440298839E+02  0.12176648038E+04 -0.80695090705E+03  0.14625747666E+04  0.10100000352E+00 0.  1.
</event>
<event>
 5   0  0.4381939E-07  0.3400570E+04  0.7818609E-02  0.8137766E-01
        2   -1    0    0  501    0  0.00000000000E+00  0.00000000000E+00  0.16029962266E+04  0.16029962266E+04  0.25500000920E-02 0.  1.
       -2   -1    0    0    0  501  0.00000000000E+00  0.00000000000E+00 -0.18034782952E+04  0.18034782952E+04  0.25500000920E-02 0. -1.
    10030    2    1    2    0    0  0.00000000000E+00  0.00000000000E+00 -0.20048206864E+03  0.34064745218E+04  0.34005698945E+04 0.  0.
        3    1    3    3  502    0 -0.10708303646E+04  0.77265397525E+03  0.97273835326E+03  0.16400889456E+04  0.10100000352E+00 0.  1.
       -3    1    3    3    0  502  0.10708303646E+04 -0.77265397525E+03 -0.11732204219E+04  0.17663855762E+04  0.10100000352E+00 0. -1.
</event>
<event>
 5   0  0.1523259E-07  0.3322037E+04  0.7818609E-02  0.8157311E-01
        1   -1    0    0  501    0  0.00000000000E+00  0.00000000000E+00  0.17436053581E+04  0.17436053581E+04  0.50400001928E-02 0. -1.
       -1   -1    0    0    0  501  0.00000000000E+00  0.00000000000E+00 -0.15823433919E+04  0.15823433919E+04  0.50400001928E-02 0.  1.
    10030    2    1    2    0    0  0.00000000000E+00  0.00000000000E+00  0.16126196618E+03  0.33259487501E+04  0.33220369754E+04 0.  0.
        4    1    3    3  502    0  0.16614138889E+03 -0.15425653677E+04  0.67451572506E+03  0.16917694733E+04  0.12699999809E+01 0.  1.
       -4    1    3    3    0  502 -0.16614138889E+03  0.15425653677E+04 -0.51325375889E+03  0.16341792767E+04  0.12699999809E+01 0. -1.
</event>
<event>
 5   0  0.1435806E-07  0.3402884E+04  0.7818609E-02  0.8137199E-01
        1   -1    0    0  501    0  0.00000000000E+00  0.00000000000E+00  0.21179428260E+04  0.21179428260E+04  0.50400001928E-02 0. -1.
       -1   -1    0    0    0  501  0.00000000000E+00  0.00000000000E+00 -0.13668478386E+04  0.13668478386E+04  0.50400001928E-02 0.  1.
    10030    2    1    2    0    0  0.00000000000E+00  0.00000000000E+00  0.75109498739E+03  0.34847906646E+04  0.34028844082E+04 0.  0.
        3    1    3    3  502    0 -0.36402999747E+03 -0.15705802331E+04  0.93238668124E+03  0.18624137675E+04  0.10100000352E+00 0. -1.
       -3    1    3    3    0  502  0.36402999747E+03  0.15705802331E+04 -0.18129169385E+03  0.16223768971E+04  0.10100000352E+00 0.  1.
</event>
<event>
 5   0  0.1523259E-07  0.3398854E+04  0.7818609E-02  0.8138188E-01
        1   -1    0    0  501    0  0.00000000000E+00  0.00000000000E+00  0.21762985773E+04  0.21762985773E+04  0.50400001928E-02 0.  1.
       -1   -1    0    0    0  501  0.00000000000E+00  0.00000000000E+00 -0.13270479918E+04  0.13270479918E+04  0.50400001928E-02 0. -1.
    10030    2    1    2    0    0  0.00000000000E+00  0.00000000000E+00  0.84925058557E+03  0.35033465691E+04  0.33988543108E+04 0.  0.
        4    1    3    3  502    0  0.12648825816E+04 -0.20924418602E+03 -0.72516881400E+03  0.14729502695E+04  0.12699999809E+01 0. -1.
       -4    1    3    3    0  502 -0.12648825816E+04  0.20924418602E+03  0.15744193996E+04  0.20303962996E+04  0.12699999809E+01 0.  1.
</event>
<event>
 5   0  0.4447909E-07  0.3397206E+04  0.7818609E-02  0.8138592E-01
       -2   -1    0    0    0  501  0.00000000000E+00  0.00000000000E+00  0.18968182382E+04  0.18968182382E+04  0.25500000920E-02 0.  1.
        2   -1    0    0  501    0  0.00000000000E+00  0.00000000000E+00 -0.15211014297E+04  0.15211014297E+04  0.25500000920E-02 0. -1.
    10030    2    1    2    0    0  0.00000000000E+00  0.00000000000E+00  0.37571680847E+03  0.34179196679E+04  0.33972064606E+04 0.  0.
        5    1    3    3  502    0  0.29671223910E+03 -0.47693453753E+03  0.18006688621E+04  0.18862489621E+04  0.46999998093E+01 0.  1.
       -5    1    3    3    0  502 -0.29671223910E+03  0.47693453753E+03 -0.14249520537E+04  0.15316707058E+04  0.46999998093E+01 0. -1.
</event>
<event>
 5   0  0.1523259E-07  0.3392450E+04  0.7818609E-02  0.8139762E-01
       -1   -1    0    0    0  501  0.00000000000E+00  0.00000000000E+00  0.13289106377E+04  0.13289106377E+04  0.50400001928E-02 0.  1.
        1   -1    0    0  501    0  0.00000000000E+00  0.00000000000E+00 -0.21650662079E+04  0.21650662079E+04  0.50400001928E-02 0. -1.
    10030    2    1    2    0    0  0.00000000000E+00  0.00000000000E+00 -0.83615557019E+03  0.34939768456E+04  0.33924501559E+04 0.  0.
        4    1    3    3  502    0 -0.15215433180E+04  0.65872267000E+03 -0.49357678119E+02  0.16587487507E+04  0.12699999809E+01 0. -1.
       -4    1    3    3    0  502  0.15215433180E+04 -0.65872267000E+03 -0.78679789207E+03  0.18352280949E+04  0.12699999809E+01 0.  1.
</event>
<event>
 5   0  0.1520084E-07  0.3402868E+04  0.7818609E-02  0.8137203E-01
       -1   -1    0    0    0  501  0.00000000000E+00  0.00000000000E+00  0.90357620277E+03  0.90357620278E+03  0.50400001928E-02 0.  1.
        1   -1    0    0  501    0  0.00000000000E+00  0.00000000000E+00 -0.32038000061E+04  0.32038000061E+04  0.50400001928E-02 0. -1.
    10030    2    1    2    0    0  0.00000000000E+00  0.00000000000E+00 -0.23002238034E+04  0.41073762089E+04  0.34028678752E+04 0.  0.
        2    1    3    3  502    0  0.20403509412E+03 -0.36418247740E+03 -0.31410291066E+04  0.31686468792E+04  0.25500000920E-02 0. -1.
       -2    1    3    3    0  502 -0.20403509412E+03  0.36418247740E+03  0.84080530325E+03  0.93872932971E+03  0.25500000920E-02 0.  1.
</event>
<event>
 5   0  0.1421875E-07  0.3440115E+04  0.7818609E-02  0.8128130E-01
        1   -1    0    0  501    0  0.00000000000E+00  0.00000000000E+00  0.17916143913E+04  0.17916143913E+04  0.50400001928E-02 0. -1.
       -1   -1    0    0    0  501  0.00000000000E+00  0.00000000000E+00 -0.16513584683E+04  0.16513584683E+04  0.50400001928E-02 0.  1.
    10030    2    1    2    0    0  0.00000000000E+00  0.00000000000E+00  0.14025592306E+03  0.34429728596E+04  0.34401148801E+04 0.  0.
        5    1    3    3  502    0 -0.64210420686E+03  0.10054348431E+04  0.13102612829E+04  0.17720055744E+04  0.46999998093E+01 0. -1.
       -5    1    3    3    0  502  0.64210420686E+03 -0.10054348431E+04 -0.11700053598E+04  0.16709672852E+04  0.46999998093E+01 0.  1.
</event>
<event>
 5   0  0.4396257E-07  0.3406253E+04  0.7818609E-02  0.8136373E-01
       -2   -1    0    0    0  501  0.00000000000E+00  0.00000000000E+00  0.23537583897E+04  0.23537583897E+04  0.25500000920E-02 0. -1.
        2   -1    0    0  501    0  0.00000000000E+00  0.00000000000E+00 -0.12323439631E+04  0.12323439631E+04  0.25500000920E-02 0.  1.
    10030    2    1    2    0    0  0.00000000000E+00  0.00000000000E+00  0.11214144266E+04  0.35861023529E+04  0.34062530395E+04 0.  0.
        2    1    3    3  502    0  0.74076456324E+03  0.12881772449E+04 -0.31540133340E+03  0.15190822077E+04  0.25500000920E-02 0.  1.
       -2    1    3    3    0  502 -0.74076456324E+03 -0.12881772449E+04  0.14368157600E+04  0.20670201452E+04  0.25500000920E-02 0. -1.
</event>
<event>
 5   0  0.4521737E-07  0.3421496E+04  0.7818609E-02  0.8132651E-01
        2   -1    0    0  501    0  0.00000000000E+00  0.00000000000E+00  0.17062053009E+04  0.17062053009E+04  0.25500000920E-02 0.  1.
       -2   -1    0    0    0  501  0.00000000000E+00  0.00000000000E+00 -0.17153025539E+04  0.17153025539E+04  0.25500000920E-02 0. -1.
    10030    2    1    2    0    0  0.00000000000E+00  0.00000000000E+00 -0.90972530714E+01  0.34215078548E+04  0.34214957607E+04 0.  0.
        4    1    3    3  502    0 -0.14089826758E+03  0.16290306779E+04 -0.50760450313E+03  0.17120914741E+04  0.12699999809E+01 0. -1.
       -4    1    3    3    0  502  0.14089826758E+03 -0.16290306779E+04  0.49850725006E+03  0.17094163807E+04  0.12699999809E+01 0.  1.
</event>
<event>
 5   0  0.4381939E-07  0.3398125E+04  0.7818609E-02  0.8138367E-01
        2   -1    0    0  501    0  0.00000000000E+00  0.00000000000E+00  0.18871306306E+04  0.18871306306E+04  0.25500000920E-02 0. -1.
       -2   -1    0    0    0  501  0.00000000000E+00  0.00000000000E+00 -0.15297364848E+04  0.15297364848E+04  0.25500000920E-02 0.  1.
    10030    2    1    2    0    0  0.00000000000E+00  0.00000000000E+00  0.35739414575E+03  0.34168671154E+04  0.33981245282E+04 0.  0.
        3    1    3    3  502    0 -0.13457636445E+04 -0.93067005152E+03  0.63902780535E+03  0.17565827843E+04  0.10100000352E+00 0. -1.
       -3    1    3    3    0  502  0.13457636445E+04  0.93067005152E+03 -0.28163365960E+03  0.16602843311E+04  0.10100000352E+00 0.  1.
</event>
<event>
 5   0  0.1473755E-07  0.3380805E+04  0.7818609E-02  0.8142634E-01
       -1   -1    0    0    0  501  0.00000000000E+00  0.00000000000E+00  0.18102143932E+04  0.18102143933E+04  0.50400001928E-02 0. -1.
        1   -1    0    0  501    0  0.00000000000E+00  0.00000000000E+00 -0.15785204217E+04  0.15785204217E+04  0.50400001928E-02 0.  1.
    10030    2    1    2    0    0  0.00000000000E+00  0.00000000000E+00  0.23169397158E+03  0.33887348149E+04  0.33808048671E+04 0.  0.
        1    1    3    3  502    0 -0.84453481136E+02 -0.74365701933E+02 -0.15747620143E+04  0.15787773908E+04  0.50400001928E-02 0.  1.
       -1    1    3    3    0  502  0.84453481136E+02  0.74365701933E+02  0.18064559859E+04  0.18099574241E+04  0.50400001928E-02 0. -1.
</event>
<event>
 5   0  0.1435806E-07  0.3320135E+04  0.7818609E-02  0.8157791E-01
       -1   -1    0    0    0  501  0.00000000000E+00  0.00000000000E+00  0.17798995108E+04  0.17798995108E+04  0.50400001928E-02 0.  1.
        1   -1    0    0  501    0  0.00000000000E+00  0.00000000000E+00 -0.15483031963E+04  0.15483031963E+04  0.50400001928E-02 0. -1.
    10030    2    1    2    0    0  0.00000000000E+00  0.00000000000E+00  0.23159631450E+03  0.33282027070E+04  0.33201349982E+04 0.  0.
        3    1    3    3  502    0 -0.48514004087E+03  0.15050113692E+04  0.62240130431E+03  0.16993538403E+04  0.10100000352E+00 0.  1.
       -3    1    3    3    0  502  0.48514004087E+03 -0.15050113692E+04 -0.39080498981E+03  0.16288488668E+04  0.10100000352E+00 0. -1.
</event>
<event>
 5   0  0.1421875E-07  0.3340006E+04  0.7818609E-02  0.8152790E-01
        1   -1    0    0  501    0  0.00000000000E+00  0.00000000000E+00  0.24820758241E+04  0.24820758241E+04  0.50400001928E-02 0.  1.
       -1   -1    0    0    0  501  0.00000000000E+00  0.00000000000E+00 -0.11236197140E+04  0.11236197140E+04  0.50400001928E-02 0. -1.
    10030    2    1    2    0    0  0.00000000000E+00  0.00000000000E+00  0.13584561101E+04  0.36056955381E+04  0.33400055853E+04 0.  0.
        5    1    3    3  502    0  0.13909589963E+04  0.73869835249E+03  0.12787854494E+04  0.20287327327E+04  0.46999998093E+01 0.  1.
       -5    1    3    3    0  502 -0.13909589963E+04 -0.73869835249E+03  0.79670660719E+02  0.15769628053E+04  0.46999998093E+01 0. -1.
</event>
<event>
 5   0  0.1421875E-07  0.3399240E+04  0.7818609E-02  0.8138093E-01
        1   -1    0    0  501    0  0.00000000000E+00  0.00000000000E+00  0.12149648452E+04  0.12149648452E+04  0.50400001928E-02 0. -1.
       -1   -1    0    0    0  501  0.00000000000E+00  0.00000000000E+00 -0.23776059990E+04  0.23776059990E+04  0.50400001928E-02 0.  1.
    10030    2    1    2    0    0  0.00000000000E+00  0.00000000000E+00 -0.11626411538E+04  0.35925708442E+04  0.33992397412E+04 0.  0.
        5    1    3    3  502    0  0.87533485443E+02  0.33098786796E+03 -0.23407776616E+04  0.23656874753E+04  0.46999998093E+01 0.  1.
       -5    1    3    3    0  502 -0.87533485443E+02 -0.33098786796E+03  0.11781365078E+04  0.12268833689E+04  0.46999998093E+01 0. -1.
</event>
<event>
 5   0  0.4396257E-07  0.3396301E+04  0.7818609E-02  0.8138815E-01
        2   -1    0    0  501    0  0.00000000000E+00  0.00000000000E+00  0.19487971134E+04  0.19487971134E+04  0.25500000920E-02 0. -1.
       -2   -1    0    0    0  501  0.00000000000E+00  0.00000000000E+00 -0.14797407022E+04  0.14797407022E+04  0.25500000920E-02 0.  1.
    10030    2    1    2    0    0  0.00000000000E+00  0.00000000000E+00  0.46905641123E+03  0.34285378156E+04  0.33963005809E+04 0.  0.
        2    1    3    3  502    0  0.33602803010E+03  0.97558910415E+03 -0.11269861186E+04  0.15280008667E+04  0.25500000920E-02 0.  1.
       -2    1    3    3    0  502 -0.33602803010E+03 -0.97558910415E+03  0.15960425298E+04  0.19005369489E+04  0.25500000920E-02 0. -1.
</event>
<event>
 5   0  0.4396257E-07  0.3401424E+04  0.7818609E-02  0.8137557E-01
       -2   -1    0    0    0  501  0.00000000000E+00  0.00000000000E+00  0.16134068702E+04  0.16134068702E+04  0.25500000920E-02 0.  1.
        2   -1    0    0  501    0  0.00000000000E+00  0.00000000000E+00 -0.17927413274E+04  0.17927413274E+04  0.25500000920E-02 0. -1.
    10030    2    1    2    0    0  0.00000000000E+00  0.00000000000E+00 -0.17933445720E+03  0.34061481977E+04  0.34014239220E+04 0.  0.
        2    1    3    3  502    0 -0.11270153983E+04 -0.97947354902E+03 -0.90497802808E+03  0.17460003930E+04  0.25500000920E-02 0. -1.
       -2    1    3    3    0  502  0.11270153983E+04  0.97947354902E+03  0.72564357088E+03  0.16601478046E+04  0.25500000920E-02 0.  1.
</event>
<event>
 5   0  0.1435806E-07  0.3401822E+04  0.7818609E-02  0.8137459E-01
       -1   -1    0    0    0  501  0.00000000000E+00  0.00000000000E+00  0.25628465003E+04  0.25628465003E+04  0.50400001928E-02 0.  1.
        1   -1    0    0  501    0  0.00000000000E+00  0.00000000000E+00 -0.11288610678E+04  0.11288610678E+04  0.50400001928E-02 0. -1.
    10030    2    1    2    0    0  0.00000000000E+00  0.00000000000E+00  0.14339854326E+04  0.36917075681E+04  0.34018216513E+04 0.  0.
        3    1    3    3  502    0  0.35695285422E+03  0.12662548479E+04 -0.45296808205E+03  0.13914010110E+04  0.10100000352E+00 0. -1.
       -3    1    3    3    0  502 -0.35695285422E+03 -0.12662548479E+04  0.18869535146E+04  0.23003065571E+04  0.10100000352E+00 0.  1.
</event>
<event>
 5   0  0.1473755E-07  0.3402924E+04  0.7818609E-02  0.8137189E-01
        1   -1    0    0  501    0  0.00000000000E+00  0.00000000000E+00  0.13242356862E+04  0.13242356862E+04  0.50400001928E-02 0.  1.
       -1   -1    0    0    0  501  0.00000000000E+00  0.00000000000E+00 -0.21861460372E+04  0.21861460372E+04  0.50400001928E-02 0. -1.
    10030    2    1    2    0    0  0.00000000000E+00  0.00000000000E+00 -0.86191035106E+03  0.35103817234E+04  0.34029238003E+04 0.  0.
        1    1    3    3  502    0  0.70516730688E+03  0.14021897738E+04  0.24673394597E+03  0.15887966303E+04  0.50400001928E-02 0.  1.
       -1    1    3    3    0  502 -0.70516730688E+03 -0.14021897738E+04 -0.11086442970E+04  0.19215850930E+04  0.50400001928E-02 0. -1.
</event>
<event>
 5   0  0.4486226E-07  0.3402857E+04  0.7818609E-02  0.8137205E-01
       -2   -1    0    0    0  501  0.00000000000E+00  0.00000000000E+00  0.17125042641E+04  0.17125042641E+04  0.25500000920E-02 0. -1.
        2   -1    0    0  501    0  0.00000000000E+00  0.00000000000E+00 -0.16904247736E+04  0.16904247736E+04  0.25500000920E-02 0.  1.
    10030    2    1    2    0    0  0.00000000000E+00  0.00000000000E+00  0.22079490540E+02  0.34029290377E+04  0.34028574069E+04 0.  0.
        1    1    3    3  502    0  0.83398939952E+03  0.11433943024E+04  0.95550167486E+03  0.17075925450E+04  0.50400001928E-02 0. -1.
       -1    1    3    3    0  502 -0.83398939952E+03 -0.11433943024E+04 -0.93342218432E+03  0.16953364927E+04  0.50400001928E-02 0.  1.
</event>
<event>
 5   0  0.4447909E-07  0.3408801E+04  0.7818609E-02  0.8135750E-01
        2   -1    0    0  501    0  0.00000000000E+00  0.00000000000E+00  0.18758922808E+04  0.18758922808E+04  0.25500000920E-02 0. -1.
       -2   -1    0    0    0  501  0.00000000000E+00  0.00000000000E+00 -0.15485865519E+04  0.15485865519E+04  0.25500000920E-02 0.  1.
    10030    2    1    2    0    0  0.00000000000E+00  0.00000000000E+00  0.32730572889E+03  0.34244788326E+04  0.34088012901E+04 0.  0.
        5    1    3    3  502    0 -0.10549644782E+04  0.56961538045E+03 -0.10533424862E+04  0.15959211180E+04  0.46999998093E+01 0.  1.
       -5    1    3    3    0  502  0.10549644782E+04 -0.56961538045E+03  0.13806482151E+04  0.18285577146E+04  0.46999998093E+01 0. -1.
</event>
<event>
 5   0  0.1520084E-07  0.3373944E+04  0.7818609E-02  0.8144331E-01
       -1   -1    0    0    0  501  0.00000000000E+00  0.00000000000E+00  0.11516716234E+04  0.11516716235E+04  0.50400001928E-02 0. -1.
        1   -1    0    0  501    0  0.00000000000E+00  0.00000000000E+00 -0.24710814087E+04  0.24710814087E+04  0.50400001928E-02 0.  1.
    10030    2    1    2    0    0  0.00000000000E+00  0.00000000000E+00 -0.13194097853E+04  0.36227530322E+04  0.33739438867E+04 0.  0.
        2    1    3    3  502    0 -0.15164027063E+04 -0.22212248566E+03  0.97310559299E+02  0.15356708343E+04  0.25500000920E-02 0. -1.
       -2    1    3    3    0  502  0.15164027063E+04  0.22212248566E+03 -0.14167203446E+04  0.20870821979E+04  0.25500000920E-02 0.  1.
</event>
<event>
 5   0  0.1520084E-07  0.3397560E+04  0.7818609E-02  0.8138505E-01
        1   -1    0    0  501    0  0.00000000000E+00  0.00000000000E+00  0.17661980229E+04  0.17661980229E+04  0.50400001928E-02 0.  1.
       -1   -1    0    0    0  501  0.00000000000E+00  0.00000000000E+00 -0.16339357256E+04  0.16339357256E+04  0.50400001928E-02 0. -1.
    10030    2    1    2    0    0  0.00000000000E+00  0.00000000000E+00  0.13226229729E+03  0.34001337485E+04  0.33975603294E+04 0.  0.
        2    1    3    3  502    0 -0.63163687032E+03  0.46520912388E+03 -0.14418178344E+04  0.16414089474E+04  0.25500000920E-02 0. -1.
       -2    1    3    3    0  502  0.63163687032E+03 -0.46520912388E+03  0.15740801317E+04  0.17587248011E+04  0.25500000920E-02 0.  1.
</event>
<event>
 5   0  0.1435806E-07  0.3391575E+04  0.7818609E-02  0.8139977E-01
       -1   -1    0    0    0  501  0.00000000000E+00  0.00000000000E+00  0.14015509090E+04  0.14015509090E+04  0.50400001928E-02 0.  1.
        1   -1    0    0  501    0  0.00000000000E+00  0.00000000000E+00 -0.20517950470E+04  0.20517950470E+04  0.50400001928E-02 0. -1.
    10030    2    1    2    0    0  0.00000000000E+00  0.00000000000E+00 -0.65024413804E+03  0.34533459561E+04  0.33915749812E+04 0.  0.
        3    1    3    3  502    0 -0.31949802439E+03 -0.82784702679E+03 -0.17965317304E+04  0.20037305098E+04  0.10100000352E+00 0. -1.
       -3    1    3    3    0  502  0.31949802439E+03  0.82784702679E+03  0.11462875924E+04  0.14496154462E+04  0.10100000352E+00 0.  1.
</event>
<event>
 5   0  0.4381939E-07  0.3403738E+04  0.7818609E-02  0.8136989E-01
        2   -1    0    0  501    0  0.00000000000E+00  0.00000000000E+00  0.26806189468E+04  0.26806189468E+04  0.25500000920E-02 0.  1.
       -2   -1    0    0    0  501  0.00000000000E+00  0.00000000000E+00 -0.10804811070E+04  0.10804811070E+04  0.25500000920E-02 0. -1.
    10030    2    1    2    0    0  0.00000000000E+00  0.00000000000E+00  0.16001378398E+04  0.37611000538E+04  0.34037380199E+04 0.  0.
        3    1    3    3  502    0  0.71216257980E+03 -0.44281450076E+03 -0.83632467156E+03  0.11843560228E+04  0.10100000352E+00 0. -1.
       -3    1    3    3    0  502 -0.71216257980E+03  0.44281450076E+03  0.24364625113E+04  0.25767440310E+04  0.10100000352E+00 0.  1.
</event>
<event>
 5   0  0.1421875E-07  0.3405261E+04  0.7818609E-02  0.8136616E-01
        1   -1    0    0  501    0  0.00000000000E+00  0.00000000000E+00  0.86684718664E+03  0.86684718666E+03  0.50400001928E-02 0.  1.
       -1   -1    0    0    0  501  0.00000000000E+00  0.00000000000E+00 -0.33442474026E+04  0.33442474026E+04  0.50400001928E-02 0. -1.
    10030    2    1    2    0    0  0.00000000000E+00  0.00000000000E+00 -0.24774002160E+04  0.42110945893E+04  0.34052614892E+04 0.  0.
        5    1    3    3  502    0 -0.10716322185E+04  0.12280205480E+04 -0.62972469250E+03  0.17472851388E+04  0.46999998093E+01 0.  1.
       -5    1    3    3    0  502  0.10716322185E+04 -0.12280205480E+04 -0.18476755235E+04  0.24638094504E+04  0.46999998093E+01 0. -1.
</event>
<event>
 5   0  0.1523259E-07  0.3398656E+04  0.7818609E-02  0.8138236E-01
       -1   -1    0    0    0  501  0.00000000000E+00  0.00000000000E+00  0.15236409825E+04  0.15236409826E+04  0.50400001928E-02 0. -1.
        1   -1    0    0  501    0  0.00000000000E+00  0.00000000000E+00 -0.18952730896E+04  0.18952730896E+04  0.50400001928E-02 0.  1.
    10030    2    1    2    0    0  0.00000000000E+00  0.00000000000E+00 -0.37163210706E+03  0.34189140722E+04  0.33986560594E+04 0.  0.
        4    1    3    3  502    0 -0.78261961072E+03 -0.22451108138E+03  0.13146561895E+04  0.15463573941E+04  0.12699999809E+01 0. -1.
       -4    1    3    3    0  502  0.78261961072E+03  0.22451108138E+03 -0.16862882965E+04  0.18725566781E+04  0.12699999809E+01 0.  1.
</event>
<event>
 5   0  0.4381939E-07  0.3401441E+04  0.7818609E-02  0.8137553E-01
        2   -1    0    0  501    0  0.00000000000E+00  0.00000000000E+00  0.15068081283E+04  0.15068081283E+04  0.25500000920E-02 0.  1.
       -2   -1    0    0    0  501  0.00000000000E+00  0.00000000000E+00 -0.19195879473E+04  0.19195879473E+04  0.25500000920E-02 0. -1.
    10030    2    1    2    0    0  0.00000000000E+00  0.00000000000E+00 -0.41277981906E+03  0.34263960756E+04  0.34014412957E+04 0.  0.
        3    1    3    3  502    0  0.46156795297E+03 -0.93351665608E+03  0.11480759999E+04  0.15500247850E+04  0.10100000352E+00 0.  1.
       -3    1    3    3    0  502 -0.46156795297E+03  0.93351665608E+03 -0.15608558190E+04  0.18763712906E+04  0.10100000352E+00 0. -1.
</event>
<event>
 5   0  0.4447909E-07  0.3405922E+04  0.7818609E-02  0.8136454E-01
       -2   -1    0    0    0  501  0.00000000000E+00  0.00000000000E+00  0.15564234682E+04  0.15564234682E+04  0.25500000920E-02 0.  1.
        2   -1    0    0  501    0  0.00000000000E+00  0.00000000000E+00 -0.18632951254E+04  0.18632951254E+04  0.25500000920E-02 0. -1.
    10030    2    1    2    0    0  0.00000000000E+00  0.00000000000E+00 -0.30687165722E+03  0.34197185935E+04  0.34059220550E+04 0.  0.
        5    1    3    3  502    0 -0.78528672337E+01 -0.25580474116E+03  0.15369981712E+04  0.15581666154E+04  0.46999998093E+01 0.  1.
       -5    1    3    3    0  502  0.78528672337E+01  0.25580474116E+03 -0.18438698284E+04  0.18615519781E+04  0.46999998093E+01 0. -1.
</event>
<event>
 5   0  0.4447909E-07  0.3401812E+04  0.7818609E-02  0.8137462E-01
       -2   -1    0    0    0  501  0.00000000000E+00  0.00000000000E+00  0.15540888870E+04  0.15540888870E+04  0.25500000920E-02 0.  1.
        2   -1    0    0  501    0  0.00000000000E+00  0.00000000000E+00 -0.18615936666E+04  0.18615936666E+04  0.25500000920E-02 0. -1.
    10030    2    1    2    0    0  0.00000000000E+00  0.00000000000E+00 -0.30750477954E+03  0.34156825536E+04  0.34018124754E+04 0.  0.
        5    1    3    3  502    0 -0.11524902671E+04  0.37406805154E+03  0.10448060263E+04  0.15999382631E+04  0.46999998093E+01 0.  1.
       -5    1    3    3    0  502  0.11524902671E+04 -0.37406805154E+03 -0.13523108058E+04  0.18157442905E+04  0.46999998093E+01 0. -1.
</event>
<event>
 5   0  0.4447909E-07  0.3401750E+04  0.7818609E-02  0.8137477E-01
       -2   -1    0    0    0  501  0.00000000000E+00  0.00000000000E+00  0.11833664630E+04  0.11833664630E+04  0.25500000920E-02 0. -1.
        2   -1    0    0  501    0  0.00000000000E+00  0.00000000000E+00 -0.24446994753E+04  0.24446994753E+04  0.25500000920E-02 0.  1.
    10030    2    1    2    0    0  0.00000000000E+00  0.00000000000E+00 -0.12613330123E+04  0.36280659383E+04  0.34017497681E+04 0.  0.
        5    1    3    3  502    0 -0.26176098667E+03 -0.13246013273E+04 -0.17338238443E+04  0.21975565302E+04  0.46999998093E+01 0.  1.
       -5    1    3    3    0  502  0.26176098667E+03  0.13246013273E+04  0.47249083196E+03  0.14305094081E+04  0.46999998093E+01 0. -1.
</event>
<event>
 5   0  0.4396257E-07  0.3398144E+04  0.7818609E-02  0.8138362E-01
       -2   -1    0    0    0  501  0.00000000000E+00  0.00000000000E+00  0.12978294448E+04  0.12978294448E+04  0.25500000920E-02 0.  1.
        2   -1    0    0  501    0  0.00000000000E+00  0.00000000000E+00 -0.22243641356E+04  0.22243641356E+04  0.25500000920E-02 0. -1.
    10030    2    1    2    0    0  0.00000000000E+00  0.00000000000E+00 -0.92653469082E+03  0.35221935804E+04  0.33981437705E+04 0.  0.
        2    1    3    3  502    0 -0.13452763526E+04  0.95433273354E+02  0.60788404414E+03  0.14793238272E+04  0.25500000920E-02 0.  1.
       -2    1    3    3    0  502  0.13452763526E+04 -0.95433273354E+02 -0.15344187350E+04  0.20428697533E+04  0.25500000920E-02 0. -1.
</event>
<event>
 5   0  0.4521737E-07  0.3430170E+04  0.7818609E-02  0.8130541E-01
       -2   -1    0    0    0  501  0.00000000000E+00  0.00000000000E+00  0.11716831131E+04  0.11716831131E+04  0.25500000920E-02 0.  1.
        2   -1    0    0  501    0  0.00000000000E+00  0.00000000000E+00 -0.25105056114E+04  0.25105056114E+04  0.25500000920E-02 0. -1.
    10030    2    1    2    0    0  0.00000000000E+00  0.00000000000E+00 -0.13388224983E+04  0.36821887244E+04  0.34301702757E+04 0.  0.
        4    1    3    3  502    0  0.26618486430E+03 -0.56771679489E+03  0.10442328963E+04  0.12180232739E+04  0.12699999809E+01 0.  1.
       -4    1    3    3    0  502 -0.26618486430E+03  0.56771679489E+03 -0.23830553946E+04  0.24641654506E+04  0.12699999809E+01 0. -1.
</event>
<event>
 5   0  0.4381939E-07  0.3394189E+04  0.7818609E-02  0.8139334E-01
       -2   -1    0    0    0  501  0.00000000000E+00  0.00000000000E+00  0.16704533785E+04  0.16704533785E+04  0.25500000920E-02 0.  1.
        2   -1    0    0  501    0  0.00000000000E+00  0.00000000000E+00 -0.17241603320E+04  0.17241603320E+04  0.25500000920E-02 0. -1.
    10030    2    1    2    0    0  0.00000000000E+00  0.00000000000E+00 -0.53706953490E+02  0.33946137105E+04  0.33941888290E+04 0.  0.
        3    1    3    3  502    0  0.96785763037E+03 -0.43244905827E+03  0.12985930932E+04  0.16763366644E+04  0.10100000352E+00 0.  1.
       -3    1    3    3    0  502 -0.96785763037E+03  0.43244905827E+03 -0.13523000467E+04  0.17182770461E+04  0.10100000352E+00 0. -1.
</event>
<event>
 5   0  0.4447909E-07  0.3399136E+04  0.7818609E-02  0.8138118E-01
        2   -1    0    0  501    0  0.00000000000E+00  0.00000000000E+00  0.25516085397E+04  0.25516085397E+04  0.25500000920E-02 0.  1.
       -2   -1    0    0    0  501  0.00000000000E+00  0.00000000000E+00 -0.11320432018E+04  0.11320432018E+04  0.25500000920E-02 0. -1.
    10030    2    1    2    0    0  0.00000000000E+00  0.00000000000E+00  0.14195653379E+04  0.36836517415E+04  0.33991358319E+04 0.  0.
        5    1    3    3  502    0  0.50673612216E+02  0.16987362481E+04  0.69312198738E+03  0.18354053599E+04  0.46999998093E+01 0.  1.
       -5    1    3    3    0  502 -0.50673612216E+02 -0.16987362481E+04  0.72644335056E+03  0.18482463816E+04  0.46999998093E+01 0. -1.
</event>
<event>
 5   0  0.4486226E-07  0.3394358E+04  0.7818609E-02  0.8139292E-01
        2   -1    0    0  501    0  0.00000000000E+00  0.00000000000E+00  0.15506064076E+04  0.15506064076E+04  0.25500000920E-02 0. -1.
       -2   -1    0    0    0  501  0.00000000000E+00  0.00000000000E+00 -0.18576066218E+04  0.18576066218E+04  0.25500000920E-02 0.  1.
    10030    2    1    2    0    0  0.00000000000E+00  0.00000000000E+00 -0.30700021417E+03  0.34082130294E+04  0.33943581017E+04 0.  0.
        1    1    3    3  502    0 -0.86849510475E+03 -0.23902208422E+03 -0.15977736958E+04  0.18342017574E+04  0.50400001928E-02 0.  1.
       -1    1    3    3    0  502  0.86849510475E+03  0.23902208422E+03  0.12907734816E+04  0.15740112721E+04  0.50400001928E-02 0. -1.
</event>
<event>
 5   0  0.4486226E-07  0.3437236E+04  0.7818609E-02  0.8128827E-01
        2   -1    0    0  501    0  0.00000000000E+00  0.00000000000E+00  0.19947255025E+04  0.19947255025E+04  0.25500000920E-02 0.  1.
       -2   -1    0    0    0  501  0.00000000000E+00  0.00000000000E+00 -0.14807293918E+04  0.14807293918E+04  0.25500000920E-02 0. -1.
    10030    2    1    2    0    0  0.00000000000E+00  0.00000000000E+00  0.51399611073E+03  0.34754548943E+04  0.34372364947E+04 0.  0.
        1    1    3    3  502    0  0.48517247209E+03  0.13064292768E+04  0.12739137474E+04  0.18881223527E+04  0.50400001928E-02 0.  1.
       -1    1    3    3    0  502 -0.48517247209E+03 -0.13064292768E+04 -0.75991763666E+03  0.15873325416E+04  0.50400001928E-02 0. -1.
</event>
<event>
 5   0  0.1520084E-07  0.3402311E+04  0.7818609E-02  0.8137339E-01
       -1   -1    0    0    0  501  0.00000000000E+00  0.00000000000E+00  0.21931304909E+04  0.21931304909E+04  0.50400001928E-02 0.  1.
        1   -1    0    0  501    0  0.00000000000E+00  0.00000000000E+00 -0.13195429002E+04  0.13195429002E+04  0.50400001928E-02 0. -1.
    10030    2    1    2    0    0  0.00000000000E+00  0.00000000000E+00  0.87358759074E+03  0.35126733911E+04  0.34023108432E+04 0.  0.
        2    1    3    3  502    0  0.52391345728E+03 -0.10695967203E+04 -0.81727033952E+03  0.14444560439E+04  0.25500000920E-02 0. -1.
       -2    1    3    3    0  502 -0.52391345728E+03  0.10695967203E+04  0.16908579303E+04  0.20682173472E+04  0.25500000920E-02 0.  1.
</event>
<event>
 5   0  0.4381939E-07  0.3406529E+04  0.7818609E-02  0.8136306E-01
        2   -1    0    0  501    0  0.00000000000E+00  0.00000000000E+00  0.17988503570E+04  0.17988503570E+04  0.25500000920E-02 0. -1.
       -2   -1    0    0    0  501  0.00000000000E+00  0.00000000000E+00 -0.16127579416E+04  0.16127579416E+04  0.25500000920E-02 0.  1.
    10030    2    1    2    0    0  0.00000000000E+00  0.00000000000E+00  0.18609241543E+03  0.34116082986E+04  0.34065291421E+04 0.  0.
        3    1    3    3  502    0 -0.33527113808E+03 -0.38353931587E+03 -0.15346774194E+04  0.16170169865E+04  0.10100000352E+00 0.  1.
       -3    1    3    3    0  502  0.33527113808E+03  0.38353931587E+03  0.17207698348E+04  0.17945913121E+04  0.10100000352E+00 0. -1.
</event>
<event>
 5   0  0.1523259E-07  0.3400481E+04  0.7818609E-02  0.8137788E-01
        1   -1    0    0  501    0  0.00000000000E+00  0.00000000000E+00  0.19191442173E+04  0.19191442173E+04  0.50400001928E-02 0.  1.
       -1   -1    0    0    0  501  0.00000000000E+00  0.00000000000E+00 -0.15063054125E+04  0.15063054125E+04  0.50400001928E-02 0. -1.
    10030    2    1    2    0    0  0.00000000000E+00  0.00000000000E+00  0.41283880479E+03  0.34254496298E+04  0.34004807436E+04 0.  0.
        4    1    3    3  502    0  0.44220563603E+03  0.12526749993E+04 -0.86253940225E+03  0.15838927715E+04  0.12699999809E+01 0. -1.
       -4    1    3    3    0  502 -0.44220563603E+03 -0.12526749993E+04  0.12753782070E+04  0.18415568583E+04  0.12699999809E+01 0.  1.
</event>
<event>
 5   0  0.1473755E-07  0.3396391E+04  0.7818609E-02  0.8138793E-01
       -1   -1    0    0    0  501  0.00000000000E+00  0.00000000000E+00  0.12799353969E+04  0.12799353969E+04  0.50400001928E-02 0.  1.
        1   -1    0    0  501    0  0.00000000000E+00  0.00000000000E+00 -0.22531350608E+04  0.22531350608E+04  0.50400001928E-02 0. -1.
    10030    2    1    2    0    0  0.00000000000E+00  0.00000000000E+00 -0.97319966384E+03  0.35330704577E+04  0.33963906244E+04 0.  0.
        1    1    3    3  502    0 -0.31968672810E+03  0.10307366557E+04 -0.18505676975E+04  0.21422461251E+04  0.50400001928E-02 0. -1.
       -1    1    3    3    0  502  0.31968672810E+03 -0.10307366557E+04  0.87736803364E+03  0.13908243326E+04  0.50400001928E-02 0.  1.
</event>
<event>
 5   0  0.1421875E-07  0.3399057E+04  0.7818609E-02  0.8138138E-01
       -1   -1    0    0    0  501  0.00000000000E+00  0.00000000000E+00  0.14644381603E+04  0.14644381603E+04  0.50400001928E-02 0. -1.
        1   -1    0    0  501    0  0.00000000000E+00  0.00000000000E+00 -0.19723580055E+04  0.19723580055E+04  0.50400001928E-02 0.  1.
    10030    2    1    2    0    0  0.00000000000E+00  0.00000000000E+00 -0.50791984520E+03  0.34367961658E+04  0.33990565333E+04 0.  0.
        5    1    3    3  502    0 -0.15991889856E+04  0.49247240199E+03  0.46730203135E+02  0.16739594620E+04  0.46999998093E+01 0.  1.
       -5    1    3    3    0  502  0.15991889856E+04 -0.49247240199E+03 -0.55465004834E+03  0.17628367039E+04  0.46999998093E+01 0. -1.
</event>
<event>
 5   0  0.4521737E-07  0.3443995E+04  0.7818609E-02  0.8127192E-01
       -2   -1    0    0    0  501  0.00000000000E+00  0.00000000000E+00  0.88258413842E+03  0.88258413842E+03  0.25500000920E-02 0. -1.
        2   -1    0    0  501    0  0.00000000000E+00  0.00000000000E+00 -0.33597642977E+04  0.33597642977E+04  0.25500000920E-02 0.  1.
    10030    2    1    2    0    0  0.00000000000E+00  0.00000000000E+00 -0.24771801593E+04  0.42423484361E+04  0.34439945865E+04 0.  0.
        4    1    3    3  502    0  0.46305142642E+03 -0.12018378231E+04 -0.26465457793E+04  0.29433037477E+04  0.12699999809E+01 0.  1.
       -4    1    3    3    0  502 -0.46305142642E+03  0.12018378231E+04  0.16936561996E+03  0.12990446885E+04  0.12699999809E+01 0. -1.
</event>
<event>
 5   0  0.1523259E-07  0.3318277E+04  0.7818609E-02  0.8158260E-01
       -1   -1    0    0    0  501  0.00000000000E+00  0.00000000000E+00  0.15413736116E+04  0.15413736116E+04  0.50400001928E-02 0. -1.
        1   -1    0    0  501    0  0.00000000000E+00  0.00000000000E+00 -0.17859008734E+04  0.17859008734E+04  0.50400001928E-02 0.  1.
    10030    2    1    2    0    0  0.00000000000E+00  0.00000000000E+00 -0.24452726184E+03  0.33272744850E+04  0.33182769500E+04 0.  0.
        4    1    3    3  502    0 -0.76357711931E+01 -0.14030941519E+04  0.76557915419E+03  0.15983881126E+04  0.12699999809E+01 0.  1.
       -4    1    3    3    0  502  0.76357711931E+01  0.14030941519E+04 -0.10101064160E+04  0.17288863724E+04  0.12699999809E+01 0. -1.
</event>
<event>
 5   0  0.4396257E-07  0.3402335E+04  0.7818609E-02  0.8137333E-01
       -2   -1    0    0    0  501  0.00000000000E+00  0.00000000000E+00  0.16371201492E+04  0.16371201492E+04  0.25500000920E-02 0. -1.
        2   -1    0    0  501    0  0.00000000000E+00  0.00000000000E+00 -0.17677205718E+04  0.17677205718E+04  0.25500000920E-02 0.  1.
    10030    2    1    2    0    0  0.00000000000E+00  0.00000000000E+00 -0.13060042256E+03  0.34048407210E+04  0.34023350606E+04 0.  0.
        2    1    3    3  502    0 -0.55918602886E+03 -0.15739432787E+04  0.25740355762E+03  0.16900423223E+04  0.25500000920E-02 0. -1.
       -2    1    3    3    0  502  0.55918602886E+03  0.15739432787E+04 -0.38800398018E+03  0.17147983987E+04  0.25500000920E-02 0.  1.
</event>
<event>
 5   0  0.4486226E-07  0.3397826E+04  0.7818609E-02  0.8138440E-01
       -2   -1    0    0    0  501  0.00000000000E+00  0.00000000000E+00  0.25399350536E+04  0.25399350536E+04  0.25500000920E-02 0.  1.
        2   -1    0    0  501    0  0.00000000000E+00  0.00000000000E+00 -0.11363696557E+04  0.11363696557E+04  0.25500000920E-02 0. -1.
    10030    2    1    2    0    0  0.00000000000E+00  0.00000000000E+00  0.14035653980E+04  0.36763047093E+04  0.33978258474E+04 0.  0.
        1    1    3    3  502    0 -0.97300647669E+03  0.10892765875E+04 -0.23711747092E+03  0.14796924622E+04  0.50400001928E-02 0. -1.
       -1    1    3    3    0  502  0.97300647669E+03 -0.10892765875E+04  0.16406828689E+04  0.21966122471E+04  0.50400001928E-02 0.  1.
</event>
<event>
 5   0  0.4447909E-07  0.3405518E+04  0.7818609E-02  0.8136553E-01
       -2   -1    0    0    0  501  0.00000000000E+00  0.00000000000E+00  0.22719997546E+04  0.22719997546E+04  0.25500000920E-02 0.  1.
        2   -1    0    0  501    0  0.00000000000E+00  0.00000000000E+00 -0.12761390072E+04  0.12761390072E+04  0.25500000920E-02 0. -1.
    10030    2    1    2    0    0  0.00000000000E+00  0.00000000000E+00  0.99586074744E+03  0.35481387619E+04  0.34055175884E+04 0.  0.
        5    1    3    3  502    0  0.15849255045E+04 -0.44906394076E+03  0.94692861030E+03  0.19000903033E+04  0.46999998093E+01 0. -1.
       -5    1    3    3    0  502 -0.15849255045E+04  0.44906394076E+03  0.48932137147E+02  0.16480484586E+04  0.46999998093E+01 0.  1.
</event>
<event>
 5   0  0.1520084E-07  0.3390294E+04  0.7818609E-02  0.8140293E-01
        1   -1    0    0  501    0  0.00000000000E+00  0.00000000000E+00  0.24341053275E+04  0.24341053275E+04  0.50400001928E-02 0.  1.
       -1   -1    0    0    0  501  0.00000000000E+00  0.00000000000E+00 -0.11805254710E+04  0.11805254710E+04  0.50400001928E-02 0. -1.
    10030    2    1    2    0    0  0.00000000000E+00  0.00000000000E+00  0.12535798566E+04  0.36146307985E+04  0.33902939921E+04 0.  0.
        2    1    3    3  502    0 -0.11273204979E+04  0.25820616854E+03 -0.69457383151E+03  0.13490569809E+04  0.25500000920E-02 0. -1.
       -2    1    3    3    0  502  0.11273204979E+04 -0.25820616854E+03  0.19481536881E+04  0.22655738175E+04  0.25500000920E-02 0.  1.
</event>
<event>
 5   0  0.1523259E-07  0.3378294E+04  0.7818609E-02  0.8143254E-01
        1   -1    0    0  501    0  0.00000000000E+00  0.00000000000E+00  0.12534965033E+04  0.12534965033E+04  0.50400001928E-02 0. -1.
       -1   -1    0    0    0  501  0.00000000000E+00  0.00000000000E+00 -0.22762068059E+04  0.22762068059E+04  0.50400001928E-02 0.  1.
    10030    2    1    2    0    0  0.00000000000E+00  0.00000000000E+00 -0.10227103026E+04  0.35297033092E+04  0.33782938131E+04 0.  0.
        4    1    3    3  502    0 -0.16364371988E+04 -0.33202573749E+02 -0.94741699191E+03  0.18911979500E+04  0.12699999809E+01 0.  1.
       -4    1    3    3    0  502  0.16364371988E+04  0.33202573749E+02 -0.75293310654E+02  0.16385053592E+04  0.12699999809E+01 0. -1.
</event>
<event>
 5   0  0.4521737E-07  0.3416688E+04  0.7818609E-02  0.8133823E-01
       -2   -1    0    0    0  501  0.00000000000E+00  0.00000000000E+00  0.14063660694E+04  0.14063660694E+04  0.25500000920E-02 0.  1.
        2   -1    0    0  501    0  0.00000000000E+00  0.00000000000E+00 -0.20751633088E+04  0.20751633088E+04  0.25500000920E-02 0. -1.
    10030    2    1    2    0    0  0.00000000000E+00  0.00000000000E+00 -0.66879723938E+03  0.34815293781E+04  0.34166880255E+04 0.  0.
        4    1    3    3  502    0 -0.12672742970E+04 -0.33337277647E+02  0.83247211169E+03  0.15166103479E+04  0.12699999809E+01 0.  1.
       -4    1    3    3    0  502  0.12672742970E+04  0.33337277647E+02 -0.15012693511E+04  0.19649190302E+04  0.12699999809E+01 0. -1.
</event>
<event>
 5   0  0.4381939E-07  0.3380244E+04  0.7818609E-02  0.8142772E-01
       -2   -1    0    0    0  501  0.00000000000E+00  0.00000000000E+00  0.10163102555E+04  0.10163102555E+04  0.25500000920E-02 0.  1.
        2   -1    0    0  501    0  0.00000000000E+00  0.00000000000E+00 -0.28106688239E+04  0.28106688239E+04  0.25500000920E-02 0. -1.
    10030    2    1    2    0    0  0.00000000000E+00  0.00000000000E+00 -0.17943585684E+04  0.38269790794E+04  0.33802435123E+04 0.  0.
        3    1    3    3  502    0 -0.43566040833E+02  0.42193260150E+03 -0.27494255816E+04  0.27819536586E+04  0.10100000352E+00 0. -1.
       -3    1    3    3    0  502  0.43566040833E+02 -0.42193260150E+03  0.95506701319E+03  0.10450254207E+04  0.10100000352E+00 0.  1.
</event>
<event>
 5   0  0.1473755E-07  0.3362545E+04  0.7818609E-02  0.8147161E-01
       -1   -1    0    0    0  501  0.00000000000E+00  0.00000000000E+00  0.21892529891E+04  0.21892529891E+04  0.50400001928E-02 0.  1.
        1   -1    0    0  501    0  0.00000000000E+00  0.00000000000E+00 -0.12911603125E+04  0.12911603125E+04  0.50400001928E-02 0. -1.
    10030    2    1    2    0    0  0.00000000000E+00  0.00000000000E+00  0.89809267663E+03  0.34804133016E+04  0.33625446160E+04 0.  0.
        1    1    3    3  502    0 -0.55718859875E+03  0.21315650308E+03  0.20760178789E+04  0.21600335791E+04  0.50400001928E-02 0.  1.
       -1    1    3    3    0  502  0.55718859875E+03 -0.21315650308E+03 -0.11779252023E+04  0.13203797225E+04  0.50400001928E-02 0. -1.
</event>
<event>
 5   0  0.1435806E-07  0.3408838E+04  0.7818609E-02  0.8135741E-01
       -1   -1    0    0    0  501  0.00000000000E+00  0.00000000000E+00  0.11094233951E+04  0.11094233951E+04  0.50400001928E-02 0. -1.
        1   -1    0    0  501    0  0.00000000000E+00  0.00000000000E+00 -0.26185167614E+04  0.26185167614E+04  0.50400001928E-02 0.  1.
    10030    2    1    2    0    0  0.00000000000E+00  0.00000000000E+00 -0.15090933663E+04  0.37279401565E+04  0.34088377817E+04 0.  0.
        3    1    3    3  502    0 -0.88711359510E+03  0.63158921649E+02 -0.23446441074E+04  0.25076514073E+04  0.10100000352E+00 0.  1.
       -3    1    3    3    0  502  0.88711359510E+03 -0.63158921649E+02  0.83555074117E+03  0.12202887491E+04  0.10100000352E+00 0. -1.
</event>
<event>
 5   0  0.1520084E-07  0.3404377E+04  0.7818609E-02  0.8136833E-01
       -1   -1    0    0    0  501  0.00000000000E+00  0.00000000000E+00  0.16433264264E+04  0.16433264264E+04  0.50400001928E-02 0.  1.
        1   -1    0    0  501    0  0.00000000000E+00  0.00000000000E+00 -0.17631589594E+04  0.17631589594E+04  0.50400001928E-02 0. -1.
    10030    2    1    2    0    0  0.00000000000E+00  0.00000000000E+00 -0.11983253298E+03  0.34064853857E+04  0.34043770131E+04 0.  0.
        2    1    3    3  502    0  0.47805512439E+03  0.39291884264E+03  0.15267907980E+04  0.16474258890E+04  0.25500000920E-02 0.  1.
       -2    1    3    3    0  502 -0.47805512439E+03 -0.39291884264E+03 -0.16466233310E+04  0.17590594967E+04  0.25500000920E-02 0. -1.
</event>
<event>
 5   0  0.1520084E-07  0.3360533E+04  0.7818609E-02  0.8147661E-01
        1   -1    0    0  501    0  0.00000000000E+00  0.00000000000E+00  0.28892914136E+04  0.28892914136E+04  0.50400001928E-02 0.  1.
       -1   -1    0    0    0  501  0.00000000000E+00  0.00000000000E+00 -0.97715835399E+03  0.97715835400E+03  0.50400001928E-02 0. -1.
    10030    2    1    2    0    0  0.00000000000E+00  0.00000000000E+00  0.19121330596E+04  0.38664497676E+04  0.33605328398E+04 0.  0.
        2    1    3    3  502    0  0.16193770974E+04 -0.29871285943E+01  0.44036470687E+03  0.16781871712E+04  0.25500000920E-02 0.  1.
       -2    1    3    3    0  502 -0.16193770974E+04  0.29871285943E+01  0.14717683527E+04  0.21882625963E+04  0.25500000920E-02 0. -1.
</event>
<event>
 5   0  0.4447909E-07  0.3397275E+04  0.7818609E-02  0.8138575E-01
       -2   -1    0    0    0  501  0.00000000000E+00  0.00000000000E+00  0.11919170344E+04  0.11919170344E+04  0.25500000920E-02 0.  1.
        2   -1    0    0  501    0  0.00000000000E+00  0.00000000000E+00 -0.24207808008E+04  0.24207808008E+04  0.25500000920E-02 0. -1.
    10030    2    1    2    0    0  0.00000000000E+00  0.00000000000E+00 -0.12288637664E+04  0.36126978353E+04  0.33972753042E+04 0.  0.
        5    1    3    3  502    0  0.24633073983E+03  0.78847490971E+03 -0.21927909374E+04  0.23432297586E+04  0.46999998093E+01 0. -1.
       -5    1    3    3    0  502 -0.24633073983E+03 -0.78847490971E+03  0.96392717099E+03  0.12694680766E+04  0.46999998093E+01 0.  1.
</event>
<event>
 5   0  0.1421875E-07  0.3402815E+04  0.7818609E-02  0.8137216E-01
       -1   -1    0    0    0  501  0.00000000000E+00  0.00000000000E+00  0.10180999925E+04  0.10180999925E+04  0.50400001928E-02 0. -1.
        1   -1    0    0  501    0  0.00000000000E+00  0.00000000000E+00 -0.28433239428E+04  0.28433239428E+04  0.50400001928E-02 0.  1.
    10030    2    1    2    0    0  0.00000000000E+00  0.00000000000E+00 -0.18252239503E+04  0.38614239353E+04  0.34028153549E+04 0.  0.
        5    1    3    3  502    0 -0.13719518763E+04 -0.76317669089E+03 -0.16567977986E+04  0.22824748953E+04  0.46999998093E+01 0. -1.
       -5    1    3    3    0  502  0.13719518763E+04  0.76317669089E+03 -0.16842615165E+03  0.15789490400E+04  0.46999998093E+01 0.  1.
</event>
<event>
 5   0  0.1435806E-07  0.3362806E+04  0.7818609E-02  0.8147096E-01
       -1   -1    0    0    0  501  0.00000000000E+00  0.00000000000E+00  0.14979492495E+04  0.14979492495E+04  0.50400001928E-02 0.  1.
        1   -1    0    0  501    0  0.00000000000E+00  0.00000000000E+00 -0.18873242566E+04  0.18873242566E+04  0.50400001928E-02 0. -1.
    10030    2    1    2    0    0  0.00000000000E+00  0.00000000000E+00 -0.38937500711E+03  0.33852735061E+04  0.33628059437E+04 0.  0.
        3    1    3    3  502    0 -0.36116241778E+03  0.73899664105E+03  0.12815896577E+04  0.15228349840E+04  0.10100000352E+00 0.  1.
       -3    1    3    3    0  502  0.36116241778E+03 -0.73899664105E+03 -0.16709646648E+04  0.18624385221E+04  0.10100000352E+00 0. -1.
</event>
<event>
 5   0  0.1421875E-07  0.3375982E+04  0.7818609E-02  0.8143826E-01
       -1   -1    0    0    0  501  0.00000000000E+00  0.00000000000E+00  0.12817168994E+04  0.12817168994E+04  0.50400001928E-02 0. -1.
        1   -1    0    0  501    0  0.00000000000E+00  0.00000000000E+00 -0.22230446470E+04  0.22230446470E+04  0.50400001928E-02 0.  1.
    10030    2    1    2    0    0  0.00000000000E+00  0.00000000000E+00 -0.94132774756E+03  0.35047615464E+04  0.33759821635E+04 0.  0.
        5    1    3    3  502    0  0.16370236872E+04  0.29926763761E+03 -0.76408311417E+03  0.18311888944E+04  0.46999998093E+01 0.  1.
       -5    1    3    3    0  502 -0.16370236872E+04 -0.29926763761E+03 -0.17724463338E+03  0.16735726520E+04  0.46999998093E+01 0. -1.
</event>
<event>
 5   0  0.1473755E-07  0.3401600E+04  0.7818609E-02  0.8137514E-01
       -1   -1    0    0    0  501  0.00000000000E+00  0.00000000000E+00  0.18715986366E+04  0.18715986366E+04  0.50400001928E-02 0.  1.
        1   -1    0    0  501    0  0.00000000000E+00  0.00000000000E+00 -0.15455877371E+04  0.15455877371E+04  0.50400001928E-02 0. -1.
    10030    2    1    2    0    0  0.00000000000E+00  0.00000000000E+00  0.32601089949E+03  0.34171863737E+04  0.34015995658E+04 0.  0.
        1    1    3    3  502    0 -0.15437875617E+04 -0.62699504420E+03  0.50562112189E+03  0.17412798569E+04  0.50400001928E-02 0.  1.
       -1    1    3    3    0  502  0.15437875617E+04  0.62699504420E+03 -0.17961022240E+03  0.16759065168E+04  0.50400001928E-02 0. -1.
</event>
<event>
 5   0  0.4396257E-07  0.3401979E+04  0.7818609E-02  0.8137421E-01
       -2   -1    0    0    0  501  0.00000000000E+00  0.00000000000E+00  0.18143200831E+04  0.18143200831E+04  0.25500000920E-02 0. -1.
        2   -1    0    0  501    0  0.00000000000E+00  0.00000000000E+00 -0.15947382726E+04  0.15947382726E+04  0.25500000920E-02 0.  1.
    10030    2    1    2    0    0  0.00000000000E+00  0.00000000000E+00  0.21958181056E+03  0.34090583557E+04  0.34019792329E+04 0.  0.
        2    1    3    3  502    0 -0.15298229324E+04 -0.20267005825E+02 -0.63512445306E+03  0.16565482265E+04  0.25500000920E-02 0.  1.
       -2    1    3    3    0  502  0.15298229324E+04  0.20267005825E+02  0.85470626362E+03  0.17525101292E+04  0.25500000920E-02 0. -1.
</event>
<event>
 5   0  0.4486226E-07  0.3410374E+04  0.7818609E-02  0.8135365E-01
        2   -1    0    0  501    0  0.00000000000E+00  0.00000000000E+00  0.21478143205E+04  0.21478143205E+04  0.25500000920E-02 0.  1.
       -2   -1    0    0    0  501  0.00000000000E+00  0.00000000000E+00 -0.13537776265E+04  0.13537776265E+04  0.25500000920E-02 0. -1.
    10030    2    1    2    0    0  0.00000000000E+00  0.00000000000E+00  0.79403669393E+03  0.35015919470E+04  0.34103741572E+04 0.  0.
        1    1    3    3  502    0 -0.32242801318E+02  0.13170564392E+04  0.15085572427E+04  0.20028535186E+04  0.50400001928E-02 0.  1.
       -1    1    3    3    0  502  0.32242801318E+02 -0.13170564392E+04 -0.71452054879E+03  0.14987384284E+04  0.50400001928E-02 0. -1.
</event>
<event>
 5   0  0.1421875E-07  0.3389872E+04  0.7818609E-02  0.8140397E-01
        3   -1    0    0  501    0  0.00000000000E+00  0.00000000000E+00  0.12541495436E+04  0.12541495477E+04  0.10100000352E+00 0. -1.
       -3   -1    0    0    0  501  0.00000000000E+00  0.00000000000E+00 -0.22906419924E+04  0.22906419946E+04  0.10100000352E+00 0.  1.
    10030    2    1    2    0    0  0.00000000000E+00  0.00000000000E+00 -0.10364924488E+04  0.35447915423E+04  0.33898717501E+04 0.  0.
        4    1    3    3  502    0  0.10540886713E+03 -0.62846036674E+03  0.11241141759E+04  0.12921717205E+04  0.12699999809E+01 0. -1.
       -4    1    3    3    0  502 -0.10540886713E+03  0.62846036674E+03 -0.21606066247E+04  0.22526198218E+04  0.12699999809E+01 0.  1.
</event>
<event>
 5   0  0.1520084E-07  0.3410024E+04  0.7818609E-02  0.8135451E-01
        1   -1    0    0  501    0  0.00000000000E+00  0.00000000000E+00  0.15235769556E+04  0.15235769556E+04  0.50400001928E-02 0. -1.
       -1   -1    0    0    0  501  0.00000000000E+00  0.00000000000E+00 -0.19080528047E+04  0.19080528047E+04  0.50400001928E-02 0.  1.
    10030    2    1    2    0    0  0.00000000000E+00  0.00000000000E+00 -0.38447584907E+03  0.34316297603E+04  0.34100236265E+04 0.  0.
        2    1    3    3  502    0  0.58223430832E+03 -0.10515825671E+04  0.10246560854E+04  0.15794754757E+04  0.25500000920E-02 0.  1.
       -2    1    3    3    0  502 -0.58223430832E+03  0.10515825671E+04 -0.14091319344E+04  0.18521542846E+04  0.25500000920E-02 0. -1.
</event>
<event>
 5   0  0.1435806E-07  0.3223000E+04  0.7818609E-02  0.8182769E-01
       -1   -1    0    0    0  501  0.00000000000E+00  0.00000000000E+00  0.20108364848E+04  0.20108364848E+04  0.50400001928E-02 0.  1.
        1   -1    0    0  501    0  0.00000000000E+00  0.00000000000E+00 -0.12914687537E+04  0.12914687537E+04  0.50400001928E-02 0. -1.
    10030    2    1    2    0    0  0.00000000000E+00  0.00000000000E+00  0.71936773115E+03  0.33023052385E+04  0.32230001483E+04 0.  0.
        3    1    3    3  502    0 -0.77607909004E+03 -0.82871582436E+02 -0.10848892221E+04  0.13364696359E+04  0.10100000352E+00 0. -1.
       -3    1    3    3    0  502  0.77607909004E+03  0.82871582436E+02  0.18042569532E+04  0.19658356027E+04  0.10100000352E+00 0.  1.
</event>
<event>
 5   0  0.4396257E-07  0.3386504E+04  0.7818609E-02  0.8141227E-01
       -2   -1    0    0    0  501  0.00000000000E+00  0.00000000000E+00  0.15998924414E+04  0.15998924415E+04  0.25500000920E-02 0.  1.
        2   -1    0    0  501    0  0.00000000000E+00  0.00000000000E+00 -0.17920593711E+04  0.17920593711E+04  0.25500000920E-02 0. -1.
    10030    2    1    2    0    0  0.00000000000E+00  0.00000000000E+00 -0.19216692969E+03  0.33919518126E+04  0.33865039451E+04 0.  0.
        2    1    3    3  502    0 -0.11696589914E+04 -0.11000723534E+04  0.44222032279E+03  0.16654789559E+04  0.25500000920E-02 0.  1.
       -2    1    3    3    0  502  0.11696589914E+04  0.11000723534E+04 -0.63438725248E+03  0.17264728567E+04  0.25500000920E-02 0. -1.
</event>
<event>
 5   0  0.4486226E-07  0.3397704E+04  0.7818609E-02  0.8138470E-01
        2   -1    0    0  501    0  0.00000000000E+00  0.00000000000E+00  0.26109372978E+04  0.26109372978E+04  0.25500000920E-02 0.  1.
       -2   -1    0    0    0  501  0.00000000000E+00  0.00000000000E+00 -0.11053877393E+04  0.11053877393E+04  0.25500000920E-02 0. -1.
    10030    2    1    2    0    0  0.00000000000E+00  0.00000000000E+00  0.15055495585E+04  0.37163250371E+04  0.33977039760E+04 0.  0.
        1    1    3    3  502    0 -0.50348241669E+03 -0.70480739364E+03  0.23512780698E+04  0.25057447131E+04  0.50400001928E-02 0.  1.
       -1    1    3    3    0  502  0.50348241669E+03  0.70480739364E+03 -0.84572851128E+03  0.12105803240E+04  0.50400001928E-02 0. -1.
</event>
<event>
 5   0  0.1473755E-07  0.3393268E+04  0.7818609E-02  0.8139561E-01
       -1   -1    0    0    0  501  0.00000000000E+00  0.00000000000E+00  0.19676109535E+04  0.19676109536E+04  0.50400001928E-02 0.  1.
        1   -1    0    0  501    0  0.00000000000E+00  0.00000000000E+00 -0.14629753801E+04  0.14629753802E+04  0.50400001928E-02 0. -1.
    10030    2    1    2    0    0  0.00000000000E+00  0.00000000000E+00  0.50463557341E+03  0.34305863337E+04  0.33932676775E+04 0.  0.
        1    1    3    3  502    0  0.57703800168E+02  0.16809916224E+04  0.47725928729E+03  0.17483818205E+04  0.50400001928E-02 0.  1.
       -1    1    3    3    0  502 -0.57703800168E+02 -0.16809916224E+04  0.27376286118E+02  0.16822045132E+04  0.50400001928E-02 0. -1.
</event>
<event>
 5   0  0.4396257E-07  0.3420371E+04  0.7818609E-02  0.8132925E-01
        2   -1    0    0  501    0  0.00000000000E+00  0.00000000000E+00  0.79810321847E+03  0.79810321848E+03  0.25500000920E-02 0. -1.
       -2   -1    0    0    0  501  0.00000000000E+00  0.00000000000E+00 -0.36646065344E+04  0.36646065344E+04  0.25500000920E-02 0.  1.
    10030    2    1    2    0    0  0.00000000000E+00  0.00000000000E+00 -0.28665033159E+04  0.44627097529E+04  0.34203708978E+04 0.  0.
        2    1    3    3  502    0 -0.51273763762E+03 -0.30343282933E+03 -0.35248195537E+04  0.35748180727E+04  0.25500000920E-02 0.  1.
       -2    1    3    3    0  502  0.51273763762E+03  0.30343282933E+03  0.65831623771E+03  0.88789168021E+03  0.25500000920E-02 0. -1.
</event>
<event>
 5   0  0.1523259E-07  0.3402067E+04  0.7818609E-02  0.8137399E-01
        1   -1    0    0  501    0  0.00000000000E+00  0.00000000000E+00  0.16109921398E+04  0.16109921398E+04  0.50400001928E-02 0. -1.
       -1   -1    0    0    0  501  0.00000000000E+00  0.00000000000E+00 -0.17961079077E+04  0.17961079077E+04  0.50400001928E-02 0.  1.
    10030    2    1    2    0    0  0.00000000000E+00  0.00000000000E+00 -0.18511576794E+03  0.34071000475E+04  0.34020674429E+04 0.  0.
        4    1    3    3  502    0  0.16444589135E+04 -0.38128366326E+03 -0.30237139871E+03  0.17149496860E+04  0.12699999809E+01 0. -1.
       -4    1    3    3    0  502 -0.16444589135E+04  0.38128366326E+03  0.11725563077E+03  0.16921503614E+04  0.12699999809E+01 0.  1.
</event>
<event>
 5   0  0.1435806E-07  0.3385551E+04  0.7818609E-02  0.8141462E-01
        1   -1    0    0  501    0  0.00000000000E+00  0.00000000000E+00  0.22117346986E+04  0.22117346986E+04  0.50400001928E-02 0. -1.
       -1   -1    0    0    0  501  0.00000000000E+00  0.00000000000E+00 -0.12955843616E+04  0.12955843616E+04  0.50400001928E-02 0.  1.
    10030    2    1    2    0    0  0.00000000000E+00  0.00000000000E+00  0.91615033702E+03  0.35073190602E+04  0.33855509965E+04 0.  0.
        3    1    3    3  502    0 -0.24905581861E+03  0.27583998383E+03 -0.12527992571E+04  0.13067603018E+04  0.10100000352E+00 0.  1.
       -3    1    3    3    0  502  0.24905581861E+03 -0.27583998383E+03  0.21689495941E+04  0.22005587585E+04  0.10100000352E+00 0. -1.
</event>
<event>
 5   0  0.4447909E-07  0.3392513E+04  0.7818609E-02  0.8139746E-01
        2   -1    0    0  501    0  0.00000000000E+00  0.00000000000E+00  0.26615661449E+04  0.26615661449E+04  0.25500000920E-02 0.  1.
       -2   -1    0    0    0  501  0.00000000000E+00  0.00000000000E+00 -0.10810501052E+04  0.10810501052E+04  0.25500000920E-02 0. -1.
    10030    2    1    2    0    0  0.00000000000E+00  0.00000000000E+00  0.15805160397E+04  0.37426162500E+04  0.33925131456E+04 0.  0.
        5    1    3    3  502    0 -0.30089645065E+03 -0.75718477971E+03 -0.85102470806E+03  0.11781903956E+04  0.46999998093E+01 0. -1.
       -5    1    3    3    0  502  0.30089645065E+03  0.75718477971E+03  0.24315407478E+04  0.25644258544E+04  0.46999998093E+01 0.  1.
</event>
<event>
 5   0  0.4396257E-07  0.3387453E+04  0.7818609E-02  0.8140993E-01
        2   -1    0    0  501    0  0.00000000000E+00  0.00000000000E+00  0.24883458987E+04  0.24883458987E+04  0.25500000920E-02 0. -1.
       -2   -1    0    0    0  501  0.00000000000E+00  0.00000000000E+00 -0.11528580189E+04  0.11528580189E+04  0.25500000920E-02 0.  1.
    10030    2    1    2    0    0  0.00000000000E+00  0.00000000000E+00  0.13354878797E+04  0.36412039176E+04  0.33874530392E+04 0.  0.
        2    1    3    3  502    0  0.13505194947E+04 -0.30176056093E+03 -0.38201202702E+03  0.14355819484E+04  0.25500000920E-02 0.  1.
       -2    1    3    3    0  502 -0.13505194947E+04  0.30176056093E+03  0.17174999068E+04  0.22056219693E+04  0.25500000920E-02 0. -1.
</event>
<event>
 5   0  0.1421875E-07  0.3415992E+04  0.7818609E-02  0.8133992E-01
        3   -1    0    0  501    0  0.00000000000E+00  0.00000000000E+00  0.20369838243E+04  0.20369838268E+04  0.10100000352E+00 0.  1.
       -3   -1    0    0    0  501  0.00000000000E+00  0.00000000000E+00 -0.14321424999E+04  0.14321425035E+04  0.10100000352E+00 0. -1.
    10030    2    1    2    0    0  0.00000000000E+00  0.00000000000E+00  0.60484132440E+03  0.34691263303E+04  0.34159924573E+04 0.  0.
        2    1    3    3  502    0  0.16798494718E+04  0.29178789752E+03  0.19977080180E+03  0.17166661872E+04  0.25500000920E-02 0. -1.
       -2    1    3    3    0  502 -0.16798494718E+04 -0.29178789752E+03  0.40507052259E+03  0.17524601431E+04  0.25500000920E-02 0.  1.
</event>
<event>
 5   0  0.1520084E-07  0.3395498E+04  0.7818609E-02  0.8139012E-01
       -1   -1    0    0    0  501  0.00000000000E+00  0.00000000000E+00  0.24722600363E+04  0.24722600363E+04  0.50400001928E-02 0. -1.
        1   -1    0    0  501    0  0.00000000000E+00  0.00000000000E+00 -0.11658769335E+04  0.11658769336E+04  0.50400001928E-02 0.  1.
    10030    2    1    2    0    0  0.00000000000E+00  0.00000000000E+00  0.13063831028E+04  0.36381369699E+04  0.33954975778E+04 0.  0.
        2    1    3    3  502    0  0.73682689100E+03 -0.11740338009E+04 -0.39721102508E+03  0.14418896738E+04  0.25500000920E-02 0.  1.
       -2    1    3    3    0  502 -0.73682689100E+03  0.11740338009E+04  0.17035941279E+04  0.21962472961E+04  0.25500000920E-02 0. -1.
</event>
<event>
 5   0  0.1473755E-07  0.3408331E+04  0.7818609E-02  0.8135865E-01
       -1   -1    0    0    0  501  0.00000000000E+00  0.00000000000E+00  0.16860313127E+04  0.16860313127E+04  0.50400001928E-02 0. -1.
        1   -1    0    0  501    0  0.00000000000E+00  0.00000000000E+00 -0.17224942262E+04  0.17224942263E+04  0.50400001928E-02 0.  1.
    10030    2    1    2    0    0  0.00000000000E+00  0.00000000000E+00 -0.36462913566E+02  0.34085255389E+04  0.34083305012E+04 0.  0.
        1    1    3    3  502    0  0.65153106505E+03 -0.15561583716E+04 -0.25919668216E+03  0.17068405099E+04  0.50400001928E-02 0.  1.
       -1    1    3    3    0  502 -0.65153106505E+03  0.15561583716E+04  0.22273376859E+03  0.17016850290E+04  0.50400001928E-02 0. -1.
</event>
<event>
 5   0  0.4396257E-07  0.3396829E+04  0.7818609E-02  0.8138685E-01
        2   -1    0    0  501    0  0.00000000000E+00  0.00000000000E+00  0.17713462698E+04  0.17713462698E+04  0.25500000920E-02 0. -1.
       -2   -1    0    0    0  501  0.00000000000E+00  0.00000000000E+00 -0.16284858177E+04  0.16284858177E+04  0.25500000920E-02 0.  1.
    10030    2    1    2    0    0  0.00000000000E+00  0.00000000000E+00  0.14286045219E+03  0.33998320875E+04  0.33968292737E+04 0.  0.
        2    1    3    3  502    0 -0.21704487837E+03  0.16529793139E+04  0.39600563924E+03  0.17135546556E+04  0.25500000920E-02 0.  1.
       -2    1    3    3    0  502  0.21704487837E+03 -0.16529793139E+04 -0.25314518706E+03  0.16862774319E+04  0.25500000920E-02 0. -1.
</event>
<event>
 5   0  0.1473755E-07  0.3476493E+04  0.7818609E-02  0.8119383E-01
        1   -1    0    0  501    0  0.00000000000E+00  0.00000000000E+00  0.13114429713E+04  0.13114429713E+04  0.50400001928E-02 0.  1.
       -1   -1    0    0    0  501  0.00000000000E+00  0.00000000000E+00 -0.23039516640E+04  0.23039516640E+04  0.50400001928E-02 0. -1.
    10030    2    1    2    0    0  0.00000000000E+00  0.00000000000E+00 -0.99250869270E+03  0.36153946352E+04  0.34764931847E+04 0.  0.
        1    1    3    3  502    0  0.26956276874E+03  0.13466292942E+04 -0.16043924109E+04  0.21119066150E+04  0.50400001928E-02 0. -1.
       -1    1    3    3    0  502 -0.26956276874E+03 -0.13466292942E+04  0.61188371818E+03  0.15034880202E+04  0.50400001928E-02 0.  1.
</event>
<event>
 5   0  0.4447909E-07  0.3332834E+04  0.7818609E-02  0.8154591E-01
       -2   -1    0    0    0  501  0.00000000000E+00  0.00000000000E+00  0.15963889780E+04  0.15963889780E+04  0.25500000920E-02 0. -1.
        2   -1    0    0  501    0  0.00000000000E+00  0.00000000000E+00 -0.17395164787E+04  0.17395164787E+04  0.25500000920E-02 0.  1.
    10030    2    1    2    0    0  0.00000000000E+00  0.00000000000E+00 -0.14312750066E+03  0.33359054567E+04  0.33328335894E+04 0.  0.
        5    1    3    3  502    0 -0.46466586718E+03 -0.49947605000E+03  0.14502099469E+04  0.16026608103E+04  0.46999998093E+01 0. -1.
       -5    1    3    3    0  502  0.46466586718E+03  0.49947605000E+03 -0.15933374476E+04  0.17332446464E+04  0.46999998093E+01 0.  1.
</event>
<event>
 5   0  0.1435806E-07  0.3395572E+04  0.7818609E-02  0.8138994E-01
        1   -1    0    0  501    0  0.00000000000E+00  0.00000000000E+00  0.14027987950E+04  0.14027987951E+04  0.50400001928E-02 0.  1.
       -1   -1    0    0    0  501  0.00000000000E+00  0.00000000000E+00 -0.20548039274E+04  0.20548039274E+04  0.50400001928E-02 0. -1.
    10030    2    1    2    0    0  0.00000000000E+00  0.00000000000E+00 -0.65200513239E+03  0.34576027225E+04  0.33955715121E+04 0.  0.
        3    1    3    3  502    0  0.51255004536E+03 -0.15764688733E+04  0.47460152599E+02  0.16583769577E+04  0.10100000352E+00 0.  1.
       -3    1    3    3    0  502 -0.51255004536E+03  0.15764688733E+04 -0.69946528499E+03  0.17992257648E+04  0.10100000352E+00 0. -1.
</event>
<event>
 5   0  0.1421875E-07  0.3404716E+04  0.7818609E-02  0.8136750E-01
        3   -1    0    0  501    0  0.00000000000E+00  0.00000000000E+00  0.25405320774E+04  0.25405320794E+04  0.10100000352E+00 0.  1.
       -3   -1    0    0    0  501  0.00000000000E+00  0.00000000000E+00 -0.11407148606E+04  0.11407148650E+04  0.10100000352E+00 0. -1.
    10030    2    1    2    0    0  0.00000000000E+00  0.00000000000E+00  0.13998172169E+04  0.36812469445E+04  0.34047159684E+04 0.  0.
        5    1    3    3  502    0 -0.13540483737E+04  0.10278702859E+04  0.79683497965E+03  0.18774803322E+04  0.46999998093E+01 0. -1.
       -5    1    3    3    0  502  0.13540483737E+04 -0.10278702859E+04  0.60298223722E+03  0.18037666123E+04  0.46999998093E+01 0.  1.
</event>
<event>
 5   0  0.1421875E-07  0.3392269E+04  0.7818609E-02  0.8139806E-01
        1   -1    0    0  501    0  0.00000000000E+00  0.00000000000E+00  0.15001204841E+04  0.15001204841E+04  0.50400001928E-02 0. -1.
       -1   -1    0    0    0  501  0.00000000000E+00  0.00000000000E+00 -0.19177603968E+04  0.19177603968E+04  0.50400001928E-02 0.  1.
    10030    2    1    2    0    0  0.00000000000E+00  0.00000000000E+00 -0.41763991273E+03  0.34178808808E+04  0.33922686537E+04 0.  0.
        5    1    3    3  502    0 -0.10080386004E+04  0.29406853837E+03  0.11332396925E+04  0.15449506192E+04  0.46999998093E+01 0. -1.
       -5    1    3    3    0  502  0.10080386004E+04 -0.29406853837E+03 -0.15508796052E+04  0.18729302617E+04  0.46999998093E+01 0.  1.
</event>
<event>
 5   0  0.4396257E-07  0.3406106E+04  0.7818609E-02  0.8136409E-01
        2   -1    0    0  501    0  0.00000000000E+00  0.00000000000E+00  0.14308523605E+04  0.14308523605E+04  0.25500000920E-02 0.  1.
       -2   -1    0    0    0  501  0.00000000000E+00  0.00000000000E+00 -0.20270361883E+04  0.20270361883E+04  0.25500000920E-02 0. -1.
    10030    2    1    2    0    0  0.00000000000E+00  0.00000000000E+00 -0.59618382782E+03  0.34578885487E+04  0.34061059964E+04 0.  0.
        2    1    3    3  502    0  0.13745710460E+04  0.61195143243E+03 -0.11080045682E+04  0.18685834847E+04  0.25500000920E-02 0.  1.
       -2    1    3    3    0  502 -0.13745710460E+04 -0.61195143243E+03  0.51182074039E+03  0.15893050640E+04  0.25500000920E-02 0. -1.
</event>
<event>
 5   0  0.1421875E-07  0.3396056E+04  0.7818609E-02  0.8138875E-01
       -3   -1    0    0    0  501  0.00000000000E+00  0.00000000000E+00  0.11261832903E+04  0.11261832948E+04  0.10100000352E+00 0.  1.
        3   -1    0    0  501    0  0.00000000000E+00  0.00000000000E+00 -0.25602398773E+04  0.25602398793E+04  0.10100000352E+00 0. -1.
    10030    2    1    2    0    0  0.00000000000E+00  0.00000000000E+00 -0.14340565870E+04  0.36864231741E+04  0.33960561720E+04 0.  0.
        5    1    3    3  502    0  0.14773285812E+04  0.83383712914E+03 -0.79748140980E+03  0.18745086780E+04  0.46999998093E+01 0. -1.
       -5    1    3    3    0  502 -0.14773285812E+04 -0.83383712914E+03 -0.63657517720E+03  0.18119144961E+04  0.46999998093E+01 0.  1.
</event>
<event>
 5   0  0.1473755E-07  0.3402513E+04  0.7818609E-02  0.8137290E-01
        1   -1    0    0  501    0  0.00000000000E+00  0.00000000000E+00  0.17360671146E+04  0.17360671146E+04  0.50400001928E-02 0.  1.
       -1   -1    0    0    0  501  0.00000000000E+00  0.00000000000E+00 -0.16671434243E+04  0.16671434243E+04  0.50400001928E-02 0. -1.
    10030    2    1    2    0    0  0.00000000000E+00  0.00000000000E+00  0.68923690351E+02  0.34032105389E+04  0.34025125271E+04 0.  0.
        1    1    3    3  502    0  0.39307738365E+03  0.13920439189E+04  0.93017711845E+03  0.17197457875E+04  0.50400001928E-02 0.  1.
       -1    1    3    3    0  502 -0.39307738365E+03 -0.13920439189E+04 -0.86125342810E+03  0.16834647514E+04  0.50400001928E-02 0. -1.
</event>
<event>
 5   0  0.4396257E-07  0.3379611E+04  0.7818609E-02  0.8142929E-01
       -2   -1    0    0    0  501  0.00000000000E+00  0.00000000000E+00  0.96457979033E+03  0.96457979033E+03  0.25500000920E-02 0.  1.
        2   -1    0    0  501    0  0.00000000000E+00  0.00000000000E+00 -0.29602969854E+04  0.29602969854E+04  0.25500000920E-02 0. -1.
    10030    2    1    2    0    0  0.00000000000E+00  0.00000000000E+00 -0.19957171951E+04  0.39248767758E+04  0.33796110105E+04 0.  0.
        2    1    3    3  502    0 -0.76875630111E+02  0.16106689637E+04 -0.41109084779E+03  0.16640793426E+04  0.25500000920E-02 0. -1.
       -2    1    3    3    0  502  0.76875630111E+02 -0.16106689637E+04 -0.15846263473E+04  0.22607974332E+04  0.25500000920E-02 0.  1.
</event>
<event>
 5   0  0.1520084E-07  0.3385066E+04  0.7818609E-02  0.8141581E-01
        1   -1    0    0  501    0  0.00000000000E+00  0.00000000000E+00  0.22357136976E+04  0.22357136976E+04  0.50400001928E-02 0. -1.
       -1   -1    0    0    0  501  0.00000000000E+00  0.00000000000E+00 -0.12813217962E+04  0.12813217962E+04  0.50400001928E-02 0.  1.
    10030    2    1    2    0    0  0.00000000000E+00  0.00000000000E+00  0.95439190139E+03  0.35170354938E+04  0.33850664340E+04 0.  0.
        2    1    3    3  502    0 -0.27516452860E+02 -0.98270220956E+03 -0.95427138827E+03  0.13700710457E+04  0.25500000920E-02 0.  1.
       -2    1    3    3    0  502  0.27516452860E+02  0.98270220956E+03  0.19086632897E+04  0.21469644480E+04  0.25500000920E-02 0. -1.
</event>
<event>
 5   0  0.1520084E-07  0.3392890E+04  0.7818609E-02  0.8139654E-01
        1   -1    0    0  501    0  0.00000000000E+00  0.00000000000E+00  0.22889499565E+04  0.22889499565E+04  0.50400001928E-02 0. -1.
       -1   -1    0    0    0  501  0.00000000000E+00  0.00000000000E+00 -0.12573124642E+04  0.12573124643E+04  0.50400001928E-02 0.  1.
    10030    2    1    2    0    0  0.00000000000E+00  0.00000000000E+00  0.10316374923E+04  0.35462624208E+04  0.33928898069E+04 0.  0.
        2    1    3    3  502    0  0.14725505056E+04  0.24877808865E+03  0.13569514535E+04  0.20178237723E+04  0.25500000920E-02 0. -1.
       -2    1    3    3    0  502 -0.14725505056E+04 -0.24877808865E+03 -0.32531396122E+03  0.15284386485E+04  0.25500000920E-02 0.  1.
</event>
<event>
 5   0  0.1523259E-07  0.3395523E+04  0.7818609E-02  0.8139006E-01
       -1   -1    0    0    0  501  0.00000000000E+00  0.00000000000E+00  0.17425457905E+04  0.17425457905E+04  0.50400001928E-02 0. -1.
        1   -1    0    0  501    0  0.00000000000E+00  0.00000000000E+00 -0.16541278228E+04  0.16541278228E+04  0.50400001928E-02 0.  1.
    10030    2    1    2    0    0  0.00000000000E+00  0.00000000000E+00  0.88417967765E+02  0.33966736133E+04  0.33955226252E+04 0.  0.
        4    1    3    3  502    0 -0.66466658836E+03 -0.14745202111E+04  0.56052378152E+03  0.17117768690E+04  0.12699999809E+01 0. -1.
       -4    1    3    3    0  502  0.66466658836E+03  0.14745202111E+04 -0.47210581375E+03  0.16848967443E+04  0.12699999809E+01 0.  1.
</event>
<event>
 5   0  0.1523259E-07  0.3457521E+04  0.7818609E-02  0.8123931E-01
        1   -1    0    0  501    0  0.00000000000E+00  0.00000000000E+00  0.20129162711E+04  0.20129162711E+04  0.50400001928E-02 0.  1.
       -1   -1    0    0    0  501  0.00000000000E+00  0.00000000000E+00 -0.14847180240E+04  0.14847180241E+04  0.50400001928E-02 0. -1.
    10030    2    1    2    0    0  0.00000000000E+00  0.00000000000E+00  0.52819824701E+03  0.34976342951E+04  0.34575211170E+04 0.  0.
        4    1    3    3  502    0  0.15081246671E+04 -0.23954698048E+02  0.11186467116E+04  0.18778673855E+04  0.12699999809E+01 0.  1.
       -4    1    3    3    0  502 -0.15081246671E+04  0.23954698048E+02 -0.59044846464E+03  0.16197669096E+04  0.12699999809E+01 0. -1.
</event>
<event>
 5   0  0.1421875E-07  0.3408832E+04  0.7818609E-02  0.8135742E-01
       -1   -1    0    0    0  501  0.00000000000E+00  0.00000000000E+00  0.12500269365E+04  0.12500269365E+04  0.50400001928E-02 0. -1.
        1   -1    0    0  501    0  0.00000000000E+00  0.00000000000E+00 -0.23239771737E+04  0.23239771737E+04  0.50400001928E-02 0.  1.
    10030    2    1    2    0    0  0.00000000000E+00  0.00000000000E+00 -0.10739502372E+04  0.35740041102E+04  0.34088320974E+04 0.  0.
        5    1    3    3  502    0 -0.77713748517E+03 -0.60847272149E+03  0.91989717677E+03  0.13492274195E+04  0.46999998093E+01 0. -1.
       -5    1    3    3    0  502  0.77713748517E+03  0.60847272149E+03 -0.19938474139E+04  0.22247766908E+04  0.46999998093E+01 0.  1.
</event>
<event>
 5   0  0.1435806E-07  0.3393365E+04  0.7818609E-02  0.8139537E-01
        1   -1    0    0  501    0  0.00000000000E+00  0.00000000000E+00  0.96848960818E+03  0.96848960819E+03  0.50400001928E-02 0. -1.
       -1   -1    0    0    0  501  0.00000000000E+00  0.00000000000E+00 -0.29723920159E+04  0.29723920159E+04  0.50400001928E-02 0.  1.
    10030    2    1    2    0    0  0.00000000000E+00  0.00000000000E+00 -0.20039024077E+04  0.39408816241E+04  0.33933645716E+04 0.  0.
        3    1    3    3  502    0  0.86509507993E+03  0.25097959817E+03 -0.26717722347E+04  0.28195295956E+04  0.10100000352E+00 0.  1.
       -3    1    3    3    0  502 -0.86509507993E+03 -0.25097959817E+03  0.66786982694E+03  0.11213520286E+04  0.10100000352E+00 0. -1.
</event>
<event>
 5   0  0.4447909E-07  0.3400805E+04  0.7818609E-02  0.8137709E-01
        2   -1    0    0  501    0  0.00000000000E+00  0.00000000000E+00  0.11843830564E+04  0.11843830564E+04  0.25500000920E-02 0. -1.
       -2   -1    0    0    0  501  0.00000000000E+00  0.00000000000E+00 -0.24412441187E+04  0.24412441187E+04  0.25500000920E-02 0.  1.
    10030    2    1    2    0    0  0.00000000000E+00  0.00000000000E+00 -0.12568610623E+04  0.36256271751E+04  0.34008047111E+04 0.  0.
        5    1    3    3  502    0 -0.60895640990E+03 -0.13976705115E+04  0.17436787714E+03  0.15345152376E+04  0.46999998093E+01 0. -1.
       -5    1    3    3    0  502  0.60895640990E+03  0.13976705115E+04 -0.14312289395E+04  0.20911119375E+04  0.46999998093E+01 0.  1.
</event>
<event>
 5   0  0.1421875E-07  0.3428570E+04  0.7818609E-02  0.8130930E-01
       -1   -1    0    0    0  501  0.00000000000E+00  0.00000000000E+00  0.11415169080E+04  0.11415169080E+04  0.50400001928E-02 0.  1.
        1   -1    0    0  501    0  0.00000000000E+00  0.00000000000E+00 -0.25744451553E+04  0.25744451553E+04  0.50400001928E-02 0. -1.
    10030    2    1    2    0    0  0.00000000000E+00  0.00000000000E+00 -0.14329282473E+04  0.37159620633E+04  0.34285697738E+04 0.  0.
        5    1    3    3  502    0  0.65821173305E+03  0.79229029835E+03  0.76872272343E+03  0.12852716903E+04  0.46999998093E+01 0.  1.
       -5    1    3    3    0  502 -0.65821173305E+03 -0.79229029835E+03 -0.22016509707E+04  0.24306903730E+04  0.46999998093E+01 0. -1.
</event>
<event>
 5   0  0.4486226E-07  0.3406341E+04  0.7818609E-02  0.8136352E-01
        2   -1    0    0  501    0  0.00000000000E+00  0.00000000000E+00  0.33152898284E+04  0.33152898284E+04  0.25500000920E-02 0. -1.
       -2   -1    0    0    0  501  0.00000000000E+00  0.00000000000E+00 -0.87497322916E+03  0.87497322917E+03  0.25500000920E-02 0.  1.
    10030    2    1    2    0    0  0.00000000000E+00  0.00000000000E+00  0.24403165993E+04  0.41902630576E+04  0.34063410556E+04 0.  0.
        1    1    3    3  502    0 -0.13278717739E+04  0.66317547541E+03  0.22477046674E+04  0.26935518244E+04  0.50400001928E-02 0.  1.
       -1    1    3    3    0  502  0.13278717739E+04 -0.66317547541E+03  0.19261193190E+03  0.14967112332E+04  0.50400001928E-02 0. -1.
</event>
<event>
 5   0  0.1435806E-07  0.3385445E+04  0.7818609E-02  0.8141488E-01
        1   -1    0    0  501    0  0.00000000000E+00  0.00000000000E+00  0.21340655566E+04  0.21340655566E+04  0.50400001928E-02 0. -1.
       -1   -1    0    0    0  501  0.00000000000E+00  0.00000000000E+00 -0.13426532910E+04  0.13426532910E+04  0.50400001928E-02 0.  1.
    10030    2    1    2    0    0  0.00000000000E+00  0.00000000000E+00  0.79141226563E+03  0.34767188477E+04  0.33854454022E+04 0.  0.
        3    1    3    3  502    0  0.64424529883E+03  0.44535174675E+03 -0.11453917785E+04  0.13875563123E+04  0.10100000352E+00 0.  1.
       -3    1    3    3    0  502 -0.64424529883E+03 -0.44535174675E+03  0.19368040441E+04  0.20891625353E+04  0.10100000352E+00 0. -1.
</event>
<event>
 5   0  0.1523259E-07  0.3408093E+04  0.7818609E-02  0.8135923E-01
        1   -1    0    0  501    0  0.00000000000E+00  0.00000000000E+00  0.12076161483E+04  0.12076161484E+04  0.50400001928E-02 0. -1.
       -1   -1    0    0    0  501  0.00000000000E+00  0.00000000000E+00 -0.24045503279E+04  0.24045503279E+04  0.50400001928E-02 0.  1.
    10030    2    1    2    0    0  0.00000000000E+00  0.00000000000E+00 -0.11969341796E+04  0.36121664763E+04  0.34080926076E+04 0.  0.
        4    1    3    3  502    0 -0.18815447894E+03 -0.48591743542E+03  0.11211046332E+04  0.12362827644E+04  0.12699999809E+01 0. -1.
       -4    1    3    3    0  502  0.18815447894E+03  0.48591743542E+03 -0.23180388128E+04  0.23758837119E+04  0.12699999809E+01 0.  1.
</event>
<event>
 5   0  0.4486226E-07  0.3446042E+04  0.7818609E-02  0.8126698E-01
       -2   -1    0    0    0  501  0.00000000000E+00  0.00000000000E+00  0.16186442307E+04  0.16186442307E+04  0.25500000920E-02 0.  1.
        2   -1    0    0  501    0  0.00000000000E+00  0.00000000000E+00 -0.18341280875E+04  0.18341280875E+04  0.25500000920E-02 0. -1.
    10030    2    1    2    0    0  0.00000000000E+00  0.00000000000E+00 -0.21548385682E+03  0.34527723182E+04  0.34460416986E+04 0.  0.
        1    1    3    3  502    0  0.20691034470E+03 -0.16581299553E+04  0.31330974169E+03  0.17001087711E+04  0.50400001928E-02 0.  1.
       -1    1    3    3    0  502 -0.20691034470E+03  0.16581299553E+04 -0.52879359851E+03  0.17526635471E+04  0.50400001928E-02 0. -1.
</event>
<event>
 5   0  0.4381939E-07  0.3453862E+04  0.7818609E-02  0.8124812E-01
       -2   -1    0    0    0  501  0.00000000000E+00  0.00000000000E+00  0.12858799090E+04  0.12858799090E+04  0.25500000920E-02 0. -1.
        2   -1    0    0  501    0  0.00000000000E+00  0.00000000000E+00 -0.23192610970E+04  0.23192610970E+04  0.25500000920E-02 0.  1.
    10030    2    1    2    0    0  0.00000000000E+00  0.00000000000E+00 -0.10333811880E+04  0.36051410060E+04  0.34538623298E+04 0.  0.
        3    1    3    3  502    0  0.43338620802E+03  0.53294503200E+03 -0.21705245942E+04  0.22766271185E+04  0.10100000352E+00 0.  1.
       -3    1    3    3    0  502 -0.43338620802E+03 -0.53294503200E+03  0.11371434063E+04  0.13285138874E+04  0.10100000352E+00 0. -1.
</event>
<event>
 5   0  0.4486226E-07  0.3404190E+04  0.7818609E-02  0.8136879E-01
       -2   -1    0    0    0  501  0.00000000000E+00  0.00000000000E+00  0.16088885609E+04  0.16088885609E+04  0.25500000920E-02 0.  1.
        2   -1    0    0  501    0  0.00000000000E+00  0.00000000000E+00 -0.18007010474E+04  0.18007010474E+04  0.25500000920E-02 0. -1.
    10030    2    1    2    0    0  0.00000000000E+00  0.00000000000E+00 -0.19181248655E+03  0.34095896083E+04  0.34041899575E+04 0.  0.
        1    1    3    3  502    0 -0.66090338441E+03  0.49171497881E+03  0.13959362503E+04  0.16208685693E+04  0.50400001928E-02 0.  1.
       -1    1    3    3    0  502  0.66090338441E+03 -0.49171497881E+03 -0.15877487369E+04  0.17887210390E+04  0.50400001928E-02 0. -1.
</event>
<event>
 5   0  0.4381939E-07  0.3413269E+04  0.7818609E-02  0.8134657E-01
        2   -1    0    0  501    0  0.00000000000E+00  0.00000000000E+00  0.19632551762E+04  0.19632551762E+04  0.25500000920E-02 0. -1.
       -2   -1    0    0    0  501  0.00000000000E+00  0.00000000000E+00 -0.14835568052E+04  0.14835568052E+04  0.25500000920E-02 0.  1.
    10030    2    1    2    0    0  0.00000000000E+00  0.00000000000E+00  0.47969837101E+03  0.34468119815E+04  0.34132685667E+04 0.  0.
        3    1    3    3  502    0 -0.15011588221E+03  0.68181494396E+03  0.18124568592E+04  0.19422683318E+04  0.10100000352E+00 0. -1.
       -3    1    3    3    0  502  0.15011588221E+03 -0.68181494396E+03 -0.13327584882E+04  0.15045436497E+04  0.10100000352E+00 0.  1.
</event>
<event>
 5   0  0.4396257E-07  0.3396259E+04  0.7818609E-02  0.8138825E-01
        2   -1    0    0  501    0  0.00000000000E+00  0.00000000000E+00  0.23964791034E+04  0.23964791034E+04  0.25500000920E-02 0. -1.
       -2   -1    0    0    0  501  0.00000000000E+00  0.00000000000E+00 -0.12032833254E+04  0.12032833254E+04  0.25500000920E-02 0.  1.
    10030    2    1    2    0    0  0.00000000000E+00  0.00000000000E+00  0.11931957780E+04  0.35997624289E+04  0.33962587327E+04 0.  0.
        2    1    3    3  502    0  0.12900923332E+04  0.38456768378E+03 -0.50051543572E+03  0.14362263864E+04  0.25500000920E-02 0.  1.
       -2    1    3    3    0  502 -0.12900923332E+04 -0.38456768378E+03  0.16937112137E+04  0.21635360425E+04  0.25500000920E-02 0. -1.
</event>
<event>
 5   0  0.4486226E-07  0.3405994E+04  0.7818609E-02  0.8136437E-01
       -2   -1    0    0    0  501  0.00000000000E+00  0.00000000000E+00  0.12492313222E+04  0.12492313222E+04  0.25500000920E-02 0. -1.
        2   -1    0    0  501    0  0.00000000000E+00  0.00000000000E+00 -0.23215863431E+04  0.23215863431E+04  0.25500000920E-02 0.  1.
    10030    2    1    2    0    0  0.00000000000E+00  0.00000000000E+00 -0.10723550209E+04  0.35708176653E+04  0.34059937621E+04 0.  0.
        1    1    3    3  502    0 -0.14546539104E+03 -0.15845222618E+04 -0.11724466205E+04  0.19764873023E+04  0.50400001928E-02 0.  1.
       -1    1    3    3    0  502  0.14546539104E+03  0.15845222618E+04  0.10009159958E+03  0.15943303630E+04  0.50400001928E-02 0. -1.
</event>
<event>
 5   0  0.1421875E-07  0.3397376E+04  0.7818609E-02  0.8138551E-01
       -1   -1    0    0    0  501  0.00000000000E+00  0.00000000000E+00  0.16134207821E+04  0.16134207821E+04  0.50400001928E-02 0. -1.
        1   -1    0    0  501    0  0.00000000000E+00  0.00000000000E+00 -0.17884619521E+04  0.17884619521E+04  0.50400001928E-02 0.  1.
    10030    2    1    2    0    0  0.00000000000E+00  0.00000000000E+00 -0.17504117001E+03  0.34018827342E+04  0.33973764475E+04 0.  0.
        5    1    3    3  502    0  0.81436319210E+03 -0.11490752750E+04  0.86345391536E+03  0.16520097307E+04  0.46999998093E+01 0. -1.
       -5    1    3    3    0  502 -0.81436319210E+03  0.11490752750E+04 -0.10384950854E+04  0.17498730036E+04  0.46999998093E+01 0.  1.
</event>
<event>
 5   0  0.1421875E-07  0.3392061E+04  0.7818609E-02  0.8139857E-01
        1   -1    0    0  501    0  0.00000000000E+00  0.00000000000E+00  0.19765524971E+04  0.19765524971E+04  0.50400001928E-02 0.  1.
       -1   -1    0    0    0  501  0.00000000000E+00  0.00000000000E+00 -0.14553218865E+04  0.14553218865E+04  0.50400001928E-02 0. -1.
    10030    2    1    2    0    0  0.00000000000E+00  0.00000000000E+00  0.52123061061E+03  0.34318743835E+04  0.33920613843E+04 0.  0.
        5    1    3    3  502    0  0.84506209405E+03 -0.11855757175E+04 -0.61952521108E+03  0.15822620838E+04  0.46999998093E+01 0. -1.
       -5    1    3    3    0  502 -0.84506209405E+03  0.11855757175E+04  0.11407558217E+04  0.18496122997E+04  0.46999998093E+01 0.  1.
</event>
<event>
 5   0  0.4396257E-07  0.3404735E+04  0.7818609E-02  0.8136745E-01
       -2   -1    0    0    0  501  0.00000000000E+00  0.00000000000E+00  0.16976200537E+04  0.16976200537E+04  0.25500000920E-02 0. -1.
        2   -1    0    0  501    0  0.00000000000E+00  0.00000000000E+00 -0.17071278194E+04  0.17071278194E+04  0.25500000920E-02 0.  1.
    10030    2    1    2    0    0  0.00000000000E+00  0.00000000000E+00 -0.95077657050E+01  0.34047478732E+04  0.34047345979E+04 0.  0.
        2    1    3    3  502    0 -0.12023223354E+04  0.81944324906E+03  0.87898492139E+03  0.16999060941E+04  0.25500000920E-02 0. -1.
       -2    1    3    3    0  502  0.12023223354E+04 -0.81944324906E+03 -0.88849268710E+03  0.17048417791E+04  0.25500000920E-02 0.  1.
</event>
<event>
 5   0  0.1435806E-07  0.3394774E+04  0.7818609E-02  0.8139190E-01
       -1   -1    0    0    0  501  0.00000000000E+00  0.00000000000E+00  0.14710668600E+04  0.14710668600E+04  0.50400001928E-02 0.  1.
        1   -1    0    0  501    0  0.00000000000E+00  0.00000000000E+00 -0.19585261189E+04  0.19585261189E+04  0.50400001928E-02 0. -1.
    10030    2    1    2    0    0  0.00000000000E+00  0.00000000000E+00 -0.48745925890E+03  0.34295929789E+04  0.33947741415E+04 0.  0.
        3    1    3    3  502    0 -0.88841686245E+03 -0.38695989126E+03 -0.16516157660E+04  0.19149039474E+04  0.10100000352E+00 0. -1.
       -3    1    3    3    0  502  0.88841686245E+03  0.38695989126E+03  0.11641565071E+04  0.15146890315E+04  0.10100000352E+00 0.  1.
</event>
<event>
 5   0  0.1421875E-07  0.3389447E+04  0.7818609E-02  0.8140501E-01
        1   -1    0    0  501    0  0.00000000000E+00  0.00000000000E+00  0.11543690900E+04  0.11543690900E+04  0.50400001928E-02 0.  1.
       -1   -1    0    0    0  501  0.00000000000E+00  0.00000000000E+00 -0.24880151822E+04  0.24880151822E+04  0.50400001928E-02 0. -1.
    10030    2    1    2    0    0  0.00000000000E+00  0.00000000000E+00 -0.13336460922E+04  0.36423842722E+04  0.33894470474E+04 0.  0.
        5    1    3    3  502    0  0.59549304948E+03  0.15813147546E+04 -0.80651356763E+03  0.18723393255E+04  0.46999998093E+01 0.  1.
       -5    1    3    3    0  502 -0.59549304948E+03 -0.15813147546E+04 -0.52713252460E+03  0.17700449467E+04  0.46999998093E+01 0. -1.
</event>
<event>
 5   0  0.4447909E-07  0.3270895E+04  0.7818609E-02  0.8170341E-01
       -2   -1    0    0    0  501  0.00000000000E+00  0.00000000000E+00  0.17981621187E+04  0.17981621187E+04  0.25500000920E-02 0. -1.
        2   -1    0    0  501    0  0.00000000000E+00  0.00000000000E+00 -0.14874568615E+04  0.14874568615E+04  0.25500000920E-02 0.  1.
    10030    2    1    2    0    0  0.00000000000E+00  0.00000000000E+00  0.31070525720E+03  0.32856189802E+04  0.32708950344E+04 0.  0.
        5    1    3    3  502    0  0.40365277528E+03  0.13155227116E+04  0.10431472442E+04  0.17267639766E+04  0.46999998093E+01 0. -1.
       -5    1    3    3    0  502 -0.40365277528E+03 -0.13155227116E+04 -0.73244198703E+03  0.15588550036E+04  0.46999998093E+01 0.  1.
</event>
<event>
 5   0  0.4381939E-07  0.3397994E+04  0.7818609E-02  0.8138399E-01
       -2   -1    0    0    0  501  0.00000000000E+00  0.00000000000E+00  0.91677040085E+03  0.91677040086E+03  0.25500000920E-02 0. -1.
        2   -1    0    0  501    0  0.00000000000E+00  0.00000000000E+00 -0.31486523680E+04  0.31486523680E+04  0.25500000920E-02 0.  1.
    10030    2    1    2    0    0  0.00000000000E+00  0.00000000000E+00 -0.22318819672E+04  0.40654227689E+04  0.33979942870E+04 0.  0.
        3    1    3    3  502    0 -0.11314578205E+04 -0.28711430241E+03  0.36102276213E+03  0.12218710518E+04  0.10100000352E+00 0. -1.
       -3    1    3    3    0  502  0.11314578205E+04  0.28711430241E+03 -0.25929047293E+04  0.28435517171E+04  0.10100000352E+00 0.  1.
</event>
<event>
 5   0  0.1421875E-07  0.3398444E+04  0.7818609E-02  0.8138288E-01
        3   -1    0    0  501    0  0.00000000000E+00  0.00000000000E+00  0.18699061430E+04  0.18699061457E+04  0.10100000352E+00 0. -1.
       -3   -1    0    0    0  501  0.00000000000E+00  0.00000000000E+00 -0.15441180558E+04  0.15441180591E+04  0.10100000352E+00 0.  1.
    10030    2    1    2    0    0  0.00000000000E+00  0.00000000000E+00  0.32578808721E+03  0.34140242048E+04  0.33984442607E+04 0.  0.
        2    1    3    3  502    0 -0.14552320386E+04  0.27605279915E+03  0.99944837187E+03  0.17868414821E+04  0.25500000920E-02 0. -1.
       -2    1    3    3    0  502  0.14552320386E+04 -0.27605279915E+03 -0.67366028465E+03  0.16271827227E+04  0.25500000920E-02 0.  1.
</event>
<event>
 5   0  0.4396257E-07  0.3405717E+04  0.7818609E-02  0.8136505E-01
       -2   -1    0    0    0  501  0.00000000000E+00  0.00000000000E+00  0.14366556840E+04  0.14366556840E+04  0.25500000920E-02 0.  1.
        2   -1    0    0  501    0  0.00000000000E+00  0.00000000000E+00 -0.20183870988E+04  0.20183870988E+04  0.25500000920E-02 0. -1.
    10030    2    1    2    0    0  0.00000000000E+00  0.00000000000E+00 -0.58173141481E+03  0.34550427827E+04  0.34057171332E+04 0.  0.
        2    1    3    3  502    0 -0.36756668726E+03  0.13657004829E+04 -0.12530131493E+04  0.18895197884E+04  0.25500000920E-02 0. -1.
       -2    1    3    3    0  502  0.36756668726E+03 -0.13657004829E+04  0.67128173452E+03  0.15655229943E+04  0.25500000920E-02 0.  1.
</event>
<event>
 5   0  0.1435806E-07  0.3454338E+04  0.7818609E-02  0.8124697E-01
        1   -1    0    0  501    0  0.00000000000E+00  0.00000000000E+00  0.14404593389E+04  0.14404593389E+04  0.50400001928E-02 0.  1.
       -1   -1    0    0    0  501  0.00000000000E+00  0.00000000000E+00 -0.20709456952E+04  0.20709456952E+04  0.50400001928E-02 0. -1.
    10030    2    1    2    0    0  0.00000000000E+00  0.00000000000E+00 -0.63048635637E+03  0.35114050341E+04  0.34543381809E+04 0.  0.
        3    1    3    3  502    0 -0.48988854461E+03 -0.30177043226E+03 -0.19706604857E+04  0.20529390980E+04  0.10100000352E+00 0. -1.
       -3    1    3    3    0  502  0.48988854461E+03  0.30177043226E+03  0.13401741293E+04  0.14584659362E+04  0.10100000352E+00 0.  1.
</event>
<event>
 5   0  0.4381939E-07  0.3374188E+04  0.7818609E-02  0.8144271E-01
       -2   -1    0    0    0  501  0.00000000000E+00  0.00000000000E+00  0.19048922057E+04  0.19048922057E+04  0.25500000920E-02 0.  1.
        2   -1    0    0  501    0  0.00000000000E+00  0.00000000000E+00 -0.14941980327E+04  0.14941980327E+04  0.25500000920E-02 0. -1.
    10030    2    1    2    0    0  0.00000000000E+00  0.00000000000E+00  0.41069417300E+03  0.33990902385E+04  0.33741880128E+04 0.  0.
        3    1    3    3  502    0  0.14510585338E+04 -0.43356170730E+03 -0.54360440127E+03  0.16090532551E+04  0.10100000352E+00 0. -1.
       -3    1    3    3    0  502 -0.14510585338E+04  0.43356170730E+03  0.95429857427E+03  0.17900369833E+04  0.10100000352E+00 0.  1.
</event>
<event>
 5   0  0.1520084E-07  0.3402291E+04  0.7818609E-02  0.8137344E-01
       -1   -1    0    0    0  501  0.00000000000E+00  0.00000000000E+00  0.12902544909E+04  0.12902544909E+04  0.50400001928E-02 0.  1.
        1   -1    0    0  501    0  0.00000000000E+00  0.00000000000E+00 -0.22428881250E+04  0.22428881250E+04  0.50400001928E-02 0. -1.
    10030    2    1    2    0    0  0.00000000000E+00  0.00000000000E+00 -0.95263363409E+03  0.35331426160E+04  0.34022912726E+04 0.  0.
        2    1    3    3  502    0  0.13394508222E+02  0.69577010683E+03  0.11356795129E+04  0.13319322094E+04  0.25500000920E-02 0.  1.
       -2    1    3    3    0  502 -0.13394508222E+02 -0.69577010683E+03 -0.20883131469E+04  0.22012104066E+04  0.25500000920E-02 0. -1.
</event>
<event>
 5   0  0.1435806E-07  0.3520582E+04  0.7818609E-02  0.8108930E-01
       -1   -1    0    0    0  501  0.00000000000E+00  0.00000000000E+00  0.19999781636E+04  0.19999781636E+04  0.50400001928E-02 0. -1.
        1   -1    0    0  501    0  0.00000000000E+00  0.00000000000E+00 -0.15493286824E+04  0.15493286824E+04  0.50400001928E-02 0.  1.
    10030    2    1    2    0    0  0.00000000000E+00  0.00000000000E+00  0.45064948124E+03  0.35493068460E+04  0.35205815048E+04 0.  0.
        3    1    3    3  502    0  0.69186756604E+03 -0.80451324780E+03  0.16413134848E+04  0.19544391166E+04  0.10100000352E+00 0. -1.
       -3    1    3    3    0  502 -0.69186756604E+03  0.80451324780E+03 -0.11906640036E+04  0.15948677294E+04  0.10100000352E+00 0.  1.
</event>
<event>
 5   0  0.1421875E-07  0.3425200E+04  0.7818609E-02  0.8131749E-01
       -1   -1    0    0    0  501  0.00000000000E+00  0.00000000000E+00  0.14273331619E+04  0.14273331619E+04  0.50400001928E-02 0. -1.
        1   -1    0    0  501    0  0.00000000000E+00  0.00000000000E+00 -0.20548799995E+04  0.20548799995E+04  0.50400001928E-02 0.  1.
    10030    2    1    2    0    0  0.00000000000E+00  0.00000000000E+00 -0.62754683763E+03  0.34822131614E+04  0.34251997705E+04 0.  0.
        5    1    3    3  502    0  0.11612998495E+04 -0.33028020398E+02  0.96545080662E+03  0.15105712630E+04  0.46999998093E+01 0. -1.
       -5    1    3    3    0  502 -0.11612998495E+04  0.33028020398E+02 -0.15929976443E+04  0.19716418983E+04  0.46999998093E+01 0.  1.
</event>
<event>
 5   0  0.1520084E-07  0.3401460E+04  0.7818609E-02  0.8137548E-01
        1   -1    0    0  501    0  0.00000000000E+00  0.00000000000E+00  0.25075662097E+04  0.25075662097E+04  0.50400001928E-02 0.  1.
       -1   -1    0    0    0  501  0.00000000000E+00  0.00000000000E+00 -0.11535022131E+04  0.11535022131E+04  0.50400001928E-02 0. -1.
    10030    2    1    2    0    0  0.00000000000E+00  0.00000000000E+00  0.13540639965E+04  0.36610684228E+04  0.34014603760E+04 0.  0.
        2    1    3    3  502    0  0.15168505859E+04  0.14665281229E+03  0.14897377755E+04  0.21311174034E+04  0.25500000920E-02 0.  1.
       -2    1    3    3    0  502 -0.15168505859E+04 -0.14665281229E+03 -0.13567377893E+03  0.15299510194E+04  0.25500000920E-02 0. -1.
</event>
<event>
 5   0  0.4521737E-07  0.3404324E+04  0.7818609E-02  0.8136846E-01
       -2   -1    0    0    0  501  0.00000000000E+00  0.00000000000E+00  0.12161908480E+04  0.12161908480E+04  0.25500000920E-02 0.  1.
        2   -1    0    0  501    0  0.00000000000E+00  0.00000000000E+00 -0.23823204471E+04  0.23823204471E+04  0.25500000920E-02 0. -1.
    10030    2    1    2    0    0  0.00000000000E+00  0.00000000000E+00 -0.11661295991E+04  0.35985112952E+04  0.34043244997E+04 0.  0.
        4    1    3    3  502    0  0.54518146031E+03  0.14425597020E+04  0.17855770552E+03  0.15524450991E+04  0.12699999809E+01 0.  1.
       -4    1    3    3    0  502 -0.54518146031E+03 -0.14425597020E+04 -0.13446873046E+04  0.20460661961E+04  0.12699999809E+01 0. -1.
</event>
<event>
 5   0  0.1523259E-07  0.3300231E+04  0.7818609E-02  0.8162837E-01
        1   -1    0    0  501    0  0.00000000000E+00  0.00000000000E+00  0.20245315159E+04  0.20245315159E+04  0.50400001928E-02 0.  1.
       -1   -1    0    0    0  501  0.00000000000E+00  0.00000000000E+00 -0.13449436939E+04  0.13449436939E+04  0.50400001928E-02 0. -1.
    10030    2    1    2    0    0  0.00000000000E+00  0.00000000000E+00  0.67958782193E+03  0.33694752098E+04  0.33002308376E+04 0.  0.
        4    1    3    3  502    0 -0.11841327679E+04  0.65331722976E+03  0.13050863087E+04  0.18794269607E+04  0.12699999809E+01 0.  1.
       -4    1    3    3    0  502  0.11841327679E+04 -0.65331722976E+03 -0.62549848681E+03  0.14900482491E+04  0.12699999809E+01 0. -1.
</event>
<event>
 5   0  0.1421875E-07  0.3383486E+04  0.7818609E-02  0.8141971E-01
       -1   -1    0    0    0  501  0.00000000000E+00  0.00000000000E+00  0.16928211215E+04  0.16928211215E+04  0.50400001928E-02 0.  1.
        1   -1    0    0  501    0  0.00000000000E+00  0.00000000000E+00 -0.16906655832E+04  0.16906655832E+04  0.50400001928E-02 0. -1.
    10030    2    1    2    0    0  0.00000000000E+00  0.00000000000E+00  0.21555383199E+01  0.33834867047E+04  0.33834860181E+04 0.  0.
        5    1    3    3  502    0 -0.20633666236E+03 -0.63023375148E+03  0.15574208875E+04  0.16927348613E+04  0.46999998093E+01 0.  1.
       -5    1    3    3    0  502  0.20633666236E+03  0.63023375148E+03 -0.15552653492E+04  0.16907518434E+04  0.46999998093E+01 0. -1.
</event>
<event>
 5   0  0.1520084E-07  0.3338463E+04  0.7818609E-02  0.8153177E-01
       -1   -1    0    0    0  501  0.00000000000E+00  0.00000000000E+00  0.18591399390E+04  0.18591399390E+04  0.50400001928E-02 0.  1.
        1   -1    0    0  501    0  0.00000000000E+00  0.00000000000E+00 -0.14987218736E+04  0.14987218736E+04  0.50400001928E-02 0. -1.
    10030    2    1    2    0    0  0.00000000000E+00  0.00000000000E+00  0.36041806544E+03  0.33578618126E+04  0.33384629353E+04 0.  0.
        2    1    3    3  502    0 -0.84963774618E+03  0.95580796417E+03  0.12592337216E+04  0.17947486536E+04  0.25500000920E-02 0.  1.
       -2    1    3    3    0  502  0.84963774618E+03 -0.95580796417E+03 -0.89881565612E+03  0.15631131590E+04  0.25500000920E-02 0. -1.
</event>
<event>
 5   0  0.4486226E-07  0.3399063E+04  0.7818609E-02  0.8138136E-01
        2   -1    0    0  501    0  0.00000000000E+00  0.00000000000E+00  0.18865963376E+04  0.18865963376E+04  0.25500000920E-02 0.  1.
       -2   -1    0    0    0  501  0.00000000000E+00  0.00000000000E+00 -0.15310151749E+04  0.15310151749E+04  0.25500000920E-02 0. -1.
    10030    2    1    2    0    0  0.00000000000E+00  0.00000000000E+00  0.35558116264E+03  0.34176115125E+04  0.33990631779E+04 0.  0.
        1    1    3    3  502    0 -0.92289258108E+03 -0.14134980995E+04 -0.20006144657E+02  0.16882262405E+04  0.50400001928E-02 0. -1.
       -1    1    3    3    0  502  0.92289258108E+03  0.14134980995E+04  0.37558730729E+03  0.17293852719E+04  0.50400001928E-02 0.  1.
</event>
<event>
 5   0  0.4381939E-07  0.3395169E+04  0.7818609E-02  0.8139093E-01
        2   -1    0    0  501    0  0.00000000000E+00  0.00000000000E+00  0.13606671499E+04  0.13606671499E+04  0.25500000920E-02 0. -1.
       -2   -1    0    0    0  501  0.00000000000E+00  0.00000000000E+00 -0.21179266260E+04  0.21179266260E+04  0.25500000920E-02 0.  1.
    10030    2    1    2    0    0  0.00000000000E+00  0.00000000000E+00 -0.75725947603E+03  0.34785937759E+04  0.33951690302E+04 0.  0.
        3    1    3    3  502    0  0.74710423372E+02  0.12510202348E+04 -0.15518245779E+04  0.19946911556E+04  0.10100000352E+00 0.  1.
       -3    1    3    3    0  502 -0.74710423372E+02 -0.12510202348E+04  0.79456510187E+03  0.14839026203E+04  0.10100000352E+00 0. -1.
</event>
<event>
 5   0  0.4381939E-07  0.3371071E+04  0.7818609E-02  0.8145043E-01
        2   -1    0    0  501    0  0.00000000000E+00  0.00000000000E+00  0.17224999194E+04  0.17224999194E+04  0.25500000920E-02 0.  1.
       -2   -1    0    0    0  501  0.00000000000E+00  0.00000000000E+00 -0.16493638858E+04  0.16493638858E+04  0.25500000920E-02 0. -1.
    10030    2    1    2    0    0  0.00000000000E+00  0.00000000000E+00  0.73136033597E+02  0.33718638053E+04  0.33710705484E+04 0.  0.
        3    1    3    3  502    0  0.72341937234E+03  0.59842705035E+03  0.14367469214E+04  0.17163019108E+04  0.10100000352E+00 0.  1.
       -3    1    3    3    0  502 -0.72341937234E+03 -0.59842705035E+03 -0.13636108878E+04  0.16555618944E+04  0.10100000352E+00 0. -1.
</event>
<event>
 5   0  0.1523259E-07  0.3395617E+04  0.7818609E-02  0.8138983E-01
       -1   -1    0    0    0  501  0.00000000000E+00  0.00000000000E+00  0.15512364412E+04  0.15512364413E+04  0.50400001928E-02 0.  1.
        1   -1    0    0  501    0  0.00000000000E+00  0.00000000000E+00 -0.18582299165E+04  0.18582299165E+04  0.50400001928E-02 0. -1.
    10030    2    1    2    0    0  0.00000000000E+00  0.00000000000E+00 -0.30699347530E+03  0.34094663578E+04  0.33956171532E+04 0.  0.
        4    1    3    3  502    0  0.20672137755E+03 -0.16769064090E+04  0.13927203234E+02  0.16896580756E+04  0.12699999809E+01 0.  1.
       -4    1    3    3    0  502 -0.20672137755E+03  0.16769064090E+04 -0.32092067853E+03  0.17198082822E+04  0.12699999809E+01 0. -1.
</event>
<event>
 5   0  0.4486226E-07  0.3400439E+04  0.7818609E-02  0.8137799E-01
       -2   -1    0    0    0  501  0.00000000000E+00  0.00000000000E+00  0.23823153277E+04  0.23823153277E+04  0.25500000920E-02 0. -1.
        2   -1    0    0  501    0  0.00000000000E+00  0.00000000000E+00 -0.12134188605E+04  0.12134188605E+04  0.25500000920E-02 0.  1.
    10030    2    1    2    0    0  0.00000000000E+00  0.00000000000E+00  0.11688964671E+04  0.35957341882E+04  0.34004390013E+04 0.  0.
        1    1    3    3  502    0 -0.20482554125E+03 -0.16377486086E+04  0.10160210064E+04  0.19381621947E+04  0.50400001928E-02 0.  1.
       -1    1    3    3    0  502  0.20482554125E+03  0.16377486086E+04  0.15287546073E+03  0.16575719936E+04  0.50400001928E-02 0. -1.
</event>
<event>
 5   0  0.1520084E-07  0.3391722E+04  0.7818609E-02  0.8139941E-01
       -1   -1    0    0    0  501  0.00000000000E+00  0.00000000000E+00  0.14977220399E+04  0.14977220399E+04  0.50400001928E-02 0.  1.
        1   -1    0    0  501    0  0.00000000000E+00  0.00000000000E+00 -0.19202128079E+04  0.19202128079E+04  0.50400001928E-02 0. -1.
    10030    2    1    2    0    0  0.00000000000E+00  0.00000000000E+00 -0.42249076801E+03  0.34179348479E+04  0.33917223022E+04 0.  0.
        2    1    3    3  502    0  0.15435131332E+04 -0.51454412295E+03 -0.69322681468E+03  0.17685451262E+04  0.25500000920E-02 0. -1.
       -2    1    3    3    0  502 -0.15435131332E+04  0.51454412295E+03  0.27073604667E+03  0.16493897217E+04  0.25500000920E-02 0.  1.
</event>
<event>
 5   0  0.1435806E-07  0.3408032E+04  0.7818609E-02  0.8135938E-01
       -1   -1    0    0    0  501  0.00000000000E+00  0.00000000000E+00  0.23059051063E+04  0.23059051064E+04  0.50400001928E-02 0. -1.
        1   -1    0    0  501    0  0.00000000000E+00  0.00000000000E+00 -0.12592328090E+04  0.12592328090E+04  0.50400001928E-02 0.  1.
    10030    2    1    2    0    0  0.00000000000E+00  0.00000000000E+00  0.10466722973E+04  0.35651379154E+04  0.34080324907E+04 0.  0.
        3    1    3    3  502    0  0.47990682844E+03  0.78592152515E+03  0.20231978799E+04  0.22229064036E+04  0.10100000352E+00 0. -1.
       -3    1    3    3    0  502 -0.47990682844E+03 -0.78592152515E+03 -0.97652558258E+03  0.13422315118E+04  0.10100000352E+00 0.  1.
</event>
<event>
 5   0  0.1421875E-07  0.3343494E+04  0.7818609E-02  0.8151916E-01
        1   -1    0    0  501    0  0.00000000000E+00  0.00000000000E+00  0.20957230585E+04  0.20957230585E+04  0.50400001928E-02 0.  1.
       -1   -1    0    0    0  501  0.00000000000E+00  0.00000000000E+00 -0.13335436911E+04  0.13335436911E+04  0.50400001928E-02 0. -1.
    10030    2    1    2    0    0  0.00000000000E+00  0.00000000000E+00  0.76217936739E+03  0.34292667496E+04  0.33434941381E+04 0.  0.
        5    1    3    3  502    0  0.53161048968E+03  0.12910319092E+04 -0.56192227594E+03  0.15050421381E+04  0.46999998093E+01 0. -1.
       -5    1    3    3    0  502 -0.53161048968E+03 -0.12910319092E+04  0.13241016433E+04  0.19242246114E+04  0.46999998093E+01 0.  1.
</event>
<event>
 5   0  0.4396257E-07  0.3405239E+04  0.7818609E-02  0.8136622E-01
        2   -1    0    0  501    0  0.00000000000E+00  0.00000000000E+00  0.16193961777E+04  0.16193961777E+04  0.25500000920E-02 0.  1.
       -2   -1    0    0    0  501  0.00000000000E+00  0.00000000000E+00 -0.17901200282E+04  0.17901200282E+04  0.25500000920E-02 0. -1.
    10030    2    1    2    0    0  0.00000000000E+00  0.00000000000E+00 -0.17072385048E+03  0.34095162058E+04  0.34052392170E+04 0.  0.
        2    1    3    3  502    0 -0.20877021719E+03 -0.12673856449E+04 -0.12043801447E+04  0.17607904218E+04  0.25500000920E-02 0.  1.
       -2    1    3    3    0  502  0.20877021719E+03  0.12673856449E+04  0.10336562942E+04  0.16487257841E+04  0.25500000920E-02 0. -1.
</event>
<event>
 5   0  0.4486226E-07  0.3396755E+04  0.7818609E-02  0.8138703E-01
        2   -1    0    0  501    0  0.00000000000E+00  0.00000000000E+00  0.19591041483E+04  0.19591041483E+04  0.25500000920E-02 0. -1.
       -2   -1    0    0    0  501  0.00000000000E+00  0.00000000000E+00 -0.14723498443E+04  0.14723498443E+04  0.25500000920E-02 0.  1.
    10030    2    1    2    0    0  0.00000000000E+00  0.00000000000E+00  0.48675430399E+03  0.34314539925E+04  0.33967553268E+04 0.  0.
        1    1    3    3  502    0  0.16037652727E+04  0.48960909353E+03  0.51577316914E+03  0.17543665741E+04  0.50400001928E-02 0.  1.
       -1    1    3    3    0  502 -0.16037652727E+04 -0.48960909353E+03 -0.29018865150E+02  0.16770874184E+04  0.50400001928E-02 0. -1.
</event>
<event>
 5   0  0.4447909E-07  0.3410702E+04  0.7818609E-02  0.8135285E-01
       -2   -1    0    0    0  501  0.00000000000E+00  0.00000000000E+00  0.22743633766E+04  0.22743633766E+04  0.25500000920E-02 0.  1.
        2   -1    0    0  501    0  0.00000000000E+00  0.00000000000E+00 -0.12786972730E+04  0.12786972730E+04  0.25500000920E-02 0. -1.
    10030    2    1    2    0    0  0.00000000000E+00  0.00000000000E+00  0.99566610355E+03  0.35530606496E+04  0.34107021257E+04 0.  0.
        5    1    3    3  502    0 -0.51468414522E+03  0.13863522164E+04  0.13825924820E+04  0.20244644474E+04  0.46999998093E+01 0. -1.
       -5    1    3    3    0  502  0.51468414522E+03 -0.13863522164E+04 -0.38692637847E+03  0.15285962023E+04  0.46999998093E+01 0.  1.
</event>
<event>
 5   0  0.1520084E-07  0.3396956E+04  0.7818609E-02  0.8138654E-01
       -1   -1    0    0    0  501  0.00000000000E+00  0.00000000000E+00  0.15857168052E+04  0.15857168052E+04  0.50400001928E-02 0. -1.
        1   -1    0    0  501    0  0.00000000000E+00  0.00000000000E+00 -0.18192581011E+04  0.18192581011E+04  0.50400001928E-02 0.  1.
    10030    2    1    2    0    0  0.00000000000E+00  0.00000000000E+00 -0.23354129597E+03  0.34049749063E+04  0.33969563694E+04 0.  0.
        2    1    3    3  502    0 -0.12457800541E+04 -0.53618111808E+03 -0.11416174849E+04  0.17727799120E+04  0.25500000920E-02 0.  1.
       -2    1    3    3    0  502  0.12457800541E+04  0.53618111808E+03  0.90807618889E+03  0.16321949943E+04  0.25500000920E-02 0. -1.
</event>
<event>
 5   0  0.4521737E-07  0.3402428E+04  0.7818609E-02  0.8137311E-01
       -2   -1    0    0    0  501  0.00000000000E+00  0.00000000000E+00  0.14380318219E+04  0.14380318219E+04  0.25500000920E-02 0.  1.
        2   -1    0    0  501    0  0.00000000000E+00  0.00000000000E+00 -0.20125623217E+04  0.20125623217E+04  0.25500000920E-02 0. -1.
    10030    2    1    2    0    0  0.00000000000E+00  0.00000000000E+00 -0.57453049974E+03  0.34505941436E+04  0.34024277581E+04 0.  0.
        4    1    3    3  502    0  0.11930996744E+04 -0.10005087273E+04 -0.98225662886E+03  0.18410144607E+04  0.12699999809E+01 0.  1.
       -4    1    3    3    0  502 -0.11930996744E+04  0.10005087273E+04  0.40772612912E+03  0.16095796830E+04  0.12699999809E+01 0. -1.
</event>
<event>
 5   0  0.4486226E-07  0.3411190E+04  0.7818609E-02  0.8135165E-01
        2   -1    0    0  501    0  0.00000000000E+00  0.00000000000E+00  0.15000242847E+04  0.15000242847E+04  0.25500000920E-02 0. -1.
       -2   -1    0    0    0  501  0.00000000000E+00  0.00000000000E+00 -0.19393377024E+04  0.19393377024E+04  0.25500000920E-02 0.  1.
    10030    2    1    2    0    0  0.00000000000E+00  0.00000000000E+00 -0.43931341774E+03  0.34393619871E+04  0.34111896165E+04 0.  0.
        1    1    3    3  502    0  0.80265623680E+03  0.14755584962E+04  0.78630725441E+02  0.16815804177E+04  0.50400001928E-02 0. -1.
       -1    1    3    3    0  502 -0.80265623680E+03 -0.14755584962E+04 -0.51794414318E+03  0.17577815694E+04  0.50400001928E-02 0.  1.
</event>
<event>
 5   0  0.1473755E-07  0.3355932E+04  0.7818609E-02  0.8148807E-01
        1   -1    0    0  501    0  0.00000000000E+00  0.00000000000E+00  0.21096614665E+04  0.21096614666E+04  0.50400001928E-02 0.  1.
       -1   -1    0    0    0  501  0.00000000000E+00  0.00000000000E+00 -0.13346077996E+04  0.13346077996E+04  0.50400001928E-02 0. -1.
    10030    2    1    2    0    0  0.00000000000E+00  0.00000000000E+00  0.77505366695E+03  0.34442692662E+04  0.33559324474E+04 0.  0.
        1    1    3    3  502    0 -0.11719207653E+03 -0.36387465599E+03 -0.12893196683E+04  0.13447988531E+04  0.50400001928E-02 0. -1.
       -1    1    3    3    0  502  0.11719207653E+03  0.36387465599E+03  0.20643733353E+04  0.20994704131E+04  0.50400001928E-02 0.  1.
</event>
<event>
 5   0  0.1421875E-07  0.3400787E+04  0.7818609E-02  0.8137713E-01
       -1   -1    0    0    0  501  0.00000000000E+00  0.00000000000E+00  0.13971647746E+04  0.13971647746E+04  0.50400001928E-02 0. -1.
        1   -1    0    0  501    0  0.00000000000E+00  0.00000000000E+00 -0.20694323198E+04  0.20694323198E+04  0.50400001928E-02 0.  1.
    10030    2    1    2    0    0  0.00000000000E+00  0.00000000000E+00 -0.67226754515E+03  0.34665970944E+04  0.34007869329E+04 0.  0.
        5    1    3    3  502    0  0.68567559285E+03  0.16331780134E+03  0.12412256056E+04  0.14274056245E+04  0.46999998093E+01 0. -1.
       -5    1    3    3    0  502 -0.68567559285E+03 -0.16331780134E+03 -0.19134931508E+04  0.20391914699E+04  0.46999998093E+01 0.  1.
</event>
<event>
 5   0  0.4447909E-07  0.3391888E+04  0.7818609E-02  0.8139900E-01
       -2   -1    0    0    0  501  0.00000000000E+00  0.00000000000E+00  0.13854193205E+04  0.13854193205E+04  0.25500000920E-02 0. -1.
        2   -1    0    0  501    0  0.00000000000E+00  0.00000000000E+00 -0.20760692279E+04  0.20760692279E+04  0.25500000920E-02 0.  1.
    10030    2    1    2    0    0  0.00000000000E+00  0.00000000000E+00 -0.69064990740E+03  0.34614885485E+04  0.33918882170E+04 0.  0.
        5    1    3    3  502    0 -0.10196194751E+04 -0.24361115517E+03 -0.17058097157E+04  0.20021935833E+04  0.46999998093E+01 0.  1.
       -5    1    3    3    0  502  0.10196194751E+04  0.24361115517E+03  0.10151598083E+04  0.14592949652E+04  0.46999998093E+01 0. -1.
</event>
<event>
 5   0  0.4447909E-07  0.3405733E+04  0.7818609E-02  0.8136501E-01
       -2   -1    0    0    0  501  0.00000000000E+00  0.00000000000E+00  0.24611872918E+04  0.24611872918E+04  0.25500000920E-02 0.  1.
        2   -1    0    0  501    0  0.00000000000E+00  0.00000000000E+00 -0.11781932327E+04  0.11781932327E+04  0.25500000920E-02 0. -1.
    10030    2    1    2    0    0  0.00000000000E+00  0.00000000000E+00  0.12829940591E+04  0.36393805245E+04  0.34057329382E+04 0.  0.
        5    1    3    3  502    0 -0.14756524753E+04  0.77649352004E+03  0.10104978464E+04  0.19497744490E+04  0.46999998093E+01 0.  1.
       -5    1    3    3    0  502  0.14756524753E+04 -0.77649352004E+03  0.27249621277E+03  0.16896060755E+04  0.46999998093E+01 0. -1.
</event>
<event>
 5   0  0.4447909E-07  0.3399963E+04  0.7818609E-02  0.8137915E-01
       -2   -1    0    0    0  501  0.00000000000E+00  0.00000000000E+00  0.14323558512E+04  0.14323558512E+04  0.25500000920E-02 0. -1.
        2   -1    0    0  501    0  0.00000000000E+00  0.00000000000E+00 -0.20176109388E+04  0.20176109388E+04  0.25500000920E-02 0.  1.
    10030    2    1    2    0    0  0.00000000000E+00  0.00000000000E+00 -0.58525508761E+03  0.34499667899E+04  0.33999628430E+04 0.  0.
        5    1    3    3  502    0  0.94349385309E+03 -0.12444599267E+04 -0.97411020777E+03  0.18405906516E+04  0.46999998093E+01 0.  1.
       -5    1    3    3    0  502 -0.94349385309E+03  0.12444599267E+04  0.38885512016E+03  0.16093761383E+04  0.46999998093E+01 0. -1.
</event>
<event>
 5   0  0.4521737E-07  0.3367259E+04  0.7818609E-02  0.8145989E-01
       -2   -1    0    0    0  501  0.00000000000E+00  0.00000000000E+00  0.11148507242E+04  0.11148507242E+04  0.25500000920E-02 0.  1.
        2   -1    0    0  501    0  0.00000000000E+00  0.00000000000E+00 -0.25425901108E+04  0.25425901108E+04  0.25500000920E-02 0. -1.
    10030    2    1    2    0    0  0.00000000000E+00  0.00000000000E+00 -0.14277393865E+04  0.36574408350E+04  0.33672590791E+04 0.  0.
        4    1    3    3  502    0 -0.10597499976E+03  0.11816931652E+04  0.58363614519E+03  0.13222186658E+04  0.12699999809E+01 0.  1.
       -4    1    3    3    0  502  0.10597499976E+03 -0.11816931652E+04 -0.20113755317E+04  0.23352221692E+04  0.12699999809E+01 0. -1.
</event>
<event>
 5   0  0.4521737E-07  0.3344039E+04  0.7818609E-02  0.8151779E-01
        2   -1    0    0  501    0  0.00000000000E+00  0.00000000000E+00  0.22661226881E+04  0.22661226881E+04  0.25500000920E-02 0.  1.
       -2   -1    0    0    0  501  0.00000000000E+00  0.00000000000E+00 -0.12336707090E+04  0.12336707090E+04  0.25500000920E-02 0. -1.
    10030    2    1    2    0    0  0.00000000000E+00  0.00000000000E+00  0.10324519791E+04  0.34997933971E+04  0.33440389850E+04 0.  0.
        4    1    3    3  502    0  0.92756147908E+03  0.10082246720E+04  0.15193905525E+04  0.20458339499E+04  0.12699999809E+01 0.  1.
       -4    1    3    3    0  502 -0.92756147908E+03 -0.10082246720E+04 -0.48693857339E+03  0.14539594471E+04  0.12699999809E+01 0. -1.
</event>
<event>
 5   0  0.1421875E-07  0.3391740E+04  0.7818609E-02  0.8139937E-01
       -1   -1    0    0    0  501  0.00000000000E+00  0.00000000000E+00  0.17926884041E+04  0.17926884041E+04  0.50400001928E-02 0.  1.
        1   -1    0    0  501    0  0.00000000000E+00  0.00000000000E+00 -0.16042806164E+04  0.16042806165E+04  0.50400001928E-02 0. -1.
    10030    2    1    2    0    0  0.00000000000E+00  0.00000000000E+00  0.18840778765E+03  0.33969690206E+04  0.33917401186E+04 0.  0.
        5    1    3    3  502    0 -0.61698681519E+03 -0.12045061036E+04  0.11177605954E+04  0.17552545463E+04  0.46999998093E+01 0.  1.
       -5    1    3    3    0  502  0.61698681519E+03  0.12045061036E+04 -0.92935280774E+03  0.16417144743E+04  0.46999998093E+01 0. -1.
</event>
<event>
 5   0  0.4381939E-07  0.3413133E+04  0.7818609E-02  0.8134691E-01
       -2   -1    0    0    0  501  0.00000000000E+00  0.00000000000E+00  0.11981576934E+04  0.11981576934E+04  0.25500000920E-02 0. -1.
        2   -1    0    0  501    0  0.00000000000E+00  0.00000000000E+00 -0.24307061513E+04  0.24307061513E+04  0.25500000920E-02 0.  1.
    10030    2    1    2    0    0  0.00000000000E+00  0.00000000000E+00 -0.12325484580E+04  0.36288638447E+04  0.34131330332E+04 0.  0.
        3    1    3    3  502    0 -0.20991727262E+03  0.84525698894E+03 -0.21766336349E+04  0.23444100813E+04  0.10100000352E+00 0.  1.
       -3    1    3    3    0  502  0.20991727262E+03 -0.84525698894E+03  0.94408517695E+03  0.12844537634E+04  0.10100000352E+00 0. -1.
</event>
<event>
 5   0  0.4396257E-07  0.3390986E+04  0.7818609E-02  0.8140122E-01
       -2   -1    0    0    0  501  0.00000000000E+00  0.00000000000E+00  0.17275909375E+04  0.17275909376E+04  0.25500000920E-02 0. -1.
        2   -1    0    0  501    0  0.00000000000E+00  0.00000000000E+00 -0.16639909760E+04  0.16639909760E+04  0.25500000920E-02 0.  1.
    10030    2    1    2    0    0  0.00000000000E+00  0.00000000000E+00  0.63599961550E+02  0.33915819136E+04  0.33909855383E+04 0.  0.
        2    1    3    3  502    0 -0.69618747382E+03  0.29715495627E+02 -0.15141547899E+04  0.16668007491E+04  0.25500000920E-02 0.  1.
       -2    1    3    3    0  502  0.69618747382E+03 -0.29715495627E+02  0.15777547515E+04  0.17247811644E+04  0.25500000920E-02 0. -1.
</event>
<event>
 5   0  0.1435806E-07  0.3395863E+04  0.7818609E-02  0.8138922E-01
        1   -1    0    0  501    0  0.00000000000E+00  0.00000000000E+00  0.22593927399E+04  0.22593927399E+04  0.50400001928E-02 0.  1.
       -1   -1    0    0    0  501  0.00000000000E+00  0.00000000000E+00 -0.12759936739E+04  0.12759936739E+04  0.50400001928E-02 0. -1.
    10030    2    1    2    0    0  0.00000000000E+00  0.00000000000E+00  0.98339906607E+03  0.35353864138E+04  0.33958626845E+04 0.  0.
        3    1    3    3  502    0 -0.14670787163E+03  0.16406220498E+04  0.92070661736E+03  0.18870253298E+04  0.10100000352E+00 0.  1.
       -3    1    3    3    0  502  0.14670787163E+03 -0.16406220498E+04  0.62692448711E+02  0.16483610840E+04  0.10100000352E+00 0. -1.
</event>
<event>
 5   0  0.4447909E-07  0.3397076E+04  0.7818609E-02  0.8138624E-01
        2   -1    0    0  501    0  0.00000000000E+00  0.00000000000E+00  0.20172395240E+04  0.20172395240E+04  0.25500000920E-02 0.  1.
       -2   -1    0    0    0  501  0.00000000000E+00  0.00000000000E+00 -0.14301881506E+04  0.14301881506E+04  0.25500000920E-02 0. -1.
    10030    2    1    2    0    0  0.00000000000E+00  0.00000000000E+00  0.58705137346E+03  0.34474276746E+04  0.33970764279E+04 0.  0.
        5    1    3    3  502    0  0.11821159129E+04 -0.30444110629E+03  0.14921019499E+04  0.19278155351E+04  0.46999998093E+01 0.  1.
       -5    1    3    3    0  502 -0.11821159129E+04  0.30444110629E+03 -0.90505057643E+03  0.15196121395E+04  0.46999998093E+01 0. -1.
</event>
<event>
 5   0  0.4396257E-07  0.3376242E+04  0.7818609E-02  0.8143762E-01
       -2   -1    0    0    0  501  0.00000000000E+00  0.00000000000E+00  0.17400032123E+04  0.17400032123E+04  0.25500000920E-02 0.  1.
        2   -1    0    0  501    0  0.00000000000E+00  0.00000000000E+00 -0.16377859400E+04  0.16377859400E+04  0.25500000920E-02 0. -1.
    10030    2    1    2    0    0  0.00000000000E+00  0.00000000000E+00  0.10221727230E+03  0.33777891524E+04  0.33762421695E+04 0.  0.
        2    1    3    3  502    0  0.12587071656E+04 -0.38014590111E+03 -0.10081012490E+04  0.16568412003E+04  0.25500000920E-02 0. -1.
       -2    1    3    3    0  502 -0.12587071656E+04  0.38014590111E+03  0.11103185213E+04  0.17209479520E+04  0.25500000920E-02 0.  1.
</event>
<event>
 5   0  0.1473755E-07  0.3400539E+04  0.7818609E-02  0.8137774E-01
       -1   -1    0    0    0  501  0.00000000000E+00  0.00000000000E+00  0.19362449421E+04  0.19362449421E+04  0.50400001928E-02 0.  1.
        1   -1    0    0  501    0  0.00000000000E+00  0.00000000000E+00 -0.14930528068E+04  0.14930528068E+04  0.50400001928E-02 0. -1.
    10030    2    1    2    0    0  0.00000000000E+00  0.00000000000E+00  0.44319213525E+03  0.34292977489E+04  0.34005387488E+04 0.  0.
        1    1    3    3  502    0 -0.47302001127E+03 -0.14613109631E+04 -0.51377481733E+03  0.16196117512E+04  0.50400001928E-02 0. -1.
       -1    1    3    3    0  502  0.47302001127E+03  0.14613109631E+04  0.95696695257E+03  0.18096859977E+04  0.50400001928E-02 0.  1.
</event>
<event>
 5   0  0.4447909E-07  0.3391261E+04  0.7818609E-02  0.8140054E-01
        2   -1    0    0  501    0  0.00000000000E+00  0.00000000000E+00  0.23979322879E+04  0.23979322879E+04  0.25500000920E-02 0. -1.
       -2   -1    0    0    0  501  0.00000000000E+00  0.00000000000E+00 -0.11990177777E+04  0.11990177777E+04  0.25500000920E-02 0.  1.
    10030    2    1    2    0    0  0.00000000000E+00  0.00000000000E+00  0.11989145102E+04  0.35969500657E+04  0.33912613836E+04 0.  0.
        5    1    3    3  502    0 -0.13734312763E+04 -0.15028427806E+03 -0.44313913340E+03  0.14509628585E+04  0.46999998093E+01 0.  1.
       -5    1    3    3    0  502  0.13734312763E+04  0.15028427806E+03  0.16420536436E+04  0.21459872072E+04  0.46999998093E+01 0. -1.
</event>
<event>
 5   0  0.4447909E-07  0.3403843E+04  0.7818609E-02  0.8136964E-01
       -2   -1    0    0    0  501  0.00000000000E+00  0.00000000000E+00  0.32174802595E+04  0.32174802595E+04  0.25500000920E-02 0.  1.
        2   -1    0    0  501    0  0.00000000000E+00  0.00000000000E+00 -0.90025030350E+03  0.90025030350E+03  0.25500000920E-02 0. -1.
    10030    2    1    2    0    0  0.00000000000E+00  0.00000000000E+00  0.23172299560E+04  0.41177305630E+04  0.34038434630E+04 0.  0.
        5    1    3    3  502    0 -0.16629440637E+04  0.15356218636E+03  0.15553458058E+04  0.22821233467E+04  0.46999998093E+01 0. -1.
       -5    1    3    3    0  502  0.16629440637E+04 -0.15356218636E+03  0.76188415022E+03  0.18356072163E+04  0.46999998093E+01 0.  1.
</event>
<event>
 5   0  0.4381939E-07  0.3397110E+04  0.7818609E-02  0.8138616E-01
       -2   -1    0    0    0  501  0.00000000000E+00  0.00000000000E+00  0.13401430166E+04  0.13401430166E+04  0.25500000920E-02 0. -1.
        2   -1    0    0  501    0  0.00000000000E+00  0.00000000000E+00 -0.21528221616E+04  0.21528221616E+04  0.25500000920E-02 0.  1.
    10030    2    1    2    0    0  0.00000000000E+00  0.00000000000E+00 -0.81267914501E+03  0.34929651782E+04  0.33971102931E+04 0.  0.
        3    1    3    3  502    0 -0.15225391775E+04  0.17611805100E+03 -0.11590801234E+04  0.19216164700E+04  0.10100000352E+00 0. -1.
       -3    1    3    3    0  502  0.15225391775E+04 -0.17611805100E+03  0.34640097838E+03  0.15713487083E+04  0.10100000352E+00 0.  1.
</event>
<event>
 5   0  0.1520084E-07  0.3418812E+04  0.7818609E-02  0.8133305E-01
        1   -1    0    0  501    0  0.00000000000E+00  0.00000000000E+00  0.19576763057E+04  0.19576763057E+04  0.50400001928E-02 0. -1.
       -1   -1    0    0    0  501  0.00000000000E+00  0.00000000000E+00 -0.14926210881E+04  0.14926210881E+04  0.50400001928E-02 0.  1.
    10030    2    1    2    0    0  0.00000000000E+00  0.00000000000E+00  0.46505521754E+03  0.34502973938E+04  0.34188120379E+04 0.  0.
        2    1    3    3  502    0 -0.86972637465E+03  0.10789374639E+04 -0.77745808229E+03  0.15890157606E+04  0.25500000920E-02 0.  1.
       -2    1    3    3    0  502  0.86972637465E+03 -0.10789374639E+04  0.12425132998E+04  0.18612816332E+04  0.25500000920E-02 0. -1.
</event>
<event>
 5   0  0.1421875E-07  0.3396147E+04  0.7818609E-02  0.8138853E-01
       -1   -1    0    0    0  501  0.00000000000E+00  0.00000000000E+00  0.14026962394E+04  0.14026962394E+04  0.50400001928E-02 0.  1.
        1   -1    0    0  501    0  0.00000000000E+00  0.00000000000E+00 -0.20556504204E+04  0.20556504204E+04  0.50400001928E-02 0. -1.
    10030    2    1    2    0    0  0.00000000000E+00  0.00000000000E+00 -0.65295418107E+03  0.34583466598E+04  0.33961467072E+04 0.  0.
        5    1    3    3  502    0  0.12809945203E+04  0.56704981633E+03  0.65075430774E+03  0.15446668619E+04  0.46999998093E+01 0.  1.
       -5    1    3    3    0  502 -0.12809945203E+04 -0.56704981633E+03 -0.13037084888E+04  0.19136797979E+04  0.46999998093E+01 0. -1.
</event>
<event>
 5   0  0.4396257E-07  0.3357174E+04  0.7818609E-02  0.8148498E-01
       -2   -1    0    0    0  501  0.00000000000E+00  0.00000000000E+00  0.16060279543E+04  0.16060279543E+04  0.25500000920E-02 0. -1.
        2   -1    0    0  501    0  0.00000000000E+00  0.00000000000E+00 -0.17544242436E+04  0.17544242436E+04  0.25500000920E-02 0.  1.
    10030    2    1    2    0    0  0.00000000000E+00  0.00000000000E+00 -0.14839628932E+03  0.33604521979E+04  0.33571740371E+04 0.  0.
        2    1    3    3  502    0 -0.84747472303E+03 -0.19543390996E+03 -0.15113042620E+04  0.17436881578E+04  0.25500000920E-02 0.  1.
       -2    1    3    3    0  502  0.84747472303E+03  0.19543390996E+03  0.13629079727E+04  0.16167640401E+04  0.25500000920E-02 0. -1.
</event>
<event>
 5   0  0.4486226E-07  0.3408068E+04  0.7818609E-02  0.8135929E-01
       -2   -1    0    0    0  501  0.00000000000E+00  0.00000000000E+00  0.11585641560E+04  0.11585641560E+04  0.25500000920E-02 0. -1.
        2   -1    0    0  501    0  0.00000000000E+00  0.00000000000E+00 -0.25063195743E+04  0.25063195743E+04  0.25500000920E-02 0.  1.
    10030    2    1    2    0    0  0.00000000000E+00  0.00000000000E+00 -0.13477554183E+04  0.36648837303E+04  0.34080680875E+04 0.  0.
        1    1    3    3  502    0  0.61315866181E+03 -0.32131283366E+03  0.10005461730E+04  0.12166750289E+04  0.50400001928E-02 0. -1.
       -1    1    3    3    0  502 -0.61315866181E+03  0.32131283366E+03 -0.23483015913E+04  0.24482087014E+04  0.50400001928E-02 0.  1.
</event>
<event>
 5   0  0.1523259E-07  0.3416451E+04  0.7818609E-02  0.8133880E-01
        1   -1    0    0  501    0  0.00000000000E+00  0.00000000000E+00  0.25187919460E+04  0.25187919460E+04  0.50400001928E-02 0.  1.
       -1   -1    0    0    0  501  0.00000000000E+00  0.00000000000E+00 -0.11585056290E+04  0.11585056290E+04  0.50400001928E-02 0. -1.
    10030    2    1    2    0    0  0.00000000000E+00  0.00000000000E+00  0.13602863170E+04  0.36772975751E+04  0.34164511692E+04 0.  0.
        4    1    3    3  502    0  0.14967354120E+04  0.19207409041E+03  0.15418443989E+04  0.21574047170E+04  0.12699999809E+01 0.  1.
       -4    1    3    3    0  502 -0.14967354120E+04 -0.19207409041E+03 -0.18155808193E+03  0.15198928580E+04  0.12699999809E+01 0. -1.
</event>
<event>
 5   0  0.1435806E-07  0.3404145E+04  0.7818609E-02  0.8136890E-01
        1   -1    0    0  501    0  0.00000000000E+00  0.00000000000E+00  0.17976628856E+04  0.17976628856E+04  0.50400001928E-02 0. -1.
       -1   -1    0    0    0  501  0.00000000000E+00  0.00000000000E+00 -0.16115653263E+04  0.16115653263E+04  0.50400001928E-02 0.  1.
    10030    2    1    2    0    0  0.00000000000E+00  0.00000000000E+00  0.18609755928E+03  0.34092282120E+04  0.34041452231E+04 0.  0.
        3    1    3    3  502    0 -0.15994089148E+03  0.16777458137E+04  0.33139376253E+03  0.17176245051E+04  0.10100000352E+00 0.  1.
       -3    1    3    3    0  502  0.15994089148E+03 -0.16777458137E+04 -0.14529620325E+03  0.16916037069E+04  0.10100000352E+00 0. -1.
</event>
<event>
 5   0  0.4396257E-07  0.3390986E+04  0.7818609E-02  0.8140122E-01
        2   -1    0    0  501    0  0.00000000000E+00  0.00000000000E+00  0.19782835939E+04  0.19782835939E+04  0.25500000920E-02 0. -1.
       -2   -1    0    0    0  501  0.00000000000E+00  0.00000000000E+00 -0.14531267896E+04  0.14531267896E+04  0.25500000920E-02 0.  1.
    10030    2    1    2    0    0  0.00000000000E+00  0.00000000000E+00  0.52515680427E+03  0.34314103835E+04  0.33909862210E+04 0.  0.
        2    1    3    3  502    0  0.52778520691E+02 -0.12582073271E+03 -0.14475623450E+04  0.14539783945E+04  0.25500000920E-02 0.  1.
       -2    1    3    3    0  502 -0.52778520691E+02  0.12582073271E+03  0.19727191493E+04  0.19774319890E+04  0.25500000920E-02 0. -1.
</event>
<event>
 5   0  0.1435806E-07  0.3381626E+04  0.7818609E-02  0.8142431E-01
        1   -1    0    0  501    0  0.00000000000E+00  0.00000000000E+00  0.28691231658E+04  0.28691231658E+04  0.50400001928E-02 0. -1.
       -1   -1    0    0    0  501  0.00000000000E+00  0.00000000000E+00 -0.99641882613E+03  0.99641882614E+03  0.50400001928E-02 0.  1.
    10030    2    1    2    0    0  0.00000000000E+00  0.00000000000E+00  0.18727043397E+04  0.38655419920E+04  0.33816258438E+04 0.  0.
        3    1    3    3  502    0 -0.43808741897E+03 -0.36279005651E+03 -0.88376971567E+03  0.10509929269E+04  0.10100000352E+00 0.  1.
       -3    1    3    3    0  502  0.43808741897E+03  0.36279005651E+03  0.27564740554E+04  0.28145490651E+04  0.10100000352E+00 0. -1.
</event>
<event>
 5   0  0.1473755E-07  0.3407160E+04  0.7818609E-02  0.8136151E-01
        1   -1    0    0  501    0  0.00000000000E+00  0.00000000000E+00  0.19651185905E+04  0.19651185905E+04  0.50400001928E-02 0.  1.
       -1   -1    0    0    0  501  0.00000000000E+00  0.00000000000E+00 -0.14768494708E+04  0.14768494708E+04  0.50400001928E-02 0. -1.
    10030    2    1    2    0    0  0.00000000000E+00  0.00000000000E+00  0.48826911965E+03  0.34419680613E+04  0.34071597265E+04 0.  0.
        1    1    3    3  502    0  0.13832759984E+04  0.63230708407E+03 -0.53111647011E+03  0.16110088272E+04  0.50400001928E-02 0. -1.
       -1    1    3    3    0  502 -0.13832759984E+04 -0.63230708407E+03  0.10193855898E+04  0.18309592341E+04  0.50400001928E-02 0.  1.
</event>
<event>
 5   0  0.1520084E-07  0.3357441E+04  0.7818609E-02  0.8148431E-01
       -1   -1    0    0    0  501  0.00000000000E+00  0.00000000000E+00  0.13888095393E+04  0.13888095393E+04  0.50400001928E-02 0. -1.
        1   -1    0    0  501    0  0.00000000000E+00  0.00000000000E+00 -0.20291498630E+04  0.20291498631E+04  0.50400001928E-02 0.  1.
    10030    2    1    2    0    0  0.00000000000E+00  0.00000000000E+00 -0.64034032376E+03  0.34179594023E+04  0.33574411009E+04 0.  0.
        2    1    3    3  502    0 -0.93429943232E+03 -0.46830802211E+03  0.10172354705E+04  0.14584223789E+04  0.25500000920E-02 0. -1.
       -2    1    3    3    0  502  0.93429943232E+03  0.46830802211E+03 -0.16575757942E+04  0.19595370235E+04  0.25500000920E-02 0.  1.
</event>
<event>
 5   0  0.4521737E-07  0.3400503E+04  0.7818609E-02  0.8137783E-01
        2   -1    0    0  501    0  0.00000000000E+00  0.00000000000E+00  0.23834261167E+04  0.23834261167E+04  0.25500000920E-02 0.  1.
       -2   -1    0    0    0  501  0.00000000000E+00  0.00000000000E+00 -0.12128989546E+04  0.12128989546E+04  0.25500000920E-02 0. -1.
    10030    2    1    2    0    0  0.00000000000E+00  0.00000000000E+00  0.11705271621E+04  0.35963250713E+04  0.34005029307E+04 0.  0.
        4    1    3    3  502    0 -0.14884615064E+03 -0.19389692716E+03  0.23647454350E+04  0.23773459529E+04  0.12699999809E+01 0.  1.
       -4    1    3    3    0  502  0.14884615064E+03  0.19389692716E+03 -0.11942182729E+04  0.12189791184E+04  0.12699999809E+01 0. -1.
</event>
<event>
 5   0  0.1421875E-07  0.3390712E+04  0.7818609E-02  0.8140190E-01
        4   -1    0    0  501    0  0.00000000000E+00  0.00000000000E+00  0.15820231956E+04  0.15820237054E+04  0.12699999809E+01 0.  1.
       -4   -1    0    0    0  501  0.00000000000E+00  0.00000000000E+00 -0.18168066725E+04  0.18168071164E+04  0.12699999809E+01 0. -1.
    10030    2    1    2    0    0  0.00000000000E+00  0.00000000000E+00 -0.23478347687E+03  0.33988308218E+04  0.33907119716E+04 0.  0.
        4    1    3    3  502    0 -0.96224135907E+03 -0.12437401760E+04 -0.75249563397E+03  0.17432869387E+04  0.12699999809E+01 0.  1.
       -4    1    3    3    0  502  0.96224135907E+03  0.12437401760E+04  0.51771215710E+03  0.16555438831E+04  0.12699999809E+01 0. -1.
</event>
<event>
 5   0  0.4521737E-07  0.3399615E+04  0.7818609E-02  0.8138001E-01
        2   -1    0    0  501    0  0.00000000000E+00  0.00000000000E+00  0.16731884461E+04  0.16731884461E+04  0.25500000920E-02 0. -1.
       -2   -1    0    0    0  501  0.00000000000E+00  0.00000000000E+00 -0.17268498669E+04  0.17268498669E+04  0.25500000920E-02 0.  1.
    10030    2    1    2    0    0  0.00000000000E+00  0.00000000000E+00 -0.53661420814E+02  0.34000383130E+04  0.33996148284E+04 0.  0.
        4    1    3    3  502    0 -0.22645511437E+03  0.63783149232E+02 -0.17104873023E+04  0.17265916232E+04  0.12699999809E+01 0.  1.
       -4    1    3    3    0  502  0.22645511437E+03 -0.63783149232E+02  0.16568258815E+04  0.16734466898E+04  0.12699999809E+01 0. -1.
</event>
<event>
 5   0  0.4486226E-07  0.3396877E+04  0.7818609E-02  0.8138673E-01
        2   -1    0    0  501    0  0.00000000000E+00  0.00000000000E+00  0.18163423773E+04  0.18163423773E+04  0.25500000920E-02 0. -1.
       -2   -1    0    0    0  501  0.00000000000E+00  0.00000000000E+00 -0.15881878326E+04  0.15881878326E+04  0.25500000920E-02 0.  1.
    10030    2    1    2    0    0  0.00000000000E+00  0.00000000000E+00  0.22815454472E+03  0.34045302100E+04  0.33968767205E+04 0.  0.
        1    1    3    3  502    0  0.91672469440E+03 -0.11191888608E+04 -0.77771680485E+03  0.16425015373E+04  0.50400001928E-02 0.  1.
       -1    1    3    3    0  502 -0.91672469440E+03  0.11191888608E+04  0.10058713496E+04  0.17620286727E+04  0.50400001928E-02 0. -1.
</event>
<event>
 5   0  0.4447909E-07  0.3391865E+04  0.7818609E-02  0.8139906E-01
       -2   -1    0    0    0  501  0.00000000000E+00  0.00000000000E+00  0.16205444640E+04  0.16205444640E+04  0.25500000920E-02 0.  1.
        2   -1    0    0  501    0  0.00000000000E+00  0.00000000000E+00 -0.17748280951E+04  0.17748280951E+04  0.25500000920E-02 0. -1.
    10030    2    1    2    0    0  0.00000000000E+00  0.00000000000E+00 -0.15428363107E+03  0.33953725591E+04  0.33918654714E+04 0.  0.
        5    1    3    3  502    0 -0.43202999152E+03  0.16270669129E+04 -0.28270530878E+03  0.17070269577E+04  0.46999998093E+01 0. -1.
       -5    1    3    3    0  502  0.43202999152E+03 -0.16270669129E+04  0.12842167771E+03  0.16883456014E+04  0.46999998093E+01 0.  1.
</event>
<event>
 5   0  0.4381939E-07  0.3362755E+04  0.7818609E-02  0.8147109E-01
        2   -1    0    0  501    0  0.00000000000E+00  0.00000000000E+00  0.27001282062E+04  0.27001282062E+04  0.25500000920E-02 0. -1.
       -2   -1    0    0    0  501  0.00000000000E+00  0.00000000000E+00 -0.10469982613E+04  0.10469982613E+04  0.25500000920E-02 0.  1.
    10030    2    1    2    0    0  0.00000000000E+00  0.00000000000E+00  0.16531299448E+04  0.37471264675E+04  0.33627545478E+04 0.  0.
        3    1    3    3  502    0 -0.14552216333E+04  0.27033924670E+03  0.17154099593E+04  0.22656973869E+04  0.10100000352E+00 0. -1.
       -3    1    3    3    0  502  0.14552216333E+04 -0.27033924670E+03 -0.62280014467E+02  0.14814290806E+04  0.10100000352E+00 0.  1.
</event>
<event>
 5   0  0.4521737E-07  0.3396486E+04  0.7818609E-02  0.8138769E-01
       -2   -1    0    0    0  501  0.00000000000E+00  0.00000000000E+00  0.11386240442E+04  0.11386240442E+04  0.25500000920E-02 0.  1.
        2   -1    0    0  501    0  0.00000000000E+00  0.00000000000E+00 -0.25329070383E+04  0.25329070383E+04  0.25500000920E-02 0. -1.
    10030    2    1    2    0    0  0.00000000000E+00  0.00000000000E+00 -0.13942829942E+04  0.36715310825E+04  0.33964857459E+04 0.  0.
        4    1    3    3  502    0 -0.11187859945E+04 -0.61125702079E+03  0.51563355185E+03  0.13752079187E+04  0.12699999809E+01 0.  1.
       -4    1    3    3    0  502  0.11187859945E+04  0.61125702079E+03 -0.19099165460E+04  0.22963231638E+04  0.12699999809E+01 0. -1.
</event>
<event>
 5   0  0.1435806E-07  0.3403268E+04  0.7818609E-02  0.8137105E-01
       -1   -1    0    0    0  501  0.00000000000E+00  0.00000000000E+00  0.15919335915E+04  0.15919335915E+04  0.50400001928E-02 0.  1.
        1   -1    0    0  501    0  0.00000000000E+00  0.00000000000E+00 -0.18188933677E+04  0.18188933677E+04  0.50400001928E-02 0. -1.
    10030    2    1    2    0    0  0.00000000000E+00  0.00000000000E+00 -0.22695977618E+03  0.34108269592E+04  0.34032675189E+04 0.  0.
        3    1    3    3  502    0 -0.11149185326E+04 -0.76835589016E+03 -0.11463724783E+04  0.17741431671E+04  0.10100000352E+00 0. -1.
       -3    1    3    3    0  502  0.11149185326E+04  0.76835589016E+03  0.91941270210E+03  0.16366837921E+04  0.10100000352E+00 0.  1.
</event>
<event>
 5   0  0.1520084E-07  0.3400043E+04  0.7818609E-02  0.8137896E-01
        1   -1    0    0  501    0  0.00000000000E+00  0.00000000000E+00  0.20747643950E+04  0.20747643950E+04  0.50400001928E-02 0.  1.
       -1   -1    0    0    0  501  0.00000000000E+00  0.00000000000E+00 -0.13929640827E+04  0.13929640827E+04  0.50400001928E-02 0. -1.
    10030    2    1    2    0    0  0.00000000000E+00  0.00000000000E+00  0.68180031229E+03  0.34677284777E+04  0.34000425188E+04 0.  0.
        2    1    3    3  502    0  0.11307407262E+04 -0.12329564651E+04  0.32698981065E+02  0.16732678978E+04  0.25500000920E-02 0. -1.
       -2    1    3    3    0  502 -0.11307407262E+04  0.12329564651E+04  0.64910133123E+03  0.17944605799E+04  0.25500000920E-02 0.  1.
</event>
<event>
 5   0  0.1421875E-07  0.3527374E+04  0.7818609E-02  0.8107333E-01
       -1   -1    0    0    0  501  0.00000000000E+00  0.00000000000E+00  0.15866677739E+04  0.15866677739E+04  0.50400001928E-02 0. -1.
        1   -1    0    0  501    0  0.00000000000E+00  0.00000000000E+00 -0.19604552308E+04  0.19604552308E+04  0.50400001928E-02 0.  1.
    10030    2    1    2    0    0  0.00000000000E+00  0.00000000000E+00 -0.37378745687E+03  0.35471230047E+04  0.35273736048E+04 0.  0.
        5    1    3    3  502    0 -0.16665975081E+04 -0.46731182303E+03  0.15358942552E+03  0.17376821906E+04  0.46999998093E+01 0. -1.
       -5    1    3    3    0  502  0.16665975081E+04  0.46731182303E+03 -0.52737688239E+03  0.18094408141E+04  0.46999998093E+01 0.  1.
</event>
<event>
 5   0  0.4521737E-07  0.3413593E+04  0.7818609E-02  0.8134578E-01
        2   -1    0    0  501    0  0.00000000000E+00  0.00000000000E+00  0.16521095670E+04  0.16521095670E+04  0.25500000920E-02 0. -1.
       -2   -1    0    0    0  501  0.00000000000E+00  0.00000000000E+00 -0.17632937575E+04  0.17632937575E+04  0.25500000920E-02 0.  1.
    10030    2    1    2    0    0  0.00000000000E+00  0.00000000000E+00 -0.11118419049E+03  0.34154033246E+04  0.34135931136E+04 0.  0.
        4    1    3    3  502    0  0.12537167550E+04 -0.11001653092E+04  0.30651620425E+03  0.16959136787E+04  0.12699999809E+01 0.  1.
       -4    1    3    3    0  502 -0.12537167550E+04  0.11001653092E+04 -0.41770039474E+03  0.17194896458E+04  0.12699999809E+01 0. -1.
</event>
<event>
 5   0  0.1473755E-07  0.3396855E+04  0.7818609E-02  0.8138679E-01
       -1   -1    0    0    0  501  0.00000000000E+00  0.00000000000E+00  0.16388988787E+04  0.16388988788E+04  0.50400001928E-02 0. -1.
        1   -1    0    0  501    0  0.00000000000E+00  0.00000000000E+00 -0.17601180773E+04  0.17601180773E+04  0.50400001928E-02 0.  1.
    10030    2    1    2    0    0  0.00000000000E+00  0.00000000000E+00 -0.12121919857E+03  0.33990169561E+04  0.33968547472E+04 0.  0.
        1    1    3    3  502    0  0.12058296085E+02 -0.55167047559E+03 -0.16679227602E+04  0.17568301142E+04  0.50400001928E-02 0.  1.
       -1    1    3    3    0  502 -0.12058296085E+02  0.55167047559E+03  0.15467035616E+04  0.16421868419E+04  0.50400001928E-02 0. -1.
</event>
<event>
 5   0  0.1421875E-07  0.3395764E+04  0.7818609E-02  0.8138947E-01
        1   -1    0    0  501    0  0.00000000000E+00  0.00000000000E+00  0.13261618760E+04  0.13261618760E+04  0.50400001928E-02 0.  1.
       -1   -1    0    0    0  501  0.00000000000E+00  0.00000000000E+00 -0.21737940813E+04  0.21737940813E+04  0.50400001928E-02 0. -1.
    10030    2    1    2    0    0  0.00000000000E+00  0.00000000000E+00 -0.84763220531E+03  0.34999559573E+04  0.33957637356E+04 0.  0.
        5    1    3    3  502    0 -0.84220608301E+03  0.14698132855E+04 -0.30576547365E+03  0.17213880432E+04  0.46999998093E+01 0. -1.
       -5    1    3    3    0  502  0.84220608301E+03 -0.14698132855E+04 -0.54186673166E+03  0.17785679141E+04  0.46999998093E+01 0.  1.
</event>
<event>
 5   0  0.1473755E-07  0.3413197E+04  0.7818609E-02  0.8134675E-01
       -1   -1    0    0    0  501  0.00000000000E+00  0.00000000000E+00  0.15012777452E+04  0.15012777452E+04  0.50400001928E-02 0.  1.
        1   -1    0    0  501    0  0.00000000000E+00  0.00000000000E+00 -0.19399997460E+04  0.19399997460E+04  0.50400001928E-02 0. -1.
    10030    2    1    2    0    0  0.00000000000E+00  0.00000000000E+00 -0.43872200080E+03  0.34412774912E+04  0.34131970025E+04 0.  0.
        1    1    3    3  502    0  0.72769397117E+03  0.11972340452E+04 -0.12018370255E+04  0.18458927679E+04  0.50400001928E-02 0.  1.
       -1    1    3    3    0  502 -0.72769397117E+03 -0.11972340452E+04  0.76311502467E+03  0.15953847234E+04  0.50400001928E-02 0. -1.
</event>
<event>
 5   0  0.1520084E-07  0.3292428E+04  0.7818609E-02  0.8164825E-01
        1   -1    0    0  501    0  0.00000000000E+00  0.00000000000E+00  0.26546888965E+04  0.26546888965E+04  0.50400001928E-02 0. -1.
       -1   -1    0    0    0  501  0.00000000000E+00  0.00000000000E+00 -0.10208429582E+04  0.10208429582E+04  0.50400001928E-02 0.  1.
    10030    2    1    2    0    0  0.00000000000E+00  0.00000000000E+00  0.16338459382E+04  0.36755318547E+04  0.32924279590E+04 0.  0.
        2    1    3    3  502    0  0.36005486345E+02 -0.93733632250E+02 -0.10174211507E+04  0.10223640187E+04  0.25500000920E-02 0.  1.
       -2    1    3    3    0  502 -0.36005486345E+02  0.93733632250E+02  0.26512670889E+04  0.26531678360E+04  0.25500000920E-02 0. -1.
</event>
<event>
 5   0  0.4447909E-07  0.3412427E+04  0.7818609E-02  0.8134863E-01
        2   -1    0    0  501    0  0.00000000000E+00  0.00000000000E+00  0.16661678536E+04  0.16661678536E+04  0.25500000920E-02 0. -1.
       -2   -1    0    0    0  501  0.00000000000E+00  0.00000000000E+00 -0.17472214922E+04  0.17472214922E+04  0.25500000920E-02 0.  1.
    10030    2    1    2    0    0  0.00000000000E+00  0.00000000000E+00 -0.81053638554E+02  0.34133893458E+04  0.34124268686E+04 0.  0.
        5    1    3    3  502    0 -0.11334674351E+04 -0.77353520093E+03  0.97368078205E+03  0.16826115086E+04  0.46999998093E+01 0. -1.
       -5    1    3    3    0  502  0.11334674351E+04  0.77353520093E+03 -0.10547344206E+04  0.17307778372E+04  0.46999998093E+01 0.  1.
</event>
<event>
 5   0  0.4521737E-07  0.3336746E+04  0.7818609E-02  0.8153608E-01
        2   -1    0    0  501    0  0.00000000000E+00  0.00000000000E+00  0.19126987724E+04  0.19126987724E+04  0.25500000920E-02 0. -1.
       -2   -1    0    0    0  501  0.00000000000E+00  0.00000000000E+00 -0.14552572197E+04  0.14552572197E+04  0.25500000920E-02 0.  1.
    10030    2    1    2    0    0  0.00000000000E+00  0.00000000000E+00  0.45744155268E+03  0.33679559922E+04  0.33367461383E+04 0.  0.
        4    1    3    3  502    0 -0.27582311767E+02  0.16151574566E+04 -0.19228085889E+03  0.16267968328E+04  0.12699999809E+01 0. -1.
       -4    1    3    3    0  502  0.27582311767E+02 -0.16151574566E+04  0.64972241158E+03  0.17411591594E+04  0.12699999809E+01 0.  1.
</event>
<event>
 5   0  0.1435806E-07  0.3406304E+04  0.7818609E-02  0.8136361E-01
       -1   -1    0    0    0  501  0.00000000000E+00  0.00000000000E+00  0.10221340425E+04  0.10221340425E+04  0.50400001928E-02 0. -1.
        1   -1    0    0  501    0  0.00000000000E+00  0.00000000000E+00 -0.28379123848E+04  0.28379123848E+04  0.50400001928E-02 0.  1.
    10030    2    1    2    0    0  0.00000000000E+00  0.00000000000E+00 -0.18157783422E+04  0.38600464273E+04  0.34063040723E+04 0.  0.
        3    1    3    3  502    0  0.16367986822E+04 -0.46510543629E+03 -0.99034002066E+03  0.19688083603E+04  0.10100000352E+00 0.  1.
       -3    1    3    3    0  502 -0.16367986822E+04  0.46510543629E+03 -0.82543832158E+03  0.18912380670E+04  0.10100000352E+00 0. -1.
</event>
<event>
 5   0  0.1520084E-07  0.3200230E+04  0.7818609E-02  0.8188756E-01
       -1   -1    0    0    0  501  0.00000000000E+00  0.00000000000E+00  0.12669513088E+04  0.12669513088E+04  0.50400001928E-02 0.  1.
        1   -1    0    0  501    0  0.00000000000E+00  0.00000000000E+00 -0.20208896361E+04  0.20208896361E+04  0.50400001928E-02 0. -1.
    10030    2    1    2    0    0  0.00000000000E+00  0.00000000000E+00 -0.75393832724E+03  0.32878409449E+04  0.32002304726E+04 0.  0.
        2    1    3    3  502    0 -0.67681052085E+03 -0.94382514074E+03  0.75384055016E+03  0.13846132863E+04  0.25500000920E-02 0.  1.
       -2    1    3    3    0  502  0.67681052085E+03  0.94382514074E+03 -0.15077788774E+04  0.19032276586E+04  0.25500000920E-02 0. -1.
</event>
<event>
 5   0  0.4521737E-07  0.3404175E+04  0.7818609E-02  0.8136882E-01
       -2   -1    0    0    0  501  0.00000000000E+00  0.00000000000E+00  0.17604423802E+04  0.17604423802E+04  0.25500000920E-02 0. -1.
        2   -1    0    0  501    0  0.00000000000E+00  0.00000000000E+00 -0.16456667036E+04  0.16456667036E+04  0.25500000920E-02 0.  1.
    10030    2    1    2    0    0  0.00000000000E+00  0.00000000000E+00  0.11477567654E+03  0.34061090838E+04  0.34041747362E+04 0.  0.
        4    1    3    3  502    0 -0.14346322743E+04 -0.73744290439E+03 -0.48615927885E+03  0.16847386317E+04  0.12699999809E+01 0.  1.
       -4    1    3    3    0  502  0.14346322743E+04  0.73744290439E+03  0.60093495539E+03  0.17213704521E+04  0.12699999809E+01 0. -1.
</event>
<event>
 5   0  0.1473755E-07  0.3405467E+04  0.7818609E-02  0.8136566E-01
       -1   -1    0    0    0  501  0.00000000000E+00  0.00000000000E+00  0.16065941034E+04  0.16065941034E+04  0.50400001928E-02 0.  1.
        1   -1    0    0  501    0  0.00000000000E+00  0.00000000000E+00 -0.18046256404E+04  0.18046256404E+04  0.50400001928E-02 0. -1.
    10030    2    1    2    0    0  0.00000000000E+00  0.00000000000E+00 -0.19803153696E+03  0.34112197438E+04  0.34054667303E+04 0.  0.
        1    1    3    3  502    0 -0.38406121516E+03 -0.10804688941E+03 -0.17571441178E+04  0.18018691956E+04  0.50400001928E-02 0. -1.
       -1    1    3    3    0  502  0.38406121516E+03  0.10804688941E+03  0.15591125808E+04  0.16093505482E+04  0.50400001928E-02 0.  1.
</event>
<event>
 5   0  0.4486226E-07  0.3397046E+04  0.7818609E-02  0.8138632E-01
       -2   -1    0    0    0  501  0.00000000000E+00  0.00000000000E+00  0.23104403951E+04  0.23104403951E+04  0.25500000920E-02 0.  1.
        2   -1    0    0  501    0  0.00000000000E+00  0.00000000000E+00 -0.12486711638E+04  0.12486711638E+04  0.25500000920E-02 0. -1.
    10030    2    1    2    0    0  0.00000000000E+00  0.00000000000E+00  0.10617692313E+04  0.35591115589E+04  0.33970459502E+04 0.  0.
        1    1    3    3  502    0 -0.11588414744E+04 -0.12243469214E+04  0.31352286554E+03  0.17147115017E+04  0.50400001928E-02 0. -1.
       -1    1    3    3    0  502  0.11588414744E+04  0.12243469214E+04  0.74824636581E+03  0.18444000571E+04  0.50400001928E-02 0.  1.
</event>
<event>
 5   0  0.1473755E-07  0.3397189E+04  0.7818609E-02  0.8138597E-01
        1   -1    0    0  501    0  0.00000000000E+00  0.00000000000E+00  0.19669955596E+04  0.19669955596E+04  0.50400001928E-02 0. -1.
       -1   -1    0    0    0  501  0.00000000000E+00  0.00000000000E+00 -0.14668174312E+04  0.14668174312E+04  0.50400001928E-02 0.  1.
    10030    2    1    2    0    0  0.00000000000E+00  0.00000000000E+00  0.50017812840E+03  0.34338129908E+04  0.33971890580E+04 0.  0.
        1    1    3    3  502    0 -0.10523441500E+04  0.27985841849E+03 -0.10676039393E+04  0.15249679064E+04  0.50400001928E-02 0.  1.
       -1    1    3    3    0  502  0.10523441500E+04 -0.27985841849E+03  0.15677820677E+04  0.19088450844E+04  0.50400001928E-02 0. -1.
</event>
<event>
 5   0  0.1473755E-07  0.3399507E+04  0.7818609E-02  0.8138027E-01
        1   -1    0    0  501    0  0.00000000000E+00  0.00000000000E+00  0.15778769807E+04  0.15778769807E+04  0.50400001928E-02 0.  1.
       -1   -1    0    0    0  501  0.00000000000E+00  0.00000000000E+00 -0.18310437523E+04  0.18310437523E+04  0.50400001928E-02 0. -1.
    10030    2    1    2    0    0  0.00000000000E+00  0.00000000000E+00 -0.25316677155E+03  0.34089207330E+04  0.33995068981E+04 0.  0.
        1    1    3    3  502    0  0.15446460705E+04  0.31328176640E+03  0.51164184755E+03  0.16570619567E+04  0.50400001928E-02 0.  1.
       -1    1    3    3    0  502 -0.15446460705E+04 -0.31328176640E+03 -0.76480861910E+03  0.17518587763E+04  0.50400001928E-02 0. -1.
</event>
<event>
 5   0  0.4381939E-07  0.3404788E+04  0.7818609E-02  0.8136732E-01
       -2   -1    0    0    0  501  0.00000000000E+00  0.00000000000E+00  0.20296623682E+04  0.20296623682E+04  0.25500000920E-02 0.  1.
        2   -1    0    0  501    0  0.00000000000E+00  0.00000000000E+00 -0.14278956550E+04  0.14278956550E+04  0.25500000920E-02 0. -1.
    10030    2    1    2    0    0  0.00000000000E+00  0.00000000000E+00  0.60176671318E+03  0.34575580231E+04  0.34047884378E+04 0.  0.
        3    1    3    3  502    0 -0.13797974111E+04  0.56983467741E+03  0.11318526891E+04  0.18734041142E+04  0.10100000352E+00 0. -1.
       -3    1    3    3    0  502  0.13797974111E+04 -0.56983467741E+03 -0.53008597590E+03  0.15841539089E+04  0.10100000352E+00 0.  1.
</event>
<event>
 5   0  0.1421875E-07  0.3410709E+04  0.7818609E-02  0.8135283E-01
       -3   -1    0    0    0  501  0.00000000000E+00  0.00000000000E+00  0.19459099498E+04  0.19459099524E+04  0.10100000352E+00 0. -1.
        3   -1    0    0  501    0  0.00000000000E+00  0.00000000000E+00 -0.14945371829E+04  0.14945371863E+04  0.10100000352E+00 0.  1.
    10030    2    1    2    0    0  0.00000000000E+00  0.00000000000E+00  0.45137276688E+03  0.34404471387E+04  0.34107094774E+04 0.  0.
        2    1    3    3  502    0  0.30885476648E+03 -0.34366917192E+03 -0.14301910765E+04  0.15029791355E+04  0.25500000920E-02 0.  1.
       -2    1    3    3    0  502 -0.30885476648E+03  0.34366917192E+03  0.18815638434E+04  0.19374680032E+04  0.25500000920E-02 0. -1.
</event>
<event>
 5   0  0.4381939E-07  0.3409558E+04  0.7818609E-02  0.8135565E-01
       -2   -1    0    0    0  501  0.00000000000E+00  0.00000000000E+00  0.15391668548E+04  0.15391668548E+04  0.25500000920E-02 0. -1.
        2   -1    0    0  501    0  0.00000000000E+00  0.00000000000E+00 -0.18882104490E+04  0.18882104490E+04  0.25500000920E-02 0.  1.
    10030    2    1    2    0    0  0.00000000000E+00  0.00000000000E+00 -0.34904359426E+03  0.34273773038E+04  0.34095577062E+04 0.  0.
        3    1    3    3  502    0 -0.16289373421E+04 -0.21184931568E+02  0.33048342215E+03  0.16622589956E+04  0.10100000352E+00 0. -1.
       -3    1    3    3    0  502  0.16289373421E+04  0.21184931568E+02 -0.67952701641E+03  0.17651183082E+04  0.10100000352E+00 0.  1.
</event>
<event>
 5   0  0.4521737E-07  0.3397221E+04  0.7818609E-02  0.8138589E-01
       -2   -1    0    0    0  501  0.00000000000E+00  0.00000000000E+00  0.89221390104E+03  0.89221390104E+03  0.25500000920E-02 0.  1.
        2   -1    0    0  501    0  0.00000000000E+00  0.00000000000E+00 -0.32338399128E+04  0.32338399128E+04  0.25500000920E-02 0. -1.
    10030    2    1    2    0    0  0.00000000000E+00  0.00000000000E+00 -0.23416260118E+04  0.41260538138E+04  0.33972205839E+04 0.  0.
        4    1    3    3  502    0 -0.12288897395E+04 -0.62887848905E+03  0.31283498563E+02  0.13808107822E+04  0.12699999809E+01 0.  1.
       -4    1    3    3    0  502  0.12288897395E+04  0.62887848905E+03 -0.23729095103E+04  0.27452430317E+04  0.12699999809E+01 0. -1.
</event>
<event>
 5   0  0.4381939E-07  0.3443230E+04  0.7818609E-02  0.8127377E-01
       -2   -1    0    0    0  501  0.00000000000E+00  0.00000000000E+00  0.13269992584E+04  0.13269992584E+04  0.25500000920E-02 0. -1.
        2   -1    0    0  501    0  0.00000000000E+00  0.00000000000E+00 -0.22335789076E+04  0.22335789076E+04  0.25500000920E-02 0.  1.
    10030    2    1    2    0    0  0.00000000000E+00  0.00000000000E+00 -0.90657964921E+03  0.35605781660E+04  0.34432296200E+04 0.  0.
        3    1    3    3  502    0  0.37831092094E+03  0.14807953201E+04 -0.12728168302E+04  0.19889536511E+04  0.10100000352E+00 0.  1.
       -3    1    3    3    0  502 -0.37831092094E+03 -0.14807953201E+04  0.36623718103E+03  0.15716245149E+04  0.10100000352E+00 0. -1.
</event>
<event>
 5   0  0.4486226E-07  0.3384587E+04  0.7818609E-02  0.8141700E-01
       -2   -1    0    0    0  501  0.00000000000E+00  0.00000000000E+00  0.11445366108E+04  0.11445366108E+04  0.25500000920E-02 0. -1.
        2   -1    0    0  501    0  0.00000000000E+00  0.00000000000E+00 -0.25021974559E+04  0.25021974559E+04  0.25500000920E-02 0.  1.
    10030    2    1    2    0    0  0.00000000000E+00  0.00000000000E+00 -0.13576608452E+04  0.36467340667E+04  0.33845865896E+04 0.  0.
        1    1    3    3  502    0  0.15974575780E+04 -0.53233457906E+03 -0.86106271873E+03  0.18912112053E+04  0.50400001928E-02 0.  1.
       -1    1    3    3    0  502 -0.15974575780E+04  0.53233457906E+03 -0.49659812643E+03  0.17555228614E+04  0.50400001928E-02 0. -1.
</event>
<event>
 5   0  0.1520084E-07  0.3399629E+04  0.7818609E-02  0.8137997E-01
        1   -1    0    0  501    0  0.00000000000E+00  0.00000000000E+00  0.29785322124E+04  0.29785322124E+04  0.50400001928E-02 0. -1.
       -1   -1    0    0    0  501  0.00000000000E+00  0.00000000000E+00 -0.97006466261E+03  0.97006466262E+03  0.50400001928E-02 0.  1.
    10030    2    1    2    0    0  0.00000000000E+00  0.00000000000E+00  0.20084675498E+04  0.39485968750E+04  0.33996287125E+04 0.  0.
        2    1    3    3  502    0  0.51176790600E+03  0.75383103625E+03  0.26709463145E+04  0.28220775744E+04  0.25500000920E-02 0. -1.
       -2    1    3    3    0  502 -0.51176790600E+03 -0.75383103625E+03 -0.66247876477E+03  0.11265193006E+04  0.25500000920E-02 0.  1.
</event>
<event>
 5   0  0.1523259E-07  0.3337512E+04  0.7818609E-02  0.8153415E-01
       -1   -1    0    0    0  501  0.00000000000E+00  0.00000000000E+00  0.93519349508E+03  0.93519349509E+03  0.50400001928E-02 0. -1.
        1   -1    0    0  501    0  0.00000000000E+00  0.00000000000E+00 -0.29777228701E+04  0.29777228701E+04  0.50400001928E-02 0.  1.
    10030    2    1    2    0    0  0.00000000000E+00  0.00000000000E+00 -0.20425293751E+04  0.39129163652E+04  0.33375122821E+04 0.  0.
        4    1    3    3  502    0 -0.29158372420E+03  0.10858181581E+04  0.42451724605E+03  0.12017648047E+04  0.12699999809E+01 0. -1.
       -4    1    3    3    0  502  0.29158372420E+03 -0.10858181581E+04 -0.24670466211E+04  0.27111515606E+04  0.12699999809E+01 0.  1.
</event>
<event>
 5   0  0.4447909E-07  0.3411088E+04  0.7818609E-02  0.8135190E-01
        2   -1    0    0  501    0  0.00000000000E+00  0.00000000000E+00  0.20465265230E+04  0.20465265230E+04  0.25500000920E-02 0.  1.
       -2   -1    0    0    0  501  0.00000000000E+00  0.00000000000E+00 -0.14213747116E+04  0.14213747116E+04  0.25500000920E-02 0. -1.
    10030    2    1    2    0    0  0.00000000000E+00  0.00000000000E+00  0.62515181135E+03  0.34679012346E+04  0.34110884166E+04 0.  0.
        5    1    3    3  502    0  0.16654050621E+04  0.64974207217E+02 -0.55480408838E+02  0.16676018213E+04  0.46999998093E+01 0. -1.
       -5    1    3    3    0  502 -0.16654050621E+04 -0.64974207217E+02  0.68063222019E+03  0.18002994134E+04  0.46999998093E+01 0.  1.
</event>
<event>
 5   0  0.1473755E-07  0.3486139E+04  0.7818609E-02  0.8117083E-01
        1   -1    0    0  501    0  0.00000000000E+00  0.00000000000E+00  0.18867324785E+04  0.18867324785E+04  0.50400001928E-02 0.  1.
       -1   -1    0    0    0  501  0.00000000000E+00  0.00000000000E+00 -0.16103457083E+04  0.16103457083E+04  0.50400001928E-02 0. -1.
    10030    2    1    2    0    0  0.00000000000E+00  0.00000000000E+00  0.27638677026E+03  0.34970781868E+04  0.34861391535E+04 0.  0.
        1    1    3    3  502    0 -0.46900576034E+03  0.85051850702E+03  0.15901270410E+04  0.18632906752E+04  0.50400001928E-02 0.  1.
       -1    1    3    3    0  502  0.46900576034E+03 -0.85051850702E+03 -0.13137402707E+04  0.16337875116E+04  0.50400001928E-02 0. -1.
</event>
<event>
 5   0  0.1523259E-07  0.3414256E+04  0.7818609E-02  0.8134416E-01
       -1   -1    0    0    0  501  0.00000000000E+00  0.00000000000E+00  0.22330317438E+04  0.22330317438E+04  0.50400001928E-02 0.  1.
        1   -1    0    0  501    0  0.00000000000E+00  0.00000000000E+00 -0.13050803458E+04  0.13050803458E+04  0.50400001928E-02 0. -1.
    10030    2    1    2    0    0  0.00000000000E+00  0.00000000000E+00  0.92795139803E+03  0.35381120896E+04  0.34142559016E+04 0.  0.
        4    1    3    3  502    0  0.11384175815E+03  0.16061299111E+04 -0.12375918279E+03  0.16149090332E+04  0.12699999809E+01 0. -1.
       -4    1    3    3    0  502 -0.11384175815E+03 -0.16061299111E+04  0.10517105808E+04  0.19232030564E+04  0.12699999809E+01 0.  1.
</event>
<event>
 5   0  0.1421875E-07  0.3371918E+04  0.7818609E-02  0.8144833E-01
        1   -1    0    0  501    0  0.00000000000E+00  0.00000000000E+00  0.15812505393E+04  0.15812505393E+04  0.50400001928E-02 0.  1.
       -1   -1    0    0    0  501  0.00000000000E+00  0.00000000000E+00 -0.17976012629E+04  0.17976012629E+04  0.50400001928E-02 0. -1.
    10030    2    1    2    0    0  0.00000000000E+00  0.00000000000E+00 -0.21635072358E+03  0.33788518022E+04  0.33719181285E+04 0.  0.
        5    1    3    3  502    0  0.10339000622E+04 -0.71503972366E+03  0.10176136994E+04  0.16173406804E+04  0.46999998093E+01 0.  1.
       -5    1    3    3    0  502 -0.10339000622E+04  0.71503972366E+03 -0.12339644230E+04  0.17615111218E+04  0.46999998093E+01 0. -1.
</event>
<event>
 5   0  0.4521737E-07  0.3393832E+04  0.7818609E-02  0.8139422E-01
        2   -1    0    0  501    0  0.00000000000E+00  0.00000000000E+00  0.28145776039E+04  0.28145776039E+04  0.25500000920E-02 0. -1.
       -2   -1    0    0    0  501  0.00000000000E+00  0.00000000000E+00 -0.10230750683E+04  0.10230750683E+04  0.25500000920E-02 0.  1.
    10030    2    1    2    0    0  0.00000000000E+00  0.00000000000E+00  0.17915025356E+04  0.38376526722E+04  0.33938321552E+04 0.  0.
        4    1    3    3  502    0  0.88948502338E+03 -0.27136522326E+03 -0.70926886849E+03  0.11695668565E+04  0.12699999809E+01 0.  1.
       -4    1    3    3    0  502 -0.88948502338E+03  0.27136522326E+03  0.25007714041E+04  0.26680858157E+04  0.12699999809E+01 0. -1.
</event>
<event>
 5   0  0.1473755E-07  0.3398631E+04  0.7818609E-02  0.8138242E-01
       -1   -1    0    0    0  501  0.00000000000E+00  0.00000000000E+00  0.18294966192E+04  0.18294966192E+04  0.50400001928E-02 0.  1.
        1   -1    0    0  501    0  0.00000000000E+00  0.00000000000E+00 -0.15783974861E+04  0.15783974861E+04  0.50400001928E-02 0. -1.
    10030    2    1    2    0    0  0.00000000000E+00  0.00000000000E+00  0.25109913310E+03  0.34078941053E+04  0.33986308211E+04 0.  0.
        1    1    3    3  502    0 -0.34740478250E+03 -0.16022923800E+03 -0.15346531695E+04  0.15816206379E+04  0.50400001928E-02 0. -1.
       -1    1    3    3    0  502  0.34740478250E+03  0.16022923800E+03  0.17857523026E+04  0.18262734674E+04  0.50400001928E-02 0.  1.
</event>
<event>
 5   0  0.4396257E-07  0.3366073E+04  0.7818609E-02  0.8146284E-01
        2   -1    0    0  501    0  0.00000000000E+00  0.00000000000E+00  0.24103764233E+04  0.24103764233E+04  0.25500000920E-02 0.  1.
       -2   -1    0    0    0  501  0.00000000000E+00  0.00000000000E+00 -0.11751741587E+04  0.11751741587E+04  0.25500000920E-02 0. -1.
    10030    2    1    2    0    0  0.00000000000E+00  0.00000000000E+00  0.12352022646E+04  0.35855505820E+04  0.33660731338E+04 0.  0.
        2    1    3    3  502    0 -0.16551703694E+04  0.16954704230E+03  0.88766089599E+03  0.18858093799E+04  0.25500000920E-02 0.  1.
       -2    1    3    3    0  502  0.16551703694E+04 -0.16954704230E+03  0.34754136857E+03  0.16997412021E+04  0.25500000920E-02 0. -1.
</event>
<event>
 5   0  0.4447909E-07  0.3405726E+04  0.7818609E-02  0.8136502E-01
       -2   -1    0    0    0  501  0.00000000000E+00  0.00000000000E+00  0.13139680340E+04  0.13139680340E+04  0.25500000920E-02 0. -1.
        2   -1    0    0  501    0  0.00000000000E+00  0.00000000000E+00 -0.22068590387E+04  0.22068590387E+04  0.25500000920E-02 0.  1.
    10030    2    1    2    0    0  0.00000000000E+00  0.00000000000E+00 -0.89289100468E+03  0.35208270726E+04  0.34057259034E+04 0.  0.
        5    1    3    3  502    0  0.48046775428E+03 -0.16326815026E+04 -0.50512645012E+03  0.17752951790E+04  0.46999998093E+01 0.  1.
       -5    1    3    3    0  502 -0.48046775428E+03  0.16326815026E+04 -0.38776455456E+03  0.17455318936E+04  0.46999998093E+01 0. -1.
</event>
<event>
 5   0  0.1435806E-07  0.3403874E+04  0.7818609E-02  0.8136956E-01
        1   -1    0    0  501    0  0.00000000000E+00  0.00000000000E+00  0.22181375387E+04  0.22181375387E+04  0.50400001928E-02 0.  1.
       -1   -1    0    0    0  501  0.00000000000E+00  0.00000000000E+00 -0.13058655958E+04  0.13058655958E+04  0.50400001928E-02 0. -1.
    10030    2    1    2    0    0  0.00000000000E+00  0.00000000000E+00  0.91227194289E+03  0.35240031345E+04  0.34038739686E+04 0.  0.
        3    1    3    3  502    0 -0.66073694738E+03 -0.11338809420E+04 -0.66577378906E+03  0.14715685688E+04  0.10100000352E+00 0. -1.
       -3    1    3    3    0  502  0.66073694738E+03  0.11338809420E+04  0.15780457319E+04  0.20524345657E+04  0.10100000352E+00 0.  1.
</event>
<event>
 5   0  0.1421875E-07  0.3339258E+04  0.7818609E-02  0.8152977E-01
       -1   -1    0    0    0  501  0.00000000000E+00  0.00000000000E+00  0.11758638378E+04  0.11758638378E+04  0.50400001928E-02 0. -1.
        1   -1    0    0  501    0  0.00000000000E+00  0.00000000000E+00 -0.23707341544E+04  0.23707341544E+04  0.50400001928E-02 0.  1.
    10030    2    1    2    0    0  0.00000000000E+00  0.00000000000E+00 -0.11948703167E+04  0.35465979922E+04  0.33392577386E+04 0.  0.
        5    1    3    3  502    0  0.15988479880E+04 -0.48022647698E+03 -0.62565790290E+03  0.17828074095E+04  0.46999998093E+01 0.  1.
       -5    1    3    3    0  502 -0.15988479880E+04  0.48022647698E+03 -0.56921241376E+03  0.17637905828E+04  0.46999998093E+01 0. -1.
</event>
<event>
 5   0  0.4396257E-07  0.3394104E+04  0.7818609E-02  0.8139355E-01
        2   -1    0    0  501    0  0.00000000000E+00  0.00000000000E+00  0.16421601660E+04  0.16421601660E+04  0.25500000920E-02 0. -1.
       -2   -1    0    0    0  501  0.00000000000E+00  0.00000000000E+00 -0.17537791341E+04  0.17537791341E+04  0.25500000920E-02 0.  1.
    10030    2    1    2    0    0  0.00000000000E+00  0.00000000000E+00 -0.11161896809E+03  0.33959393001E+04  0.33941044380E+04 0.  0.
        2    1    3    3  502    0  0.12507009564E+04  0.10185512234E+04 -0.58362358348E+03  0.17153180358E+04  0.25500000920E-02 0.  1.
       -2    1    3    3    0  502 -0.12507009564E+04 -0.10185512234E+04  0.47200461539E+03  0.16806212643E+04  0.25500000920E-02 0. -1.
</event>
<event>
 5   0  0.1523259E-07  0.3409518E+04  0.7818609E-02  0.8135574E-01
       -1   -1    0    0    0  501  0.00000000000E+00  0.00000000000E+00  0.21561276548E+04  0.21561276548E+04  0.50400001928E-02 0. -1.
        1   -1    0    0  501    0  0.00000000000E+00  0.00000000000E+00 -0.13478806631E+04  0.13478806632E+04  0.50400001928E-02 0.  1.
    10030    2    1    2    0    0  0.00000000000E+00  0.00000000000E+00  0.80824699162E+03  0.35040083179E+04  0.34095177214E+04 0.  0.
        4    1    3    3  502    0 -0.80675499397E+03 -0.14539747480E+03  0.19402744379E+04  0.21063381859E+04  0.12699999809E+01 0. -1.
       -4    1    3    3    0  502  0.80675499397E+03  0.14539747480E+03 -0.11320274463E+04  0.13976701321E+04  0.12699999809E+01 0.  1.
</event>
<event>
 5   0  0.4381939E-07  0.3399677E+04  0.7818609E-02  0.8137986E-01
       -2   -1    0    0    0  501  0.00000000000E+00  0.00000000000E+00  0.17408169526E+04  0.17408169526E+04  0.25500000920E-02 0.  1.
        2   -1    0    0  501    0  0.00000000000E+00  0.00000000000E+00 -0.16598245418E+04  0.16598245418E+04  0.25500000920E-02 0. -1.
    10030    2    1    2    0    0  0.00000000000E+00  0.00000000000E+00  0.80992410784E+02  0.34006414944E+04  0.33996768674E+04 0.  0.
        3    1    3    3  502    0  0.18845430279E+03 -0.18943004094E+03  0.17196779541E+04  0.17403134892E+04  0.10100000352E+00 0.  1.
       -3    1    3    3    0  502 -0.18845430279E+03  0.18943004094E+03 -0.16386855433E+04  0.16603280052E+04  0.10100000352E+00 0. -1.
</event>
<event>
 5   0  0.4447909E-07  0.3404090E+04  0.7818609E-02  0.8136903E-01
        2   -1    0    0  501    0  0.00000000000E+00  0.00000000000E+00  0.16175531000E+04  0.16175531000E+04  0.25500000920E-02 0.  1.
       -2   -1    0    0    0  501  0.00000000000E+00  0.00000000000E+00 -0.17909503006E+04  0.17909503006E+04  0.25500000920E-02 0. -1.
    10030    2    1    2    0    0  0.00000000000E+00  0.00000000000E+00 -0.17339720058E+03  0.34085034007E+04  0.34040900169E+04 0.  0.
        5    1    3    3  502    0  0.14122233851E+04  0.89748870123E+03  0.22527277385E+03  0.16883811095E+04  0.46999998093E+01 0.  1.
       -5    1    3    3    0  502 -0.14122233851E+04 -0.89748870123E+03 -0.39866997443E+03  0.17201222912E+04  0.46999998093E+01 0. -1.
</event>
<event>
 5   0  0.4486226E-07  0.3397234E+04  0.7818609E-02  0.8138586E-01
        2   -1    0    0  501    0  0.00000000000E+00  0.00000000000E+00  0.18633883756E+04  0.18633883756E+04  0.25500000920E-02 0. -1.
       -2   -1    0    0    0  501  0.00000000000E+00  0.00000000000E+00 -0.15484153936E+04  0.15484153936E+04  0.25500000920E-02 0.  1.
    10030    2    1    2    0    0  0.00000000000E+00  0.00000000000E+00  0.31497298208E+03  0.34118037692E+04  0.33972337247E+04 0.  0.
        1    1    3    3  502    0 -0.12889918776E+04 -0.75855381941E+03 -0.65119693590E+03  0.16312453546E+04  0.50400001928E-02 0.  1.
       -1    1    3    3    0  502  0.12889918776E+04  0.75855381941E+03  0.96616991798E+03  0.17805584146E+04  0.50400001928E-02 0. -1.
</event>
<event>
 5   0  0.1473755E-07  0.3429192E+04  0.7818609E-02  0.8130778E-01
       -1   -1    0    0    0  501  0.00000000000E+00  0.00000000000E+00  0.11645516603E+04  0.11645516603E+04  0.50400001928E-02 0.  1.
        1   -1    0    0  501    0  0.00000000000E+00  0.00000000000E+00 -0.25244395092E+04  0.25244395092E+04  0.50400001928E-02 0. -1.
    10030    2    1    2    0    0  0.00000000000E+00  0.00000000000E+00 -0.13598878489E+04  0.36889911696E+04  0.34291924542E+04 0.  0.
        1    1    3    3  502    0 -0.13014211385E+04  0.93451965097E+03 -0.13367893524E+04  0.20866311918E+04  0.50400001928E-02 0. -1.
       -1    1    3    3    0  502  0.13014211385E+04 -0.93451965097E+03 -0.23098496430E+02  0.16023599778E+04  0.50400001928E-02 0.  1.
</event>
<event>
 5   0  0.4486226E-07  0.3437215E+04  0.7818609E-02  0.8128832E-01
        2   -1    0    0  501    0  0.00000000000E+00  0.00000000000E+00  0.25265806645E+04  0.25265806645E+04  0.25500000920E-02 0.  1.
       -2   -1    0    0    0  501  0.00000000000E+00  0.00000000000E+00 -0.11690155786E+04  0.11690155786E+04  0.25500000920E-02 0. -1.
    10030    2    1    2    0    0  0.00000000000E+00  0.00000000000E+00  0.13575650859E+04  0.36955962430E+04  0.34372152434E+04 0.  0.
        1    1    3    3  502    0  0.12187418618E+04 -0.11937660213E+04  0.45530425609E+03  0.17657041102E+04  0.50400001928E-02 0. -1.
       -1    1    3    3    0  502 -0.12187418618E+04  0.11937660213E+04  0.90226082977E+03  0.19298921328E+04  0.50400001928E-02 0.  1.
</event>
<event>
 5   0  0.1473755E-07  0.3347898E+04  0.7818609E-02  0.8150814E-01
        1   -1    0    0  501    0  0.00000000000E+00  0.00000000000E+00  0.16393623672E+04  0.16393623672E+04  0.50400001928E-02 0.  1.
       -1   -1    0    0    0  501  0.00000000000E+00  0.00000000000E+00 -0.17092654721E+04  0.17092654721E+04  0.50400001928E-02 0. -1.
    10030    2    1    2    0    0  0.00000000000E+00  0.00000000000E+00 -0.69903104906E+02  0.33486278392E+04  0.33478981409E+04 0.  0.
        1    1    3    3  502    0  0.79370501000E+03 -0.14477343347E+04 -0.31106088802E+03  0.16800777431E+04  0.50400001928E-02 0.  1.
       -1    1    3    3    0  502 -0.79370501000E+03  0.14477343347E+04  0.24115778312E+03  0.16685500961E+04  0.50400001928E-02 0. -1.
</event>
<event>
 5   0  0.4521737E-07  0.3403639E+04  0.7818609E-02  0.8137014E-01
       -2   -1    0    0    0  501  0.00000000000E+00  0.00000000000E+00  0.16570238752E+04  0.16570238752E+04  0.25500000920E-02 0. -1.
        2   -1    0    0  501    0  0.00000000000E+00  0.00000000000E+00 -0.17478265412E+04  0.17478265412E+04  0.25500000920E-02 0.  1.
    10030    2    1    2    0    0  0.00000000000E+00  0.00000000000E+00 -0.90802666001E+02  0.34048504163E+04  0.34036394100E+04 0.  0.
        4    1    3    3  502    0 -0.46841827689E+03  0.13400361095E+04  0.89358925235E+03  0.16773836239E+04  0.12699999809E+01 0. -1.
       -4    1    3    3    0  502  0.46841827689E+03 -0.13400361095E+04 -0.98439191835E+03  0.17274667924E+04  0.12699999809E+01 0.  1.
</event>
<event>
 5   0  0.1473755E-07  0.3425507E+04  0.7818609E-02  0.8131674E-01
        1   -1    0    0  501    0  0.00000000000E+00  0.00000000000E+00  0.14281506712E+04  0.14281506712E+04  0.50400001928E-02 0. -1.
       -1   -1    0    0    0  501  0.00000000000E+00  0.00000000000E+00 -0.20540717877E+04  0.20540717877E+04  0.50400001928E-02 0.  1.
    10030    2    1    2    0    0  0.00000000000E+00  0.00000000000E+00 -0.62592111643E+03  0.34822224589E+04  0.34255066792E+04 0.  0.
        1    1    3    3  502    0 -0.75748729227E+03  0.36410455881E+03  0.12041173279E+04  0.14684201262E+04  0.50400001928E-02 0. -1.
       -1    1    3    3    0  502  0.75748729227E+03 -0.36410455881E+03 -0.18300384443E+04  0.20138023327E+04  0.50400001928E-02 0.  1.
</event>
<event>
 5   0  0.4447909E-07  0.3386180E+04  0.7818609E-02  0.8141306E-01
        2   -1    0    0  501    0  0.00000000000E+00  0.00000000000E+00  0.22769050866E+04  0.22769050866E+04  0.25500000920E-02 0.  1.
       -2   -1    0    0    0  501  0.00000000000E+00  0.00000000000E+00 -0.12589695443E+04  0.12589695443E+04  0.25500000920E-02 0. -1.
    10030    2    1    2    0    0  0.00000000000E+00  0.00000000000E+00  0.10179355424E+04  0.35358746309E+04  0.33861802428E+04 0.  0.
        5    1    3    3  502    0 -0.37279199854E+03  0.61154861062E+03 -0.10929861612E+04  0.13067541528E+04  0.46999998093E+01 0. -1.
       -5    1    3    3    0  502  0.37279199854E+03 -0.61154861062E+03  0.21109217036E+04  0.22291204781E+04  0.46999998093E+01 0.  1.
</event>
<event>
 5   0  0.4447909E-07  0.3430183E+04  0.7818609E-02  0.8130538E-01
        2   -1    0    0  501    0  0.00000000000E+00  0.00000000000E+00  0.24556620512E+04  0.24556620512E+04  0.25500000920E-02 0.  1.
       -2   -1    0    0    0  501  0.00000000000E+00  0.00000000000E+00 -0.11978601295E+04  0.11978601295E+04  0.25500000920E-02 0. -1.
    10030    2    1    2    0    0  0.00000000000E+00  0.00000000000E+00  0.12578019217E+04  0.36535221806E+04  0.34301834718E+04 0.  0.
        5    1    3    3  502    0 -0.55160129079E+03 -0.66759115037E+02  0.23571370497E+04  0.24217427453E+04  0.46999998093E+01 0.  1.
       -5    1    3    3    0  502  0.55160129079E+03  0.66759115037E+02 -0.10993351281E+04  0.12317794353E+04  0.46999998093E+01 0. -1.
</event>
<event>
 5   0  0.4396257E-07  0.3403522E+04  0.7818609E-02  0.8137042E-01
       -2   -1    0    0    0  501  0.00000000000E+00  0.00000000000E+00  0.14272757193E+04  0.14272757193E+04  0.25500000920E-02 0.  1.
        2   -1    0    0  501    0  0.00000000000E+00  0.00000000000E+00 -0.20290336785E+04  0.20290336785E+04  0.25500000920E-02 0. -1.
    10030    2    1    2    0    0  0.00000000000E+00  0.00000000000E+00 -0.60175795925E+03  0.34563093978E+04  0.34035220011E+04 0.  0.
        2    1    3    3  502    0  0.66070792963E+03 -0.21328188947E+02 -0.18933200543E+04  0.20054053675E+04  0.25500000920E-02 0. -1.
       -2    1    3    3    0  502 -0.66070792963E+03  0.21328188947E+02  0.12915620950E+04  0.14509040303E+04  0.25500000920E-02 0.  1.
</event>
<event>
 5   0  0.4396257E-07  0.3383057E+04  0.7818609E-02  0.8142077E-01
       -2   -1    0    0    0  501  0.00000000000E+00  0.00000000000E+00  0.20290313790E+04  0.20290313790E+04  0.25500000920E-02 0. -1.
        2   -1    0    0  501    0  0.00000000000E+00  0.00000000000E+00 -0.14101648835E+04  0.14101648835E+04  0.25500000920E-02 0.  1.
    10030    2    1    2    0    0  0.00000000000E+00  0.00000000000E+00  0.61886649555E+03  0.34391962625E+04  0.33830570779E+04 0.  0.
        2    1    3    3  502    0 -0.66388119265E+03  0.58897974423E+03  0.17733407178E+04  0.19830210989E+04  0.25500000920E-02 0. -1.
       -2    1    3    3    0  502  0.66388119265E+03 -0.58897974423E+03 -0.11544742223E+04  0.14561751636E+04  0.25500000920E-02 0.  1.
</event>
<event>
 5   0  0.4486226E-07  0.3404684E+04  0.7818609E-02  0.8136758E-01
        2   -1    0    0  501    0  0.00000000000E+00  0.00000000000E+00  0.18551605767E+04  0.18551605767E+04  0.25500000920E-02 0. -1.
       -2   -1    0    0    0  501  0.00000000000E+00  0.00000000000E+00 -0.15621117173E+04  0.15621117173E+04  0.25500000920E-02 0.  1.
    10030    2    1    2    0    0  0.00000000000E+00  0.00000000000E+00  0.29304885942E+03  0.34172722940E+04  0.34046838762E+04 0.  0.
        1    1    3    3  502    0 -0.51039935770E+03 -0.38046394000E+03  0.17311931093E+04  0.18445297221E+04  0.50400001928E-02 0. -1.
       -1    1    3    3    0  502  0.51039935770E+03  0.38046394000E+03 -0.14381442499E+04  0.15727425719E+04  0.50400001928E-02 0.  1.
</event>
<event>
 5   0  0.1421875E-07  0.3401770E+04  0.7818609E-02  0.8137472E-01
       -1   -1    0    0    0  501  0.00000000000E+00  0.00000000000E+00  0.19945149258E+04  0.19945149258E+04  0.50400001928E-02 0. -1.
        1   -1    0    0  501    0  0.00000000000E+00  0.00000000000E+00 -0.14504828263E+04  0.14504828263E+04  0.50400001928E-02 0.  1.
    10030    2    1    2    0    0  0.00000000000E+00  0.00000000000E+00  0.54403209955E+03  0.34449977521E+04  0.34017699197E+04 0.  0.
        5    1    3    3  502    0  0.10426055837E+04  0.12536197303E+04 -0.21828365220E+03  0.16450710240E+04  0.46999998093E+01 0.  1.
       -5    1    3    3    0  502 -0.10426055837E+04 -0.12536197303E+04  0.76231575175E+03  0.17999267281E+04  0.46999998093E+01 0. -1.
</event>
<event>
 5   0  0.1435806E-07  0.3370599E+04  0.7818609E-02  0.8145160E-01
       -1   -1    0    0    0  501  0.00000000000E+00  0.00000000000E+00  0.14494884818E+04  0.14494884818E+04  0.50400001928E-02 0. -1.
        1   -1    0    0  501    0  0.00000000000E+00  0.00000000000E+00 -0.19594731608E+04  0.19594731608E+04  0.50400001928E-02 0.  1.
    10030    2    1    2    0    0  0.00000000000E+00  0.00000000000E+00 -0.50998467900E+03  0.34089616425E+04  0.33705986275E+04 0.  0.
        3    1    3    3  502    0  0.53724478167E+03 -0.15743505706E+04  0.18309283396E+02  0.16635945764E+04  0.10100000352E+00 0. -1.
       -3    1    3    3    0  502 -0.53724478167E+03  0.15743505706E+04 -0.52829396240E+03  0.17453670661E+04  0.10100000352E+00 0.  1.
</event>
<event>
 5   0  0.4381939E-07  0.3394246E+04  0.7818609E-02  0.8139320E-01
       -2   -1    0    0    0  501  0.00000000000E+00  0.00000000000E+00  0.13317853136E+04  0.13317853136E+04  0.25500000920E-02 0.  1.
        2   -1    0    0  501    0  0.00000000000E+00  0.00000000000E+00 -0.21626810482E+04  0.21626810482E+04  0.25500000920E-02 0. -1.
    10030    2    1    2    0    0  0.00000000000E+00  0.00000000000E+00 -0.83089573465E+03  0.34944663618E+04  0.33942462245E+04 0.  0.
        3    1    3    3  502    0  0.16715826902E+03 -0.88748499842E+03  0.10638693176E+04  0.13954889625E+04  0.10100000352E+00 0.  1.
       -3    1    3    3    0  502 -0.16715826902E+03  0.88748499842E+03 -0.18947650523E+04  0.20989773993E+04  0.10100000352E+00 0. -1.
</event>
<event>
 5   0  0.1473755E-07  0.3397675E+04  0.7818609E-02  0.8138477E-01
        1   -1    0    0  501    0  0.00000000000E+00  0.00000000000E+00  0.25237802461E+04  0.25237802461E+04  0.50400001928E-02 0.  1.
       -1   -1    0    0    0  501  0.00000000000E+00  0.00000000000E+00 -0.11435417992E+04  0.11435417992E+04  0.50400001928E-02 0. -1.
    10030    2    1    2    0    0  0.00000000000E+00  0.00000000000E+00  0.13802384469E+04  0.36673220453E+04  0.33976746185E+04 0.  0.
        1    1    3    3  502    0 -0.57783999128E+03 -0.12947840036E+04 -0.31992608189E+03  0.14535189608E+04  0.50400001928E-02 0. -1.
       -1    1    3    3    0  502  0.57783999128E+03  0.12947840036E+04  0.17001645288E+04  0.22138030845E+04  0.50400001928E-02 0.  1.
</event>
<event>
 5   0  0.4396257E-07  0.3394796E+04  0.7818609E-02  0.8139185E-01
        2   -1    0    0  501    0  0.00000000000E+00  0.00000000000E+00  0.26439713622E+04  0.26439713622E+04  0.25500000920E-02 0. -1.
       -2   -1    0    0    0  501  0.00000000000E+00  0.00000000000E+00 -0.10897094547E+04  0.10897094547E+04  0.25500000920E-02 0.  1.
    10030    2    1    2    0    0  0.00000000000E+00  0.00000000000E+00  0.15542619075E+04  0.37336808169E+04  0.33947963659E+04 0.  0.
        2    1    3    3  502    0  0.56337601086E+02  0.12542008737E+04 -0.47925536054E+03  0.13438301446E+04  0.25500000920E-02 0.  1.
       -2    1    3    3    0  502 -0.56337601086E+02 -0.12542008737E+04  0.20335172680E+04  0.23898506724E+04  0.25500000920E-02 0. -1.
</event>
<event>
 5   0  0.1523259E-07  0.3418026E+04  0.7818609E-02  0.8133496E-01
        1   -1    0    0  501    0  0.00000000000E+00  0.00000000000E+00  0.24237689792E+04  0.24237689792E+04  0.50400001928E-02 0. -1.
       -1   -1    0    0    0  501  0.00000000000E+00  0.00000000000E+00 -0.12050343056E+04  0.12050343056E+04  0.50400001928E-02 0.  1.
    10030    2    1    2    0    0  0.00000000000E+00  0.00000000000E+00  0.12187346736E+04  0.36288032848E+04  0.34180256107E+04 0.  0.
        4    1    3    3  502    0 -0.14046091406E+04  0.21876780009E+03 -0.39778266910E+03  0.14761500103E+04  0.12699999809E+01 0.  1.
       -4    1    3    3    0  502  0.14046091406E+04 -0.21876780009E+03  0.16165173427E+04  0.21526532745E+04  0.12699999809E+01 0. -1.
</event>
<event>
 5   0  0.1473755E-07  0.3395762E+04  0.7818609E-02  0.8138947E-01
       -1   -1    0    0    0  501  0.00000000000E+00  0.00000000000E+00  0.32041201503E+04  0.32041201503E+04  0.50400001928E-02 0.  1.
        1   -1    0    0  501    0  0.00000000000E+00  0.00000000000E+00 -0.89971644651E+03  0.89971644652E+03  0.50400001928E-02 0. -1.
    10030    2    1    2    0    0  0.00000000000E+00  0.00000000000E+00  0.23044037038E+04  0.41038365969E+04  0.33957618267E+04 0.  0.
        1    1    3    3  502    0 -0.69728169931E+03  0.14777551466E+04  0.17097430552E+04  0.23649911959E+04  0.50400001928E-02 0. -1.
       -1    1    3    3    0  502  0.69728169931E+03 -0.14777551466E+04  0.59466064860E+03  0.17388454010E+04  0.50400001928E-02 0.  1.
</event>
<event>
 5   0  0.1520084E-07  0.3391645E+04  0.7818609E-02  0.8139960E-01
       -1   -1    0    0    0  501  0.00000000000E+00  0.00000000000E+00  0.21977150621E+04  0.21977150621E+04  0.50400001928E-02 0.  1.
        1   -1    0    0  501    0  0.00000000000E+00  0.00000000000E+00 -0.13085475246E+04  0.13085475246E+04  0.50400001928E-02 0. -1.
    10030    2    1    2    0    0  0.00000000000E+00  0.00000000000E+00  0.88916753750E+03  0.35062625866E+04  0.33916453849E+04 0.  0.
        2    1    3    3  502    0  0.93310410233E+02 -0.60353058706E+03 -0.11909222889E+04  0.13383765914E+04  0.25500000920E-02 0. -1.
       -2    1    3    3    0  502 -0.93310410233E+02  0.60353058706E+03  0.20800898264E+04  0.21678859952E+04  0.25500000920E-02 0.  1.
</event>
<event>
 5   0  0.1421875E-07  0.3398747E+04  0.7818609E-02  0.8138214E-01
        1   -1    0    0  501    0  0.00000000000E+00  0.00000000000E+00  0.17490866543E+04  0.17490866543E+04  0.50400001928E-02 0.  1.
       -1   -1    0    0    0  501  0.00000000000E+00  0.00000000000E+00 -0.16510732353E+04  0.16510732353E+04  0.50400001928E-02 0. -1.
    10030    2    1    2    0    0  0.00000000000E+00  0.00000000000E+00  0.98013418921E+02  0.34001598896E+04  0.33987469227E+04 0.  0.
        5    1    3    3  502    0 -0.13392172697E+04  0.84505609195E+03  0.66588723799E+03  0.17178622173E+04  0.46999998093E+01 0.  1.
       -5    1    3    3    0  502  0.13392172697E+04 -0.84505609195E+03 -0.56787381907E+03  0.16822976723E+04  0.46999998093E+01 0. -1.
</event>
<event>
 5   0  0.4521737E-07  0.3405639E+04  0.7818609E-02  0.8136524E-01
        2   -1    0    0  501    0  0.00000000000E+00  0.00000000000E+00  0.19643743792E+04  0.19643743792E+04  0.25500000920E-02 0.  1.
       -2   -1    0    0    0  501  0.00000000000E+00  0.00000000000E+00 -0.14760904342E+04  0.14760904342E+04  0.25500000920E-02 0. -1.
    10030    2    1    2    0    0  0.00000000000E+00  0.00000000000E+00  0.48828394505E+03  0.34404648134E+04  0.34056389887E+04 0.  0.
        4    1    3    3  502    0 -0.98911134523E+03  0.36598543666E+03  0.15947146857E+04  0.19119108595E+04  0.12699999809E+01 0.  1.
       -4    1    3    3    0  502  0.98911134523E+03 -0.36598543666E+03 -0.11064307406E+04  0.15285539539E+04  0.12699999809E+01 0. -1.
</event>
<event>
 5   0  0.4521737E-07  0.3338052E+04  0.7818609E-02  0.8153280E-01
        2   -1    0    0  501    0  0.00000000000E+00  0.00000000000E+00  0.13639201908E+04  0.13639201908E+04  0.25500000920E-02 0. -1.
       -2   -1    0    0    0  501  0.00000000000E+00  0.00000000000E+00 -0.20423826908E+04  0.20423826908E+04  0.25500000920E-02 0.  1.
    10030    2    1    2    0    0  0.00000000000E+00  0.00000000000E+00 -0.67846250001E+03  0.34063028816E+04  0.33380515210E+04 0.  0.
        4    1    3    3  502    0 -0.11626719352E+04  0.82076917400E+03 -0.12289396233E+04  0.18803622726E+04  0.12699999809E+01 0.  1.
       -4    1    3    3    0  502  0.11626719352E+04 -0.82076917400E+03  0.55047712328E+03  0.15259406089E+04  0.12699999809E+01 0. -1.
</event>
<event>
 5   0  0.1520084E-07  0.3402376E+04  0.7818609E-02  0.8137323E-01
        1   -1    0    0  501    0  0.00000000000E+00  0.00000000000E+00  0.15845037443E+04  0.15845037443E+04  0.50400001928E-02 0. -1.
       -1   -1    0    0    0  501  0.00000000000E+00  0.00000000000E+00 -0.18264646786E+04  0.18264646786E+04  0.50400001928E-02 0.  1.
    10030    2    1    2    0    0  0.00000000000E+00  0.00000000000E+00 -0.24196093433E+03  0.34109684228E+04  0.34023757123E+04 0.  0.
        2    1    3    3  502    0  0.65933187230E+03 -0.12857662908E+04 -0.10210935389E+04  0.17693347585E+04  0.25500000920E-02 0.  1.
       -2    1    3    3    0  502 -0.65933187230E+03  0.12857662908E+04  0.77913260456E+03  0.16416336644E+04  0.25500000920E-02 0. -1.
</event>
<event>
 5   0  0.4521737E-07  0.3397103E+04  0.7818609E-02  0.8138618E-01
       -2   -1    0    0    0  501  0.00000000000E+00  0.00000000000E+00  0.10940209844E+04  0.10940209844E+04  0.25500000920E-02 0. -1.
        2   -1    0    0  501    0  0.00000000000E+00  0.00000000000E+00 -0.26371314984E+04  0.26371314984E+04  0.25500000920E-02 0.  1.
    10030    2    1    2    0    0  0.00000000000E+00  0.00000000000E+00 -0.15431105140E+04  0.37311524827E+04  0.33971029997E+04 0.  0.
        4    1    3    3  502    0  0.12687410002E+04 -0.28098796225E+03  0.42981170376E+03  0.13687211820E+04  0.12699999809E+01 0.  1.
       -4    1    3    3    0  502 -0.12687410002E+04  0.28098796225E+03 -0.19729222178E+04  0.23624313007E+04  0.12699999809E+01 0. -1.
</event>
<event>
 5   0  0.4486226E-07  0.3388527E+04  0.7818609E-02  0.8140728E-01
       -2   -1    0    0    0  501  0.00000000000E+00  0.00000000000E+00  0.13119161833E+04  0.13119161833E+04  0.25500000920E-02 0. -1.
        2   -1    0    0  501    0  0.00000000000E+00  0.00000000000E+00 -0.21880425794E+04  0.21880425794E+04  0.25500000920E-02 0.  1.
    10030    2    1    2    0    0  0.00000000000E+00  0.00000000000E+00 -0.87612639612E+03  0.34999587628E+04  0.33885268007E+04 0.  0.
        1    1    3    3  502    0  0.24301007619E+03 -0.61361543019E+00  0.12938218126E+04  0.13164456527E+04  0.50400001928E-02 0. -1.
       -1    1    3    3    0  502 -0.24301007619E+03  0.61361543019E+00 -0.21699482087E+04  0.21835131101E+04  0.50400001928E-02 0.  1.
</event>
<event>
 5   0  0.4521737E-07  0.3397958E+04  0.7818609E-02  0.8138408E-01
       -2   -1    0    0    0  501  0.00000000000E+00  0.00000000000E+00  0.16390017577E+04  0.16390017578E+04  0.25500000920E-02 0.  1.
        2   -1    0    0  501    0  0.00000000000E+00  0.00000000000E+00 -0.17611511197E+04  0.17611511197E+04  0.25500000920E-02 0. -1.
    10030    2    1    2    0    0  0.00000000000E+00  0.00000000000E+00 -0.12214936192E+03  0.34001528774E+04  0.33979580814E+04 0.  0.
        4    1    3    3  502    0 -0.28917991812E+03  0.60568001259E+03  0.15007200738E+04  0.16439694813E+04  0.12699999809E+01 0.  1.
       -4    1    3    3    0  502  0.28917991812E+03 -0.60568001259E+03 -0.16228694357E+04  0.17561833961E+04  0.12699999809E+01 0. -1.
</event>
<event>
 5   0  0.1421875E-07  0.3398622E+04  0.7818609E-02  0.8138245E-01
       -1   -1    0    0    0  501  0.00000000000E+00  0.00000000000E+00  0.17036794272E+04  0.17036794272E+04  0.50400001928E-02 0.  1.
        1   -1    0    0  501    0  0.00000000000E+00  0.00000000000E+00 -0.16949534401E+04  0.16949534401E+04  0.50400001928E-02 0. -1.
    10030    2    1    2    0    0  0.00000000000E+00  0.00000000000E+00  0.87259870859E+01  0.33986328673E+04  0.33986216653E+04 0.  0.
        5    1    3    3  502    0 -0.70294620826E+03  0.53788955311E+02 -0.15418014064E+04  0.16953466578E+04  0.46999998093E+01 0. -1.
       -5    1    3    3    0  502  0.70294620826E+03 -0.53788955311E+02  0.15505273935E+04  0.17032862095E+04  0.46999998093E+01 0.  1.
</event>
<event>
 5   0  0.4447909E-07  0.3414249E+04  0.7818609E-02  0.8134418E-01
        2   -1    0    0  501    0  0.00000000000E+00  0.00000000000E+00  0.14844749622E+04  0.14844749622E+04  0.25500000920E-02 0. -1.
       -2   -1    0    0    0  501  0.00000000000E+00  0.00000000000E+00 -0.19631680108E+04  0.19631680108E+04  0.25500000920E-02 0.  1.
    10030    2    1    2    0    0  0.00000000000E+00  0.00000000000E+00 -0.47869304866E+03  0.34476429730E+04  0.34142488244E+04 0.  0.
        5    1    3    3  502    0 -0.60586241153E+02 -0.53584920086E+03 -0.18748942894E+04  0.19509115164E+04  0.46999998093E+01 0.  1.
       -5    1    3    3    0  502  0.60586241153E+02  0.53584920086E+03  0.13962012407E+04  0.14967314566E+04  0.46999998093E+01 0. -1.
</event>
<event>
 5   0  0.1421875E-07  0.3403164E+04  0.7818609E-02  0.8137130E-01
       -1   -1    0    0    0  501  0.00000000000E+00  0.00000000000E+00  0.14408128333E+04  0.14408128333E+04  0.50400001928E-02 0.  1.
        1   -1    0    0  501    0  0.00000000000E+00  0.00000000000E+00 -0.20095476653E+04  0.20095476653E+04  0.50400001928E-02 0. -1.
    10030    2    1    2    0    0  0.00000000000E+00  0.00000000000E+00 -0.56873483201E+03  0.34503604986E+04  0.34031644481E+04 0.  0.
        5    1    3    3  502    0 -0.51566368790E+03  0.13493426397E+03  0.13539771254E+04  0.14551262628E+04  0.46999998093E+01 0.  1.
       -5    1    3    3    0  502  0.51566368790E+03 -0.13493426397E+03 -0.19227119574E+04  0.19952342358E+04  0.46999998093E+01 0. -1.
</event>
<event>
 5   0  0.1435806E-07  0.3314643E+04  0.7818609E-02  0.8159180E-01
        1   -1    0    0  501    0  0.00000000000E+00  0.00000000000E+00  0.19889328792E+04  0.19889328793E+04  0.50400001928E-02 0. -1.
       -1   -1    0    0    0  501  0.00000000000E+00  0.00000000000E+00 -0.13809987282E+04  0.13809987282E+04  0.50400001928E-02 0.  1.
    10030    2    1    2    0    0  0.00000000000E+00  0.00000000000E+00  0.60793415101E+03  0.33699316075E+04  0.33146425308E+04 0.  0.
        3    1    3    3  502    0 -0.26275957273E+03 -0.11773560591E+04 -0.85143261442E+03  0.14765322177E+04  0.10100000352E+00 0.  1.
       -3    1    3    3    0  502  0.26275957273E+03  0.11773560591E+04  0.14593667654E+04  0.18933993898E+04  0.10100000352E+00 0. -1.
</event>
<event>
 5   0  0.4381939E-07  0.3402764E+04  0.7818609E-02  0.8137228E-01
        2   -1    0    0  501    0  0.00000000000E+00  0.00000000000E+00  0.21883309788E+04  0.21883309788E+04  0.25500000920E-02 0.  1.
       -2   -1    0    0    0  501  0.00000000000E+00  0.00000000000E+00 -0.13227893845E+04  0.13227893845E+04  0.25500000920E-02 0. -1.
    10030    2    1    2    0    0  0.00000000000E+00  0.00000000000E+00  0.86554159430E+03  0.35111203634E+04  0.34027641638E+04 0.  0.
        3    1    3    3  502    0 -0.85588614144E+03  0.49594107524E+03 -0.99557891119E+03  0.14034514654E+04  0.10100000352E+00 0. -1.
       -3    1    3    3    0  502  0.85588614144E+03 -0.49594107524E+03  0.18611205055E+04  0.21076688979E+04  0.10100000352E+00 0.  1.
</event>
<event>
 5   0  0.1473755E-07  0.3390287E+04  0.7818609E-02  0.8140294E-01
        1   -1    0    0  501    0  0.00000000000E+00  0.00000000000E+00  0.28699755902E+04  0.28699755902E+04  0.50400001928E-02 0.  1.
       -1   -1    0    0    0  501  0.00000000000E+00  0.00000000000E+00 -0.10012319219E+04  0.10012319219E+04  0.50400001928E-02 0. -1.
    10030    2    1    2    0    0  0.00000000000E+00  0.00000000000E+00  0.18687436683E+04  0.38712075121E+04  0.33902868173E+04 0.  0.
        1    1    3    3  502    0 -0.10884341264E+04  0.45887707823E+02  0.24173374326E+04  0.26514740791E+04  0.50400001928E-02 0.  1.
       -1    1    3    3    0  502  0.10884341264E+04 -0.45887707823E+02 -0.54859376431E+03  0.12197334329E+04  0.50400001928E-02 0. -1.
</event>
<event>
 5   0  0.1523259E-07  0.3394195E+04  0.7818609E-02  0.8139332E-01
       -1   -1    0    0    0  501  0.00000000000E+00  0.00000000000E+00  0.11872010966E+04  0.11872010966E+04  0.50400001928E-02 0.  1.
        1   -1    0    0  501    0  0.00000000000E+00  0.00000000000E+00 -0.24259919207E+04  0.24259919207E+04  0.50400001928E-02 0. -1.
    10030    2    1    2    0    0  0.00000000000E+00  0.00000000000E+00 -0.12387908241E+04  0.36131930173E+04  0.33941952028E+04 0.  0.
        4    1    3    3  502    0 -0.11100172709E+04 -0.85186791537E+03 -0.16417357157E+04  0.21571080316E+04  0.12699999809E+01 0. -1.
       -4    1    3    3    0  502  0.11100172709E+04  0.85186791537E+03  0.40294489164E+03  0.14560849857E+04  0.12699999809E+01 0.  1.
</event>
<event>
 5   0  0.1421875E-07  0.3400457E+04  0.7818609E-02  0.8137794E-01
       -1   -1    0    0    0  501  0.00000000000E+00  0.00000000000E+00  0.22731203301E+04  0.22731203301E+04  0.50400001928E-02 0.  1.
        1   -1    0    0  501    0  0.00000000000E+00  0.00000000000E+00 -0.12717220206E+04  0.12717220206E+04  0.50400001928E-02 0. -1.
    10030    2    1    2    0    0  0.00000000000E+00  0.00000000000E+00  0.10013983095E+04  0.35448423508E+04  0.34004571336E+04 0.  0.
        5    1    3    3  502    0  0.12282671482E+04  0.10989854917E+04  0.65422520629E+02  0.16494579397E+04  0.46999998093E+01 0. -1.
       -5    1    3    3    0  502 -0.12282671482E+04 -0.10989854917E+04  0.93597578886E+03  0.18953844111E+04  0.46999998093E+01 0.  1.
</event>
<event>
 5   0  0.1473755E-07  0.3391100E+04  0.7818609E-02  0.8140094E-01
        1   -1    0    0  501    0  0.00000000000E+00  0.00000000000E+00  0.12826164128E+04  0.12826164128E+04  0.50400001928E-02 0. -1.
       -1   -1    0    0    0  501  0.00000000000E+00  0.00000000000E+00 -0.22414254183E+04  0.22414254183E+04  0.50400001928E-02 0.  1.
    10030    2    1    2    0    0  0.00000000000E+00  0.00000000000E+00 -0.95880900557E+03  0.35240418311E+04  0.33910995441E+04 0.  0.
        1    1    3    3  502    0 -0.15023848328E+04  0.78095512869E+03 -0.57140734148E+03  0.17870527269E+04  0.50400001928E-02 0. -1.
       -1    1    3    3    0  502  0.15023848328E+04 -0.78095512869E+03 -0.38740166409E+03  0.17369891042E+04  0.50400001928E-02 0.  1.
</event>
<event>
 5   0  0.1473755E-07  0.3401225E+04  0.7818609E-02  0.8137606E-01
        1   -1    0    0  501    0  0.00000000000E+00  0.00000000000E+00  0.27937081933E+04  0.27937081933E+04  0.50400001928E-02 0. -1.
       -1   -1    0    0    0  501  0.00000000000E+00  0.00000000000E+00 -0.10352131526E+04  0.10352131526E+04  0.50400001928E-02 0.  1.
    10030    2    1    2    0    0  0.00000000000E+00  0.00000000000E+00  0.17584950407E+04  0.38289213459E+04  0.34012253476E+04 0.  0.
        1    1    3    3  502    0 -0.59653327930E+03 -0.14621450557E+04  0.15897747490E+04  0.22407819773E+04  0.50400001928E-02 0. -1.
       -1    1    3    3    0  502  0.59653327930E+03  0.14621450557E+04  0.16872029163E+03  0.15881393686E+04  0.50400001928E-02 0.  1.
</event>
<event>
 5   0  0.4521737E-07  0.3399687E+04  0.7818609E-02  0.8137983E-01
        2   -1    0    0  501    0  0.00000000000E+00  0.00000000000E+00  0.12860486024E+04  0.12860486024E+04  0.25500000920E-02 0. -1.
       -2   -1    0    0    0  501  0.00000000000E+00  0.00000000000E+00 -0.22467794624E+04  0.22467794624E+04  0.25500000920E-02 0.  1.
    10030    2    1    2    0    0  0.00000000000E+00  0.00000000000E+00 -0.96073086006E+03  0.35328280648E+04  0.33996868017E+04 0.  0.
        4    1    3    3  502    0  0.16087142875E+04 -0.38910399821E+03 -0.77762063191E+02  0.16569285234E+04  0.12699999809E+01 0.  1.
       -4    1    3    3    0  502 -0.16087142875E+04  0.38910399821E+03 -0.88296879687E+03  0.18758995414E+04  0.12699999809E+01 0. -1.
</event>
<event>
 5   0  0.1523259E-07  0.3401872E+04  0.7818609E-02  0.8137447E-01
        1   -1    0    0  501    0  0.00000000000E+00  0.00000000000E+00  0.15065966071E+04  0.15065966071E+04  0.50400001928E-02 0.  1.
       -1   -1    0    0    0  501  0.00000000000E+00  0.00000000000E+00 -0.19203442140E+04  0.19203442141E+04  0.50400001928E-02 0. -1.
    10030    2    1    2    0    0  0.00000000000E+00  0.00000000000E+00 -0.41374760692E+03  0.34269408212E+04  0.34018724711E+04 0.  0.
        4    1    3    3  502    0  0.58552916403E+03  0.25091531378E+03 -0.17956385963E+04  0.19052880302E+04  0.12699999809E+01 0. -1.
       -4    1    3    3    0  502 -0.58552916403E+03 -0.25091531378E+03  0.13818909894E+04  0.15216527909E+04  0.12699999809E+01 0.  1.
</event>
<event>
 5   0  0.1473755E-07  0.3389629E+04  0.7818609E-02  0.8140456E-01
        1   -1    0    0  501    0  0.00000000000E+00  0.00000000000E+00  0.21396208297E+04  0.21396208297E+04  0.50400001928E-02 0.  1.
       -1   -1    0    0    0  501  0.00000000000E+00  0.00000000000E+00 -0.13424788579E+04  0.13424788579E+04  0.50400001928E-02 0. -1.
    10030    2    1    2    0    0  0.00000000000E+00  0.00000000000E+00  0.79714197177E+03  0.34820996876E+04  0.33896287276E+04 0.  0.
        1    1    3    3  502    0 -0.47411358286E+03 -0.13912898475E+04 -0.46820339802E+03  0.15426229452E+04  0.50400001928E-02 0. -1.
       -1    1    3    3    0  502  0.47411358286E+03  0.13912898475E+04  0.12653453698E+04  0.19394767423E+04  0.50400001928E-02 0.  1.
</event>
<event>
 5   0  0.1435806E-07  0.3401263E+04  0.7818609E-02  0.8137596E-01
       -1   -1    0    0    0  501  0.00000000000E+00  0.00000000000E+00  0.11862202606E+04  0.11862202606E+04  0.50400001928E-02 0. -1.
        1   -1    0    0  501    0  0.00000000000E+00  0.00000000000E+00 -0.24381199774E+04  0.24381199774E+04  0.50400001928E-02 0.  1.
    10030    2    1    2    0    0  0.00000000000E+00  0.00000000000E+00 -0.12518997168E+04  0.36243402381E+04  0.34012628920E+04 0.  0.
        3    1    3    3  502    0  0.14383327788E+03  0.48982637479E+03  0.11026436363E+04  0.12150888396E+04  0.10100000352E+00 0. -1.
       -3    1    3    3    0  502 -0.14383327788E+03 -0.48982637479E+03 -0.23545433531E+04  0.24092513985E+04  0.10100000352E+00 0.  1.
</event>
<event>
 5   0  0.1421875E-07  0.3397398E+04  0.7818609E-02  0.8138545E-01
        1   -1    0    0  501    0  0.00000000000E+00  0.00000000000E+00  0.11762720570E+04  0.11762720570E+04  0.50400001928E-02 0.  1.
       -1   -1    0    0    0  501  0.00000000000E+00  0.00000000000E+00 -0.24531558549E+04  0.24531558549E+04  0.50400001928E-02 0. -1.
    10030    2    1    2    0    0  0.00000000000E+00  0.00000000000E+00 -0.12768837979E+04  0.36294279120E+04  0.33973982302E+04 0.  0.
        5    1    3    3  502    0 -0.13293078154E+03  0.10901552817E+04  0.74600062335E+03  0.13276476004E+04  0.46999998093E+01 0.  1.
       -5    1    3    3    0  502  0.13293078154E+03 -0.10901552817E+04 -0.20228844212E+04  0.23017803115E+04  0.46999998093E+01 0. -1.
</event>
<event>
 5   0  0.4521737E-07  0.3397913E+04  0.7818609E-02  0.8138419E-01
       -2   -1    0    0    0  501  0.00000000000E+00  0.00000000000E+00  0.17532327056E+04  0.17532327056E+04  0.25500000920E-02 0. -1.
        2   -1    0    0  501    0  0.00000000000E+00  0.00000000000E+00 -0.16463607980E+04  0.16463607980E+04  0.25500000920E-02 0.  1.
    10030    2    1    2    0    0  0.00000000000E+00  0.00000000000E+00  0.10687190753E+03  0.33995935036E+04  0.33979132398E+04 0.  0.
        4    1    3    3  502    0  0.13337458314E+04 -0.84875535609E+03 -0.56911638066E+03  0.16802257780E+04  0.12699999809E+01 0.  1.
       -4    1    3    3    0  502 -0.13337458314E+04  0.84875535609E+03  0.67598828819E+03  0.17193677257E+04  0.12699999809E+01 0. -1.
</event>
<event>
 5   0  0.1520084E-07  0.3501145E+04  0.7818609E-02  0.8113519E-01
        1   -1    0    0  501    0  0.00000000000E+00  0.00000000000E+00  0.21180736926E+04  0.21180736926E+04  0.50400001928E-02 0. -1.
       -1   -1    0    0    0  501  0.00000000000E+00  0.00000000000E+00 -0.14468353309E+04  0.14468353309E+04  0.50400001928E-02 0.  1.
    10030    2    1    2    0    0  0.00000000000E+00  0.00000000000E+00  0.67123836175E+03  0.35649090235E+04  0.35011448709E+04 0.  0.
        2    1    3    3  502    0  0.14626138596E+04 -0.65373701580E+03 -0.38284669548E+03  0.16471742410E+04  0.25500000920E-02 0.  1.
       -2    1    3    3    0  502 -0.14626138596E+04  0.65373701580E+03  0.10540850572E+04  0.19177347825E+04  0.25500000920E-02 0. -1.
</event>
<event>
 5   0  0.1523259E-07  0.3389570E+04  0.7818609E-02  0.8140471E-01
        1   -1    0    0  501    0  0.00000000000E+00  0.00000000000E+00  0.10535390868E+04  0.10535390868E+04  0.50400001928E-02 0.  1.
       -1   -1    0    0    0  501  0.00000000000E+00  0.00000000000E+00 -0.27263316063E+04  0.27263316063E+04  0.50400001928E-02 0. -1.
    10030    2    1    2    0    0  0.00000000000E+00  0.00000000000E+00 -0.16727925195E+04  0.37798706931E+04  0.33895704216E+04 0.  0.
        4    1    3    3  502    0 -0.95529103247E+03 -0.89060102805E+03  0.36803736659E+03  0.13569098216E+04  0.12699999809E+01 0.  1.
       -4    1    3    3    0  502  0.95529103247E+03  0.89060102805E+03 -0.20408298861E+04  0.24229608715E+04  0.12699999809E+01 0. -1.
</event>
<event>
 5   0  0.4521737E-07  0.3396215E+04  0.7818609E-02  0.8138836E-01
        2   -1    0    0  501    0  0.00000000000E+00  0.00000000000E+00  0.16495932152E+04  0.16495932152E+04  0.25500000920E-02 0. -1.
       -2   -1    0    0    0  501  0.00000000000E+00  0.00000000000E+00 -0.17480483177E+04  0.17480483177E+04  0.25500000920E-02 0.  1.
    10030    2    1    2    0    0  0.00000000000E+00  0.00000000000E+00 -0.98455102528E+02  0.33976415330E+04  0.33962147428E+04 0.  0.
        4    1    3    3  502    0 -0.95465975671E+03 -0.84136236720E+03 -0.11741113972E+04  0.17314170699E+04  0.12699999809E+01 0.  1.
       -4    1    3    3    0  502  0.95465975671E+03  0.84136236720E+03  0.10756562947E+04  0.16662244630E+04  0.12699999809E+01 0. -1.
</event>
<event>
 5   0  0.4447909E-07  0.3418397E+04  0.7818609E-02  0.8133406E-01
        2   -1    0    0  501    0  0.00000000000E+00  0.00000000000E+00  0.13214523414E+04  0.13214523414E+04  0.25500000920E-02 0.  1.
       -2   -1    0    0    0  501  0.00000000000E+00  0.00000000000E+00 -0.22107192994E+04  0.22107192994E+04  0.25500000920E-02 0. -1.
    10030    2    1    2    0    0  0.00000000000E+00  0.00000000000E+00 -0.88926695804E+03  0.35321716408E+04  0.34183973990E+04 0.  0.
        5    1    3    3  502    0  0.38726853743E+03  0.55217700149E+03 -0.20674015040E+04  0.21746373100E+04  0.46999998093E+01 0. -1.
       -5    1    3    3    0  502 -0.38726853743E+03 -0.55217700149E+03  0.11781345460E+04  0.13575343309E+04  0.46999998093E+01 0.  1.
</event>
<event>
 5   0  0.1523259E-07  0.3408908E+04  0.7818609E-02  0.8135724E-01
        1   -1    0    0  501    0  0.00000000000E+00  0.00000000000E+00  0.11455996179E+04  0.11455996180E+04  0.50400001928E-02 0.  1.
       -1   -1    0    0    0  501  0.00000000000E+00  0.00000000000E+00 -0.25359323600E+04  0.25359323600E+04  0.50400001928E-02 0. -1.
    10030    2    1    2    0    0  0.00000000000E+00  0.00000000000E+00 -0.13903327421E+04  0.36815319780E+04  0.34089078267E+04 0.  0.
        4    1    3    3  502    0 -0.13646398898E+04 -0.57901791149E+03  0.21333367796E+03  0.14976704049E+04  0.12699999809E+01 0.  1.
       -4    1    3    3    0  502  0.13646398898E+04  0.57901791149E+03 -0.16036664200E+04  0.21838615731E+04  0.12699999809E+01 0. -1.
</event>
<event>
 5   0  0.4521737E-07  0.3403454E+04  0.7818609E-02  0.8137059E-01
        2   -1    0    0  501    0  0.00000000000E+00  0.00000000000E+00  0.26329342094E+04  0.26329342094E+04  0.25500000920E-02 0.  1.
       -2   -1    0    0    0  501  0.00000000000E+00  0.00000000000E+00 -0.10998658815E+04  0.10998658815E+04  0.25500000920E-02 0. -1.
    10030    2    1    2    0    0  0.00000000000E+00  0.00000000000E+00  0.15330683278E+04  0.37328000909E+04  0.34034538370E+04 0.  0.
        4    1    3    3  502    0 -0.14993084397E+04 -0.51630539801E+03  0.14438503451E+04  0.21445751312E+04  0.12699999809E+01 0.  1.
       -4    1    3    3    0  502  0.14993084397E+04  0.51630539801E+03  0.89217982747E+02  0.15882249597E+04  0.12699999809E+01 0. -1.
</event>
<event>
 5   0  0.4381939E-07  0.3389538E+04  0.7818609E-02  0.8140479E-01
       -2   -1    0    0    0  501  0.00000000000E+00  0.00000000000E+00  0.19046878304E+04  0.19046878304E+04  0.25500000920E-02 0. -1.
        2   -1    0    0  501    0  0.00000000000E+00  0.00000000000E+00 -0.15079854251E+04  0.15079854251E+04  0.25500000920E-02 0.  1.
    10030    2    1    2    0    0  0.00000000000E+00  0.00000000000E+00  0.39670240530E+03  0.34126732556E+04  0.33895377194E+04 0.  0.
        3    1    3    3  502    0 -0.43955756390E+03  0.86091522150E+02  0.18440164176E+04  0.18976351496E+04  0.10100000352E+00 0. -1.
       -3    1    3    3    0  502  0.43955756390E+03 -0.86091522150E+02 -0.14473140123E+04  0.15150381060E+04  0.10100000352E+00 0.  1.
</event>
<event>
 5   0  0.1421875E-07  0.3396700E+04  0.7818609E-02  0.8138717E-01
       -1   -1    0    0    0  501  0.00000000000E+00  0.00000000000E+00  0.15724204818E+04  0.15724204818E+04  0.50400001928E-02 0. -1.
        1   -1    0    0  501    0  0.00000000000E+00  0.00000000000E+00 -0.18343650316E+04  0.18343650316E+04  0.50400001928E-02 0.  1.
    10030    2    1    2    0    0  0.00000000000E+00  0.00000000000E+00 -0.26194454973E+03  0.34067855134E+04  0.33967002498E+04 0.  0.
        5    1    3    3  502    0 -0.10733190327E+04  0.89043744762E+03 -0.11031171318E+04  0.17781400649E+04  0.46999998093E+01 0.  1.
       -5    1    3    3    0  502  0.10733190327E+04 -0.89043744762E+03  0.84117258205E+03  0.16286454485E+04  0.46999998093E+01 0. -1.
</event>
<event>
 5   0  0.4396257E-07  0.3393376E+04  0.7818609E-02  0.8139534E-01
        2   -1    0    0  501    0  0.00000000000E+00  0.00000000000E+00  0.16145316392E+04  0.16145316392E+04  0.25500000920E-02 0.  1.
       -2   -1    0    0    0  501  0.00000000000E+00  0.00000000000E+00 -0.17830246257E+04  0.17830246257E+04  0.25500000920E-02 0. -1.
    10030    2    1    2    0    0  0.00000000000E+00  0.00000000000E+00 -0.16849298650E+03  0.33975562649E+04  0.33933757067E+04 0.  0.
        2    1    3    3  502    0  0.38438051647E+03 -0.44255346905E+03  0.15099297983E+04  0.16197190961E+04  0.25500000920E-02 0.  1.
       -2    1    3    3    0  502 -0.38438051647E+03  0.44255346905E+03 -0.16784227848E+04  0.17778371688E+04  0.25500000920E-02 0. -1.
</event>
<event>
 5   0  0.1421875E-07  0.3393019E+04  0.7818609E-02  0.8139622E-01
        3   -1    0    0  501    0  0.00000000000E+00  0.00000000000E+00  0.14361843728E+04  0.14361843764E+04  0.10100000352E+00 0.  1.
       -3   -1    0    0    0  501  0.00000000000E+00  0.00000000000E+00 -0.20040215582E+04  0.20040215608E+04  0.10100000352E+00 0. -1.
    10030    2    1    2    0    0  0.00000000000E+00  0.00000000000E+00 -0.56783718541E+03  0.34402059372E+04  0.33930189833E+04 0.  0.
        1    1    3    3  502    0  0.10829810276E+04  0.12114320962E+04  0.21043656983E+03  0.16385051662E+04  0.50400001928E-02 0. -1.
       -1    1    3    3    0  502 -0.10829810276E+04 -0.12114320962E+04 -0.77827375524E+03  0.18017007709E+04  0.50400001928E-02 0.  1.
</event>
<event>
 5   0  0.4396257E-07  0.3395834E+04  0.7818609E-02  0.8138929E-01
       -2   -1    0    0    0  501  0.00000000000E+00  0.00000000000E+00  0.16632287707E+04  0.16632287707E+04  0.25500000920E-02 0. -1.
        2   -1    0    0  501    0  0.00000000000E+00  0.00000000000E+00 -0.17333289145E+04  0.17333289145E+04  0.25500000920E-02 0.  1.
    10030    2    1    2    0    0  0.00000000000E+00  0.00000000000E+00 -0.70100143847E+02  0.33965576852E+04  0.33958342242E+04 0.  0.
        2    1    3    3  502    0  0.65914549926E+02 -0.16003601763E+04  0.52847487262E+03  0.16866484852E+04  0.25500000920E-02 0. -1.
       -2    1    3    3    0  502 -0.65914549926E+02  0.16003601763E+04 -0.59857501647E+03  0.17099091999E+04  0.25500000920E-02 0.  1.
</event>
<event>
 5   0  0.1435806E-07  0.3484244E+04  0.7818609E-02  0.8117534E-01
       -1   -1    0    0    0  501  0.00000000000E+00  0.00000000000E+00  0.16590750234E+04  0.16590750234E+04  0.50400001928E-02 0.  1.
        1   -1    0    0  501    0  0.00000000000E+00  0.00000000000E+00 -0.18293256357E+04  0.18293256358E+04  0.50400001928E-02 0. -1.
    10030    2    1    2    0    0  0.00000000000E+00  0.00000000000E+00 -0.17025061233E+03  0.34884006592E+04  0.34842436608E+04 0.  0.
        3    1    3    3  502    0 -0.12829437783E+04  0.78842608926E+03 -0.96220017827E+03  0.17870057721E+04  0.10100000352E+00 0. -1.
       -3    1    3    3    0  502  0.12829437783E+04 -0.78842608926E+03  0.79194956595E+03  0.17013948870E+04  0.10100000352E+00 0.  1.
</event>
<event>
 5   0  0.4381939E-07  0.3391612E+04  0.7818609E-02  0.8139968E-01
        2   -1    0    0  501    0  0.00000000000E+00  0.00000000000E+00  0.90309634352E+03  0.90309634352E+03  0.25500000920E-02 0. -1.
       -2   -1    0    0    0  501  0.00000000000E+00  0.00000000000E+00 -0.31843320317E+04  0.31843320317E+04  0.25500000920E-02 0.  1.
    10030    2    1    2    0    0  0.00000000000E+00  0.00000000000E+00 -0.22812356882E+04  0.40874283753E+04  0.33916123684E+04 0.  0.
        3    1    3    3  502    0 -0.50942641150E+03 -0.50899742224E+03 -0.29909041449E+04  0.30763779447E+04  0.10100000352E+00 0.  1.
       -3    1    3    3    0  502  0.50942641150E+03  0.50899742224E+03  0.70966845665E+03  0.10110504306E+04  0.10100000352E+00 0. -1.
</event>
<event>
 5   0  0.1523259E-07  0.3384772E+04  0.7818609E-02  0.8141654E-01
       -1   -1    0    0    0  501  0.00000000000E+00  0.00000000000E+00  0.22187655336E+04  0.22187655336E+04  0.50400001928E-02 0.  1.
        1   -1    0    0  501    0  0.00000000000E+00  0.00000000000E+00 -0.12908849233E+04  0.12908849234E+04  0.50400001928E-02 0. -1.
    10030    2    1    2    0    0  0.00000000000E+00  0.00000000000E+00  0.92788061029E+03  0.35096504570E+04  0.33847723562E+04 0.  0.
        4    1    3    3  502    0  0.15771661985E+04  0.48014878706E+03  0.86037203440E+03  0.18596337613E+04  0.12699999809E+01 0.  1.
       -4    1    3    3    0  502 -0.15771661985E+04 -0.48014878706E+03  0.67508575895E+02  0.16500166957E+04  0.12699999809E+01 0. -1.
</event>
<event>
 5   0  0.1435806E-07  0.3464604E+04  0.7818609E-02  0.8122230E-01
       -1   -1    0    0    0  501  0.00000000000E+00  0.00000000000E+00  0.16010239875E+04  0.16010239875E+04  0.50400001928E-02 0. -1.
        1   -1    0    0  501    0  0.00000000000E+00  0.00000000000E+00 -0.18743438966E+04  0.18743438966E+04  0.50400001928E-02 0.  1.
    10030    2    1    2    0    0  0.00000000000E+00  0.00000000000E+00 -0.27331990909E+03  0.34753678841E+04  0.34646036075E+04 0.  0.
        3    1    3    3  502    0  0.15417457537E+03 -0.15706190147E+04  0.57988119658E+03  0.16813316453E+04  0.10100000352E+00 0. -1.
       -3    1    3    3    0  502 -0.15417457537E+03  0.15706190147E+04 -0.85320110567E+03  0.17940362388E+04  0.10100000352E+00 0.  1.
</event>
<event>
 5   0  0.4396257E-07  0.3370390E+04  0.7818609E-02  0.8145212E-01
        2   -1    0    0  501    0  0.00000000000E+00  0.00000000000E+00  0.25693637201E+04  0.25693637201E+04  0.25500000920E-02 0. -1.
       -2   -1    0    0    0  501  0.00000000000E+00  0.00000000000E+00 -0.11052860117E+04  0.11052860117E+04  0.25500000920E-02 0.  1.
    10030    2    1    2    0    0  0.00000000000E+00  0.00000000000E+00  0.14640777083E+04  0.36746497318E+04  0.33703897572E+04 0.  0.
        2    1    3    3  502    0 -0.60939170947E+03  0.12799246773E+04  0.17255153924E+04  0.22331522126E+04  0.25500000920E-02 0. -1.
       -2    1    3    3    0  502  0.60939170947E+03 -0.12799246773E+04 -0.26143768409E+03  0.14414975192E+04  0.25500000920E-02 0.  1.
</event>
<event>
 5   0  0.1421875E-07  0.3443790E+04  0.7818609E-02  0.8127242E-01
       -1   -1    0    0    0  501  0.00000000000E+00  0.00000000000E+00  0.26836265729E+04  0.26836265729E+04  0.50400001928E-02 0. -1.
        1   -1    0    0  501    0  0.00000000000E+00  0.00000000000E+00 -0.11048190778E+04  0.11048190778E+04  0.50400001928E-02 0.  1.
    10030    2    1    2    0    0  0.00000000000E+00  0.00000000000E+00  0.15788074951E+04  0.37884456507E+04  0.34437896773E+04 0.  0.
        5    1    3    3  502    0 -0.12369990755E+04  0.86850834265E+03  0.16968376157E+04  0.22723893676E+04  0.46999998093E+01 0. -1.
       -5    1    3    3    0  502  0.12369990755E+04 -0.86850834265E+03 -0.11803012061E+03  0.15160562831E+04  0.46999998093E+01 0.  1.
</event>
<event>
 5   0  0.4521737E-07  0.3393436E+04  0.7818609E-02  0.8139519E-01
        2   -1    0    0  501    0  0.00000000000E+00  0.00000000000E+00  0.15378427870E+04  0.15378427870E+04  0.25500000920E-02 0.  1.
       -2   -1    0    0    0  501  0.00000000000E+00  0.00000000000E+00 -0.18720064558E+04  0.18720064558E+04  0.25500000920E-02 0. -1.
    10030    2    1    2    0    0  0.00000000000E+00  0.00000000000E+00 -0.33416366885E+03  0.34098492428E+04  0.33934357959E+04 0.  0.
        4    1    3    3  502    0  0.60516202153E+02  0.16933161915E+04 -0.25621305362E+03  0.17136594402E+04  0.12699999809E+01 0. -1.
       -4    1    3    3    0  502 -0.60516202153E+02 -0.16933161915E+04 -0.77950615228E+02  0.16961898026E+04  0.12699999809E+01 0.  1.
</event>
<event>
 5   0  0.4381939E-07  0.3400204E+04  0.7818609E-02  0.8137856E-01
        2   -1    0    0  501    0  0.00000000000E+00  0.00000000000E+00  0.22015159037E+04  0.22015159037E+04  0.25500000920E-02 0.  1.
       -2   -1    0    0    0  501  0.00000000000E+00  0.00000000000E+00 -0.13128896897E+04  0.13128896897E+04  0.25500000920E-02 0. -1.
    10030    2    1    2    0    0  0.00000000000E+00  0.00000000000E+00  0.88862621406E+03  0.35144055934E+04  0.34002044242E+04 0.  0.
        3    1    3    3  502    0  0.69746693258E+03  0.96593098489E+03  0.16978387444E+04  0.20741598785E+04  0.10100000352E+00 0.  1.
       -3    1    3    3    0  502 -0.69746693258E+03 -0.96593098489E+03 -0.80921253033E+03  0.14402457148E+04  0.10100000352E+00 0. -1.
</event>
<event>
 5   0  0.4447909E-07  0.3409256E+04  0.7818609E-02  0.8135638E-01
       -2   -1    0    0    0  501  0.00000000000E+00  0.00000000000E+00  0.19528799586E+04  0.19528799586E+04  0.25500000920E-02 0. -1.
        2   -1    0    0  501    0  0.00000000000E+00  0.00000000000E+00 -0.14879343480E+04  0.14879343480E+04  0.25500000920E-02 0.  1.
    10030    2    1    2    0    0  0.00000000000E+00  0.00000000000E+00  0.46494561065E+03  0.34408143066E+04  0.34092563224E+04 0.  0.
        5    1    3    3  502    0 -0.64456402553E+03  0.15696200604E+04  0.67975871349E+02  0.16981792385E+04  0.46999998093E+01 0.  1.
       -5    1    3    3    0  502  0.64456402553E+03 -0.15696200604E+04  0.39696973930E+03  0.17426350682E+04  0.46999998093E+01 0. -1.
</event>
<event>
 5   0  0.1523259E-07  0.3404258E+04  0.7818609E-02  0.8136862E-01
        1   -1    0    0  501    0  0.00000000000E+00  0.00000000000E+00  0.20751134052E+04  0.20751134052E+04  0.50400001928E-02 0. -1.
       -1   -1    0    0    0  501  0.00000000000E+00  0.00000000000E+00 -0.13961856395E+04  0.13961856395E+04  0.50400001928E-02 0.  1.
    10030    2    1    2    0    0  0.00000000000E+00  0.00000000000E+00  0.67892776574E+03  0.34712990447E+04  0.34042582374E+04 0.  0.
        4    1    3    3  502    0 -0.12470996970E+04 -0.97945254507E+02  0.15164880403E+04  0.19658556703E+04  0.12699999809E+01 0. -1.
       -4    1    3    3    0  502  0.12470996970E+04  0.97945254507E+02 -0.83756027454E+03  0.15054433744E+04  0.12699999809E+01 0.  1.
</event>
<event>
 5   0  0.1435806E-07  0.3395457E+04  0.7818609E-02  0.8139022E-01
       -1   -1    0    0    0  501  0.00000000000E+00  0.00000000000E+00  0.13771354435E+04  0.13771354435E+04  0.50400001928E-02 0. -1.
        1   -1    0    0  501    0  0.00000000000E+00  0.00000000000E+00 -0.20929548532E+04  0.20929548532E+04  0.50400001928E-02 0.  1.
    10030    2    1    2    0    0  0.00000000000E+00  0.00000000000E+00 -0.71581940976E+03  0.34700902967E+04  0.33954571474E+04 0.  0.
        3    1    3    3  502    0  0.12585832146E+04  0.47813908821E+03 -0.14148733295E+04  0.19530784020E+04  0.10100000352E+00 0.  1.
       -3    1    3    3    0  502 -0.12585832146E+04 -0.47813908821E+03  0.69905391972E+03  0.15170118947E+04  0.10100000352E+00 0. -1.
</event>
<event>
 5   0  0.1421875E-07  0.3397133E+04  0.7818609E-02  0.8138610E-01
        1   -1    0    0  501    0  0.00000000000E+00  0.00000000000E+00  0.23060352164E+04  0.23060352164E+04  0.50400001928E-02 0.  1.
       -1   -1    0    0    0  501  0.00000000000E+00  0.00000000000E+00 -0.12511204412E+04  0.12511204413E+04  0.50400001928E-02 0. -1.
    10030    2    1    2    0    0  0.00000000000E+00  0.00000000000E+00  0.10549147752E+04  0.35571556577E+04  0.33971327896E+04 0.  0.
        5    1    3    3  502    0 -0.42195105420E+03 -0.46518629980E+03 -0.11250673956E+04  0.12885028988E+04  0.46999998093E+01 0. -1.
       -5    1    3    3    0  502  0.42195105420E+03  0.46518629980E+03  0.21799821707E+04  0.22686527589E+04  0.46999998093E+01 0.  1.
</event>
<event>
 5   0  0.4521737E-07  0.3456775E+04  0.7818609E-02  0.8124111E-01
        2   -1    0    0  501    0  0.00000000000E+00  0.00000000000E+00  0.15424392474E+04  0.15424392474E+04  0.25500000920E-02 0.  1.
       -2   -1    0    0    0  501  0.00000000000E+00  0.00000000000E+00 -0.19367528561E+04  0.19367528561E+04  0.25500000920E-02 0. -1.
    10030    2    1    2    0    0  0.00000000000E+00  0.00000000000E+00 -0.39431360872E+03  0.34791921035E+04  0.34567751549E+04 0.  0.
        4    1    3    3  502    0  0.61188392079E+03 -0.72453014460E+03  0.12571969054E+04  0.15747671367E+04  0.12699999809E+01 0.  1.
       -4    1    3    3    0  502 -0.61188392079E+03  0.72453014460E+03 -0.16515105142E+04  0.19044249668E+04  0.12699999809E+01 0. -1.
</event>
<event>
 5   0  0.4486226E-07  0.3398862E+04  0.7818609E-02  0.8138186E-01
       -2   -1    0    0    0  501  0.00000000000E+00  0.00000000000E+00  0.14829781640E+04  0.14829781640E+04  0.25500000920E-02 0. -1.
        2   -1    0    0  501    0  0.00000000000E+00  0.00000000000E+00 -0.19474765104E+04  0.19474765104E+04  0.25500000920E-02 0.  1.
    10030    2    1    2    0    0  0.00000000000E+00  0.00000000000E+00 -0.46449834641E+03  0.34304546745E+04  0.33988616565E+04 0.  0.
        1    1    3    3  502    0  0.11566721236E+04  0.95425230931E+03 -0.10394186071E+04  0.18245215571E+04  0.50400001928E-02 0. -1.
       -1    1    3    3    0  502 -0.11566721236E+04 -0.95425230931E+03  0.57492026066E+03  0.16059331174E+04  0.50400001928E-02 0.  1.
</event>
<event>
 5   0  0.4447909E-07  0.3381927E+04  0.7818609E-02  0.8142356E-01
        2   -1    0    0  501    0  0.00000000000E+00  0.00000000000E+00  0.17731525149E+04  0.17731525149E+04  0.25500000920E-02 0.  1.
       -2   -1    0    0    0  501  0.00000000000E+00  0.00000000000E+00 -0.16125837127E+04  0.16125837127E+04  0.25500000920E-02 0. -1.
    10030    2    1    2    0    0  0.00000000000E+00  0.00000000000E+00  0.16056880218E+03  0.33857362276E+04  0.33819265903E+04 0.  0.
        5    1    3    3  502    0  0.87602991704E+03 -0.57871092851E+03  0.14072963320E+04  0.17558017571E+04  0.46999998093E+01 0.  1.
       -5    1    3    3    0  502 -0.87602991704E+03  0.57871092851E+03 -0.12467275298E+04  0.16299344704E+04  0.46999998093E+01 0. -1.
</event>
<event>
 5   0  0.4521737E-07  0.3396352E+04  0.7818609E-02  0.8138802E-01
       -2   -1    0    0    0  501  0.00000000000E+00  0.00000000000E+00  0.14652524301E+04  0.14652524301E+04  0.25500000920E-02 0. -1.
        2   -1    0    0  501    0  0.00000000000E+00  0.00000000000E+00 -0.19681265717E+04  0.19681265717E+04  0.25500000920E-02 0.  1.
    10030    2    1    2    0    0  0.00000000000E+00  0.00000000000E+00 -0.50287414165E+03  0.34333790018E+04  0.33963523032E+04 0.  0.
        4    1    3    3  502    0 -0.32448205794E+03  0.36426303208E+03  0.13928950010E+04  0.14758503512E+04  0.12699999809E+01 0. -1.
       -4    1    3    3    0  502  0.32448205794E+03 -0.36426303208E+03 -0.18957691427E+04  0.19575286505E+04  0.12699999809E+01 0.  1.
</event>
<event>
 5   0  0.4396257E-07  0.3375746E+04  0.7818609E-02  0.8143885E-01
       -2   -1    0    0    0  501  0.00000000000E+00  0.00000000000E+00  0.12690930071E+04  0.12690930071E+04  0.25500000920E-02 0. -1.
        2   -1    0    0  501    0  0.00000000000E+00  0.00000000000E+00 -0.22448429891E+04  0.22448429891E+04  0.25500000920E-02 0.  1.
    10030    2    1    2    0    0  0.00000000000E+00  0.00000000000E+00 -0.97574998206E+03  0.35139359962E+04  0.33757455707E+04 0.  0.
        2    1    3    3  502    0 -0.11660619402E+03  0.14113672247E+04  0.46806507295E+03  0.14915224973E+04  0.25500000920E-02 0. -1.
       -2    1    3    3    0  502  0.11660619402E+03 -0.14113672247E+04 -0.14438150550E+04  0.20224134989E+04  0.25500000920E-02 0.  1.
</event>
<event>
 5   0  0.4447909E-07  0.3393135E+04  0.7818609E-02  0.8139593E-01
       -2   -1    0    0    0  501  0.00000000000E+00  0.00000000000E+00  0.29742329359E+04  0.29742329359E+04  0.25500000920E-02 0.  1.
        2   -1    0    0  501    0  0.00000000000E+00  0.00000000000E+00 -0.96775943205E+03  0.96775943205E+03  0.25500000920E-02 0. -1.
    10030    2    1    2    0    0  0.00000000000E+00  0.00000000000E+00  0.20064735038E+04  0.39419923679E+04  0.33931354095E+04 0.  0.
        5    1    3    3  502    0  0.68538222020E+03  0.59077981737E+03  0.26704869973E+04  0.28196263003E+04  0.46999998093E+01 0.  1.
       -5    1    3    3    0  502 -0.68538222020E+03 -0.59077981737E+03 -0.66401349346E+03  0.11223660677E+04  0.46999998093E+01 0. -1.
</event>
<event>
 5   0  0.4447909E-07  0.3391958E+04  0.7818609E-02  0.8139883E-01
        2   -1    0    0  501    0  0.00000000000E+00  0.00000000000E+00  0.20383354664E+04  0.20383354664E+04  0.25500000920E-02 0. -1.
       -2   -1    0    0    0  501  0.00000000000E+00  0.00000000000E+00 -0.14111245310E+04  0.14111245310E+04  0.25500000920E-02 0.  1.
    10030    2    1    2    0    0  0.00000000000E+00  0.00000000000E+00  0.62721093533E+03  0.34494599974E+04  0.33919582421E+04 0.  0.
        5    1    3    3  502    0  0.11976831016E+04 -0.47227762449E+03  0.14363283177E+04  0.19288732702E+04  0.46999998093E+01 0. -1.
       -5    1    3    3    0  502 -0.11976831016E+04  0.47227762449E+03 -0.80911738239E+03  0.15205867272E+04  0.46999998093E+01 0.  1.
</event>
<event>
 5   0  0.1520084E-07  0.3406003E+04  0.7818609E-02  0.8136434E-01
       -1   -1    0    0    0  501  0.00000000000E+00  0.00000000000E+00  0.15408259654E+04  0.15408259654E+04  0.50400001928E-02 0. -1.
        1   -1    0    0  501    0  0.00000000000E+00  0.00000000000E+00 -0.18822466841E+04  0.18822466841E+04  0.50400001928E-02 0.  1.
    10030    2    1    2    0    0  0.00000000000E+00  0.00000000000E+00 -0.34142071868E+03  0.34230726495E+04  0.34060032673E+04 0.  0.
        2    1    3    3  502    0 -0.55135295404E+03 -0.32259188709E+03 -0.17572792196E+04  0.18697823031E+04  0.25500000920E-02 0.  1.
       -2    1    3    3    0  502  0.55135295404E+03  0.32259188709E+03  0.14158585009E+04  0.15532903464E+04  0.25500000920E-02 0. -1.
</event>
<event>
 5   0  0.1520084E-07  0.3402165E+04  0.7818609E-02  0.8137375E-01
       -1   -1    0    0    0  501  0.00000000000E+00  0.00000000000E+00  0.25860260975E+04  0.25860260975E+04  0.50400001928E-02 0. -1.
        1   -1    0    0  501    0  0.00000000000E+00  0.00000000000E+00 -0.11189684654E+04  0.11189684654E+04  0.50400001928E-02 0.  1.
    10030    2    1    2    0    0  0.00000000000E+00  0.00000000000E+00  0.14670576321E+04  0.37049945628E+04  0.34021649894E+04 0.  0.
        2    1    3    3  502    0  0.15524616614E+04 -0.54923213579E+03  0.11979743918E+04  0.20364026597E+04  0.25500000920E-02 0. -1.
       -2    1    3    3    0  502 -0.15524616614E+04  0.54923213579E+03  0.26908324027E+03  0.16685919031E+04  0.25500000920E-02 0.  1.
</event>
<event>
 5   0  0.1520084E-07  0.3401133E+04  0.7818609E-02  0.8137628E-01
        1   -1    0    0  501    0  0.00000000000E+00  0.00000000000E+00  0.15480613114E+04  0.15480613114E+04  0.50400001928E-02 0.  1.
       -1   -1    0    0    0  501  0.00000000000E+00  0.00000000000E+00 -0.18680954427E+04  0.18680954427E+04  0.50400001928E-02 0. -1.
    10030    2    1    2    0    0  0.00000000000E+00  0.00000000000E+00 -0.32003413132E+03  0.34161567541E+04  0.34011329176E+04 0.  0.
        2    1    3    3  502    0 -0.67038674240E+03  0.15529580109E+03 -0.17220042086E+04  0.18544092496E+04  0.25500000920E-02 0. -1.
       -2    1    3    3    0  502  0.67038674240E+03 -0.15529580109E+03  0.14019700773E+04  0.15617475046E+04  0.25500000920E-02 0.  1.
</event>
<event>
 5   0  0.1421875E-07  0.3404682E+04  0.7818609E-02  0.8136758E-01
       -1   -1    0    0    0  501  0.00000000000E+00  0.00000000000E+00  0.27743936566E+04  0.27743936566E+04  0.50400001928E-02 0.  1.
        1   -1    0    0  501    0  0.00000000000E+00  0.00000000000E+00 -0.10445398057E+04  0.10445398057E+04  0.50400001928E-02 0. -1.
    10030    2    1    2    0    0  0.00000000000E+00  0.00000000000E+00  0.17298538509E+04  0.38189334624E+04  0.34046818419E+04 0.  0.
        5    1    3    3  502    0  0.45331261645E+03 -0.15359217507E+04  0.15125835579E+04  0.22028343247E+04  0.46999998093E+01 0.  1.
       -5    1    3    3    0  502 -0.45331261645E+03  0.15359217507E+04  0.21727029299E+03  0.16160991376E+04  0.46999998093E+01 0. -1.
</event>
<event>
 5   0  0.4381939E-07  0.3417638E+04  0.7818609E-02  0.8133591E-01
       -2   -1    0    0    0  501  0.00000000000E+00  0.00000000000E+00  0.16179618527E+04  0.16179618527E+04  0.25500000920E-02 0. -1.
        2   -1    0    0  501    0  0.00000000000E+00  0.00000000000E+00 -0.18047787164E+04  0.18047787164E+04  0.25500000920E-02 0.  1.
    10030    2    1    2    0    0  0.00000000000E+00  0.00000000000E+00 -0.18681686366E+03  0.34227405691E+04  0.34176384336E+04 0.  0.
        3    1    3    3  502    0 -0.23717160020E+03  0.55362091638E+03  0.15081401528E+04  0.16239560393E+04  0.10100000352E+00 0. -1.
       -3    1    3    3    0  502  0.23717160020E+03 -0.55362091638E+03 -0.16949570164E+04  0.17987845298E+04  0.10100000352E+00 0.  1.
</event>
<event>
 5   0  0.1435806E-07  0.3316302E+04  0.7818609E-02  0.8158760E-01
        1   -1    0    0  501    0  0.00000000000E+00  0.00000000000E+00  0.23775660538E+04  0.23775660538E+04  0.50400001928E-02 0.  1.
       -1   -1    0    0    0  501  0.00000000000E+00  0.00000000000E+00 -0.11564196818E+04  0.11564196818E+04  0.50400001928E-02 0. -1.
    10030    2    1    2    0    0  0.00000000000E+00  0.00000000000E+00  0.12211463720E+04  0.35339857356E+04  0.33163016627E+04 0.  0.
        3    1    3    3  502    0  0.13953154130E+04 -0.88661959248E+03  0.74731097148E+03  0.18142417429E+04  0.10100000352E+00 0.  1.
       -3    1    3    3    0  502 -0.13953154130E+04  0.88661959248E+03  0.47383540051E+03  0.17197439927E+04  0.10100000352E+00 0. -1.
</event>
<event>
 5   0  0.1520084E-07  0.3394460E+04  0.7818609E-02  0.8139267E-01
        1   -1    0    0  501    0  0.00000000000E+00  0.00000000000E+00  0.19517446346E+04  0.19517446346E+04  0.50400001928E-02 0.  1.
       -1   -1    0    0    0  501  0.00000000000E+00  0.00000000000E+00 -0.14759053672E+04  0.14759053673E+04  0.50400001928E-02 0. -1.
    10030    2    1    2    0    0  0.00000000000E+00  0.00000000000E+00  0.47583926733E+03  0.34276500018E+04  0.33944604176E+04 0.  0.
        2    1    3    3  502    0  0.70585432007E+03 -0.10867390437E+04  0.13447014095E+04  0.18674726105E+04  0.25500000920E-02 0.  1.
       -2    1    3    3    0  502 -0.70585432007E+03  0.10867390437E+04 -0.86886214216E+03  0.15601773913E+04  0.25500000920E-02 0. -1.
</event>
<event>
 5   0  0.1421875E-07  0.3401191E+04  0.7818609E-02  0.8137614E-01
       -1   -1    0    0    0  501  0.00000000000E+00  0.00000000000E+00  0.89751519473E+03  0.89751519474E+03  0.50400001928E-02 0.  1.
        1   -1    0    0  501    0  0.00000000000E+00  0.00000000000E+00 -0.32222578409E+04  0.32222578409E+04  0.50400001928E-02 0. -1.
    10030    2    1    2    0    0  0.00000000000E+00  0.00000000000E+00 -0.23247426462E+04  0.41197730356E+04  0.34011911876E+04 0.  0.
        5    1    3    3  502    0 -0.98916132273E+03 -0.78305535623E+03  0.21889884972E+03  0.12804509400E+04  0.46999998093E+01 0.  1.
       -5    1    3    3    0  502  0.98916132273E+03  0.78305535623E+03 -0.25436414959E+04  0.28393220957E+04  0.46999998093E+01 0. -1.
</event>
<event>
 5   0  0.4396257E-07  0.3403324E+04  0.7818609E-02  0.8137091E-01
       -2   -1    0    0    0  501  0.00000000000E+00  0.00000000000E+00  0.11552144792E+04  0.11552144792E+04  0.25500000920E-02 0.  1.
        2   -1    0    0  501    0  0.00000000000E+00  0.00000000000E+00 -0.25065932953E+04  0.25065932953E+04  0.25500000920E-02 0. -1.
    10030    2    1    2    0    0  0.00000000000E+00  0.00000000000E+00 -0.13513788161E+04  0.36618077745E+04  0.34033235922E+04 0.  0.
        2    1    3    3  502    0  0.72029934044E+03  0.75017105653E+03  0.77347858656E+03  0.12960929279E+04  0.25500000920E-02 0.  1.
       -2    1    3    3    0  502 -0.72029934044E+03 -0.75017105653E+03 -0.21248574026E+04  0.23657148466E+04  0.25500000920E-02 0. -1.
</event>
<event>
 5   0  0.4521737E-07  0.3382084E+04  0.7818609E-02  0.8142317E-01
        2   -1    0    0  501    0  0.00000000000E+00  0.00000000000E+00  0.19227425286E+04  0.19227425286E+04  0.25500000920E-02 0. -1.
       -2   -1    0    0    0  501  0.00000000000E+00  0.00000000000E+00 -0.14872629349E+04  0.14872629349E+04  0.25500000920E-02 0.  1.
    10030    2    1    2    0    0  0.00000000000E+00  0.00000000000E+00  0.43547959367E+03  0.34100054635E+04  0.33820843846E+04 0.  0.
        4    1    3    3  502    0  0.71239088355E+03  0.21503285872E+02  0.17639117889E+04  0.19024588233E+04  0.12699999809E+01 0. -1.
       -4    1    3    3    0  502 -0.71239088355E+03 -0.21503285872E+02 -0.13284321952E+04  0.15075466403E+04  0.12699999809E+01 0.  1.
</event>
<event>
 5   0  0.1435806E-07  0.3405919E+04  0.7818609E-02  0.8136455E-01
        1   -1    0    0  501    0  0.00000000000E+00  0.00000000000E+00  0.10285966614E+04  0.10285966614E+04  0.50400001928E-02 0.  1.
       -1   -1    0    0    0  501  0.00000000000E+00  0.00000000000E+00 -0.28194447381E+04  0.28194447381E+04  0.50400001928E-02 0. -1.
    10030    2    1    2    0    0  0.00000000000E+00  0.00000000000E+00 -0.17908480767E+04  0.38480413995E+04  0.34059192267E+04 0.  0.
        3    1    3    3  502    0  0.12587666863E+04  0.84454345966E+03 -0.17722644371E+04  0.23320952963E+04  0.10100000352E+00 0. -1.
       -3    1    3    3    0  502 -0.12587666863E+04 -0.84454345966E+03 -0.18583639523E+02  0.15159461032E+04  0.10100000352E+00 0.  1.
</event>
<event>
 5   0  0.4396257E-07  0.3400785E+04  0.7818609E-02  0.8137714E-01
       -2   -1    0    0    0  501  0.00000000000E+00  0.00000000000E+00  0.10557792202E+04  0.10557792202E+04  0.25500000920E-02 0. -1.
        2   -1    0    0  501    0  0.00000000000E+00  0.00000000000E+00 -0.27385794416E+04  0.27385794416E+04  0.25500000920E-02 0.  1.
    10030    2    1    2    0    0  0.00000000000E+00  0.00000000000E+00 -0.16828002214E+04  0.37943586618E+04  0.34007853606E+04 0.  0.
        2    1    3    3  502    0  0.11433082714E+03 -0.16949223264E+04 -0.75864003080E+03  0.18604751885E+04  0.25500000920E-02 0.  1.
       -2    1    3    3    0  502 -0.11433082714E+03  0.16949223264E+04 -0.92416019059E+03  0.19338834733E+04  0.25500000920E-02 0. -1.
</event>
<event>
 5   0  0.1421875E-07  0.3395117E+04  0.7818609E-02  0.8139106E-01
       -1   -1    0    0    0  501  0.00000000000E+00  0.00000000000E+00  0.19453350858E+04  0.19453350858E+04  0.50400001928E-02 0. -1.
        1   -1    0    0  501    0  0.00000000000E+00  0.00000000000E+00 -0.14813413879E+04  0.14813413880E+04  0.50400001928E-02 0.  1.
    10030    2    1    2    0    0  0.00000000000E+00  0.00000000000E+00  0.46399369781E+03  0.34266764737E+04  0.33951173034E+04 0.  0.
        5    1    3    3  502    0 -0.14360422401E+04  0.18850674248E+03  0.11256259181E+04  0.18343412727E+04  0.46999998093E+01 0. -1.
       -5    1    3    3    0  502  0.14360422401E+04 -0.18850674248E+03 -0.66163222033E+03  0.15923352010E+04  0.46999998093E+01 0.  1.
</event>
<event>
 5   0  0.1473755E-07  0.3402877E+04  0.7818609E-02  0.8137201E-01
       -1   -1    0    0    0  501  0.00000000000E+00  0.00000000000E+00  0.23118716116E+04  0.23118716116E+04  0.50400001928E-02 0.  1.
        1   -1    0    0  501    0  0.00000000000E+00  0.00000000000E+00 -0.12521860733E+04  0.12521860733E+04  0.50400001928E-02 0. -1.
    10030    2    1    2    0    0  0.00000000000E+00  0.00000000000E+00  0.10596855384E+04  0.35640576849E+04  0.34028772739E+04 0.  0.
        1    1    3    3  502    0  0.15294019395E+04 -0.56646775272E+03  0.22180901539E+02  0.16310879804E+04  0.50400001928E-02 0. -1.
       -1    1    3    3    0  502 -0.15294019395E+04  0.56646775272E+03  0.10375046368E+04  0.19329697046E+04  0.50400001928E-02 0.  1.
</event>
<event>
 5   0  0.1523259E-07  0.3415670E+04  0.7818609E-02  0.8134071E-01
        1   -1    0    0  501    0  0.00000000000E+00  0.00000000000E+00  0.24524291012E+04  0.24524291012E+04  0.50400001928E-02 0. -1.
       -1   -1    0    0    0  501  0.00000000000E+00  0.00000000000E+00 -0.11893108372E+04  0.11893108373E+04  0.50400001928E-02 0.  1.
    10030    2    1    2    0    0  0.00000000000E+00  0.00000000000E+00  0.12631182640E+04  0.36417399385E+04  0.34156700705E+04 0.  0.
        4    1    3    3  502    0 -0.14239674747E+03  0.16999327407E+04  0.54460946056E+03  0.17907119349E+04  0.12699999809E+01 0. -1.
       -4    1    3    3    0  502  0.14239674747E+03 -0.16999327407E+04  0.71850880341E+03  0.18510280036E+04  0.12699999809E+01 0.  1.
</event>
<event>
 5   0  0.1421875E-07  0.3403833E+04  0.7818609E-02  0.8136966E-01
       -1   -1    0    0    0  501  0.00000000000E+00  0.00000000000E+00  0.19300510465E+04  0.19300510465E+04  0.50400001928E-02 0. -1.
        1   -1    0    0  501    0  0.00000000000E+00  0.00000000000E+00 -0.15007476849E+04  0.15007476849E+04  0.50400001928E-02 0.  1.
    10030    2    1    2    0    0  0.00000000000E+00  0.00000000000E+00  0.42930336163E+03  0.34307987314E+04  0.34038329217E+04 0.  0.
        5    1    3    3  502    0 -0.45390005385E+03 -0.10403455194E+04  0.14928279653E+04  0.18753403645E+04  0.46999998093E+01 0. -1.
       -5    1    3    3    0  502  0.45390005385E+03  0.10403455194E+04 -0.10635246037E+04  0.15554583669E+04  0.46999998093E+01 0.  1.
</event>
<event>
 5   0  0.1473755E-07  0.3398011E+04  0.7818609E-02  0.8138395E-01
        1   -1    0    0  501    0  0.00000000000E+00  0.00000000000E+00  0.17396184926E+04  0.17396184926E+04  0.50400001928E-02 0. -1.
       -1   -1    0    0    0  501  0.00000000000E+00  0.00000000000E+00 -0.16593404060E+04  0.16593404060E+04  0.50400001928E-02 0.  1.
    10030    2    1    2    0    0  0.00000000000E+00  0.00000000000E+00  0.80278086614E+02  0.33989588985E+04  0.33980107449E+04 0.  0.
        1    1    3    3  502    0 -0.22577400886E+02 -0.10424017896E+04  0.13819707788E+04  0.17311714136E+04  0.50400001928E-02 0. -1.
       -1    1    3    3    0  502  0.22577400886E+02  0.10424017896E+04 -0.13016926922E+04  0.16677874849E+04  0.50400001928E-02 0.  1.
</event>
<event>
 5   0  0.4381939E-07  0.3394232E+04  0.7818609E-02  0.8139323E-01
       -2   -1    0    0    0  501  0.00000000000E+00  0.00000000000E+00  0.10502727100E+04  0.10502727100E+04  0.25500000920E-02 0.  1.
        2   -1    0    0  501    0  0.00000000000E+00  0.00000000000E+00 -0.27423384759E+04  0.27423384759E+04  0.25500000920E-02 0. -1.
    10030    2    1    2    0    0  0.00000000000E+00  0.00000000000E+00 -0.16920657659E+04  0.37926111858E+04  0.33942323213E+04 0.  0.
        3    1    3    3  502    0 -0.56965660042E+03  0.94365556581E+03  0.59585370915E+03  0.12530108229E+04  0.10100000352E+00 0.  1.
       -3    1    3    3    0  502  0.56965660042E+03 -0.94365556581E+03 -0.22879194750E+04  0.25396003630E+04  0.10100000352E+00 0. -1.
</event>
<event>
 5   0  0.4381939E-07  0.3368327E+04  0.7818609E-02  0.8145724E-01
        2   -1    0    0  501    0  0.00000000000E+00  0.00000000000E+00  0.14506576506E+04  0.14506576506E+04  0.25500000920E-02 0. -1.
       -2   -1    0    0    0  501  0.00000000000E+00  0.00000000000E+00 -0.19552554416E+04  0.19552554416E+04  0.25500000920E-02 0.  1.
    10030    2    1    2    0    0  0.00000000000E+00  0.00000000000E+00 -0.50459779093E+03  0.34059130922E+04  0.33683267450E+04 0.  0.
        3    1    3    3  502    0 -0.15434630921E+03  0.88771526035E+03  0.11864436121E+04  0.14898018732E+04  0.10100000352E+00 0. -1.
       -3    1    3    3    0  502  0.15434630921E+03 -0.88771526035E+03 -0.16910414030E+04  0.19161112190E+04  0.10100000352E+00 0.  1.
</event>
<event>
 5   0  0.1421875E-07  0.3338669E+04  0.7818609E-02  0.8153125E-01
       -1   -1    0    0    0  501  0.00000000000E+00  0.00000000000E+00  0.21681157621E+04  0.21681157621E+04  0.50400001928E-02 0. -1.
        1   -1    0    0  501    0  0.00000000000E+00  0.00000000000E+00 -0.12852994939E+04  0.12852994939E+04  0.50400001928E-02 0.  1.
    10030    2    1    2    0    0  0.00000000000E+00  0.00000000000E+00  0.88281626822E+03  0.34534152560E+04  0.33386692509E+04 0.  0.
        5    1    3    3  502    0 -0.73962343597E+03 -0.14873086973E+03 -0.10988959483E+04  0.13329508970E+04  0.46999998093E+01 0.  1.
       -5    1    3    3    0  502  0.73962343597E+03  0.14873086973E+03  0.19817122165E+04  0.21204643590E+04  0.46999998093E+01 0. -1.
</event>
<event>
 5   0  0.1435806E-07  0.3498404E+04  0.7818609E-02  0.8114168E-01
       -1   -1    0    0    0  501  0.00000000000E+00  0.00000000000E+00  0.18524952463E+04  0.18524952463E+04  0.50400001928E-02 0. -1.
        1   -1    0    0  501    0  0.00000000000E+00  0.00000000000E+00 -0.16516681125E+04  0.16516681125E+04  0.50400001928E-02 0.  1.
    10030    2    1    2    0    0  0.00000000000E+00  0.00000000000E+00  0.20082713379E+03  0.35041633588E+04  0.34984038228E+04 0.  0.
        3    1    3    3  502    0  0.42242355253E+03  0.10074907763E+04  0.14687621762E+04  0.18305031173E+04  0.10100000352E+00 0. -1.
       -3    1    3    3    0  502 -0.42242355253E+03 -0.10074907763E+04 -0.12679350424E+04  0.16736602415E+04  0.10100000352E+00 0.  1.
</event>
<event>
 5   0  0.1435806E-07  0.3407496E+04  0.7818609E-02  0.8136069E-01
       -1   -1    0    0    0  501  0.00000000000E+00  0.00000000000E+00  0.14024971837E+04  0.14024971838E+04  0.50400001928E-02 0. -1.
        1   -1    0    0  501    0  0.00000000000E+00  0.00000000000E+00 -0.20697059898E+04  0.20697059898E+04  0.50400001928E-02 0.  1.
    10030    2    1    2    0    0  0.00000000000E+00  0.00000000000E+00 -0.66720880607E+03  0.34722031736E+04  0.34074957502E+04 0.  0.
        3    1    3    3  502    0  0.71999417564E+03  0.86526814838E+03  0.96961782291E+03  0.14856780655E+04  0.10100000352E+00 0. -1.
       -3    1    3    3    0  502 -0.71999417564E+03 -0.86526814838E+03 -0.16368266290E+04  0.19865251081E+04  0.10100000352E+00 0.  1.
</event>
<event>
 5   0  0.4396257E-07  0.3407496E+04  0.7818609E-02  0.8136069E-01
        2   -1    0    0  501    0  0.00000000000E+00  0.00000000000E+00  0.16057154973E+04  0.16057154973E+04  0.25500000920E-02 0. -1.
       -2   -1    0    0    0  501  0.00000000000E+00  0.00000000000E+00 -0.18077654991E+04  0.18077654991E+04  0.25500000920E-02 0.  1.
    10030    2    1    2    0    0  0.00000000000E+00  0.00000000000E+00 -0.20205000181E+03  0.34134809964E+04  0.34074959001E+04 0.  0.
        2    1    3    3  502    0  0.17033133309E+04 -0.35566329048E+02 -0.86308707255E+02  0.17058694146E+04  0.25500000920E-02 0. -1.
       -2    1    3    3    0  502 -0.17033133309E+04  0.35566329048E+02 -0.11574129456E+03  0.17076115817E+04  0.25500000920E-02 0.  1.
</event>
<event>
 5   0  0.4396257E-07  0.3409352E+04  0.7818609E-02  0.8135615E-01
       -2   -1    0    0    0  501  0.00000000000E+00  0.00000000000E+00  0.11068100963E+04  0.11068100963E+04  0.25500000920E-02 0.  1.
        2   -1    0    0  501    0  0.00000000000E+00  0.00000000000E+00 -0.26254907706E+04  0.26254907706E+04  0.25500000920E-02 0. -1.
    10030    2    1    2    0    0  0.00000000000E+00  0.00000000000E+00 -0.15186806744E+04  0.37323008669E+04  0.34093516643E+04 0.  0.
        2    1    3    3  502    0 -0.15251080384E+04 -0.15280047172E+03  0.57398390552E+02  0.15338178145E+04  0.25500000920E-02 0.  1.
       -2    1    3    3    0  502  0.15251080384E+04  0.15280047172E+03 -0.15760790649E+04  0.21984830524E+04  0.25500000920E-02 0. -1.
</event>
<event>
 5   0  0.1523259E-07  0.3410852E+04  0.7818609E-02  0.8135248E-01
       -1   -1    0    0    0  501  0.00000000000E+00  0.00000000000E+00  0.23991760534E+04  0.23991760534E+04  0.50400001928E-02 0.  1.
        1   -1    0    0  501    0  0.00000000000E+00  0.00000000000E+00 -0.12122820886E+04  0.12122820887E+04  0.50400001928E-02 0. -1.
    10030    2    1    2    0    0  0.00000000000E+00  0.00000000000E+00  0.11868939648E+04  0.36114581421E+04  0.34108521851E+04 0.  0.
        4    1    3    3  502    0  0.14830447432E+04  0.42245885568E+03 -0.17780535813E+03  0.15522594994E+04  0.12699999809E+01 0. -1.
       -4    1    3    3    0  502 -0.14830447432E+04 -0.42245885568E+03  0.13646993229E+04  0.20591986427E+04  0.12699999809E+01 0.  1.
</event>
<event>
 5   0  0.4486226E-07  0.3398499E+04  0.7818609E-02  0.8138275E-01
        2   -1    0    0  501    0  0.00000000000E+00  0.00000000000E+00  0.18399683812E+04  0.18399683812E+04  0.25500000920E-02 0. -1.
       -2   -1    0    0    0  501  0.00000000000E+00  0.00000000000E+00 -0.15692923861E+04  0.15692923861E+04  0.25500000920E-02 0.  1.
    10030    2    1    2    0    0  0.00000000000E+00  0.00000000000E+00  0.27067599515E+03  0.34092607673E+04  0.33984987105E+04 0.  0.
        1    1    3    3  502    0  0.88318832904E+03  0.32883257549E+03 -0.12831042149E+04  0.15920141059E+04  0.50400001928E-02 0.  1.
       -1    1    3    3    0  502 -0.88318832904E+03 -0.32883257549E+03  0.15537802100E+04  0.18172466614E+04  0.50400001928E-02 0. -1.
</event>
<event>
 5   0  0.4447909E-07  0.3385730E+04  0.7818609E-02  0.8141418E-01
        2   -1    0    0  501    0  0.00000000000E+00  0.00000000000E+00  0.27123681706E+04  0.27123681706E+04  0.25500000920E-02 0. -1.
       -2   -1    0    0    0  501  0.00000000000E+00  0.00000000000E+00 -0.10565644695E+04  0.10565644695E+04  0.25500000920E-02 0.  1.
    10030    2    1    2    0    0  0.00000000000E+00  0.00000000000E+00  0.16558037011E+04  0.37689326402E+04  0.33857299582E+04 0.  0.
        5    1    3    3  502    0  0.11811493083E+04  0.18707126571E+03 -0.50590185625E+03  0.12984868598E+04  0.46999998093E+01 0.  1.
       -5    1    3    3    0  502 -0.11811493083E+04 -0.18707126571E+03  0.21617055573E+04  0.24704457803E+04  0.46999998093E+01 0. -1.
</event>
<event>
 5   0  0.4447909E-07  0.3409723E+04  0.7818609E-02  0.8135524E-01
       -2   -1    0    0    0  501  0.00000000000E+00  0.00000000000E+00  0.12325047060E+04  0.12325047060E+04  0.25500000920E-02 0.  1.
        2   -1    0    0  501    0  0.00000000000E+00  0.00000000000E+00 -0.23582492397E+04  0.23582492397E+04  0.25500000920E-02 0. -1.
    10030    2    1    2    0    0  0.00000000000E+00  0.00000000000E+00 -0.11257445337E+04  0.35907539456E+04  0.34097233235E+04 0.  0.
        5    1    3    3  502    0  0.16562909258E+04 -0.11948026295E+03 -0.15643309964E+03  0.16679534073E+04  0.46999998093E+01 0.  1.
       -5    1    3    3    0  502 -0.16562909258E+04  0.11948026295E+03 -0.96931143404E+03  0.19228005384E+04  0.46999998093E+01 0. -1.
</event>
<event>
 5   0  0.4396257E-07  0.3385791E+04  0.7818609E-02  0.8141402E-01
       -2   -1    0    0    0  501  0.00000000000E+00  0.00000000000E+00  0.13863905683E+04  0.13863905683E+04  0.25500000920E-02 0. -1.
        2   -1    0    0  501    0  0.00000000000E+00  0.00000000000E+00 -0.20671629745E+04  0.20671629745E+04  0.25500000920E-02 0.  1.
    10030    2    1    2    0    0  0.00000000000E+00  0.00000000000E+00 -0.68077240624E+03  0.34535535428E+04  0.33857910456E+04 0.  0.
        2    1    3    3  502    0 -0.10493872806E+04 -0.96500383095E+03 -0.12715918622E+04  0.19103381697E+04  0.25500000920E-02 0.  1.
       -2    1    3    3    0  502  0.10493872806E+04  0.96500383095E+03  0.59081945600E+03  0.15432153732E+04  0.25500000920E-02 0. -1.
</event>
<event>
 5   0  0.1421875E-07  0.3407316E+04  0.7818609E-02  0.8136113E-01
        3   -1    0    0  501    0  0.00000000000E+00  0.00000000000E+00  0.26129158238E+04  0.26129158258E+04  0.10100000352E+00 0. -1.
       -3   -1    0    0    0  501  0.00000000000E+00  0.00000000000E+00 -0.11108089733E+04  0.11108089779E+04  0.10100000352E+00 0.  1.
    10030    2    1    2    0    0  0.00000000000E+00  0.00000000000E+00  0.15021068506E+04  0.37237248037E+04  0.34073158678E+04 0.  0.
        2    1    3    3  502    0 -0.33850108559E+03 -0.86614113760E+03  0.23110792125E+04  0.24911584819E+04  0.25500000920E-02 0. -1.
       -2    1    3    3    0  502  0.33850108559E+03  0.86614113760E+03 -0.80897236198E+03  0.12325663218E+04  0.25500000920E-02 0.  1.
</event>
<event>
 5   0  0.4381939E-07  0.3463655E+04  0.7818609E-02  0.8122458E-01
       -2   -1    0    0    0  501  0.00000000000E+00  0.00000000000E+00  0.15540010803E+04  0.15540010803E+04  0.25500000920E-02 0.  1.
        2   -1    0    0  501    0  0.00000000000E+00  0.00000000000E+00 -0.19300028236E+04  0.19300028236E+04  0.25500000920E-02 0. -1.
    10030    2    1    2    0    0  0.00000000000E+00  0.00000000000E+00 -0.37600174326E+03  0.34840039039E+04  0.34636549902E+04 0.  0.
        3    1    3    3  502    0 -0.16940560895E+04 -0.13333922745E+03 -0.52406109732E+03  0.17782703472E+04  0.10100000352E+00 0. -1.
       -3    1    3    3    0  502  0.16940560895E+04  0.13333922745E+03  0.14805935405E+03  0.17057335567E+04  0.10100000352E+00 0.  1.
</event>
<event>
 5   0  0.1435806E-07  0.3401055E+04  0.7818609E-02  0.8137648E-01
        1   -1    0    0  501    0  0.00000000000E+00  0.00000000000E+00  0.23947196485E+04  0.23947196485E+04  0.50400001928E-02 0.  1.
       -1   -1    0    0    0  501  0.00000000000E+00  0.00000000000E+00 -0.12075706938E+04  0.12075706939E+04  0.50400001928E-02 0. -1.
    10030    2    1    2    0    0  0.00000000000E+00  0.00000000000E+00  0.11871489547E+04  0.36022903424E+04  0.34010546997E+04 0.  0.
        3    1    3    3  502    0  0.44884855180E+03  0.13044163555E+04  0.16468089878E+04  0.21482427478E+04  0.10100000352E+00 0.  1.
       -3    1    3    3    0  502 -0.44884855180E+03 -0.13044163555E+04 -0.45966003319E+03  0.14540475945E+04  0.10100000352E+00 0. -1.
</event>
<event>
 5   0  0.4521737E-07  0.3374010E+04  0.7818609E-02  0.8144315E-01
       -2   -1    0    0    0  501  0.00000000000E+00  0.00000000000E+00  0.16503117717E+04  0.16503117717E+04  0.25500000920E-02 0.  1.
        2   -1    0    0  501    0  0.00000000000E+00  0.00000000000E+00 -0.17245143078E+04  0.17245143078E+04  0.25500000920E-02 0. -1.
    10030    2    1    2    0    0  0.00000000000E+00  0.00000000000E+00 -0.74202536120E+02  0.33748260795E+04  0.33740102327E+04 0.  0.
        4    1    3    3  502    0 -0.40032349458E+03  0.15297407089E+04 -0.62513721673E+03  0.17003422271E+04  0.12699999809E+01 0. -1.
       -4    1    3    3    0  502  0.40032349458E+03 -0.15297407089E+04  0.55093468061E+03  0.16744838524E+04  0.12699999809E+01 0.  1.
</event>
<event>
 5   0  0.1523259E-07  0.3396672E+04  0.7818609E-02  0.8138724E-01
       -1   -1    0    0    0  501  0.00000000000E+00  0.00000000000E+00  0.15322204176E+04  0.15322204176E+04  0.50400001928E-02 0.  1.
        1   -1    0    0  501    0  0.00000000000E+00  0.00000000000E+00 -0.18824604842E+04  0.18824604842E+04  0.50400001928E-02 0. -1.
    10030    2    1    2    0    0  0.00000000000E+00  0.00000000000E+00 -0.35024006654E+03  0.34146809018E+04  0.33966715409E+04 0.  0.
        4    1    3    3  502    0  0.33446923284E+02  0.12175345778E+04  0.10147234956E+04  0.15852995081E+04  0.12699999809E+01 0.  1.
       -4    1    3    3    0  502 -0.33446923284E+02 -0.12175345778E+04 -0.13649635622E+04  0.18293813937E+04  0.12699999809E+01 0. -1.
</event>
<event>
 5   0  0.1473755E-07  0.3410208E+04  0.7818609E-02  0.8135405E-01
       -1   -1    0    0    0  501  0.00000000000E+00  0.00000000000E+00  0.14677356253E+04  0.14677356253E+04  0.50400001928E-02 0.  1.
        1   -1    0    0  501    0  0.00000000000E+00  0.00000000000E+00 -0.19808606362E+04  0.19808606362E+04  0.50400001928E-02 0. -1.
    10030    2    1    2    0    0  0.00000000000E+00  0.00000000000E+00 -0.51312501094E+03  0.34485962615E+04  0.34102080432E+04 0.  0.
        1    1    3    3  502    0 -0.53675206797E+03  0.15968580702E+04 -0.52281559626E+03  0.17639145746E+04  0.50400001928E-02 0. -1.
       -1    1    3    3    0  502  0.53675206797E+03 -0.15968580702E+04  0.96905853150E+01  0.16846816869E+04  0.50400001928E-02 0.  1.
</event>
<event>
 5   0  0.4447909E-07  0.3401615E+04  0.7818609E-02  0.8137510E-01
       -2   -1    0    0    0  501  0.00000000000E+00  0.00000000000E+00  0.11571240181E+04  0.11571240181E+04  0.25500000920E-02 0. -1.
        2   -1    0    0  501    0  0.00000000000E+00  0.00000000000E+00 -0.24999447669E+04  0.24999447669E+04  0.25500000920E-02 0.  1.
    10030    2    1    2    0    0  0.00000000000E+00  0.00000000000E+00 -0.13428207488E+04  0.36570687850E+04  0.34016149892E+04 0.  0.
        5    1    3    3  502    0 -0.32680698756E+03 -0.82957533826E+03  0.88571059176E+03  0.12567829531E+04  0.46999998093E+01 0. -1.
       -5    1    3    3    0  502  0.32680698756E+03  0.82957533826E+03 -0.22285313405E+04  0.24002858319E+04  0.46999998093E+01 0.  1.
</event>
<event>
 5   0  0.1421875E-07  0.3404107E+04  0.7818609E-02  0.8136899E-01
       -1   -1    0    0    0  501  0.00000000000E+00  0.00000000000E+00  0.92283433388E+03  0.92283433389E+03  0.50400001928E-02 0.  1.
        1   -1    0    0  501    0  0.00000000000E+00  0.00000000000E+00 -0.31392271280E+04  0.31392271280E+04  0.50400001928E-02 0. -1.
    10030    2    1    2    0    0  0.00000000000E+00  0.00000000000E+00 -0.22163927941E+04  0.40620614619E+04  0.34041072695E+04 0.  0.
        5    1    3    3  502    0 -0.45181288951E+03 -0.90505987518E+03 -0.27415974970E+04  0.29222674741E+04  0.46999998093E+01 0. -1.
       -5    1    3    3    0  502  0.45181288951E+03  0.90505987518E+03  0.52520470283E+03  0.11397939878E+04  0.46999998093E+01 0.  1.
</event>
<event>
 5   0  0.4381939E-07  0.3404507E+04  0.7818609E-02  0.8136801E-01
       -2   -1    0    0    0  501  0.00000000000E+00  0.00000000000E+00  0.13995640155E+04  0.13995640155E+04  0.25500000920E-02 0. -1.
        2   -1    0    0  501    0  0.00000000000E+00  0.00000000000E+00 -0.20704073802E+04  0.20704073802E+04  0.25500000920E-02 0.  1.
    10030    2    1    2    0    0  0.00000000000E+00  0.00000000000E+00 -0.67084336477E+03  0.34699713957E+04  0.34045074045E+04 0.  0.
        3    1    3    3  502    0  0.16601345072E+04 -0.35904780621E+03 -0.45030890273E+03  0.17571966387E+04  0.10100000352E+00 0.  1.
       -3    1    3    3    0  502 -0.16601345072E+04  0.35904780621E+03 -0.22053446204E+03  0.17127747570E+04  0.10100000352E+00 0. -1.
</event>
<event>
 5   0  0.4486226E-07  0.3414743E+04  0.7818609E-02  0.8134297E-01
       -2   -1    0    0    0  501  0.00000000000E+00  0.00000000000E+00  0.15360706040E+04  0.15360706040E+04  0.25500000920E-02 0.  1.
        2   -1    0    0  501    0  0.00000000000E+00  0.00000000000E+00 -0.18977755814E+04  0.18977755814E+04  0.25500000920E-02 0. -1.
    10030    2    1    2    0    0  0.00000000000E+00  0.00000000000E+00 -0.36170497739E+03  0.34338461854E+04  0.34147429090E+04 0.  0.
        1    1    3    3  502    0 -0.10503876913E+03 -0.11624677316E+04  0.10722136727E+04  0.15849310805E+04  0.50400001928E-02 0.  1.
       -1    1    3    3    0  502  0.10503876913E+03  0.11624677316E+04 -0.14339186501E+04  0.18489151049E+04  0.50400001928E-02 0. -1.
</event>
<event>
 5   0  0.1520084E-07  0.3392953E+04  0.7818609E-02  0.8139638E-01
        1   -1    0    0  501    0  0.00000000000E+00  0.00000000000E+00  0.22080899313E+04  0.22080899313E+04  0.50400001928E-02 0.  1.
       -1   -1    0    0    0  501  0.00000000000E+00  0.00000000000E+00 -0.13034035177E+04  0.13034035177E+04  0.50400001928E-02 0. -1.
    10030    2    1    2    0    0  0.00000000000E+00  0.00000000000E+00  0.90468641360E+03  0.35114934491E+04  0.33929528048E+04 0.  0.
        2    1    3    3  502    0 -0.13905674442E+04 -0.95263943796E+03  0.25372024434E+03  0.17045743393E+04  0.25500000920E-02 0. -1.
       -2    1    3    3    0  502  0.13905674442E+04  0.95263943796E+03  0.65096616926E+03  0.18069191098E+04  0.25500000920E-02 0.  1.
</event>
<event>
 5   0  0.1520084E-07  0.3407333E+04  0.7818609E-02  0.8136109E-01
       -1   -1    0    0    0  501  0.00000000000E+00  0.00000000000E+00  0.12619083409E+04  0.12619083410E+04  0.50400001928E-02 0. -1.
        1   -1    0    0  501    0  0.00000000000E+00  0.00000000000E+00 -0.23000710835E+04  0.23000710836E+04  0.50400001928E-02 0.  1.
    10030    2    1    2    0    0  0.00000000000E+00  0.00000000000E+00 -0.10381627426E+04  0.35619794245E+04  0.34073326137E+04 0.  0.
        2    1    3    3  502    0  0.84836453623E+03 -0.25264147538E+03  0.10026397077E+04  0.13374739193E+04  0.25500000920E-02 0. -1.
       -2    1    3    3    0  502 -0.84836453623E+03  0.25264147538E+03 -0.20408024503E+04  0.22245055052E+04  0.25500000920E-02 0.  1.
</event>
<event>
 5   0  0.4381939E-07  0.3395997E+04  0.7818609E-02  0.8138889E-01
       -2   -1    0    0    0  501  0.00000000000E+00  0.00000000000E+00  0.16992190461E+04  0.16992190461E+04  0.25500000920E-02 0. -1.
        2   -1    0    0  501    0  0.00000000000E+00  0.00000000000E+00 -0.16967792380E+04  0.16967792380E+04  0.25500000920E-02 0.  1.
    10030    2    1    2    0    0  0.00000000000E+00  0.00000000000E+00  0.24398081223E+01  0.33959982840E+04  0.33959974076E+04 0.  0.
        3    1    3    3  502    0 -0.14584729078E+04 -0.76189509465E+03 -0.41779360487E+03  0.16976981075E+04  0.10100000352E+00 0.  1.
       -3    1    3    3    0  502  0.14584729078E+04  0.76189509465E+03  0.42023341300E+03  0.16983001765E+04  0.10100000352E+00 0. -1.
</event>
<event>
 5   0  0.4381939E-07  0.3412844E+04  0.7818609E-02  0.8134761E-01
       -2   -1    0    0    0  501  0.00000000000E+00  0.00000000000E+00  0.11094267065E+04  0.11094267066E+04  0.25500000920E-02 0. -1.
        2   -1    0    0  501    0  0.00000000000E+00  0.00000000000E+00 -0.26246681069E+04  0.26246681069E+04  0.25500000920E-02 0.  1.
    10030    2    1    2    0    0  0.00000000000E+00  0.00000000000E+00 -0.15152414004E+04  0.37340948135E+04  0.34128444990E+04 0.  0.
        3    1    3    3  502    0  0.64351505343E+03 -0.15378268055E+04 -0.11564215894E+04  0.20288750110E+04  0.10100000352E+00 0.  1.
       -3    1    3    3    0  502 -0.64351505343E+03  0.15378268055E+04 -0.35881981094E+03  0.17052198024E+04  0.10100000352E+00 0. -1.
</event>
<event>
 5   0  0.1523259E-07  0.3401586E+04  0.7818609E-02  0.8137517E-01
        1   -1    0    0  501    0  0.00000000000E+00  0.00000000000E+00  0.24191930237E+04  0.24191930237E+04  0.50400001928E-02 0.  1.
       -1   -1    0    0    0  501  0.00000000000E+00  0.00000000000E+00 -0.11957281369E+04  0.11957281369E+04  0.50400001928E-02 0. -1.
    10030    2    1    2    0    0  0.00000000000E+00  0.00000000000E+00  0.12234648868E+04  0.36149211606E+04  0.34015861989E+04 0.  0.
        4    1    3    3  502    0  0.50177289346E+03 -0.41253037612E+03  0.22821718039E+04  0.23728183882E+04  0.12699999809E+01 0.  1.
       -4    1    3    3    0  502 -0.50177289346E+03  0.41253037612E+03 -0.10587069172E+04  0.12421027724E+04  0.12699999809E+01 0. -1.
</event>
<event>
 5   0  0.1523259E-07  0.3377678E+04  0.7818609E-02  0.8143407E-01
        1   -1    0    0  501    0  0.00000000000E+00  0.00000000000E+00  0.22903230386E+04  0.22903230386E+04  0.50400001928E-02 0. -1.
       -1   -1    0    0    0  501  0.00000000000E+00  0.00000000000E+00 -0.12453166845E+04  0.12453166845E+04  0.50400001928E-02 0.  1.
    10030    2    1    2    0    0  0.00000000000E+00  0.00000000000E+00  0.10450063541E+04  0.35356397231E+04  0.33776781924E+04 0.  0.
        4    1    3    3  502    0  0.68313894711E+03  0.55748660342E+03 -0.98524214446E+03  0.13221852481E+04  0.12699999809E+01 0.  1.
       -4    1    3    3    0  502 -0.68313894711E+03 -0.55748660342E+03  0.20302484986E+04  0.22134544750E+04  0.12699999809E+01 0. -1.
</event>
<event>
 5   0  0.1473755E-07  0.3394694E+04  0.7818609E-02  0.8139210E-01
        1   -1    0    0  501    0  0.00000000000E+00  0.00000000000E+00  0.16353686685E+04  0.16353686685E+04  0.50400001928E-02 0.  1.
       -1   -1    0    0    0  501  0.00000000000E+00  0.00000000000E+00 -0.17616737282E+04  0.17616737282E+04  0.50400001928E-02 0. -1.
    10030    2    1    2    0    0  0.00000000000E+00  0.00000000000E+00 -0.12630505964E+03  0.33970423967E+04  0.33946935174E+04 0.  0.
        1    1    3    3  502    0  0.11027529681E+04  0.10786538328E+04  0.64545311672E+03  0.16721746098E+04  0.50400001928E-02 0.  1.
       -1    1    3    3    0  502 -0.11027529681E+04 -0.10786538328E+04 -0.77175817636E+03  0.17248677869E+04  0.50400001928E-02 0. -1.
</event>
<event>
 5   0  0.1473755E-07  0.3376359E+04  0.7818609E-02  0.8143733E-01
       -1   -1    0    0    0  501  0.00000000000E+00  0.00000000000E+00  0.11047817626E+04  0.11047817626E+04  0.50400001928E-02 0.  1.
        1   -1    0    0  501    0  0.00000000000E+00  0.00000000000E+00 -0.25796498413E+04  0.25796498413E+04  0.50400001928E-02 0. -1.
    10030    2    1    2    0    0  0.00000000000E+00  0.00000000000E+00 -0.14748680787E+04  0.36844316039E+04  0.33763590440E+04 0.  0.
        1    1    3    3  502    0 -0.62830552272E+03  0.33696491839E+03  0.93243207953E+03  0.11737728780E+04  0.50400001928E-02 0.  1.
       -1    1    3    3    0  502  0.62830552272E+03 -0.33696491839E+03 -0.24073001582E+04  0.25106587259E+04  0.50400001928E-02 0. -1.
</event>
<event>
 5   0  0.1520084E-07  0.3376333E+04  0.7818609E-02  0.8143740E-01
        1   -1    0    0  501    0  0.00000000000E+00  0.00000000000E+00  0.83794025164E+03  0.83794025166E+03  0.50400001928E-02 0. -1.
       -1   -1    0    0    0  501  0.00000000000E+00  0.00000000000E+00 -0.34010842626E+04  0.34010842626E+04  0.50400001928E-02 0.  1.
    10030    2    1    2    0    0  0.00000000000E+00  0.00000000000E+00 -0.25631440110E+04  0.42390245143E+04  0.33763325683E+04 0.  0.
        2    1    3    3  502    0 -0.72460802638E+03 -0.42134431448E+03  0.55822051905E+03  0.10070739651E+04  0.25500000920E-02 0. -1.
       -2    1    3    3    0  502  0.72460802638E+03  0.42134431448E+03 -0.31213645300E+04  0.32319505492E+04  0.25500000920E-02 0.  1.
</event>
<event>
 5   0  0.1421875E-07  0.3380292E+04  0.7818609E-02  0.8142760E-01
       -1   -1    0    0    0  501  0.00000000000E+00  0.00000000000E+00  0.15604187507E+04  0.15604187507E+04  0.50400001928E-02 0.  1.
        1   -1    0    0  501    0  0.00000000000E+00  0.00000000000E+00 -0.18306585868E+04  0.18306585868E+04  0.50400001928E-02 0. -1.
    10030    2    1    2    0    0  0.00000000000E+00  0.00000000000E+00 -0.27023983611E+03  0.33910773375E+04  0.33802922862E+04 0.  0.
        5    1    3    3  502    0 -0.42257880345E+03  0.10052068606E+04  0.11603398873E+04  0.15923016114E+04  0.46999998093E+01 0.  1.
       -5    1    3    3    0  502  0.42257880345E+03 -0.10052068606E+04 -0.14305797234E+04  0.17987757261E+04  0.46999998093E+01 0. -1.
</event>
<event>
 5   0  0.1520084E-07  0.3402633E+04  0.7818609E-02  0.8137260E-01
       -1   -1    0    0    0  501  0.00000000000E+00  0.00000000000E+00  0.10264657631E+04  0.10264657631E+04  0.50400001928E-02 0.  1.
        1   -1    0    0  501    0  0.00000000000E+00  0.00000000000E+00 -0.28198491825E+04  0.28198491825E+04  0.50400001928E-02 0. -1.
    10030    2    1    2    0    0  0.00000000000E+00  0.00000000000E+00 -0.17933834194E+04  0.38463149456E+04  0.34026334759E+04 0.  0.
        2    1    3    3  502    0 -0.11421568745E+04 -0.68513467275E+03 -0.20932797873E+04  0.24810788205E+04  0.25500000920E-02 0. -1.
       -2    1    3    3    0  502  0.11421568745E+04  0.68513467275E+03  0.29989636783E+03  0.13652361251E+04  0.25500000920E-02 0.  1.
</event>
<event>
 5   0  0.4486226E-07  0.3408876E+04  0.7818609E-02  0.8135731E-01
        2   -1    0    0  501    0  0.00000000000E+00  0.00000000000E+00  0.23800068506E+04  0.23800068506E+04  0.25500000920E-02 0. -1.
       -2   -1    0    0    0  501  0.00000000000E+00  0.00000000000E+00 -0.12206306356E+04  0.12206306356E+04  0.25500000920E-02 0.  1.
    10030    2    1    2    0    0  0.00000000000E+00  0.00000000000E+00  0.11593762150E+04  0.36006374862E+04  0.34088762224E+04 0.  0.
        1    1    3    3  502    0  0.51768638675E+03 -0.83629944389E+03 -0.89063549493E+03  0.13268864080E+04  0.50400001928E-02 0.  1.
       -1    1    3    3    0  502 -0.51768638675E+03  0.83629944389E+03  0.20500117099E+04  0.22737510782E+04  0.50400001928E-02 0. -1.
</event>
<event>
 5   0  0.4486226E-07  0.3379293E+04  0.7818609E-02  0.8143007E-01
        2   -1    0    0  501    0  0.00000000000E+00  0.00000000000E+00  0.17988495939E+04  0.17988495939E+04  0.25500000920E-02 0. -1.
       -2   -1    0    0    0  501  0.00000000000E+00  0.00000000000E+00 -0.15870723731E+04  0.15870723731E+04  0.25500000920E-02 0.  1.
    10030    2    1    2    0    0  0.00000000000E+00  0.00000000000E+00  0.21177722078E+03  0.33859219670E+04  0.33792925259E+04 0.  0.
        1    1    3    3  502    0 -0.19965607435E+03  0.34024997615E+03 -0.15402805982E+04  0.15899990301E+04  0.50400001928E-02 0.  1.
       -1    1    3    3    0  502  0.19965607435E+03 -0.34024997615E+03  0.17520578190E+04  0.17959229370E+04  0.50400001928E-02 0. -1.
</event>
<event>
 5   0  0.4396257E-07  0.3376342E+04  0.7818609E-02  0.8143737E-01
        2   -1    0    0  501    0  0.00000000000E+00  0.00000000000E+00  0.15930683864E+04  0.15930683864E+04  0.25500000920E-02 0. -1.
       -2   -1    0    0    0  501  0.00000000000E+00  0.00000000000E+00 -0.17889511947E+04  0.17889511947E+04  0.25500000920E-02 0.  1.
    10030    2    1    2    0    0  0.00000000000E+00  0.00000000000E+00 -0.19588280832E+03  0.33820195812E+04  0.33763421587E+04 0.  0.
        2    1    3    3  502    0 -0.18216829751E+02  0.46059275242E+03 -0.17246931983E+04  0.17852294431E+04  0.25500000920E-02 0.  1.
       -2    1    3    3    0  502  0.18216829751E+02 -0.46059275242E+03  0.15288103899E+04  0.15967901380E+04  0.25500000920E-02 0. -1.
</event>
<event>
 5   0  0.1523259E-07  0.3440890E+04  0.7818609E-02  0.8127943E-01
       -1   -1    0    0    0  501  0.00000000000E+00  0.00000000000E+00  0.12137322702E+04  0.12137322702E+04  0.50400001928E-02 0.  1.
        1   -1    0    0  501    0  0.00000000000E+00  0.00000000000E+00 -0.24387019693E+04  0.24387019693E+04  0.50400001928E-02 0. -1.
    10030    2    1    2    0    0  0.00000000000E+00  0.00000000000E+00 -0.12249696991E+04  0.36524342395E+04  0.34408901625E+04 0.  0.
        4    1    3    3  502    0  0.11156635214E+04  0.12658453011E+04 -0.96908546694E+03  0.19458154266E+04  0.12699999809E+01 0. -1.
       -4    1    3    3    0  502 -0.11156635214E+04 -0.12658453011E+04 -0.25588423220E+03  0.17066188129E+04  0.12699999809E+01 0.  1.
</event>
<event>
 5   0  0.1523259E-07  0.3400295E+04  0.7818609E-02  0.8137834E-01
        1   -1    0    0  501    0  0.00000000000E+00  0.00000000000E+00  0.15639228188E+04  0.15639228188E+04  0.50400001928E-02 0. -1.
       -1   -1    0    0    0  501  0.00000000000E+00  0.00000000000E+00 -0.18482384293E+04  0.18482384293E+04  0.50400001928E-02 0.  1.
    10030    2    1    2    0    0  0.00000000000E+00  0.00000000000E+00 -0.28431561050E+03  0.34121612481E+04  0.34002954307E+04 0.  0.
        4    1    3    3  502    0 -0.36771773463E+02  0.79038375276E+03 -0.16522153423E+04  0.18319049621E+04  0.12699999809E+01 0.  1.
       -4    1    3    3    0  502  0.36771773463E+02 -0.79038375276E+03  0.13678997318E+04  0.15802562859E+04  0.12699999809E+01 0. -1.
</event>
<event>
 5   0  0.1473755E-07  0.3396742E+04  0.7818609E-02  0.8138706E-01
       -1   -1    0    0    0  501  0.00000000000E+00  0.00000000000E+00  0.88996185184E+03  0.88996185185E+03  0.50400001928E-02 0.  1.
        1   -1    0    0  501    0  0.00000000000E+00  0.00000000000E+00 -0.32411093742E+04  0.32411093742E+04  0.50400001928E-02 0. -1.
    10030    2    1    2    0    0  0.00000000000E+00  0.00000000000E+00 -0.23511475224E+04  0.41310712261E+04  0.33967417922E+04 0.  0.
        1    1    3    3  502    0  0.11058469220E+04 -0.11398763235E+04 -0.44358687919E+03  0.16489344339E+04  0.50400001928E-02 0. -1.
       -1    1    3    3    0  502 -0.11058469220E+04  0.11398763235E+04 -0.19075606432E+04  0.24821367922E+04  0.50400001928E-02 0.  1.
</event>
<event>
 5   0  0.1520084E-07  0.3401916E+04  0.7818609E-02  0.8137436E-01
        1   -1    0    0  501    0  0.00000000000E+00  0.00000000000E+00  0.19137292083E+04  0.19137292083E+04  0.50400001928E-02 0. -1.
       -1   -1    0    0    0  501  0.00000000000E+00  0.00000000000E+00 -0.15118428224E+04  0.15118428224E+04  0.50400001928E-02 0.  1.
    10030    2    1    2    0    0  0.00000000000E+00  0.00000000000E+00  0.40188638587E+03  0.34255720307E+04  0.34019157941E+04 0.  0.
        2    1    3    3  502    0  0.92103180003E+03  0.99217077422E+03  0.12379371203E+04  0.18344456208E+04  0.25500000920E-02 0. -1.
       -2    1    3    3    0  502 -0.92103180003E+03 -0.99217077422E+03 -0.83605073439E+03  0.15911264099E+04  0.25500000920E-02 0.  1.
</event>
<event>
 5   0  0.1520084E-07  0.3390863E+04  0.7818609E-02  0.8140153E-01
       -1   -1    0    0    0  501  0.00000000000E+00  0.00000000000E+00  0.88323182105E+03  0.88323182106E+03  0.50400001928E-02 0. -1.
        1   -1    0    0  501    0  0.00000000000E+00  0.00000000000E+00 -0.32545111297E+04  0.32545111297E+04  0.50400001928E-02 0.  1.
    10030    2    1    2    0    0  0.00000000000E+00  0.00000000000E+00 -0.23712793087E+04  0.41377429508E+04  0.33908628942E+04 0.  0.
        2    1    3    3  502    0 -0.13615506637E+04  0.55894894977E+03 -0.22125785976E+04  0.26573950005E+04  0.25500000920E-02 0.  1.
       -2    1    3    3    0  502  0.13615506637E+04 -0.55894894977E+03 -0.15870071107E+03  0.14803479503E+04  0.25500000920E-02 0. -1.
</event>
<event>
 5   0  0.4381939E-07  0.3423973E+04  0.7818609E-02  0.8132048E-01
        2   -1    0    0  501    0  0.00000000000E+00  0.00000000000E+00  0.82653139819E+03  0.82653139819E+03  0.25500000920E-02 0. -1.
       -2   -1    0    0    0  501  0.00000000000E+00  0.00000000000E+00 -0.35460210217E+04  0.35460210217E+04  0.25500000920E-02 0.  1.
    10030    2    1    2    0    0  0.00000000000E+00  0.00000000000E+00 -0.27194896236E+04  0.43725524199E+04  0.34239729632E+04 0.  0.
        3    1    3    3  502    0  0.12578521419E+04  0.70899137306E+03 -0.25343701287E+04  0.29168292266E+04  0.10100000352E+00 0. -1.
       -3    1    3    3    0  502 -0.12578521419E+04 -0.70899137306E+03 -0.18511949490E+03  0.14557231933E+04  0.10100000352E+00 0.  1.
</event>
<event>
 5   0  0.4486226E-07  0.3392862E+04  0.7818609E-02  0.8139660E-01
        2   -1    0    0  501    0  0.00000000000E+00  0.00000000000E+00  0.22095141469E+04  0.22095141469E+04  0.25500000920E-02 0.  1.
       -2   -1    0    0    0  501  0.00000000000E+00  0.00000000000E+00 -0.13024936330E+04  0.13024936330E+04  0.25500000920E-02 0. -1.
    10030    2    1    2    0    0  0.00000000000E+00  0.00000000000E+00  0.90702051388E+03  0.35120077799E+04  0.33928619827E+04 0.  0.
        1    1    3    3  502    0  0.28188352685E+03 -0.99406000897E+03  0.18462189659E+04  0.21156885627E+04  0.50400001928E-02 0.  1.
       -1    1    3    3    0  502 -0.28188352685E+03  0.99406000897E+03 -0.93919845203E+03  0.13963192172E+04  0.50400001928E-02 0. -1.
</event>
<event>
 5   0  0.4381939E-07  0.3394619E+04  0.7818609E-02  0.8139228E-01
       -2   -1    0    0    0  501  0.00000000000E+00  0.00000000000E+00  0.21959666124E+04  0.21959666124E+04  0.25500000920E-02 0.  1.
        2   -1    0    0  501    0  0.00000000000E+00  0.00000000000E+00 -0.13118863946E+04  0.13118863946E+04  0.25500000920E-02 0. -1.
    10030    2    1    2    0    0  0.00000000000E+00  0.00000000000E+00  0.88408021785E+03  0.35078530070E+04  0.33946185187E+04 0.  0.
        3    1    3    3  502    0  0.39311027999E+03 -0.13366198661E+04  0.14437945591E+04  0.20063975423E+04  0.10100000352E+00 0.  1.
       -3    1    3    3    0  502 -0.39311027999E+03  0.13366198661E+04 -0.55971434126E+03  0.15014554647E+04  0.10100000352E+00 0. -1.
</event>
<event>
 5   0  0.1473755E-07  0.3412045E+04  0.7818609E-02  0.8134956E-01
        1   -1    0    0  501    0  0.00000000000E+00  0.00000000000E+00  0.28062069600E+04  0.28062069600E+04  0.50400001928E-02 0. -1.
       -1   -1    0    0    0  501  0.00000000000E+00  0.00000000000E+00 -0.10371697257E+04  0.10371697257E+04  0.50400001928E-02 0.  1.
    10030    2    1    2    0    0  0.00000000000E+00  0.00000000000E+00  0.17690372343E+04  0.38433766857E+04  0.34120450777E+04 0.  0.
        1    1    3    3  502    0  0.62419580886E+03 -0.15791659181E+04  0.69899335111E+03  0.18362943962E+04  0.50400001928E-02 0.  1.
       -1    1    3    3    0  502 -0.62419580886E+03  0.15791659181E+04  0.10700438832E+04  0.20070822895E+04  0.50400001928E-02 0. -1.
</event>
<event>
 5   0  0.4396257E-07  0.3390046E+04  0.7818609E-02  0.8140354E-01
       -2   -1    0    0    0  501  0.00000000000E+00  0.00000000000E+00  0.12986723436E+04  0.12986723436E+04  0.25500000920E-02 0.  1.
        2   -1    0    0  501    0  0.00000000000E+00  0.00000000000E+00 -0.22123388014E+04  0.22123388014E+04  0.25500000920E-02 0. -1.
    10030    2    1    2    0    0  0.00000000000E+00  0.00000000000E+00 -0.91366645780E+03  0.35110111450E+04  0.33900461448E+04 0.  0.
        2    1    3    3  502    0  0.69237943136E+03  0.13530016808E+04 -0.12340094650E+04  0.19577492651E+04  0.25500000920E-02 0. -1.
       -2    1    3    3    0  502 -0.69237943136E+03 -0.13530016808E+04  0.32034300724E+03  0.15532618799E+04  0.25500000920E-02 0.  1.
</event>
<event>
 5   0  0.4396257E-07  0.3394366E+04  0.7818609E-02  0.8139291E-01
        2   -1    0    0  501    0  0.00000000000E+00  0.00000000000E+00  0.20984791916E+04  0.20984791916E+04  0.25500000920E-02 0.  1.
       -2   -1    0    0    0  501  0.00000000000E+00  0.00000000000E+00 -0.13726271205E+04  0.13726271205E+04  0.25500000920E-02 0. -1.
    10030    2    1    2    0    0  0.00000000000E+00  0.00000000000E+00  0.72585207111E+03  0.34711063120E+04  0.33943655961E+04 0.  0.
        2    1    3    3  502    0  0.83360904164E+03  0.32859376051E+03 -0.11110322860E+04  0.14273298968E+04  0.25500000920E-02 0. -1.
       -2    1    3    3    0  502 -0.83360904164E+03 -0.32859376051E+03  0.18368843572E+04  0.20437764152E+04  0.25500000920E-02 0.  1.
</event>
<event>
 5   0  0.1473755E-07  0.3408342E+04  0.7818609E-02  0.8135862E-01
       -1   -1    0    0    0  501  0.00000000000E+00  0.00000000000E+00  0.15220817063E+04  0.15220817063E+04  0.50400001928E-02 0.  1.
        1   -1    0    0  501    0  0.00000000000E+00  0.00000000000E+00 -0.19080434358E+04  0.19080434358E+04  0.50400001928E-02 0. -1.
    10030    2    1    2    0    0  0.00000000000E+00  0.00000000000E+00 -0.38596172948E+03  0.34301251421E+04  0.34083415372E+04 0.  0.
        1    1    3    3  502    0 -0.13046490245E+04  0.89905207738E+03  0.43856015895E+03  0.16440008297E+04  0.50400001928E-02 0. -1.
       -1    1    3    3    0  502  0.13046490245E+04 -0.89905207738E+03 -0.82452188843E+03  0.17861243124E+04  0.50400001928E-02 0.  1.
</event>
<event>
 5   0  0.1523259E-07  0.3378891E+04  0.7818609E-02  0.8143107E-01
        1   -1    0    0  501    0  0.00000000000E+00  0.00000000000E+00  0.26565815991E+04  0.26565815991E+04  0.50400001928E-02 0.  1.
       -1   -1    0    0    0  501  0.00000000000E+00  0.00000000000E+00 -0.10743982117E+04  0.10743982117E+04  0.50400001928E-02 0. -1.
    10030    2    1    2    0    0  0.00000000000E+00  0.00000000000E+00  0.15821833874E+04  0.37309798107E+04  0.33788912496E+04 0.  0.
        4    1    3    3  502    0 -0.70061885149E+03 -0.17694735594E+03 -0.89514061202E+03  0.11504153467E+04  0.12699999809E+01 0. -1.
       -4    1    3    3    0  502  0.70061885149E+03  0.17694735594E+03  0.24773239994E+04  0.25805644640E+04  0.12699999809E+01 0.  1.
</event>
<event>
 5   0  0.1421875E-07  0.3407505E+04  0.7818609E-02  0.8136067E-01
        1   -1    0    0  501    0  0.00000000000E+00  0.00000000000E+00  0.30283559096E+04  0.30283559096E+04  0.50400001928E-02 0. -1.
       -1   -1    0    0    0  501  0.00000000000E+00  0.00000000000E+00 -0.95853112050E+03  0.95853112051E+03  0.50400001928E-02 0.  1.
    10030    2    1    2    0    0  0.00000000000E+00  0.00000000000E+00  0.20698247891E+04  0.39868870301E+04  0.34075054708E+04 0.  0.
        5    1    3    3  502    0  0.12846331896E+03 -0.14211563977E+04  0.21240868060E+04  0.25588972587E+04  0.46999998093E+01 0. -1.
       -5    1    3    3    0  502 -0.12846331896E+03  0.14211563977E+04 -0.54262016888E+02  0.14279897715E+04  0.46999998093E+01 0.  1.
</event>
<event>
 5   0  0.4521737E-07  0.3398170E+04  0.7818609E-02  0.8138356E-01
       -2   -1    0    0    0  501  0.00000000000E+00  0.00000000000E+00  0.15778590550E+04  0.15778590550E+04  0.25500000920E-02 0. -1.
        2   -1    0    0  501    0  0.00000000000E+00  0.00000000000E+00 -0.18296243709E+04  0.18296243709E+04  0.25500000920E-02 0.  1.
    10030    2    1    2    0    0  0.00000000000E+00  0.00000000000E+00 -0.25176531589E+03  0.34074834260E+04  0.33981697315E+04 0.  0.
        4    1    3    3  502    0  0.12944875017E+04 -0.95427773615E+03  0.42383872204E+03  0.16631249998E+04  0.12699999809E+01 0. -1.
       -4    1    3    3    0  502 -0.12944875017E+04  0.95427773615E+03 -0.67560403793E+03  0.17443584261E+04  0.12699999809E+01 0.  1.
</event>
<event>
 5   0  0.1421875E-07  0.3406676E+04  0.7818609E-02  0.8136270E-01
        1   -1    0    0  501    0  0.00000000000E+00  0.00000000000E+00  0.13136963305E+04  0.13136963305E+04  0.50400001928E-02 0. -1.
       -1   -1    0    0    0  501  0.00000000000E+00  0.00000000000E+00 -0.22085475042E+04  0.22085475042E+04  0.50400001928E-02 0.  1.
    10030    2    1    2    0    0  0.00000000000E+00  0.00000000000E+00 -0.89485117370E+03  0.35222438347E+04  0.34066762406E+04 0.  0.
        5    1    3    3  502    0  0.13229485612E+04  0.10712103637E+04 -0.38492556874E+03  0.17452433419E+04  0.46999998093E+01 0. -1.
       -5    1    3    3    0  502 -0.13229485612E+04 -0.10712103637E+04 -0.50992560496E+03  0.17770004928E+04  0.46999998093E+01 0.  1.
</event>
<event>
 5   0  0.4486226E-07  0.3395918E+04  0.7818609E-02  0.8138909E-01
        2   -1    0    0  501    0  0.00000000000E+00  0.00000000000E+00  0.21459253247E+04  0.21459253247E+04  0.25500000920E-02 0.  1.
       -2   -1    0    0    0  501  0.00000000000E+00  0.00000000000E+00 -0.13435064540E+04  0.13435064540E+04  0.25500000920E-02 0. -1.
    10030    2    1    2    0    0  0.00000000000E+00  0.00000000000E+00  0.80241887062E+03  0.34894317787E+04  0.33959178574E+04 0.  0.
        1    1    3    3  502    0  0.57766109473E+03  0.15837817187E+04  0.60928926315E+03  0.17925652789E+04  0.50400001928E-02 0. -1.
       -1    1    3    3    0  502 -0.57766109473E+03 -0.15837817187E+04  0.19312960747E+03  0.16968664998E+04  0.50400001928E-02 0.  1.
</event>
<event>
 5   0  0.1421875E-07  0.3404083E+04  0.7818609E-02  0.8136905E-01
        1   -1    0    0  501    0  0.00000000000E+00  0.00000000000E+00  0.26045733202E+04  0.26045733203E+04  0.50400001928E-02 0.  1.
       -1   -1    0    0    0  501  0.00000000000E+00  0.00000000000E+00 -0.11122532060E+04  0.11122532060E+04  0.50400001928E-02 0. -1.
    10030    2    1    2    0    0  0.00000000000E+00  0.00000000000E+00  0.14923201142E+04  0.37168265263E+04  0.34040828578E+04 0.  0.
        5    1    3    3  502    0 -0.25125033055E+03  0.13695852423E+04  0.18148759896E+04  0.22875068114E+04  0.46999998093E+01 0.  1.
       -5    1    3    3    0  502  0.25125033055E+03 -0.13695852423E+04 -0.32255587537E+03  0.14293197149E+04  0.46999998093E+01 0. -1.
</event>
<event>
 5   0  0.1435806E-07  0.3396829E+04  0.7818609E-02  0.8138685E-01
        1   -1    0    0  501    0  0.00000000000E+00  0.00000000000E+00  0.23571526922E+04  0.23571526922E+04  0.50400001928E-02 0.  1.
       -1   -1    0    0    0  501  0.00000000000E+00  0.00000000000E+00 -0.12237696355E+04  0.12237696356E+04  0.50400001928E-02 0. -1.
    10030    2    1    2    0    0  0.00000000000E+00  0.00000000000E+00  0.11333830566E+04  0.35809223277E+04  0.33968290455E+04 0.  0.
        3    1    3    3  502    0 -0.11888746714E+04  0.18435081953E+03 -0.69711434599E+03  0.13904591438E+04  0.10100000352E+00 0. -1.
       -3    1    3    3    0  502  0.11888746714E+04 -0.18435081953E+03  0.18304974026E+04  0.21904631839E+04  0.10100000352E+00 0.  1.
</event>
<event>
 5   0  0.1435806E-07  0.3395877E+04  0.7818609E-02  0.8138919E-01
        1   -1    0    0  501    0  0.00000000000E+00  0.00000000000E+00  0.21562965267E+04  0.21562965267E+04  0.50400001928E-02 0.  1.
       -1   -1    0    0    0  501  0.00000000000E+00  0.00000000000E+00 -0.13370121684E+04  0.13370121684E+04  0.50400001928E-02 0. -1.
    10030    2    1    2    0    0  0.00000000000E+00  0.00000000000E+00  0.81928435838E+03  0.34933086951E+04  0.33958767321E+04 0.  0.
        3    1    3    3  502    0 -0.10034460820E+04  0.74119154824E+03 -0.77524124537E+03  0.14687640891E+04  0.10100000352E+00 0. -1.
       -3    1    3    3    0  502  0.10034460820E+04 -0.74119154824E+03  0.15945256037E+04  0.20245446060E+04  0.10100000352E+00 0.  1.
</event>
<event>
 5   0  0.1421875E-07  0.3400910E+04  0.7818609E-02  0.8137683E-01
       -1   -1    0    0    0  501  0.00000000000E+00  0.00000000000E+00  0.15475552358E+04  0.15475552359E+04  0.50400001928E-02 0.  1.
        1   -1    0    0  501    0  0.00000000000E+00  0.00000000000E+00 -0.18684609233E+04  0.18684609233E+04  0.50400001928E-02 0. -1.
    10030    2    1    2    0    0  0.00000000000E+00  0.00000000000E+00 -0.32090568743E+03  0.34160161591E+04  0.34009095753E+04 0.  0.
        5    1    3    3  502    0  0.13511740083E+04  0.10303167098E+04 -0.22632364941E+03  0.17141960820E+04  0.46999998093E+01 0.  1.
       -5    1    3    3    0  502 -0.13511740083E+04 -0.10303167098E+04 -0.94582038024E+02  0.17018200772E+04  0.46999998093E+01 0. -1.
</event>
<event>
 5   0  0.4521737E-07  0.3397027E+04  0.7818609E-02  0.8138636E-01
       -2   -1    0    0    0  501  0.00000000000E+00  0.00000000000E+00  0.16367278911E+04  0.16367278911E+04  0.25500000920E-02 0. -1.
        2   -1    0    0  501    0  0.00000000000E+00  0.00000000000E+00 -0.17626311414E+04  0.17626311414E+04  0.25500000920E-02 0.  1.
    10030    2    1    2    0    0  0.00000000000E+00  0.00000000000E+00 -0.12590325033E+03  0.33993590325E+04  0.33970266710E+04 0.  0.
        4    1    3    3  502    0  0.97981901896E+03 -0.84334621610E+03 -0.11653739318E+04  0.17405103171E+04  0.12699999809E+01 0.  1.
       -4    1    3    3    0  502 -0.97981901896E+03  0.84334621610E+03  0.10394706815E+04  0.16588487154E+04  0.12699999809E+01 0. -1.
</event>
<event>
 5   0  0.4381939E-07  0.3372303E+04  0.7818609E-02  0.8144738E-01
       -2   -1    0    0    0  501  0.00000000000E+00  0.00000000000E+00  0.16343341715E+04  0.16343341715E+04  0.25500000920E-02 0.  1.
        2   -1    0    0  501    0  0.00000000000E+00  0.00000000000E+00 -0.17396120655E+04  0.17396120655E+04  0.25500000920E-02 0. -1.
    10030    2    1    2    0    0  0.00000000000E+00  0.00000000000E+00 -0.10527789396E+03  0.33739462370E+04  0.33723033338E+04 0.  0.
        3    1    3    3  502    0  0.80177026442E+03  0.82762137628E+03  0.11789419647E+04  0.16485438622E+04  0.10100000352E+00 0.  1.
       -3    1    3    3    0  502 -0.80177026442E+03 -0.82762137628E+03 -0.12842198586E+04  0.17254023748E+04  0.10100000352E+00 0. -1.
</event>
<event>
 5   0  0.4396257E-07  0.3405229E+04  0.7818609E-02  0.8136624E-01
       -2   -1    0    0    0  501  0.00000000000E+00  0.00000000000E+00  0.17197080051E+04  0.17197080051E+04  0.25500000920E-02 0. -1.
        2   -1    0    0  501    0  0.00000000000E+00  0.00000000000E+00 -0.16856909965E+04  0.16856909965E+04  0.25500000920E-02 0.  1.
    10030    2    1    2    0    0  0.00000000000E+00  0.00000000000E+00  0.34017008612E+02  0.34053990017E+04  0.34052290971E+04 0.  0.
        2    1    3    3  502    0  0.61637388977E+03  0.48920243061E+03  0.15269383056E+04  0.17177824016E+04  0.25500000920E-02 0. -1.
       -2    1    3    3    0  502 -0.61637388977E+03 -0.48920243061E+03 -0.14929212970E+04  0.16876166001E+04  0.25500000920E-02 0.  1.
</event>
<event>
 5   0  0.4486226E-07  0.3399757E+04  0.7818609E-02  0.8137966E-01
       -2   -1    0    0    0  501  0.00000000000E+00  0.00000000000E+00  0.11782724420E+04  0.11782724420E+04  0.25500000920E-02 0.  1.
        2   -1    0    0  501    0  0.00000000000E+00  0.00000000000E+00 -0.24523925462E+04  0.24523925462E+04  0.25500000920E-02 0. -1.
    10030    2    1    2    0    0  0.00000000000E+00  0.00000000000E+00 -0.12741201042E+04  0.36306649882E+04  0.33997567879E+04 0.  0.
        1    1    3    3  502    0  0.13228956943E+04 -0.10289694399E+04 -0.33358416558E+03  0.17088327952E+04  0.50400001928E-02 0. -1.
       -1    1    3    3    0  502 -0.13228956943E+04  0.10289694399E+04 -0.94053593867E+03  0.19218321930E+04  0.50400001928E-02 0.  1.
</event>
<event>
 5   0  0.4447909E-07  0.3397459E+04  0.7818609E-02  0.8138530E-01
       -2   -1    0    0    0  501  0.00000000000E+00  0.00000000000E+00  0.11296942629E+04  0.11296942629E+04  0.25500000920E-02 0. -1.
        2   -1    0    0  501    0  0.00000000000E+00  0.00000000000E+00 -0.25543914731E+04  0.25543914731E+04  0.25500000920E-02 0.  1.
    10030    2    1    2    0    0  0.00000000000E+00  0.00000000000E+00 -0.14246972102E+04  0.36840857360E+04  0.33974586928E+04 0.  0.
        5    1    3    3  502    0 -0.11036438858E+04 -0.11434185853E+02  0.68791016018E+03  0.13005395211E+04  0.46999998093E+01 0. -1.
       -5    1    3    3    0  502  0.11036438858E+04  0.11434185853E+02 -0.21126073704E+04  0.23835462149E+04  0.46999998093E+01 0.  1.
</event>
<event>
 5   0  0.4381939E-07  0.3410291E+04  0.7818609E-02  0.8135385E-01
       -2   -1    0    0    0  501  0.00000000000E+00  0.00000000000E+00  0.15717465577E+04  0.15717465577E+04  0.25500000920E-02 0.  1.
        2   -1    0    0  501    0  0.00000000000E+00  0.00000000000E+00 -0.18498658788E+04  0.18498658788E+04  0.25500000920E-02 0. -1.
    10030    2    1    2    0    0  0.00000000000E+00  0.00000000000E+00 -0.27811932110E+03  0.34216124365E+04  0.34102905021E+04 0.  0.
        3    1    3    3  502    0  0.37854247816E+03  0.98992402335E+03 -0.14792623906E+04  0.18197420724E+04  0.10100000352E+00 0. -1.
       -3    1    3    3    0  502 -0.37854247816E+03 -0.98992402335E+03  0.12011430695E+04  0.16018703641E+04  0.10100000352E+00 0.  1.
</event>
<event>
 5   0  0.1435806E-07  0.3274215E+04  0.7818609E-02  0.8169488E-01
       -1   -1    0    0    0  501  0.00000000000E+00  0.00000000000E+00  0.17391585114E+04  0.17391585114E+04  0.50400001928E-02 0. -1.
        1   -1    0    0  501    0  0.00000000000E+00  0.00000000000E+00 -0.15410447057E+04  0.15410447057E+04  0.50400001928E-02 0.  1.
    10030    2    1    2    0    0  0.00000000000E+00  0.00000000000E+00  0.19811380570E+03  0.32802032171E+04  0.32742150304E+04 0.  0.
        3    1    3    3  502    0  0.11180412089E+04  0.11032178279E+04  0.56143679230E+03  0.16680278782E+04  0.10100000352E+00 0. -1.
       -3    1    3    3    0  502 -0.11180412089E+04 -0.11032178279E+04 -0.36332298660E+03  0.16121753389E+04  0.10100000352E+00 0.  1.
</event>
<event>
 5   0  0.1435806E-07  0.3404120E+04  0.7818609E-02  0.8136896E-01
        1   -1    0    0  501    0  0.00000000000E+00  0.00000000000E+00  0.21222453753E+04  0.21222453753E+04  0.50400001928E-02 0.  1.
       -1   -1    0    0    0  501  0.00000000000E+00  0.00000000000E+00 -0.13650678281E+04  0.13650678281E+04  0.50400001928E-02 0. -1.
    10030    2    1    2    0    0  0.00000000000E+00  0.00000000000E+00  0.75717754720E+03  0.34873132033E+04  0.34041203769E+04 0.  0.
        3    1    3    3  502    0 -0.12828748288E+04  0.42944141038E+03  0.14367012809E+04  0.19733976620E+04  0.10100000352E+00 0. -1.
       -3    1    3    3    0  502  0.12828748288E+04 -0.42944141038E+03 -0.67952373374E+03  0.15139155414E+04  0.10100000352E+00 0.  1.
</event>
<event>
 5   0  0.1421875E-07  0.3429490E+04  0.7818609E-02  0.8130706E-01
        1   -1    0    0  501    0  0.00000000000E+00  0.00000000000E+00  0.22635682521E+04  0.22635682521E+04  0.50400001928E-02 0.  1.
       -1   -1    0    0    0  501  0.00000000000E+00  0.00000000000E+00 -0.12989893584E+04  0.12989893584E+04  0.50400001928E-02 0. -1.
    10030    2    1    2    0    0  0.00000000000E+00  0.00000000000E+00  0.96457889363E+03  0.35625576105E+04  0.34294903829E+04 0.  0.
        5    1    3    3  502    0 -0.13131252490E+04  0.95013035426E+03 -0.99145296136E+02  0.16238526686E+04  0.46999998093E+01 0. -1.
       -5    1    3    3    0  502  0.13131252490E+04 -0.95013035426E+03  0.10637241898E+04  0.19387049419E+04  0.46999998093E+01 0.  1.
</event>
<event>
 5   0  0.1435806E-07  0.3385746E+04  0.7818609E-02  0.8141414E-01
       -1   -1    0    0    0  501  0.00000000000E+00  0.00000000000E+00  0.18423933465E+04  0.18423933465E+04  0.50400001928E-02 0.  1.
        1   -1    0    0  501    0  0.00000000000E+00  0.00000000000E+00 -0.15554871135E+04  0.15554871135E+04  0.50400001928E-02 0. -1.
    10030    2    1    2    0    0  0.00000000000E+00  0.00000000000E+00  0.28690623305E+03  0.33978804600E+04  0.33857460675E+04 0.  0.
        3    1    3    3  502    0 -0.67071969763E+03 -0.13781904623E+04 -0.57783353187E+03  0.16380370765E+04  0.10100000352E+00 0. -1.
       -3    1    3    3    0  502  0.67071969763E+03  0.13781904623E+04  0.86473976492E+03  0.17598433835E+04  0.10100000352E+00 0.  1.
</event>
<event>
 5   0  0.4396257E-07  0.3399029E+04  0.7818609E-02  0.8138145E-01
       -2   -1    0    0    0  501  0.00000000000E+00  0.00000000000E+00  0.24914428100E+04  0.24914428100E+04  0.25500000920E-02 0.  1.
        2   -1    0    0  501    0  0.00000000000E+00  0.00000000000E+00 -0.11593082902E+04  0.11593082902E+04  0.25500000920E-02 0. -1.
    10030    2    1    2    0    0  0.00000000000E+00  0.00000000000E+00  0.13321345198E+04  0.36507511002E+04  0.33990294522E+04 0.  0.
        2    1    3    3  502    0 -0.13394263154E+04 -0.69917184530E+03  0.15017954833E+04  0.21303271573E+04  0.25500000920E-02 0. -1.
       -2    1    3    3    0  502  0.13394263154E+04  0.69917184530E+03 -0.16966096347E+03  0.15204239429E+04  0.25500000920E-02 0.  1.
</event>
<event>
 5   0  0.4381939E-07  0.3409889E+04  0.7818609E-02  0.8135483E-01
       -2   -1    0    0    0  501  0.00000000000E+00  0.00000000000E+00  0.10207595143E+04  0.10207595143E+04  0.25500000920E-02 0.  1.
        2   -1    0    0  501    0  0.00000000000E+00  0.00000000000E+00 -0.28477193026E+04  0.28477193026E+04  0.25500000920E-02 0. -1.
    10030    2    1    2    0    0  0.00000000000E+00  0.00000000000E+00 -0.18269597882E+04  0.38684788169E+04  0.34098894834E+04 0.  0.
        3    1    3    3  502    0 -0.34490207056E+03 -0.77150356021E+03  0.76642889893E+03  0.11408717934E+04  0.10100000352E+00 0.  1.
       -3    1    3    3    0  502  0.34490207056E+03  0.77150356021E+03 -0.25933886872E+04  0.27276070235E+04  0.10100000352E+00 0. -1.
</event>
<event>
 5   0  0.1435806E-07  0.3411479E+04  0.7818609E-02  0.8135095E-01
       -1   -1    0    0    0  501  0.00000000000E+00  0.00000000000E+00  0.16548864156E+04  0.16548864156E+04  0.50400001928E-02 0. -1.
        1   -1    0    0  501    0  0.00000000000E+00  0.00000000000E+00 -0.17581554090E+04  0.17581554090E+04  0.50400001928E-02 0.  1.
    10030    2    1    2    0    0  0.00000000000E+00  0.00000000000E+00 -0.10326899332E+03  0.34130418246E+04  0.34114791530E+04 0.  0.
        3    1    3    3  502    0  0.11459111402E+04 -0.20264435925E+03 -0.12993506727E+04  0.17442732752E+04  0.10100000352E+00 0.  1.
       -3    1    3    3    0  502 -0.11459111402E+04  0.20264435925E+03  0.11960816794E+04  0.16687685494E+04  0.10100000352E+00 0. -1.
</event>
<event>
 5   0  0.1520084E-07  0.3425362E+04  0.7818609E-02  0.8131710E-01
       -1   -1    0    0    0  501  0.00000000000E+00  0.00000000000E+00  0.84250602478E+03  0.84250602479E+03  0.50400001928E-02 0.  1.
        1   -1    0    0  501    0  0.00000000000E+00  0.00000000000E+00 -0.34816076273E+04  0.34816076273E+04  0.50400001928E-02 0. -1.
    10030    2    1    2    0    0  0.00000000000E+00  0.00000000000E+00 -0.26391016025E+04  0.43241136521E+04  0.34253615295E+04 0.  0.
        2    1    3    3  502    0 -0.80638155594E+02  0.93149538514E+02 -0.34760061787E+04  0.34781889401E+04  0.25500000920E-02 0. -1.
       -2    1    3    3    0  502  0.80638155594E+02 -0.93149538514E+02  0.83690457620E+03  0.84592471198E+03  0.25500000920E-02 0.  1.
</event>
<event>
 5   0  0.4396257E-07  0.3389738E+04  0.7818609E-02  0.8140430E-01
        2   -1    0    0  501    0  0.00000000000E+00  0.00000000000E+00  0.20915954333E+04  0.20915954333E+04  0.25500000920E-02 0. -1.
       -2   -1    0    0    0  501  0.00000000000E+00  0.00000000000E+00 -0.13733918339E+04  0.13733918339E+04  0.25500000920E-02 0.  1.
    10030    2    1    2    0    0  0.00000000000E+00  0.00000000000E+00  0.71820359946E+03  0.34649872672E+04  0.33897375048E+04 0.  0.
        2    1    3    3  502    0  0.87317985390E+03 -0.13742135865E+04  0.84037646642E+03  0.18322496129E+04  0.25500000920E-02 0.  1.
       -2    1    3    3    0  502 -0.87317985390E+03  0.13742135865E+04 -0.12217286696E+03  0.16327376544E+04  0.25500000920E-02 0. -1.
</event>
<event>
 5   0  0.1523259E-07  0.3402414E+04  0.7818609E-02  0.8137314E-01
       -1   -1    0    0    0  501  0.00000000000E+00  0.00000000000E+00  0.11012802559E+04  0.11012802560E+04  0.50400001928E-02 0.  1.
        1   -1    0    0  501    0  0.00000000000E+00  0.00000000000E+00 -0.26279467501E+04  0.26279467501E+04  0.50400001928E-02 0. -1.
    10030    2    1    2    0    0  0.00000000000E+00  0.00000000000E+00 -0.15266664942E+04  0.37292270061E+04  0.34024143602E+04 0.  0.
        4    1    3    3  502    0  0.95836445579E+02  0.11903634211E+04 -0.20913022068E+04  0.24082558484E+04  0.12699999809E+01 0. -1.
       -4    1    3    3    0  502 -0.95836445579E+02 -0.11903634211E+04  0.56463571260E+03  0.13209711577E+04  0.12699999809E+01 0.  1.
</event>
<event>
 5   0  0.4486226E-07  0.3429915E+04  0.7818609E-02  0.8130603E-01
        2   -1    0    0  501    0  0.00000000000E+00  0.00000000000E+00  0.21506762808E+04  0.21506762808E+04  0.25500000920E-02 0. -1.
       -2   -1    0    0    0  501  0.00000000000E+00  0.00000000000E+00 -0.13675135816E+04  0.13675135816E+04  0.25500000920E-02 0.  1.
    10030    2    1    2    0    0  0.00000000000E+00  0.00000000000E+00  0.78316269921E+03  0.35181898625E+04  0.34299148816E+04 0.  0.
        1    1    3    3  502    0  0.30744459379E+03  0.17710927534E+03  0.21126164204E+04  0.21422040084E+04  0.50400001928E-02 0. -1.
       -1    1    3    3    0  502 -0.30744459379E+03 -0.17710927534E+03 -0.13294537212E+04  0.13759858541E+04  0.50400001928E-02 0.  1.
</event>
<event>
 5   0  0.1523259E-07  0.3392245E+04  0.7818609E-02  0.8139812E-01
       -1   -1    0    0    0  501  0.00000000000E+00  0.00000000000E+00  0.14200369066E+04  0.14200369066E+04  0.50400001928E-02 0.  1.
        1   -1    0    0  501    0  0.00000000000E+00  0.00000000000E+00 -0.20258848361E+04  0.20258848361E+04  0.50400001928E-02 0. -1.
    10030    2    1    2    0    0  0.00000000000E+00  0.00000000000E+00 -0.60584792945E+03  0.34459217427E+04  0.33922448236E+04 0.  0.
        4    1    3    3  502    0  0.32602318000E+03  0.38605719644E+03 -0.19476479137E+04  0.20121295389E+04  0.12699999809E+01 0. -1.
       -4    1    3    3    0  502 -0.32602318000E+03 -0.38605719644E+03  0.13417999843E+04  0.14337922037E+04  0.12699999809E+01 0.  1.
</event>
<event>
 5   0  0.1435806E-07  0.3395283E+04  0.7818609E-02  0.8139065E-01
        1   -1    0    0  501    0  0.00000000000E+00  0.00000000000E+00  0.15494242934E+04  0.15494242934E+04  0.50400001928E-02 0.  1.
       -1   -1    0    0    0  501  0.00000000000E+00  0.00000000000E+00 -0.18600373611E+04  0.18600373611E+04  0.50400001928E-02 0. -1.
    10030    2    1    2    0    0  0.00000000000E+00  0.00000000000E+00 -0.31061306767E+03  0.34094616544E+04  0.33952832423E+04 0.  0.
        3    1    3    3  502    0 -0.16928756285E+04 -0.47636141268E+02 -0.36958669525E+02  0.16939489511E+04  0.10100000352E+00 0. -1.
       -3    1    3    3    0  502  0.16928756285E+04  0.47636141268E+02 -0.27365439815E+03  0.17155127033E+04  0.10100000352E+00 0.  1.
</event>
<event>
 5   0  0.1520084E-07  0.3407619E+04  0.7818609E-02  0.8136039E-01
        1   -1    0    0  501    0  0.00000000000E+00  0.00000000000E+00  0.34512444365E+04  0.34512444365E+04  0.50400001928E-02 0. -1.
       -1   -1    0    0    0  501  0.00000000000E+00  0.00000000000E+00 -0.84113638623E+03  0.84113638624E+03  0.50400001928E-02 0.  1.
    10030    2    1    2    0    0  0.00000000000E+00  0.00000000000E+00  0.26101080503E+04  0.42923808228E+04  0.34076192706E+04 0.  0.
        2    1    3    3  502    0  0.11796467287E+04 -0.10976744487E+04  0.60767209547E+03  0.17221268756E+04  0.25500000920E-02 0.  1.
       -2    1    3    3    0  502 -0.11796467287E+04  0.10976744487E+04  0.20024359548E+04  0.25702539472E+04  0.25500000920E-02 0. -1.
</event>
<event>
 5   0  0.4486226E-07  0.3397047E+04  0.7818609E-02  0.8138631E-01
       -2   -1    0    0    0  501  0.00000000000E+00  0.00000000000E+00  0.13031419185E+04  0.13031419185E+04  0.25500000920E-02 0. -1.
        2   -1    0    0  501    0  0.00000000000E+00  0.00000000000E+00 -0.22138663218E+04  0.22138663218E+04  0.25500000920E-02 0.  1.
    10030    2    1    2    0    0  0.00000000000E+00  0.00000000000E+00 -0.91072440334E+03  0.35170082403E+04  0.33970469563E+04 0.  0.
        1    1    3    3  502    0  0.15631748021E+04 -0.46884376032E+03 -0.94278712719E+03  0.18847221282E+04  0.50400001928E-02 0.  1.
       -1    1    3    3    0  502 -0.15631748021E+04  0.46884376032E+03  0.32062723851E+02  0.16322861121E+04  0.50400001928E-02 0. -1.
</event>
<event>
 5   0  0.4447909E-07  0.3399944E+04  0.7818609E-02  0.8137920E-01
       -2   -1    0    0    0  501  0.00000000000E+00  0.00000000000E+00  0.18160223177E+04  0.18160223177E+04  0.25500000920E-02 0.  1.
        2   -1    0    0  501    0  0.00000000000E+00  0.00000000000E+00 -0.15913379230E+04  0.15913379230E+04  0.25500000920E-02 0. -1.
    10030    2    1    2    0    0  0.00000000000E+00  0.00000000000E+00  0.22468439463E+03  0.34073602407E+04  0.33999442249E+04 0.  0.
        5    1    3    3  502    0  0.14995657256E+04  0.50245652299E+03  0.73717881495E+03  0.17448824081E+04  0.46999998093E+01 0.  1.
       -5    1    3    3    0  502 -0.14995657256E+04 -0.50245652299E+03 -0.51249442032E+03  0.16624778326E+04  0.46999998093E+01 0. -1.
</event>
<event>
 5   0  0.1421875E-07  0.3393128E+04  0.7818609E-02  0.8139595E-01
        1   -1    0    0  501    0  0.00000000000E+00  0.00000000000E+00  0.21447822267E+04  0.21447822267E+04  0.50400001928E-02 0. -1.
       -1   -1    0    0    0  501  0.00000000000E+00  0.00000000000E+00 -0.13420148586E+04  0.13420148586E+04  0.50400001928E-02 0.  1.
    10030    2    1    2    0    0  0.00000000000E+00  0.00000000000E+00  0.80276736807E+03  0.34867970853E+04  0.33931281242E+04 0.  0.
        5    1    3    3  502    0  0.50053948420E+02 -0.12095871559E+04  0.16227657760E+04  0.20245980686E+04  0.46999998093E+01 0. -1.
       -5    1    3    3    0  502 -0.50053948420E+02  0.12095871559E+04 -0.81999840797E+03  0.14621990167E+04  0.46999998093E+01 0.  1.
</event>
<event>
 5   0  0.4521737E-07  0.3541442E+04  0.7818609E-02  0.8104038E-01
       -2   -1    0    0    0  501  0.00000000000E+00  0.00000000000E+00  0.12211399802E+04  0.12211399802E+04  0.25500000920E-02 0.  1.
        2   -1    0    0  501    0  0.00000000000E+00  0.00000000000E+00 -0.25676442092E+04  0.25676442092E+04  0.25500000920E-02 0. -1.
    10030    2    1    2    0    0  0.00000000000E+00  0.00000000000E+00 -0.13465042290E+04  0.37887841894E+04  0.35414420785E+04 0.  0.
        4    1    3    3  502    0 -0.91862926137E+02  0.22964995589E+03  0.12025670780E+04  0.12277406442E+04  0.12699999809E+01 0.  1.
       -4    1    3    3    0  502  0.91862926137E+02 -0.22964995589E+03 -0.25490713070E+04  0.25610435452E+04  0.12699999809E+01 0. -1.
</event>
<event>
 5   0  0.1473755E-07  0.3416962E+04  0.7818609E-02  0.8133756E-01
       -1   -1    0    0    0  501  0.00000000000E+00  0.00000000000E+00  0.19433382954E+04  0.19433382954E+04  0.50400001928E-02 0. -1.
        1   -1    0    0  501    0  0.00000000000E+00  0.00000000000E+00 -0.15020068382E+04  0.15020068383E+04  0.50400001928E-02 0.  1.
    10030    2    1    2    0    0  0.00000000000E+00  0.00000000000E+00  0.44133145712E+03  0.34453451336E+04  0.34169620476E+04 0.  0.
        1    1    3    3  502    0  0.16954528929E+04 -0.12084513644E+03  0.46770560136E+02  0.17003974666E+04  0.50400001928E-02 0.  1.
       -1    1    3    3    0  502 -0.16954528929E+04  0.12084513644E+03  0.39456089699E+03  0.17449476670E+04  0.50400001928E-02 0. -1.
</event>
<event>
 5   0  0.1421875E-07  0.3396670E+04  0.7818609E-02  0.8138724E-01
       -1   -1    0    0    0  501  0.00000000000E+00  0.00000000000E+00  0.14554067806E+04  0.14554067806E+04  0.50400001928E-02 0.  1.
        1   -1    0    0  501    0  0.00000000000E+00  0.00000000000E+00 -0.19818110589E+04  0.19818110589E+04  0.50400001928E-02 0. -1.
    10030    2    1    2    0    0  0.00000000000E+00  0.00000000000E+00 -0.52640427828E+03  0.34372178395E+04  0.33966696942E+04 0.  0.
        5    1    3    3  502    0  0.10917816789E+04 -0.17549391082E+03  0.10411904810E+04  0.15188433280E+04  0.46999998093E+01 0.  1.
       -5    1    3    3    0  502 -0.10917816789E+04  0.17549391082E+03 -0.15675947593E+04  0.19183745115E+04  0.46999998093E+01 0. -1.
</event>
<event>
 5   0  0.1520084E-07  0.3457792E+04  0.7818609E-02  0.8123866E-01
       -1   -1    0    0    0  501  0.00000000000E+00  0.00000000000E+00  0.18148660080E+04  0.18148660080E+04  0.50400001928E-02 0. -1.
        1   -1    0    0  501    0  0.00000000000E+00  0.00000000000E+00 -0.16469980547E+04  0.16469980547E+04  0.50400001928E-02 0.  1.
    10030    2    1    2    0    0  0.00000000000E+00  0.00000000000E+00  0.16786795328E+03  0.34618640627E+04  0.34577916564E+04 0.  0.
        2    1    3    3  502    0  0.38536814726E+03  0.10371747040E+04 -0.12461037415E+04  0.16664376707E+04  0.25500000920E-02 0.  1.
       -2    1    3    3    0  502 -0.38536814726E+03 -0.10371747040E+04  0.14139716948E+04  0.17954263921E+04  0.25500000920E-02 0. -1.
</event>
<event>
 5   0  0.1520084E-07  0.3388823E+04  0.7818609E-02  0.8140655E-01
        1   -1    0    0  501    0  0.00000000000E+00  0.00000000000E+00  0.20706278797E+04  0.20706278797E+04  0.50400001928E-02 0. -1.
       -1   -1    0    0    0  501  0.00000000000E+00  0.00000000000E+00 -0.13865502567E+04  0.13865502567E+04  0.50400001928E-02 0.  1.
    10030    2    1    2    0    0  0.00000000000E+00  0.00000000000E+00  0.68407762300E+03  0.34571781364E+04  0.33888225790E+04 0.  0.
        2    1    3    3  502    0 -0.50327707337E+03 -0.99488348451E+03 -0.95960835627E+03  0.14710299649E+04  0.25500000920E-02 0.  1.
       -2    1    3    3    0  502  0.50327707337E+03  0.99488348451E+03  0.16436859793E+04  0.19861481714E+04  0.25500000920E-02 0. -1.
</event>
<event>
 5   0  0.1421875E-07  0.3400919E+04  0.7818609E-02  0.8137681E-01
       -3   -1    0    0    0  501  0.00000000000E+00  0.00000000000E+00  0.12324688759E+04  0.12324688800E+04  0.10100000352E+00 0. -1.
        3   -1    0    0  501    0  0.00000000000E+00  0.00000000000E+00 -0.23461548790E+04  0.23461548811E+04  0.10100000352E+00 0.  1.
    10030    2    1    2    0    0  0.00000000000E+00  0.00000000000E+00 -0.11136860031E+04  0.35786237611E+04  0.34009192155E+04 0.  0.
        2    1    3    3  502    0  0.38087106933E+03 -0.93319984077E+03  0.88425745446E+03  0.13408340539E+04  0.25500000920E-02 0. -1.
       -2    1    3    3    0  502 -0.38087106933E+03  0.93319984077E+03 -0.19979434576E+04  0.22377897072E+04  0.25500000920E-02 0.  1.
</event>
<event>
 5   0  0.1421875E-07  0.3387338E+04  0.7818609E-02  0.8141021E-01
        1   -1    0    0  501    0  0.00000000000E+00  0.00000000000E+00  0.12472461532E+04  0.12472461532E+04  0.50400001928E-02 0.  1.
       -1   -1    0    0    0  501  0.00000000000E+00  0.00000000000E+00 -0.22998779860E+04  0.22998779860E+04  0.50400001928E-02 0. -1.
    10030    2    1    2    0    0  0.00000000000E+00  0.00000000000E+00 -0.10526318328E+04  0.35471241392E+04  0.33873375803E+04 0.  0.
        5    1    3    3  502    0 -0.12750994799E+04 -0.58252981131E+02 -0.16920300904E+04  0.21194952254E+04  0.46999998093E+01 0. -1.
       -5    1    3    3    0  502  0.12750994799E+04  0.58252981131E+02  0.63939825763E+03  0.14276289138E+04  0.46999998093E+01 0.  1.
</event>
<event>
 5   0  0.1520084E-07  0.3404608E+04  0.7818609E-02  0.8136776E-01
       -1   -1    0    0    0  501  0.00000000000E+00  0.00000000000E+00  0.84975849296E+03  0.84975849298E+03  0.50400001928E-02 0.  1.
        1   -1    0    0  501    0  0.00000000000E+00  0.00000000000E+00 -0.34101913843E+04  0.34101913843E+04  0.50400001928E-02 0. -1.
    10030    2    1    2    0    0  0.00000000000E+00  0.00000000000E+00 -0.25604328914E+04  0.42599498773E+04  0.34046081075E+04 0.  0.
        2    1    3    3  502    0  0.69207885948E+03  0.11910424611E+04 -0.25316245919E+04  0.28821308725E+04  0.25500000920E-02 0. -1.
       -2    1    3    3    0  502 -0.69207885948E+03 -0.11910424611E+04 -0.28808299471E+02  0.13778190048E+04  0.25500000920E-02 0.  1.
</event>
<event>
 5   0  0.1520084E-07  0.3386366E+04  0.7818609E-02  0.8141261E-01
        1   -1    0    0  501    0  0.00000000000E+00  0.00000000000E+00  0.29694707725E+04  0.29694707725E+04  0.50400001928E-02 0. -1.
       -1   -1    0    0    0  501  0.00000000000E+00  0.00000000000E+00 -0.96544772903E+03  0.96544772904E+03  0.50400001928E-02 0.  1.
    10030    2    1    2    0    0  0.00000000000E+00  0.00000000000E+00  0.20040230435E+04  0.39349185016E+04  0.33863660840E+04 0.  0.
        2    1    3    3  502    0 -0.13377943169E+04 -0.22121663871E+03  0.21802921585E+04  0.25675483115E+04  0.25500000920E-02 0. -1.
       -2    1    3    3    0  502  0.13377943169E+04  0.22121663871E+03 -0.17626911502E+03  0.13673701900E+04  0.25500000920E-02 0.  1.
</event>
<event>
 5   0  0.1520084E-07  0.3407962E+04  0.7818609E-02  0.8135955E-01
       -1   -1    0    0    0  501  0.00000000000E+00  0.00000000000E+00  0.12598157214E+04  0.12598157214E+04  0.50400001928E-02 0.  1.
        1   -1    0    0  501    0  0.00000000000E+00  0.00000000000E+00 -0.23047428621E+04  0.23047428621E+04  0.50400001928E-02 0. -1.
    10030    2    1    2    0    0  0.00000000000E+00  0.00000000000E+00 -0.10449271406E+04  0.35645585835E+04  0.34079620253E+04 0.  0.
        2    1    3    3  502    0  0.15404576009E+03 -0.16837611481E+04 -0.74377435387E+03  0.18471551070E+04  0.25500000920E-02 0.  1.
       -2    1    3    3    0  502 -0.15404576009E+03  0.16837611481E+04 -0.30115278677E+03  0.17174034765E+04  0.25500000920E-02 0. -1.
</event>
<event>
 5   0  0.4486226E-07  0.3401067E+04  0.7818609E-02  0.8137644E-01
       -2   -1    0    0    0  501  0.00000000000E+00  0.00000000000E+00  0.16624504576E+04  0.16624504576E+04  0.25500000920E-02 0. -1.
        2   -1    0    0  501    0  0.00000000000E+00  0.00000000000E+00 -0.17394894061E+04  0.17394894061E+04  0.25500000920E-02 0.  1.
    10030    2    1    2    0    0  0.00000000000E+00  0.00000000000E+00 -0.77038948508E+02  0.34019398637E+04  0.34010674555E+04 0.  0.
        1    1    3    3  502    0 -0.10469987133E+04  0.13382127697E+04 -0.10778488382E+03  0.17025384882E+04  0.50400001928E-02 0. -1.
       -1    1    3    3    0  502  0.10469987133E+04 -0.13382127697E+04  0.30745935309E+02  0.16994013755E+04  0.50400001928E-02 0.  1.
</event>
<event>
 5   0  0.1421875E-07  0.3379925E+04  0.7818609E-02  0.8142851E-01
       -1   -1    0    0    0  501  0.00000000000E+00  0.00000000000E+00  0.19946633513E+04  0.19946633513E+04  0.50400001928E-02 0. -1.
        1   -1    0    0  501    0  0.00000000000E+00  0.00000000000E+00 -0.14318072612E+04  0.14318072613E+04  0.50400001928E-02 0.  1.
    10030    2    1    2    0    0  0.00000000000E+00  0.00000000000E+00  0.56285609008E+03  0.34264706126E+04  0.33799251295E+04 0.  0.
        5    1    3    3  502    0  0.71992026925E+03 -0.15728016925E+03 -0.12603472936E+04  0.14599724779E+04  0.46999998093E+01 0.  1.
       -5    1    3    3    0  502 -0.71992026925E+03  0.15728016925E+03  0.18232033836E+04  0.19664981347E+04  0.46999998093E+01 0. -1.
</event>
<event>
 5   0  0.1520084E-07  0.3400621E+04  0.7818609E-02  0.8137754E-01
       -1   -1    0    0    0  501  0.00000000000E+00  0.00000000000E+00  0.12971104895E+04  0.12971104895E+04  0.50400001928E-02 0.  1.
        1   -1    0    0  501    0  0.00000000000E+00  0.00000000000E+00 -0.22288426497E+04  0.22288426497E+04  0.50400001928E-02 0. -1.
    10030    2    1    2    0    0  0.00000000000E+00  0.00000000000E+00 -0.93173216017E+03  0.35259531392E+04  0.34006206377E+04 0.  0.
        2    1    3    3  502    0  0.58740719330E+03  0.15941742649E+04 -0.53631417613E+03  0.17815924599E+04  0.25500000920E-02 0. -1.
       -2    1    3    3    0  502 -0.58740719330E+03 -0.15941742649E+04 -0.39541798404E+03  0.17443606793E+04  0.25500000920E-02 0.  1.
</event>
<event>
 5   0  0.1473755E-07  0.3367565E+04  0.7818609E-02  0.8145913E-01
       -1   -1    0    0    0  501  0.00000000000E+00  0.00000000000E+00  0.15835093923E+04  0.15835093923E+04  0.50400001928E-02 0.  1.
        1   -1    0    0  501    0  0.00000000000E+00  0.00000000000E+00 -0.17904053155E+04  0.17904053155E+04  0.50400001928E-02 0. -1.
    10030    2    1    2    0    0  0.00000000000E+00  0.00000000000E+00 -0.20689592316E+03  0.33739147078E+04  0.33675650747E+04 0.  0.
        1    1    3    3  502    0  0.32346718405E+03  0.97493316618E+03  0.12332332757E+04  0.16049890996E+04  0.50400001928E-02 0.  1.
       -1    1    3    3    0  502 -0.32346718405E+03 -0.97493316618E+03 -0.14401291988E+04  0.17689256081E+04  0.50400001928E-02 0. -1.
</event>
<event>
 5   0  0.4447909E-07  0.3391950E+04  0.7818609E-02  0.8139885E-01
        2   -1    0    0  501    0  0.00000000000E+00  0.00000000000E+00  0.28232594501E+04  0.28232594501E+04  0.25500000920E-02 0. -1.
       -2   -1    0    0    0  501  0.00000000000E+00  0.00000000000E+00 -0.10187981015E+04  0.10187981015E+04  0.25500000920E-02 0.  1.
    10030    2    1    2    0    0  0.00000000000E+00  0.00000000000E+00  0.18044613486E+04  0.38420575515E+04  0.33919500985E+04 0.  0.
        5    1    3    3  502    0 -0.52808876836E+03 -0.19505742797E+03  0.27143306226E+04  0.27720999200E+04  0.46999998093E+01 0. -1.
       -5    1    3    3    0  502  0.52808876836E+03  0.19505742797E+03 -0.90986927404E+03  0.10699576316E+04  0.46999998093E+01 0.  1.
</event>
<event>
 5   0  0.4447909E-07  0.3383891E+04  0.7818609E-02  0.8141871E-01
        2   -1    0    0  501    0  0.00000000000E+00  0.00000000000E+00  0.19631187221E+04  0.19631187221E+04  0.25500000920E-02 0.  1.
       -2   -1    0    0    0  501  0.00000000000E+00  0.00000000000E+00 -0.14582303377E+04  0.14582303377E+04  0.25500000920E-02 0. -1.
    10030    2    1    2    0    0  0.00000000000E+00  0.00000000000E+00  0.50488838441E+03  0.34213490598E+04  0.33838908240E+04 0.  0.
        5    1    3    3  502    0  0.16307425526E+04  0.29504708077E+03  0.59722208187E+03  0.17615533934E+04  0.46999998093E+01 0.  1.
       -5    1    3    3    0  502 -0.16307425526E+04 -0.29504708077E+03 -0.92333697451E+02  0.16597956665E+04  0.46999998093E+01 0. -1.
</event>
<event>
 5   0  0.4521737E-07  0.3392697E+04  0.7818609E-02  0.8139701E-01
       -2   -1    0    0    0  501  0.00000000000E+00  0.00000000000E+00  0.12953928737E+04  0.12953928737E+04  0.25500000920E-02 0. -1.
        2   -1    0    0  501    0  0.00000000000E+00  0.00000000000E+00 -0.22214095783E+04  0.22214095783E+04  0.25500000920E-02 0.  1.
    10030    2    1    2    0    0  0.00000000000E+00  0.00000000000E+00 -0.92601670463E+03  0.35168024519E+04  0.33926969433E+04 0.  0.
        4    1    3    3  502    0 -0.22889628825E+03 -0.14509700343E+04  0.41649128896E+03  0.15268183120E+04  0.12699999809E+01 0. -1.
       -4    1    3    3    0  502  0.22889628825E+03  0.14509700343E+04 -0.13425079936E+04  0.19899841399E+04  0.12699999809E+01 0.  1.
</event>
<event>
 5   0  0.1421875E-07  0.3383071E+04  0.7818609E-02  0.8142074E-01
        1   -1    0    0  501    0  0.00000000000E+00  0.00000000000E+00  0.15642133993E+04  0.15642133993E+04  0.50400001928E-02 0.  1.
       -1   -1    0    0    0  501  0.00000000000E+00  0.00000000000E+00 -0.18292208732E+04  0.18292208732E+04  0.50400001928E-02 0. -1.
    10030    2    1    2    0    0  0.00000000000E+00  0.00000000000E+00 -0.26500747393E+03  0.33934342725E+04  0.33830706762E+04 0.  0.
        5    1    3    3  502    0 -0.67608320143E+03 -0.12862774002E+04 -0.10009919307E+04  0.17645410114E+04  0.46999998093E+01 0. -1.
       -5    1    3    3    0  502  0.67608320143E+03  0.12862774002E+04  0.73598445679E+03  0.16288932611E+04  0.46999998093E+01 0.  1.
</event>
<event>
 5   0  0.4396257E-07  0.3403193E+04  0.7818609E-02  0.8137123E-01
        2   -1    0    0  501    0  0.00000000000E+00  0.00000000000E+00  0.21764970303E+04  0.21764970303E+04  0.25500000920E-02 0. -1.
       -2   -1    0    0    0  501  0.00000000000E+00  0.00000000000E+00 -0.13303166196E+04  0.13303166196E+04  0.25500000920E-02 0.  1.
    10030    2    1    2    0    0  0.00000000000E+00  0.00000000000E+00  0.84618041075E+03  0.35068136499E+04  0.34031927198E+04 0.  0.
        2    1    3    3  502    0  0.23016154427E+02  0.14983517415E+03  0.21695249879E+04  0.21748147038E+04  0.25500000920E-02 0. -1.
       -2    1    3    3    0  502 -0.23016154427E+02 -0.14983517415E+03 -0.13233445771E+04  0.13319989462E+04  0.25500000920E-02 0.  1.
</event>
<event>
 5   0  0.1520084E-07  0.3394329E+04  0.7818609E-02  0.8139300E-01
       -1   -1    0    0    0  501  0.00000000000E+00  0.00000000000E+00  0.19292367148E+04  0.19292367148E+04  0.50400001928E-02 0.  1.
        1   -1    0    0  501    0  0.00000000000E+00  0.00000000000E+00 -0.14930085560E+04  0.14930085560E+04  0.50400001928E-02 0. -1.
    10030    2    1    2    0    0  0.00000000000E+00  0.00000000000E+00  0.43622815876E+03  0.34222452708E+04  0.33943287535E+04 0.  0.
        2    1    3    3  502    0 -0.23730867428E+03  0.16199766516E+04  0.66869810997E+03  0.17685578648E+04  0.25500000920E-02 0. -1.
       -2    1    3    3    0  502  0.23730867428E+03 -0.16199766516E+04 -0.23246995121E+03  0.16536874060E+04  0.25500000920E-02 0.  1.
</event>
<event>
 5   0  0.4396257E-07  0.3399011E+04  0.7818609E-02  0.8138149E-01
        2   -1    0    0  501    0  0.00000000000E+00  0.00000000000E+00  0.20606774126E+04  0.20606774126E+04  0.25500000920E-02 0.  1.
       -2   -1    0    0    0  501  0.00000000000E+00  0.00000000000E+00 -0.14016355408E+04  0.14016355408E+04  0.25500000920E-02 0. -1.
    10030    2    1    2    0    0  0.00000000000E+00  0.00000000000E+00  0.65904187179E+03  0.34623129534E+04  0.33990108559E+04 0.  0.
        2    1    3    3  502    0 -0.43668527602E+03  0.71868002831E+03  0.18338883440E+04  0.20175087290E+04  0.25500000920E-02 0.  1.
       -2    1    3    3    0  502  0.43668527602E+03 -0.71868002831E+03 -0.11748464722E+04  0.14448042243E+04  0.25500000920E-02 0. -1.
</event>
<event>
 5   0  0.1421875E-07  0.3410218E+04  0.7818609E-02  0.8135403E-01
       -1   -1    0    0    0  501  0.00000000000E+00  0.00000000000E+00  0.11711893408E+04  0.11711893408E+04  0.50400001928E-02 0.  1.
        1   -1    0    0  501    0  0.00000000000E+00  0.00000000000E+00 -0.24824308364E+04  0.24824308364E+04  0.50400001928E-02 0. -1.
    10030    2    1    2    0    0  0.00000000000E+00  0.00000000000E+00 -0.13112414957E+04  0.36536201772E+04  0.34102179021E+04 0.  0.
        5    1    3    3  502    0 -0.72853671938E+02  0.12271476022E+03  0.11647726484E+04  0.11734922165E+04  0.46999998093E+01 0.  1.
       -5    1    3    3    0  502  0.72853671938E+02 -0.12271476022E+03 -0.24760141440E+04  0.24801279607E+04  0.46999998093E+01 0. -1.
</event>
<event>
 5   0  0.4521737E-07  0.3390255E+04  0.7818609E-02  0.8140302E-01
        2   -1    0    0  501    0  0.00000000000E+00  0.00000000000E+00  0.15323198438E+04  0.15323198438E+04  0.25500000920E-02 0.  1.
       -2   -1    0    0    0  501  0.00000000000E+00  0.00000000000E+00 -0.18752336917E+04  0.18752336917E+04  0.25500000920E-02 0. -1.
    10030    2    1    2    0    0  0.00000000000E+00  0.00000000000E+00 -0.34291384788E+03  0.34075535355E+04  0.33902553282E+04 0.  0.
        4    1    3    3  502    0 -0.12623508125E+04 -0.11258735004E+04 -0.28308878554E+03  0.17150106665E+04  0.12699999809E+01 0.  1.
       -4    1    3    3    0  502  0.12623508125E+04  0.11258735004E+04 -0.59825062341E+02  0.16925428691E+04  0.12699999809E+01 0. -1.
</event>
<event>
 5   0  0.1473755E-07  0.3406080E+04  0.7818609E-02  0.8136416E-01
       -1   -1    0    0    0  501  0.00000000000E+00  0.00000000000E+00  0.12509532459E+04  0.12509532459E+04  0.50400001928E-02 0. -1.
        1   -1    0    0  501    0  0.00000000000E+00  0.00000000000E+00 -0.23185080735E+04  0.23185080735E+04  0.50400001928E-02 0.  1.
    10030    2    1    2    0    0  0.00000000000E+00  0.00000000000E+00 -0.10675548276E+04  0.35694613194E+04  0.34060799757E+04 0.  0.
        1    1    3    3  502    0  0.45883318544E+03  0.12994550299E+04 -0.15823913350E+04  0.20983502100E+04  0.50400001928E-02 0. -1.
       -1    1    3    3    0  502 -0.45883318544E+03 -0.12994550299E+04  0.51483650735E+03  0.14711111094E+04  0.50400001928E-02 0.  1.
</event>
<event>
 5   0  0.1421875E-07  0.3398589E+04  0.7818609E-02  0.8138253E-01
       -1   -1    0    0    0  501  0.00000000000E+00  0.00000000000E+00  0.14568416075E+04  0.14568416076E+04  0.50400001928E-02 0. -1.
        1   -1    0    0  501    0  0.00000000000E+00  0.00000000000E+00 -0.19820978622E+04  0.19820978622E+04  0.50400001928E-02 0.  1.
    10030    2    1    2    0    0  0.00000000000E+00  0.00000000000E+00 -0.52525625463E+03  0.34389394697E+04  0.33985894932E+04 0.  0.
        5    1    3    3  502    0  0.14550796686E+04  0.31575291757E+03 -0.10912669983E+04  0.18460342626E+04  0.46999998093E+01 0.  1.
       -5    1    3    3    0  502 -0.14550796686E+04 -0.31575291757E+03  0.56601074368E+03  0.15929052072E+04  0.46999998093E+01 0. -1.
</event>
<event>
 5   0  0.1473755E-07  0.3327568E+04  0.7818609E-02  0.8155916E-01
       -1   -1    0    0    0  501  0.00000000000E+00  0.00000000000E+00  0.16881604323E+04  0.16881604324E+04  0.50400001928E-02 0.  1.
        1   -1    0    0  501    0  0.00000000000E+00  0.00000000000E+00 -0.16397599792E+04  0.16397599792E+04  0.50400001928E-02 0. -1.
    10030    2    1    2    0    0  0.00000000000E+00  0.00000000000E+00  0.48400453108E+02  0.33279204116E+04  0.33275684309E+04 0.  0.
        1    1    3    3  502    0 -0.13138967449E+04 -0.43687508086E+03 -0.89839039980E+03  0.16505422754E+04  0.50400001928E-02 0. -1.
       -1    1    3    3    0  502  0.13138967449E+04  0.43687508086E+03  0.94679085291E+03  0.16773781362E+04  0.50400001928E-02 0.  1.
</event>
<event>
 5   0  0.4396257E-07  0.3387121E+04  0.7818609E-02  0.8141075E-01
        2   -1    0    0  501    0  0.00000000000E+00  0.00000000000E+00  0.26641413461E+04  0.26641413461E+04  0.25500000920E-02 0.  1.
       -2   -1    0    0    0  501  0.00000000000E+00  0.00000000000E+00 -0.10765746145E+04  0.10765746145E+04  0.25500000920E-02 0. -1.
    10030    2    1    2    0    0  0.00000000000E+00  0.00000000000E+00  0.15875667316E+04  0.37407159606E+04  0.33871208674E+04 0.  0.
        2    1    3    3  502    0  0.36575395458E+03 -0.91710137882E+03  0.23133974233E+04  0.25152849804E+04  0.25500000920E-02 0.  1.
       -2    1    3    3    0  502 -0.36575395458E+03  0.91710137882E+03 -0.72583069168E+03  0.12254309802E+04  0.25500000920E-02 0. -1.
</event>
<event>
 5   0  0.4381939E-07  0.3393777E+04  0.7818609E-02  0.8139435E-01
       -2   -1    0    0    0  501  0.00000000000E+00  0.00000000000E+00  0.14948760341E+04  0.14948760341E+04  0.25500000920E-02 0.  1.
        2   -1    0    0  501    0  0.00000000000E+00  0.00000000000E+00 -0.19262000884E+04  0.19262000884E+04  0.25500000920E-02 0. -1.
    10030    2    1    2    0    0  0.00000000000E+00  0.00000000000E+00 -0.43132405435E+03  0.34210761225E+04  0.33937768630E+04 0.  0.
        3    1    3    3  502    0  0.15758385337E+04 -0.35794577158E+03  0.30622644218E+03  0.16447391598E+04  0.10100000352E+00 0.  1.
       -3    1    3    3    0  502 -0.15758385337E+04  0.35794577158E+03 -0.73755049653E+03  0.17763369627E+04  0.10100000352E+00 0. -1.
</event>
<event>
 5   0  0.1421875E-07  0.3398667E+04  0.7818609E-02  0.8138234E-01
       -1   -1    0    0    0  501  0.00000000000E+00  0.00000000000E+00  0.17700771518E+04  0.17700771518E+04  0.50400001928E-02 0. -1.
        1   -1    0    0  501    0  0.00000000000E+00  0.00000000000E+00 -0.16314173417E+04  0.16314173417E+04  0.50400001928E-02 0.  1.
    10030    2    1    2    0    0  0.00000000000E+00  0.00000000000E+00  0.13865981008E+03  0.34014944935E+04  0.33986671279E+04 0.  0.
        5    1    3    3  502    0  0.33153896801E+03  0.97424659549E+03  0.14227262713E+04  0.17559176089E+04  0.46999998093E+01 0. -1.
       -5    1    3    3    0  502 -0.33153896801E+03 -0.97424659549E+03 -0.12840664612E+04  0.16455768846E+04  0.46999998093E+01 0.  1.
</event>
<event>
 5   0  0.4447909E-07  0.3394857E+04  0.7818609E-02  0.8139170E-01
       -2   -1    0    0    0  501  0.00000000000E+00  0.00000000000E+00  0.13649393276E+04  0.13649393276E+04  0.25500000920E-02 0.  1.
        2   -1    0    0  501    0  0.00000000000E+00  0.00000000000E+00 -0.21109093587E+04  0.21109093587E+04  0.25500000920E-02 0. -1.
    10030    2    1    2    0    0  0.00000000000E+00  0.00000000000E+00 -0.74597003117E+03  0.34758486863E+04  0.33948568162E+04 0.  0.
        5    1    3    3  502    0 -0.14372938835E+04 -0.77686402276E+03  0.98333836982E+02  0.16367721438E+04  0.46999998093E+01 0.  1.
       -5    1    3    3    0  502  0.14372938835E+04  0.77686402276E+03 -0.84430386815E+03  0.18390765425E+04  0.46999998093E+01 0. -1.
</event>
<event>
 5   0  0.4447909E-07  0.3395194E+04  0.7818609E-02  0.8139087E-01
        2   -1    0    0  501    0  0.00000000000E+00  0.00000000000E+00  0.17783422026E+04  0.17783422026E+04  0.25500000920E-02 0. -1.
       -2   -1    0    0    0  501  0.00000000000E+00  0.00000000000E+00 -0.16205179615E+04  0.16205179615E+04  0.25500000920E-02 0.  1.
    10030    2    1    2    0    0  0.00000000000E+00  0.00000000000E+00  0.15782424103E+03  0.33988601641E+04  0.33951939450E+04 0.  0.
        5    1    3    3  502    0 -0.56757615218E+03  0.15759206783E+04 -0.19732917477E+03  0.16866029663E+04  0.46999998093E+01 0. -1.
       -5    1    3    3    0  502  0.56757615218E+03 -0.15759206783E+04  0.35515341579E+03  0.17122571978E+04  0.46999998093E+01 0.  1.
</event>
<event>
 5   0  0.4447909E-07  0.3396736E+04  0.7818609E-02  0.8138708E-01
        2   -1    0    0  501    0  0.00000000000E+00  0.00000000000E+00  0.22015588971E+04  0.22015588971E+04  0.25500000920E-02 0. -1.
       -2   -1    0    0    0  501  0.00000000000E+00  0.00000000000E+00 -0.13101867436E+04  0.13101867436E+04  0.25500000920E-02 0.  1.
    10030    2    1    2    0    0  0.00000000000E+00  0.00000000000E+00  0.89137215350E+03  0.35117456407E+04  0.33967356578E+04 0.  0.
        5    1    3    3  502    0 -0.13992629393E+04 -0.92644038027E+03  0.17568723765E+03  0.16873401100E+04  0.46999998093E+01 0. -1.
       -5    1    3    3    0  502  0.13992629393E+04  0.92644038027E+03  0.71568491586E+03  0.18244055307E+04  0.46999998093E+01 0.  1.
</event>
<event>
 5   0  0.1473755E-07  0.3402737E+04  0.7818609E-02  0.8137235E-01
        1   -1    0    0  501    0  0.00000000000E+00  0.00000000000E+00  0.22517677935E+04  0.22517677936E+04  0.50400001928E-02 0.  1.
       -1   -1    0    0    0  501  0.00000000000E+00  0.00000000000E+00 -0.12855029445E+04  0.12855029445E+04  0.50400001928E-02 0. -1.
    10030    2    1    2    0    0  0.00000000000E+00  0.00000000000E+00  0.96626484906E+03  0.35372707381E+04  0.34027366216E+04 0.  0.
        1    1    3    3  502    0  0.57464071899E+03  0.32755266935E+03  0.21126382845E+04  0.22137622339E+04  0.50400001928E-02 0.  1.
       -1    1    3    3    0  502 -0.57464071899E+03 -0.32755266935E+03 -0.11463734354E+04  0.13235085042E+04  0.50400001928E-02 0. -1.
</event>
<event>
 5   0  0.4521737E-07  0.3390410E+04  0.7818609E-02  0.8140264E-01
       -2   -1    0    0    0  501  0.00000000000E+00  0.00000000000E+00  0.12692786982E+04  0.12692786983E+04  0.25500000920E-02 0. -1.
        2   -1    0    0  501    0  0.00000000000E+00  0.00000000000E+00 -0.22640578027E+04  0.22640578027E+04  0.25500000920E-02 0.  1.
    10030    2    1    2    0    0  0.00000000000E+00  0.00000000000E+00 -0.99477910441E+03  0.35333365009E+04  0.33904102056E+04 0.  0.
        4    1    3    3  502    0 -0.70376113268E+03  0.14539115561E+04  0.38667988174E+02  0.16157460726E+04  0.12699999809E+01 0. -1.
       -4    1    3    3    0  502  0.70376113268E+03 -0.14539115561E+04 -0.10334470926E+04  0.19175904283E+04  0.12699999809E+01 0.  1.
</event>
<event>
 5   0  0.1473755E-07  0.3400240E+04  0.7818609E-02  0.8137847E-01
       -1   -1    0    0    0  501  0.00000000000E+00  0.00000000000E+00  0.13093180850E+04  0.13093180851E+04  0.50400001928E-02 0. -1.
        1   -1    0    0  501    0  0.00000000000E+00  0.00000000000E+00 -0.22075677642E+04  0.22075677642E+04  0.50400001928E-02 0.  1.
    10030    2    1    2    0    0  0.00000000000E+00  0.00000000000E+00 -0.89824967916E+03  0.35168858493E+04  0.34002402254E+04 0.  0.
        1    1    3    3  502    0 -0.82317197526E+03  0.10634899833E+03 -0.19837653347E+04  0.21504062670E+04  0.50400001928E-02 0.  1.
       -1    1    3    3    0  502  0.82317197526E+03 -0.10634899833E+03  0.10855156555E+04  0.13664795822E+04  0.50400001928E-02 0. -1.
</event>
<event>
 5   0  0.1435806E-07  0.3378088E+04  0.7818609E-02  0.8143305E-01
        1   -1    0    0  501    0  0.00000000000E+00  0.00000000000E+00  0.22449240134E+04  0.22449240134E+04  0.50400001928E-02 0. -1.
       -1   -1    0    0    0  501  0.00000000000E+00  0.00000000000E+00 -0.12708091080E+04  0.12708091080E+04  0.50400001928E-02 0.  1.
    10030    2    1    2    0    0  0.00000000000E+00  0.00000000000E+00  0.97411490541E+03  0.35157331214E+04  0.33780881474E+04 0.  0.
        3    1    3    3  502    0 -0.30548237459E+03 -0.95369519700E+03  0.19026316856E+04  0.21500840335E+04  0.10100000352E+00 0. -1.
       -3    1    3    3    0  502  0.30548237459E+03  0.95369519700E+03 -0.92851678016E+03  0.13656490879E+04  0.10100000352E+00 0.  1.
</event>
<event>
 5   0  0.1523259E-07  0.3398797E+04  0.7818609E-02  0.8138202E-01
        1   -1    0    0  501    0  0.00000000000E+00  0.00000000000E+00  0.16547403683E+04  0.16547403683E+04  0.50400001928E-02 0.  1.
       -1   -1    0    0    0  501  0.00000000000E+00  0.00000000000E+00 -0.17452622077E+04  0.17452622077E+04  0.50400001928E-02 0. -1.
    10030    2    1    2    0    0  0.00000000000E+00  0.00000000000E+00 -0.90521839377E+02  0.34000025759E+04  0.33987973333E+04 0.  0.
        4    1    3    3  502    0  0.27406651174E+03  0.14154486976E+04 -0.94521694714E+03  0.17239617625E+04  0.12699999809E+01 0.  1.
       -4    1    3    3    0  502 -0.27406651174E+03 -0.14154486976E+04  0.85469510777E+03  0.16760408135E+04  0.12699999809E+01 0. -1.
</event>
<event>
 5   0  0.4521737E-07  0.3227510E+04  0.7818609E-02  0.8181589E-01
       -2   -1    0    0    0  501  0.00000000000E+00  0.00000000000E+00  0.12706392256E+04  0.12706392256E+04  0.25500000920E-02 0. -1.
        2   -1    0    0  501    0  0.00000000000E+00  0.00000000000E+00 -0.20495237176E+04  0.20495237176E+04  0.25500000920E-02 0.  1.
    10030    2    1    2    0    0  0.00000000000E+00  0.00000000000E+00 -0.77888449203E+03  0.33201629433E+04  0.32275100183E+04 0.  0.
        4    1    3    3  502    0 -0.89278374916E+03 -0.13381871808E+04 -0.52116443516E+03  0.16909824762E+04  0.12699999809E+01 0.  1.
       -4    1    3    3    0  502  0.89278374916E+03  0.13381871808E+04 -0.25772005687E+03  0.16291804670E+04  0.12699999809E+01 0. -1.
</event>
<event>
 5   0  0.1523259E-07  0.3368318E+04  0.7818609E-02  0.8145726E-01
        1   -1    0    0  501    0  0.00000000000E+00  0.00000000000E+00  0.19152026346E+04  0.19152026346E+04  0.50400001928E-02 0.  1.
       -1   -1    0    0    0  501  0.00000000000E+00  0.00000000000E+00 -0.14809880144E+04  0.14809880144E+04  0.50400001928E-02 0. -1.
    10030    2    1    2    0    0  0.00000000000E+00  0.00000000000E+00  0.43421462017E+03  0.33961906490E+04  0.33683183620E+04 0.  0.
        4    1    3    3  502    0  0.72390385451E+03  0.13388896720E+04 -0.50977996429E+03  0.16051602939E+04  0.12699999809E+01 0. -1.
       -4    1    3    3    0  502 -0.72390385451E+03 -0.13388896720E+04  0.94399458445E+03  0.17910303550E+04  0.12699999809E+01 0.  1.
</event>
<event>
 5   0  0.1435806E-07  0.3389675E+04  0.7818609E-02  0.8140445E-01
       -1   -1    0    0    0  501  0.00000000000E+00  0.00000000000E+00  0.15666324101E+04  0.15666324101E+04  0.50400001928E-02 0.  1.
        1   -1    0    0  501    0  0.00000000000E+00  0.00000000000E+00 -0.18335341489E+04  0.18335341489E+04  0.50400001928E-02 0. -1.
    10030    2    1    2    0    0  0.00000000000E+00  0.00000000000E+00 -0.26690173881E+03  0.34001665590E+04  0.33896749241E+04 0.  0.
        3    1    3    3  502    0  0.11844476430E+04  0.99792971015E+03  0.55693377467E+03  0.16458903867E+04  0.10100000352E+00 0.  1.
       -3    1    3    3    0  502 -0.11844476430E+04 -0.99792971015E+03 -0.82383551348E+03  0.17542761724E+04  0.10100000352E+00 0. -1.
</event>
<event>
 5   0  0.4486226E-07  0.3376511E+04  0.7818609E-02  0.8143695E-01
        2   -1    0    0  501    0  0.00000000000E+00  0.00000000000E+00  0.15106727279E+04  0.15106727279E+04  0.25500000920E-02 0. -1.
       -2   -1    0    0    0  501  0.00000000000E+00  0.00000000000E+00 -0.18867137798E+04  0.18867137798E+04  0.25500000920E-02 0.  1.
    10030    2    1    2    0    0  0.00000000000E+00  0.00000000000E+00 -0.37604105183E+03  0.33973865077E+04  0.33765112483E+04 0.  0.
        1    1    3    3  502    0 -0.19500383949E+03 -0.16611395070E+04 -0.41921510740E+03  0.17242831163E+04  0.50400001928E-02 0.  1.
       -1    1    3    3    0  502  0.19500383949E+03  0.16611395070E+04  0.43174055567E+02  0.16731033913E+04  0.50400001928E-02 0. -1.
</event>
<event>
 5   0  0.4447909E-07  0.3394722E+04  0.7818609E-02  0.8139203E-01
        2   -1    0    0  501    0  0.00000000000E+00  0.00000000000E+00  0.15786341344E+04  0.15786341344E+04  0.25500000920E-02 0. -1.
       -2   -1    0    0    0  501  0.00000000000E+00  0.00000000000E+00 -0.18250172942E+04  0.18250172942E+04  0.25500000920E-02 0.  1.
    10030    2    1    2    0    0  0.00000000000E+00  0.00000000000E+00 -0.24638315981E+03  0.34036514286E+04  0.33947221368E+04 0.  0.
        5    1    3    3  502    0  0.13512405419E+04 -0.90979067833E+03  0.35497209918E+03  0.16672124524E+04  0.46999998093E+01 0. -1.
       -5    1    3    3    0  502 -0.13512405419E+04  0.90979067833E+03 -0.60135525900E+03  0.17364389761E+04  0.46999998093E+01 0.  1.
</event>
<event>
 5   0  0.1523259E-07  0.3414239E+04  0.7818609E-02  0.8134420E-01
        1   -1    0    0  501    0  0.00000000000E+00  0.00000000000E+00  0.23211207688E+04  0.23211207688E+04  0.50400001928E-02 0. -1.
       -1   -1    0    0    0  501  0.00000000000E+00  0.00000000000E+00 -0.12555388378E+04  0.12555388378E+04  0.50400001928E-02 0.  1.
    10030    2    1    2    0    0  0.00000000000E+00  0.00000000000E+00  0.10655819310E+04  0.35766596066E+04  0.34142391671E+04 0.  0.
        4    1    3    3  502    0 -0.15466779144E+04  0.60845379581E+03  0.94097712163E+03  0.19099393050E+04  0.12699999809E+01 0. -1.
       -4    1    3    3    0  502  0.15466779144E+04 -0.60845379581E+03  0.12460480937E+03  0.16667203016E+04  0.12699999809E+01 0.  1.
</event>
<event>
 5   0  0.4521737E-07  0.3415127E+04  0.7818609E-02  0.8134204E-01
       -2   -1    0    0    0  501  0.00000000000E+00  0.00000000000E+00  0.12596120991E+04  0.12596120991E+04  0.25500000920E-02 0. -1.
        2   -1    0    0  501    0  0.00000000000E+00  0.00000000000E+00 -0.23148181977E+04  0.23148181977E+04  0.25500000920E-02 0.  1.
    10030    2    1    2    0    0  0.00000000000E+00  0.00000000000E+00 -0.10552060985E+04  0.35744302968E+04  0.34151269430E+04 0.  0.
        4    1    3    3  502    0 -0.16339733233E+04  0.92064462263E+02 -0.17609399696E+02  0.16366601328E+04  0.12699999809E+01 0.  1.
       -4    1    3    3    0  502  0.16339733233E+04 -0.92064462263E+02 -0.10375966988E+04  0.19377701641E+04  0.12699999809E+01 0. -1.
</event>
<event>
 5   0  0.4396257E-07  0.3409903E+04  0.7818609E-02  0.8135480E-01
        2   -1    0    0  501    0  0.00000000000E+00  0.00000000000E+00  0.15648304633E+04  0.15648304633E+04  0.25500000920E-02 0.  1.
       -2   -1    0    0    0  501  0.00000000000E+00  0.00000000000E+00 -0.18576190126E+04  0.18576190126E+04  0.25500000920E-02 0. -1.
    10030    2    1    2    0    0  0.00000000000E+00  0.00000000000E+00 -0.29278854924E+03  0.34224494759E+04  0.34099025324E+04 0.  0.
        2    1    3    3  502    0  0.95928508112E+03  0.14094770894E+04 -0.14870224874E+03  0.17114221838E+04  0.25500000920E-02 0. -1.
       -2    1    3    3    0  502 -0.95928508112E+03 -0.14094770894E+04 -0.14408630050E+03  0.17110272921E+04  0.25500000920E-02 0.  1.
</event>
<event>
 5   0  0.1473755E-07  0.3392506E+04  0.7818609E-02  0.8139748E-01
        1   -1    0    0  501    0  0.00000000000E+00  0.00000000000E+00  0.20057822310E+04  0.20057822310E+04  0.50400001928E-02 0. -1.
       -1   -1    0    0    0  501  0.00000000000E+00  0.00000000000E+00 -0.14344894687E+04  0.14344894688E+04  0.50400001928E-02 0.  1.
    10030    2    1    2    0    0  0.00000000000E+00  0.00000000000E+00  0.57129276226E+03  0.34402716998E+04  0.33925055561E+04 0.  0.
        1    1    3    3  502    0 -0.78571788230E+03  0.13795966882E+04  0.89124304084E+03  0.18207014501E+04  0.50400001928E-02 0.  1.
       -1    1    3    3    0  502  0.78571788230E+03 -0.13795966882E+04 -0.31995027857E+03  0.16195702496E+04  0.50400001928E-02 0. -1.
</event>
<event>
 5   0  0.4396257E-07  0.3373708E+04  0.7818609E-02  0.8144390E-01
       -2   -1    0    0    0  501  0.00000000000E+00  0.00000000000E+00  0.12509208821E+04  0.12509208821E+04  0.25500000920E-02 0.  1.
        2   -1    0    0  501    0  0.00000000000E+00  0.00000000000E+00 -0.22747048302E+04  0.22747048302E+04  0.25500000920E-02 0. -1.
    10030    2    1    2    0    0  0.00000000000E+00  0.00000000000E+00 -0.10237839480E+04  0.35256257123E+04  0.33737076179E+04 0.  0.
        2    1    3    3  502    0  0.11725245431E+04  0.10085205308E+04 -0.12156778362E+04  0.19671807407E+04  0.25500000920E-02 0. -1.
       -2    1    3    3    0  502 -0.11725245431E+04 -0.10085205308E+04  0.19189388815E+03  0.15584449716E+04  0.25500000920E-02 0.  1.
</event>
<event>
 5   0  0.1520084E-07  0.3334464E+04  0.7818609E-02  0.8154181E-01
        1   -1    0    0  501    0  0.00000000000E+00  0.00000000000E+00  0.22494739986E+04  0.22494739986E+04  0.50400001928E-02 0. -1.
       -1   -1    0    0    0  501  0.00000000000E+00  0.00000000000E+00 -0.12356946526E+04  0.12356946526E+04  0.50400001928E-02 0.  1.
    10030    2    1    2    0    0  0.00000000000E+00  0.00000000000E+00  0.10137793460E+04  0.34851686512E+04  0.33344642696E+04 0.  0.
        2    1    3    3  502    0  0.11839313178E+04  0.16326264019E+03  0.17218889498E+04  0.20960080177E+04  0.25500000920E-02 0. -1.
       -2    1    3    3    0  502 -0.11839313178E+04 -0.16326264019E+03 -0.70810960377E+03  0.13891606336E+04  0.25500000920E-02 0.  1.
</event>
<event>
 5   0  0.1473755E-07  0.3392534E+04  0.7818609E-02  0.8139741E-01
       -1   -1    0    0    0  501  0.00000000000E+00  0.00000000000E+00  0.11316253413E+04  0.11316253413E+04  0.50400001928E-02 0. -1.
        1   -1    0    0  501    0  0.00000000000E+00  0.00000000000E+00 -0.25426456515E+04  0.25426456515E+04  0.50400001928E-02 0.  1.
    10030    2    1    2    0    0  0.00000000000E+00  0.00000000000E+00 -0.14110203102E+04  0.36742709928E+04  0.33925343053E+04 0.  0.
        1    1    3    3  502    0 -0.60946650626E+03 -0.14389740921E+03 -0.24128684542E+04  0.24928076669E+04  0.50400001928E-02 0.  1.
       -1    1    3    3    0  502  0.60946650626E+03  0.14389740921E+03  0.10018481440E+04  0.11814633259E+04  0.50400001928E-02 0. -1.
</event>
<event>
 5   0  0.4486226E-07  0.3405936E+04  0.7818609E-02  0.8136451E-01
        2   -1    0    0  501    0  0.00000000000E+00  0.00000000000E+00  0.24293702017E+04  0.24293702017E+04  0.25500000920E-02 0. -1.
       -2   -1    0    0    0  501  0.00000000000E+00  0.00000000000E+00 -0.11937663921E+04  0.11937663921E+04  0.25500000920E-02 0.  1.
    10030    2    1    2    0    0  0.00000000000E+00  0.00000000000E+00  0.12356038096E+04  0.36231365938E+04  0.34059362887E+04 0.  0.
        1    1    3    3  502    0 -0.13691838866E+04 -0.97978679340E+03  0.88995651926E+03  0.19043816010E+04  0.50400001928E-02 0.  1.
       -1    1    3    3    0  502  0.13691838866E+04  0.97978679340E+03  0.34564729034E+03  0.17187549928E+04  0.50400001928E-02 0. -1.
</event>
<event>
 5   0  0.4396257E-07  0.3398932E+04  0.7818609E-02  0.8138169E-01
       -2   -1    0    0    0  501  0.00000000000E+00  0.00000000000E+00  0.25556476771E+04  0.25556476771E+04  0.25500000920E-02 0.  1.
        2   -1    0    0  501    0  0.00000000000E+00  0.00000000000E+00 -0.11301181627E+04  0.11301181627E+04  0.25500000920E-02 0. -1.
    10030    2    1    2    0    0  0.00000000000E+00  0.00000000000E+00  0.14255295144E+04  0.36857658398E+04  0.33989315129E+04 0.  0.
        2    1    3    3  502    0  0.12946064971E+04  0.55583047124E+03 -0.31782207891E+03  0.14442868028E+04  0.25500000920E-02 0. -1.
       -2    1    3    3    0  502 -0.12946064971E+04 -0.55583047124E+03  0.17433515933E+04  0.22414790369E+04  0.25500000920E-02 0.  1.
</event>
<event>
 5   0  0.1473755E-07  0.3389236E+04  0.7818609E-02  0.8140553E-01
        1   -1    0    0  501    0  0.00000000000E+00  0.00000000000E+00  0.22445675064E+04  0.22445675064E+04  0.50400001928E-02 0. -1.
       -1   -1    0    0    0  501  0.00000000000E+00  0.00000000000E+00 -0.12794137361E+04  0.12794137361E+04  0.50400001928E-02 0.  1.
    10030    2    1    2    0    0  0.00000000000E+00  0.00000000000E+00  0.96515377025E+03  0.35239812425E+04  0.33892361967E+04 0.  0.
        1    1    3    3  502    0  0.11800979572E+04  0.10708342437E+04  0.10820517380E+04  0.19261757785E+04  0.50400001928E-02 0. -1.
       -1    1    3    3    0  502 -0.11800979572E+04 -0.10708342437E+04 -0.11689796771E+03  0.15978054640E+04  0.50400001928E-02 0.  1.
</event>
<event>
 5   0  0.1520084E-07  0.3397817E+04  0.7818609E-02  0.8138442E-01
        1   -1    0    0  501    0  0.00000000000E+00  0.00000000000E+00  0.18719505225E+04  0.18719505225E+04  0.50400001928E-02 0. -1.
       -1   -1    0    0    0  501  0.00000000000E+00  0.00000000000E+00 -0.15418622278E+04  0.15418622278E+04  0.50400001928E-02 0.  1.
    10030    2    1    2    0    0  0.00000000000E+00  0.00000000000E+00  0.33008829469E+03  0.34138127504E+04  0.33978168303E+04 0.  0.
        2    1    3    3  502    0  0.67668891460E+03  0.13887113399E+04  0.87538225082E+03  0.17755903688E+04  0.25500000920E-02 0. -1.
       -2    1    3    3    0  502 -0.67668891460E+03 -0.13887113399E+04 -0.54529395613E+03  0.16382223815E+04  0.25500000920E-02 0.  1.
</event>
<event>
 5   0  0.4486226E-07  0.3379358E+04  0.7818609E-02  0.8142991E-01
        2   -1    0    0  501    0  0.00000000000E+00  0.00000000000E+00  0.18503208903E+04  0.18503208903E+04  0.25500000920E-02 0.  1.
       -2   -1    0    0    0  501  0.00000000000E+00  0.00000000000E+00 -0.15429833972E+04  0.15429833972E+04  0.25500000920E-02 0. -1.
    10030    2    1    2    0    0  0.00000000000E+00  0.00000000000E+00  0.30733749311E+03  0.33933042875E+04  0.33793575799E+04 0.  0.
        1    1    3    3  502    0 -0.48782349550E+02  0.24083692728E+03 -0.15249458392E+04  0.15446170903E+04  0.50400001928E-02 0. -1.
       -1    1    3    3    0  502  0.48782349550E+02 -0.24083692728E+03  0.18322833323E+04  0.18486871972E+04  0.50400001928E-02 0.  1.
</event>
<event>
 5   0  0.1520084E-07  0.3379806E+04  0.7818609E-02  0.8142881E-01
        1   -1    0    0  501    0  0.00000000000E+00  0.00000000000E+00  0.15289800893E+04  0.15289800893E+04  0.50400001928E-02 0. -1.
       -1   -1    0    0    0  501  0.00000000000E+00  0.00000000000E+00 -0.18677622809E+04  0.18677622809E+04  0.50400001928E-02 0.  1.
    10030    2    1    2    0    0  0.00000000000E+00  0.00000000000E+00 -0.33878219160E+03  0.33967423702E+04  0.33798055205E+04 0.  0.
        2    1    3    3  502    0 -0.16201093118E+04  0.47437867710E+03 -0.24712224720E+03  0.17061238867E+04  0.25500000920E-02 0.  1.
       -2    1    3    3    0  502  0.16201093118E+04 -0.47437867710E+03 -0.91659944396E+02  0.16906184836E+04  0.25500000920E-02 0. -1.
</event>
<event>
 5   0  0.1435806E-07  0.3381904E+04  0.7818609E-02  0.8142362E-01
       -1   -1    0    0    0  501  0.00000000000E+00  0.00000000000E+00  0.20237021551E+04  0.20237021551E+04  0.50400001928E-02 0.  1.
        1   -1    0    0  501    0  0.00000000000E+00  0.00000000000E+00 -0.14129148125E+04  0.14129148125E+04  0.50400001928E-02 0. -1.
    10030    2    1    2    0    0  0.00000000000E+00  0.00000000000E+00  0.61078734258E+03  0.34366169676E+04  0.33819040501E+04 0.  0.
        3    1    3    3  502    0  0.96261298112E+03  0.71277047014E+03 -0.90750475956E+03  0.15027409602E+04  0.10100000352E+00 0.  1.
       -3    1    3    3    0  502 -0.96261298112E+03 -0.71277047014E+03  0.15182921021E+04  0.19338760074E+04  0.10100000352E+00 0. -1.
</event>
<event>
 5   0  0.4521737E-07  0.3381809E+04  0.7818609E-02  0.8142385E-01
        2   -1    0    0  501    0  0.00000000000E+00  0.00000000000E+00  0.22021585794E+04  0.22021585794E+04  0.25500000920E-02 0.  1.
       -2   -1    0    0    0  501  0.00000000000E+00  0.00000000000E+00 -0.12983432913E+04  0.12983432913E+04  0.25500000920E-02 0. -1.
    10030    2    1    2    0    0  0.00000000000E+00  0.00000000000E+00  0.90381528810E+03  0.35005018707E+04  0.33818088757E+04 0.  0.
        4    1    3    3  502    0 -0.48493654811E+03 -0.37821455210E+02 -0.12243630805E+04  0.13174446796E+04  0.12699999809E+01 0. -1.
       -4    1    3    3    0  502  0.48493654811E+03  0.37821455210E+02  0.21281783686E+04  0.21830571911E+04  0.12699999809E+01 0.  1.
</event>
<event>
 5   0  0.4521737E-07  0.3400378E+04  0.7818609E-02  0.8137814E-01
        2   -1    0    0  501    0  0.00000000000E+00  0.00000000000E+00  0.13340681442E+04  0.13340681442E+04  0.25500000920E-02 0. -1.
       -2   -1    0    0    0  501  0.00000000000E+00  0.00000000000E+00 -0.21667880015E+04  0.21667880015E+04  0.25500000920E-02 0.  1.
    10030    2    1    2    0    0  0.00000000000E+00  0.00000000000E+00 -0.83271985730E+03  0.35008561458E+04  0.34003781249E+04 0.  0.
        4    1    3    3  502    0  0.59961907679E+03 -0.10867834547E+04 -0.16125878174E+04  0.20349649620E+04  0.12699999809E+01 0.  1.
       -4    1    3    3    0  502 -0.59961907679E+03  0.10867834547E+04  0.77986796012E+03  0.14658911838E+04  0.12699999809E+01 0. -1.
</event>
<event>
 5   0  0.4521737E-07  0.3392833E+04  0.7818609E-02  0.8139667E-01
        2   -1    0    0  501    0  0.00000000000E+00  0.00000000000E+00  0.24333439815E+04  0.24333439815E+04  0.25500000920E-02 0. -1.
       -2   -1    0    0    0  501  0.00000000000E+00  0.00000000000E+00 -0.11826645284E+04  0.11826645284E+04  0.25500000920E-02 0.  1.
    10030    2    1    2    0    0  0.00000000000E+00  0.00000000000E+00  0.12506794531E+04  0.36160085099E+04  0.33928333954E+04 0.  0.
        4    1    3    3  502    0  0.92399301022E+03  0.56476435218E+02 -0.88974412966E+03  0.12839777645E+04  0.12699999809E+01 0.  1.
       -4    1    3    3    0  502 -0.92399301022E+03 -0.56476435218E+02  0.21404235828E+04  0.23320307454E+04  0.12699999809E+01 0. -1.
</event>
<event>
 5   0  0.4381939E-07  0.3404109E+04  0.7818609E-02  0.8136899E-01
       -2   -1    0    0    0  501  0.00000000000E+00  0.00000000000E+00  0.10983402649E+04  0.10983402649E+04  0.25500000920E-02 0.  1.
        2   -1    0    0  501    0  0.00000000000E+00  0.00000000000E+00 -0.26376058194E+04  0.26376058194E+04  0.25500000920E-02 0. -1.
    10030    2    1    2    0    0  0.00000000000E+00  0.00000000000E+00 -0.15392655546E+04  0.37359460843E+04  0.34041085026E+04 0.  0.
        3    1    3    3  502    0 -0.14818416844E+04 -0.57296973081E+02  0.14717553183E+03  0.14902343333E+04  0.10100000352E+00 0.  1.
       -3    1    3    3    0  502  0.14818416844E+04  0.57296973081E+02 -0.16864410864E+04  0.22457117510E+04  0.10100000352E+00 0. -1.
</event>
<event>
 5   0  0.1473755E-07  0.3400749E+04  0.7818609E-02  0.8137722E-01
        1   -1    0    0  501    0  0.00000000000E+00  0.00000000000E+00  0.18179332715E+04  0.18179332715E+04  0.50400001928E-02 0. -1.
       -1   -1    0    0    0  501  0.00000000000E+00  0.00000000000E+00 -0.15904180308E+04  0.15904180308E+04  0.50400001928E-02 0.  1.
    10030    2    1    2    0    0  0.00000000000E+00  0.00000000000E+00  0.22751524075E+03  0.34083513024E+04  0.34007492433E+04 0.  0.
        1    1    3    3  502    0  0.11197591372E+04  0.53512166253E+03  0.12787062098E+04  0.17819386325E+04  0.50400001928E-02 0.  1.
       -1    1    3    3    0  502 -0.11197591372E+04 -0.53512166253E+03 -0.10511909691E+04  0.16264126698E+04  0.50400001928E-02 0. -1.
</event>
<event>
 5   0  0.4396257E-07  0.3401754E+04  0.7818609E-02  0.8137476E-01
       -2   -1    0    0    0  501  0.00000000000E+00  0.00000000000E+00  0.20534852569E+04  0.20534852569E+04  0.25500000920E-02 0. -1.
        2   -1    0    0  501    0  0.00000000000E+00  0.00000000000E+00 -0.14088161050E+04  0.14088161050E+04  0.25500000920E-02 0.  1.
    10030    2    1    2    0    0  0.00000000000E+00  0.00000000000E+00  0.64466915193E+03  0.34623013618E+04  0.34017543128E+04 0.  0.
        2    1    3    3  502    0  0.13526017628E+04  0.99265412208E+03  0.37916055922E+02  0.16781928858E+04  0.25500000920E-02 0.  1.
       -2    1    3    3    0  502 -0.13526017628E+04 -0.99265412208E+03  0.60675309601E+03  0.17841084760E+04  0.25500000920E-02 0. -1.
</event>
<event>
 5   0  0.4486226E-07  0.3387200E+04  0.7818609E-02  0.8141055E-01
        2   -1    0    0  501    0  0.00000000000E+00  0.00000000000E+00  0.18067974235E+04  0.18067974235E+04  0.25500000920E-02 0. -1.
       -2   -1    0    0    0  501  0.00000000000E+00  0.00000000000E+00 -0.15874943193E+04  0.15874943193E+04  0.25500000920E-02 0.  1.
    10030    2    1    2    0    0  0.00000000000E+00  0.00000000000E+00  0.21930310417E+03  0.33942917428E+04  0.33871998146E+04 0.  0.
        1    1    3    3  502    0  0.92091234189E+03 -0.17721597243E+03  0.15228508935E+04  0.17884518126E+04  0.50400001928E-02 0. -1.
       -1    1    3    3    0  502 -0.92091234189E+03  0.17721597243E+03 -0.13035477893E+04  0.16058399302E+04  0.50400001928E-02 0.  1.
</event>
<event>
 5   0  0.1520084E-07  0.3400888E+04  0.7818609E-02  0.8137688E-01
        1   -1    0    0  501    0  0.00000000000E+00  0.00000000000E+00  0.27091321984E+04  0.27091321984E+04  0.50400001928E-02 0. -1.
       -1   -1    0    0    0  501  0.00000000000E+00  0.00000000000E+00 -0.10673195502E+04  0.10673195502E+04  0.50400001928E-02 0.  1.
    10030    2    1    2    0    0  0.00000000000E+00  0.00000000000E+00  0.16418126482E+04  0.37764517486E+04  0.34008879778E+04 0.  0.
        2    1    3    3  502    0  0.26386247117E+03  0.16411382866E+04  0.12190411371E+04  0.20613150107E+04  0.25500000920E-02 0. -1.
       -2    1    3    3    0  502 -0.26386247117E+03 -0.16411382866E+04  0.42277151117E+03  0.17151367380E+04  0.25500000920E-02 0.  1.
</event>
<event>
 5   0  0.1520084E-07  0.3400230E+04  0.7818609E-02  0.8137850E-01
        1   -1    0    0  501    0  0.00000000000E+00  0.00000000000E+00  0.17613880522E+04  0.17613880522E+04  0.50400001928E-02 0. -1.
       -1   -1    0    0    0  501  0.00000000000E+00  0.00000000000E+00 -0.16409739103E+04  0.16409739103E+04  0.50400001928E-02 0.  1.
    10030    2    1    2    0    0  0.00000000000E+00  0.00000000000E+00  0.12041414197E+03  0.34023619625E+04  0.34002304861E+04 0.  0.
        2    1    3    3  502    0  0.92052601884E+03 -0.73068640835E+03 -0.11690258916E+04  0.16576767821E+04  0.25500000920E-02 0.  1.
       -2    1    3    3    0  502 -0.92052601884E+03  0.73068640835E+03  0.12894400335E+04  0.17446851804E+04  0.25500000920E-02 0. -1.
</event>
<event>
 5   0  0.4486226E-07  0.3397285E+04  0.7818609E-02  0.8138573E-01
        2   -1    0    0  501    0  0.00000000000E+00  0.00000000000E+00  0.19803571229E+04  0.19803571229E+04  0.25500000920E-02 0.  1.
       -2   -1    0    0    0  501  0.00000000000E+00  0.00000000000E+00 -0.14570027384E+04  0.14570027384E+04  0.25500000920E-02 0. -1.
    10030    2    1    2    0    0  0.00000000000E+00  0.00000000000E+00  0.52335438444E+03  0.34373598613E+04  0.33972846517E+04 0.  0.
        1    1    3    3  502    0  0.16570811120E+04  0.15750406734E+01  0.63953325397E+03  0.17762103129E+04  0.50400001928E-02 0.  1.
       -1    1    3    3    0  502 -0.16570811120E+04 -0.15750406734E+01 -0.11617886953E+03  0.16611495484E+04  0.50400001928E-02 0. -1.
</event>
<event>
 5   0  0.4521737E-07  0.3284869E+04  0.7818609E-02  0.8166756E-01
       -2   -1    0    0    0  501  0.00000000000E+00  0.00000000000E+00  0.18785418878E+04  0.18785418878E+04  0.25500000920E-02 0. -1.
        2   -1    0    0  501    0  0.00000000000E+00  0.00000000000E+00 -0.14360023674E+04  0.14360023674E+04  0.25500000920E-02 0.  1.
    10030    2    1    2    0    0  0.00000000000E+00  0.00000000000E+00  0.44253952036E+03  0.33145442552E+04  0.32848687024E+04 0.  0.
        4    1    3    3  502    0 -0.91599054150E+03 -0.13205863079E+04 -0.12031786244E+03  0.16116652474E+04  0.12699999809E+01 0.  1.
       -4    1    3    3    0  502  0.91599054150E+03  0.13205863079E+04  0.56285738280E+03  0.17028790078E+04  0.12699999809E+01 0. -1.
</event>
<event>
 5   0  0.4521737E-07  0.3397453E+04  0.7818609E-02  0.8138532E-01
       -2   -1    0    0    0  501  0.00000000000E+00  0.00000000000E+00  0.34455600393E+04  0.34455600393E+04  0.25500000920E-02 0.  1.
        2   -1    0    0  501    0  0.00000000000E+00  0.00000000000E+00 -0.83750434177E+03  0.83750434177E+03  0.25500000920E-02 0. -1.
    10030    2    1    2    0    0  0.00000000000E+00  0.00000000000E+00  0.26080556976E+04  0.42830643811E+04  0.33974528652E+04 0.  0.
        4    1    3    3  502    0 -0.14777009032E+04 -0.15535450393E+03  0.26603309656E+03  0.15094734852E+04  0.12699999809E+01 0. -1.
       -4    1    3    3    0  502  0.14777009032E+04  0.15535450393E+03  0.23420226010E+04  0.27735908959E+04  0.12699999809E+01 0.  1.
</event>
<event>
 5   0  0.1435806E-07  0.3389876E+04  0.7818609E-02  0.8140395E-01
        1   -1    0    0  501    0  0.00000000000E+00  0.00000000000E+00  0.22078080551E+04  0.22078080552E+04  0.50400001928E-02 0.  1.
       -1   -1    0    0    0  501  0.00000000000E+00  0.00000000000E+00 -0.13012069754E+04  0.13012069754E+04  0.50400001928E-02 0. -1.
    10030    2    1    2    0    0  0.00000000000E+00  0.00000000000E+00  0.90660107980E+03  0.35090150305E+04  0.33898762465E+04 0.  0.
        3    1    3    3  502    0 -0.46796195177E+03  0.14961075518E+04  0.11205391500E+04  0.19268975561E+04  0.10100000352E+00 0.  1.
       -3    1    3    3    0  502  0.46796195177E+03 -0.14961075518E+04 -0.21393807025E+03  0.15821174744E+04  0.10100000352E+00 0. -1.
</event>
<event>
 5   0  0.1421875E-07  0.3410259E+04  0.7818609E-02  0.8135393E-01
        1   -1    0    0  501    0  0.00000000000E+00  0.00000000000E+00  0.20920502898E+04  0.20920502898E+04  0.50400001928E-02 0. -1.
       -1   -1    0    0    0  501  0.00000000000E+00  0.00000000000E+00 -0.13897689057E+04  0.13897689057E+04  0.50400001928E-02 0.  1.
    10030    2    1    2    0    0  0.00000000000E+00  0.00000000000E+00  0.70228138417E+03  0.34818191955E+04  0.34102589004E+04 0.  0.
        5    1    3    3  502    0 -0.65249956989E+03 -0.16168168455E+03  0.19510414764E+04  0.20636088748E+04  0.46999998093E+01 0. -1.
       -5    1    3    3    0  502  0.65249956989E+03  0.16168168455E+03 -0.12487600922E+04  0.14182103207E+04  0.46999998093E+01 0.  1.
</event>
<event>
 5   0  0.4396257E-07  0.3404733E+04  0.7818609E-02  0.8136746E-01
       -2   -1    0    0    0  501  0.00000000000E+00  0.00000000000E+00  0.19963513304E+04  0.19963513304E+04  0.25500000920E-02 0. -1.
        2   -1    0    0  501    0  0.00000000000E+00  0.00000000000E+00 -0.14516743257E+04  0.14516743257E+04  0.25500000920E-02 0.  1.
    10030    2    1    2    0    0  0.00000000000E+00  0.00000000000E+00  0.54467700474E+03  0.34480256561E+04  0.34047331592E+04 0.  0.
        2    1    3    3  502    0 -0.46458340974E+03 -0.84231820946E+03 -0.11500541503E+04  0.14993205992E+04  0.25500000920E-02 0.  1.
       -2    1    3    3    0  502  0.46458340974E+03  0.84231820946E+03  0.16947311551E+04  0.19487050568E+04  0.25500000920E-02 0. -1.
</event>
<event>
 5   0  0.1520084E-07  0.3360893E+04  0.7818609E-02  0.8147572E-01
       -1   -1    0    0    0  501  0.00000000000E+00  0.00000000000E+00  0.19102449336E+04  0.19102449336E+04  0.50400001928E-02 0.  1.
        1   -1    0    0  501    0  0.00000000000E+00  0.00000000000E+00 -0.14782925446E+04  0.14782925446E+04  0.50400001928E-02 0. -1.
    10030    2    1    2    0    0  0.00000000000E+00  0.00000000000E+00  0.43195238902E+03  0.33885374783E+04  0.33608932407E+04 0.  0.
        2    1    3    3  502    0  0.90141381687E+03  0.10607898164E+04  0.11650364433E+04  0.18152497950E+04  0.25500000920E-02 0.  1.
       -2    1    3    3    0  502 -0.90141381687E+03 -0.10607898164E+04 -0.73308405426E+03  0.15732876833E+04  0.25500000920E-02 0. -1.
</event>
<event>
 5   0  0.1520084E-07  0.3399611E+04  0.7818609E-02  0.8138002E-01
        1   -1    0    0  501    0  0.00000000000E+00  0.00000000000E+00  0.16003400389E+04  0.16003400389E+04  0.50400001928E-02 0. -1.
       -1   -1    0    0    0  501  0.00000000000E+00  0.00000000000E+00 -0.18054528855E+04  0.18054528855E+04  0.50400001928E-02 0.  1.
    10030    2    1    2    0    0  0.00000000000E+00  0.00000000000E+00 -0.20511284665E+03  0.34057929244E+04  0.33996108842E+04 0.  0.
        2    1    3    3  502    0 -0.16726734704E+04  0.28967180410E+03 -0.15264465637E+02  0.16976393305E+04  0.25500000920E-02 0. -1.
       -2    1    3    3    0  502  0.16726734704E+04 -0.28967180410E+03 -0.18984838102E+03  0.17081535939E+04  0.25500000920E-02 0.  1.
</event>
<event>
 5   0  0.1473755E-07  0.3394461E+04  0.7818609E-02  0.8139267E-01
       -1   -1    0    0    0  501  0.00000000000E+00  0.00000000000E+00  0.12495920306E+04  0.12495920306E+04  0.50400001928E-02 0. -1.
        1   -1    0    0  501    0  0.00000000000E+00  0.00000000000E+00 -0.23052254215E+04  0.23052254215E+04  0.50400001928E-02 0.  1.
    10030    2    1    2    0    0  0.00000000000E+00  0.00000000000E+00 -0.10556333908E+04  0.35548174521E+04  0.33944609678E+04 0.  0.
        1    1    3    3  502    0 -0.47569325449E+03  0.11281611007E+04  0.70310754504E+03  0.14118752641E+04  0.50400001928E-02 0. -1.
       -1    1    3    3    0  502  0.47569325449E+03 -0.11281611007E+04 -0.17587409359E+04  0.21429421880E+04  0.50400001928E-02 0.  1.
</event>
<event>
 5   0  0.4396257E-07  0.3403544E+04  0.7818609E-02  0.8137037E-01
       -2   -1    0    0    0  501  0.00000000000E+00  0.00000000000E+00  0.14997774223E+04  0.14997774223E+04  0.25500000920E-02 0. -1.
        2   -1    0    0  501    0  0.00000000000E+00  0.00000000000E+00 -0.19309721625E+04  0.19309721625E+04  0.25500000920E-02 0.  1.
    10030    2    1    2    0    0  0.00000000000E+00  0.00000000000E+00 -0.43119474021E+03  0.34307495849E+04  0.34035443012E+04 0.  0.
        2    1    3    3  502    0  0.45940806446E+03 -0.68613059842E+03  0.12843146591E+04  0.15268579212E+04  0.25500000920E-02 0. -1.
       -2    1    3    3    0  502 -0.45940806446E+03  0.68613059842E+03 -0.17155093993E+04  0.19038916637E+04  0.25500000920E-02 0.  1.
</event>
<event>
 5   0  0.4521737E-07  0.3397788E+04  0.7818609E-02  0.8138449E-01
       -2   -1    0    0    0  501  0.00000000000E+00  0.00000000000E+00  0.17265603658E+04  0.17265603658E+04  0.25500000920E-02 0. -1.
        2   -1    0    0  501    0  0.00000000000E+00  0.00000000000E+00 -0.16716712665E+04  0.16716712665E+04  0.25500000920E-02 0.  1.
    10030    2    1    2    0    0  0.00000000000E+00  0.00000000000E+00  0.54889099250E+02  0.33982316323E+04  0.33977883121E+04 0.  0.
        4    1    3    3  502    0 -0.56593474207E+03  0.14444567774E+04 -0.66510679063E+03  0.16879295512E+04  0.12699999809E+01 0.  1.
       -4    1    3    3    0  502  0.56593474207E+03 -0.14444567774E+04  0.71999588988E+03  0.17103020811E+04  0.12699999809E+01 0. -1.
</event>
<event>
 5   0  0.1435806E-07  0.3395886E+04  0.7818609E-02  0.8138917E-01
        1   -1    0    0  501    0  0.00000000000E+00  0.00000000000E+00  0.13606100501E+04  0.13606100502E+04  0.50400001928E-02 0. -1.
       -1   -1    0    0    0  501  0.00000000000E+00  0.00000000000E+00 -0.21189104654E+04  0.21189104654E+04  0.50400001928E-02 0.  1.
    10030    2    1    2    0    0  0.00000000000E+00  0.00000000000E+00 -0.75830041523E+03  0.34795205155E+04  0.33958862611E+04 0.  0.
        3    1    3    3  502    0 -0.79579001537E+03 -0.14407218195E+04  0.48317166240E+02  0.16466012476E+04  0.10100000352E+00 0.  1.
       -3    1    3    3    0  502  0.79579001537E+03  0.14407218195E+04 -0.80661758147E+03  0.18329192679E+04  0.10100000352E+00 0. -1.
</event>
<event>
 5   0  0.4486226E-07  0.3366742E+04  0.7818609E-02  0.8146118E-01
        2   -1    0    0  501    0  0.00000000000E+00  0.00000000000E+00  0.27960422061E+04  0.27960422061E+04  0.25500000920E-02 0. -1.
       -2   -1    0    0    0  501  0.00000000000E+00  0.00000000000E+00 -0.10134815703E+04  0.10134815703E+04  0.25500000920E-02 0.  1.
    10030    2    1    2    0    0  0.00000000000E+00  0.00000000000E+00  0.17825606359E+04  0.38095237764E+04  0.33667415972E+04 0.  0.
        1    1    3    3  502    0  0.18516370638E+02 -0.15315145673E+03 -0.10054664437E+04  0.10172320257E+04  0.50400001928E-02 0.  1.
       -1    1    3    3    0  502 -0.18516370638E+02  0.15315145673E+03  0.27880270796E+04  0.27922917507E+04  0.50400001928E-02 0. -1.
</event>
<event>
 5   0  0.1520084E-07  0.3407954E+04  0.7818609E-02  0.8135957E-01
       -1   -1    0    0    0  501  0.00000000000E+00  0.00000000000E+00  0.23032708285E+04  0.23032708285E+04  0.50400001928E-02 0.  1.
        1   -1    0    0  501    0  0.00000000000E+00  0.00000000000E+00 -0.12606148756E+04  0.12606148757E+04  0.50400001928E-02 0. -1.
    10030    2    1    2    0    0  0.00000000000E+00  0.00000000000E+00  0.10426559528E+04  0.35638857041E+04  0.34079539134E+04 0.  0.
        2    1    3    3  502    0 -0.10817193749E+04  0.12299803630E+03  0.18921420578E+04  0.21829903549E+04  0.25500000920E-02 0.  1.
       -2    1    3    3    0  502  0.10817193749E+04 -0.12299803630E+03 -0.84948610496E+03  0.13808953492E+04  0.25500000920E-02 0. -1.
</event>
<event>
 5   0  0.1473755E-07  0.3392405E+04  0.7818609E-02  0.8139773E-01
        1   -1    0    0  501    0  0.00000000000E+00  0.00000000000E+00  0.18731070220E+04  0.18731070220E+04  0.50400001928E-02 0. -1.
       -1   -1    0    0    0  501  0.00000000000E+00  0.00000000000E+00 -0.15360059841E+04  0.15360059842E+04  0.50400001928E-02 0.  1.
    10030    2    1    2    0    0  0.00000000000E+00  0.00000000000E+00  0.33710103788E+03  0.34091130062E+04  0.33924053972E+04 0.  0.
        1    1    3    3  502    0  0.19444514852E+03 -0.62806783443E+03  0.17398449929E+04  0.18599297621E+04  0.50400001928E-02 0. -1.
       -1    1    3    3    0  502 -0.19444514852E+03  0.62806783443E+03 -0.14027439550E+04  0.15491832441E+04  0.50400001928E-02 0.  1.
</event>
<event>
 5   0  0.1435806E-07  0.3398111E+04  0.7818609E-02  0.8138370E-01
       -1   -1    0    0    0  501  0.00000000000E+00  0.00000000000E+00  0.12189479379E+04  0.12189479379E+04  0.50400001928E-02 0.  1.
        1   -1    0    0  501    0  0.00000000000E+00  0.00000000000E+00 -0.23682631494E+04  0.23682631494E+04  0.50400001928E-02 0. -1.
    10030    2    1    2    0    0  0.00000000000E+00  0.00000000000E+00 -0.11493152115E+04  0.35872110874E+04  0.33981109355E+04 0.  0.
        3    1    3    3  502    0  0.15628208035E+04  0.65605311598E+03 -0.44986351920E+03  0.17536224653E+04  0.10100000352E+00 0.  1.
       -3    1    3    3    0  502 -0.15628208035E+04 -0.65605311598E+03 -0.69945169231E+03  0.18335886220E+04  0.10100000352E+00 0. -1.
</event>
<event>
 5   0  0.1473755E-07  0.3412906E+04  0.7818609E-02  0.8134746E-01
        1   -1    0    0  501    0  0.00000000000E+00  0.00000000000E+00  0.24342706462E+04  0.24342706462E+04  0.50400001928E-02 0.  1.
       -1   -1    0    0    0  501  0.00000000000E+00  0.00000000000E+00 -0.11962441649E+04  0.11962441649E+04  0.50400001928E-02 0. -1.
    10030    2    1    2    0    0  0.00000000000E+00  0.00000000000E+00  0.12380264814E+04  0.36305148111E+04  0.34129061260E+04 0.  0.
        1    1    3    3  502    0 -0.66551011979E+03 -0.15097259876E+04  0.10824586512E+04  0.19732949624E+04  0.50400001928E-02 0.  1.
       -1    1    3    3    0  502  0.66551011979E+03  0.15097259876E+04  0.15556783023E+03  0.16572198487E+04  0.50400001928E-02 0. -1.
</event>
<event>
 5   0  0.1473755E-07  0.3398170E+04  0.7818609E-02  0.8138356E-01
       -1   -1    0    0    0  501  0.00000000000E+00  0.00000000000E+00  0.13432944481E+04  0.13432944481E+04  0.50400001928E-02 0.  1.
        1   -1    0    0  501    0  0.00000000000E+00  0.00000000000E+00 -0.21491111931E+04  0.21491111931E+04  0.50400001928E-02 0. -1.
    10030    2    1    2    0    0  0.00000000000E+00  0.00000000000E+00 -0.80581674498E+03  0.34924056412E+04  0.33981695861E+04 0.  0.
        1    1    3    3  502    0  0.15978991544E+03 -0.16915540592E+04 -0.40179113621E+03  0.17459450362E+04  0.50400001928E-02 0.  1.
       -1    1    3    3    0  502 -0.15978991544E+03  0.16915540592E+04 -0.40402560877E+03  0.17464606050E+04  0.50400001928E-02 0. -1.
</event>
<event>
 5   0  0.1520084E-07  0.3402073E+04  0.7818609E-02  0.8137398E-01
       -1   -1    0    0    0  501  0.00000000000E+00  0.00000000000E+00  0.23861649371E+04  0.23861649371E+04  0.50400001928E-02 0.  1.
        1   -1    0    0  501    0  0.00000000000E+00  0.00000000000E+00 -0.12126260095E+04  0.12126260095E+04  0.50400001928E-02 0. -1.
    10030    2    1    2    0    0  0.00000000000E+00  0.00000000000E+00  0.11735389276E+04  0.35987909467E+04  0.34020732889E+04 0.  0.
        2    1    3    3  502    0 -0.22157961880E+03 -0.56443162495E+03  0.22679575708E+04  0.23476183953E+04  0.25500000920E-02 0.  1.
       -2    1    3    3    0  502  0.22157961880E+03  0.56443162495E+03 -0.10944186432E+04  0.12511725514E+04  0.25500000920E-02 0. -1.
</event>
<event>
 5   0  0.1473755E-07  0.3399061E+04  0.7818609E-02  0.8138137E-01
       -1   -1    0    0    0  501  0.00000000000E+00  0.00000000000E+00  0.22906047149E+04  0.22906047149E+04  0.50400001928E-02 0.  1.
        1   -1    0    0  501    0  0.00000000000E+00  0.00000000000E+00 -0.12609790253E+04  0.12609790253E+04  0.50400001928E-02 0. -1.
    10030    2    1    2    0    0  0.00000000000E+00  0.00000000000E+00  0.10296256896E+04  0.35515837402E+04  0.33990613415E+04 0.  0.
        1    1    3    3  502    0  0.83178262371E+03 -0.14574199472E+04  0.23353211129E+03  0.16942468777E+04  0.50400001928E-02 0. -1.
       -1    1    3    3    0  502 -0.83178262371E+03  0.14574199472E+04  0.79609357829E+03  0.18573368625E+04  0.50400001928E-02 0.  1.
</event>
<event>
 5   0  0.4396257E-07  0.3415837E+04  0.7818609E-02  0.8134030E-01
        2   -1    0    0  501    0  0.00000000000E+00  0.00000000000E+00  0.26326793742E+04  0.26326793742E+04  0.25500000920E-02 0. -1.
       -2   -1    0    0    0  501  0.00000000000E+00  0.00000000000E+00 -0.11079913086E+04  0.11079913086E+04  0.25500000920E-02 0.  1.
    10030    2    1    2    0    0  0.00000000000E+00  0.00000000000E+00  0.15246880656E+04  0.37406706828E+04  0.34158371536E+04 0.  0.
        2    1    3    3  502    0 -0.15897582814E+04  0.11274540274E+03  0.14346858569E+04  0.21443801965E+04  0.25500000920E-02 0. -1.
       -2    1    3    3    0  502  0.15897582814E+04 -0.11274540274E+03  0.90002208692E+02  0.15962904863E+04  0.25500000920E-02 0.  1.
</event>
<event>
 5   0  0.1520084E-07  0.3407273E+04  0.7818609E-02  0.8136124E-01
        1   -1    0    0  501    0  0.00000000000E+00  0.00000000000E+00  0.15002367732E+04  0.15002367732E+04  0.50400001928E-02 0.  1.
       -1   -1    0    0    0  501  0.00000000000E+00  0.00000000000E+00 -0.19346124034E+04  0.19346124034E+04  0.50400001928E-02 0. -1.
    10030    2    1    2    0    0  0.00000000000E+00  0.00000000000E+00 -0.43437563025E+03  0.34348491766E+04  0.34072726157E+04 0.  0.
        2    1    3    3  502    0 -0.10728148770E+04 -0.52280300224E+03  0.10084324110E+04  0.15624310119E+04  0.25500000920E-02 0.  1.
       -2    1    3    3    0  502  0.10728148770E+04  0.52280300224E+03 -0.14428080412E+04  0.18724181647E+04  0.25500000920E-02 0. -1.
</event>
<event>
 5   0  0.1421875E-07  0.3371578E+04  0.7818609E-02  0.8144917E-01
        1   -1    0    0  501    0  0.00000000000E+00  0.00000000000E+00  0.17341720460E+04  0.17341720460E+04  0.50400001928E-02 0. -1.
       -1   -1    0    0    0  501  0.00000000000E+00  0.00000000000E+00 -0.16387558769E+04  0.16387558769E+04  0.50400001928E-02 0.  1.
    10030    2    1    2    0    0  0.00000000000E+00  0.00000000000E+00  0.95416169073E+02  0.33729279229E+04  0.33715780471E+04 0.  0.
        5    1    3    3  502    0 -0.15196458751E+04  0.33200138183E+03 -0.60240903529E+03  0.16680729118E+04  0.46999998093E+01 0.  1.
       -5    1    3    3    0  502  0.15196458751E+04 -0.33200138183E+03  0.69782520436E+03  0.17048550111E+04  0.46999998093E+01 0. -1.
</event>
<event>
 5   0  0.4486226E-07  0.3402241E+04  0.7818609E-02  0.8137356E-01
       -2   -1    0    0    0  501  0.00000000000E+00  0.00000000000E+00  0.13700308541E+04  0.13700308541E+04  0.25500000920E-02 0.  1.
        2   -1    0    0  501    0  0.00000000000E+00  0.00000000000E+00 -0.21122237642E+04  0.21122237642E+04  0.25500000920E-02 0. -1.
    10030    2    1    2    0    0  0.00000000000E+00  0.00000000000E+00 -0.74219291017E+03  0.34822546183E+04  0.34022414539E+04 0.  0.
        1    1    3    3  502    0  0.16823126928E+04  0.86002481005E+02 -0.12837097886E+03  0.16893938355E+04  0.50400001928E-02 0.  1.
       -1    1    3    3    0  502 -0.16823126928E+04 -0.86002481005E+02 -0.61382193131E+03  0.17928607828E+04  0.50400001928E-02 0. -1.
</event>
<event>
 5   0  0.4486226E-07  0.3338323E+04  0.7818609E-02  0.8153212E-01
        2   -1    0    0  501    0  0.00000000000E+00  0.00000000000E+00  0.31446260642E+04  0.31446260642E+04  0.25500000920E-02 0.  1.
       -2   -1    0    0    0  501  0.00000000000E+00  0.00000000000E+00 -0.88598762856E+03  0.88598762856E+03  0.25500000920E-02 0. -1.
    10030    2    1    2    0    0  0.00000000000E+00  0.00000000000E+00  0.22586384356E+04  0.40306136927E+04  0.33383228060E+04 0.  0.
        1    1    3    3  502    0 -0.88827089219E+03  0.80403185329E+03 -0.27384146623E+03  0.12290164961E+04  0.50400001928E-02 0.  1.
       -1    1    3    3    0  502  0.88827089219E+03 -0.80403185329E+03  0.25324799018E+04  0.28015971966E+04  0.50400001928E-02 0. -1.
</event>
<event>
 5   0  0.4396257E-07  0.3400703E+04  0.7818609E-02  0.8137734E-01
       -2   -1    0    0    0  501  0.00000000000E+00  0.00000000000E+00  0.19117163099E+04  0.19117163099E+04  0.25500000920E-02 0.  1.
        2   -1    0    0  501    0  0.00000000000E+00  0.00000000000E+00 -0.15123553563E+04  0.15123553563E+04  0.25500000920E-02 0. -1.
    10030    2    1    2    0    0  0.00000000000E+00  0.00000000000E+00  0.39936095356E+03  0.34240716662E+04  0.34007025163E+04 0.  0.
        2    1    3    3  502    0 -0.16347830533E+04 -0.16671705056E+03  0.63958577063E+03  0.17633434618E+04  0.25500000920E-02 0.  1.
       -2    1    3    3    0  502  0.16347830533E+04  0.16671705056E+03 -0.24022481707E+03  0.16607282044E+04  0.25500000920E-02 0. -1.
</event>
<event>
 5   0  0.4447909E-07  0.3404073E+04  0.7818609E-02  0.8136907E-01
        2   -1    0    0  501    0  0.00000000000E+00  0.00000000000E+00  0.21196404630E+04  0.21196404630E+04  0.25500000920E-02 0. -1.
       -2   -1    0    0    0  501  0.00000000000E+00  0.00000000000E+00 -0.13667071904E+04  0.13667071904E+04  0.25500000920E-02 0.  1.
    10030    2    1    2    0    0  0.00000000000E+00  0.00000000000E+00  0.75293327267E+03  0.34863476534E+04  0.34040727735E+04 0.  0.
        5    1    3    3  502    0 -0.23960710245E+02  0.67815565576E+03  0.19751019793E+04  0.20884250352E+04  0.46999998093E+01 0. -1.
       -5    1    3    3    0  502  0.23960710245E+02 -0.67815565576E+03 -0.12221687066E+04  0.13979226182E+04  0.46999998093E+01 0.  1.
</event>
<event>
 5   0  0.1523259E-07  0.3404018E+04  0.7818609E-02  0.8136921E-01
       -1   -1    0    0    0  501  0.00000000000E+00  0.00000000000E+00  0.17027933974E+04  0.17027933974E+04  0.50400001928E-02 0.  1.
        1   -1    0    0  501    0  0.00000000000E+00  0.00000000000E+00 -0.17012244864E+04  0.17012244865E+04  0.50400001928E-02 0. -1.
    10030    2    1    2    0    0  0.00000000000E+00  0.00000000000E+00  0.15689109198E+01  0.34040178838E+04  0.34040175223E+04 0.  0.
        4    1    3    3  502    0  0.56802838168E+03 -0.67571224365E+03  0.14559783880E+04  0.17026796404E+04  0.12699999809E+01 0.  1.
       -4    1    3    3    0  502 -0.56802838168E+03  0.67571224365E+03 -0.14544094771E+04  0.17013382434E+04  0.12699999809E+01 0. -1.
</event>
<event>
 5   0  0.4486226E-07  0.3401301E+04  0.7818609E-02  0.8137587E-01
       -2   -1    0    0    0  501  0.00000000000E+00  0.00000000000E+00  0.16943588505E+04  0.16943588505E+04  0.25500000920E-02 0.  1.
        2   -1    0    0  501    0  0.00000000000E+00  0.00000000000E+00 -0.17069654591E+04  0.17069654591E+04  0.25500000920E-02 0. -1.
    10030    2    1    2    0    0  0.00000000000E+00  0.00000000000E+00 -0.12606608562E+02  0.34013243096E+04  0.34013009471E+04 0.  0.
        1    1    3    3  502    0  0.11143730163E+04  0.10719147896E+03  0.12738987558E+04  0.16959172364E+04  0.50400001928E-02 0.  1.
       -1    1    3    3    0  502 -0.11143730163E+04 -0.10719147896E+03 -0.12865053644E+04  0.17054070732E+04  0.50400001928E-02 0. -1.
</event>
<event>
 5   0  0.1473755E-07  0.3410679E+04  0.7818609E-02  0.8135290E-01
        1   -1    0    0  501    0  0.00000000000E+00  0.00000000000E+00  0.15805967483E+04  0.15805967483E+04  0.50400001928E-02 0. -1.
       -1   -1    0    0    0  501  0.00000000000E+00  0.00000000000E+00 -0.18399273632E+04  0.18399273632E+04  0.50400001928E-02 0.  1.
    10030    2    1    2    0    0  0.00000000000E+00  0.00000000000E+00 -0.25933061485E+03  0.34205241115E+04  0.34106792329E+04 0.  0.
        1    1    3    3  502    0 -0.98071465672E+03 -0.62682467517E+03  0.11203162504E+04  0.16154933959E+04  0.50400001928E-02 0. -1.
       -1    1    3    3    0  502  0.98071465672E+03  0.62682467517E+03 -0.13796468652E+04  0.18050307156E+04  0.50400001928E-02 0.  1.
</event>
<event>
 5   0  0.1520084E-07  0.3401962E+04  0.7818609E-02  0.8137425E-01
       -1   -1    0    0    0  501  0.00000000000E+00  0.00000000000E+00  0.14610671198E+04  0.14610671198E+04  0.50400001928E-02 0.  1.
        1   -1    0    0  501    0  0.00000000000E+00  0.00000000000E+00 -0.19802896735E+04  0.19802896735E+04  0.50400001928E-02 0. -1.
    10030    2    1    2    0    0  0.00000000000E+00  0.00000000000E+00 -0.51922255375E+03  0.34413567933E+04  0.34019618632E+04 0.  0.
        2    1    3    3  502    0 -0.54975310724E+03 -0.10156466921E+04 -0.15229000028E+04  0.19112799639E+04  0.25500000920E-02 0. -1.
       -2    1    3    3    0  502  0.54975310724E+03  0.10156466921E+04  0.10036774490E+04  0.15300768294E+04  0.25500000920E-02 0.  1.
</event>
<event>
 5   0  0.1435806E-07  0.3399819E+04  0.7818609E-02  0.8137951E-01
       -1   -1    0    0    0  501  0.00000000000E+00  0.00000000000E+00  0.11959450389E+04  0.11959450389E+04  0.50400001928E-02 0. -1.
        1   -1    0    0  501    0  0.00000000000E+00  0.00000000000E+00 -0.24162419511E+04  0.24162419511E+04  0.50400001928E-02 0.  1.
    10030    2    1    2    0    0  0.00000000000E+00  0.00000000000E+00 -0.12202969121E+04  0.36121869900E+04  0.33998191565E+04 0.  0.
        3    1    3    3  502    0 -0.88001146621E+03  0.12115781975E+04  0.24469029916E+03  0.15173052633E+04  0.10100000352E+00 0. -1.
       -3    1    3    3    0  502  0.88001146621E+03 -0.12115781975E+04 -0.14649872113E+04  0.20948817267E+04  0.10100000352E+00 0.  1.
</event>
<event>
 5   0  0.1421875E-07  0.3392312E+04  0.7818609E-02  0.8139796E-01
       -1   -1    0    0    0  501  0.00000000000E+00  0.00000000000E+00  0.12179615051E+04  0.12179615051E+04  0.50400001928E-02 0.  1.
        1   -1    0    0  501    0  0.00000000000E+00  0.00000000000E+00 -0.23620986284E+04  0.23620986284E+04  0.50400001928E-02 0. -1.
    10030    2    1    2    0    0  0.00000000000E+00  0.00000000000E+00 -0.11441371233E+04  0.35800601335E+04  0.33923120143E+04 0.  0.
        5    1    3    3  502    0  0.40108442637E+03  0.78086077780E+03  0.95956813218E+03  0.13005404114E+04  0.46999998093E+01 0.  1.
       -5    1    3    3    0  502 -0.40108442637E+03 -0.78086077780E+03 -0.21037052555E+04  0.22795197221E+04  0.46999998093E+01 0. -1.
</event>
<event>
 5   0  0.1520084E-07  0.3421912E+04  0.7818609E-02  0.8132549E-01
        1   -1    0    0  501    0  0.00000000000E+00  0.00000000000E+00  0.20147377111E+04  0.20147377111E+04  0.50400001928E-02 0.  1.
       -1   -1    0    0    0  501  0.00000000000E+00  0.00000000000E+00 -0.14529782603E+04  0.14529782603E+04  0.50400001928E-02 0. -1.
    10030    2    1    2    0    0  0.00000000000E+00  0.00000000000E+00  0.56175945077E+03  0.34677159714E+04  0.34219118016E+04 0.  0.
        2    1    3    3  502    0 -0.11103101394E+04  0.72740202865E+03  0.13748986699E+04  0.19110857306E+04  0.25500000920E-02 0.  1.
       -2    1    3    3    0  502  0.11103101394E+04 -0.72740202865E+03 -0.81313921915E+03  0.15566302409E+04  0.25500000920E-02 0. -1.
</event>
<event>
 5   0  0.4486226E-07  0.3393235E+04  0.7818609E-02  0.8139569E-01
       -2   -1    0    0    0  501  0.00000000000E+00  0.00000000000E+00  0.18228391023E+04  0.18228391023E+04  0.25500000920E-02 0.  1.
        2   -1    0    0  501    0  0.00000000000E+00  0.00000000000E+00 -0.15791359844E+04  0.15791359844E+04  0.25500000920E-02 0. -1.
    10030    2    1    2    0    0  0.00000000000E+00  0.00000000000E+00  0.24370311793E+03  0.34019750867E+04  0.33932349286E+04 0.  0.
        1    1    3    3  502    0  0.15585686485E+03 -0.16852974638E+04  0.32594474169E+01  0.16924921056E+04  0.50400001928E-02 0.  1.
       -1    1    3    3    0  502 -0.15585686485E+03  0.16852974638E+04  0.24044367052E+03  0.17094829810E+04  0.50400001928E-02 0. -1.
</event>
<event>
 5   0  0.4381939E-07  0.3399602E+04  0.7818609E-02  0.8138004E-01
        2   -1    0    0  501    0  0.00000000000E+00  0.00000000000E+00  0.12067897932E+04  0.12067897932E+04  0.25500000920E-02 0.  1.
       -2   -1    0    0    0  501  0.00000000000E+00  0.00000000000E+00 -0.23942227317E+04  0.23942227317E+04  0.25500000920E-02 0. -1.
    10030    2    1    2    0    0  0.00000000000E+00  0.00000000000E+00 -0.11874329384E+04  0.36010125249E+04  0.33996020681E+04 0.  0.
        3    1    3    3  502    0  0.10270519953E+03  0.77963800736E+03  0.10025278130E+04  0.12741451278E+04  0.10100000352E+00 0.  1.
       -3    1    3    3    0  502 -0.10270519953E+03 -0.77963800736E+03 -0.21899607515E+04  0.23268673971E+04  0.10100000352E+00 0. -1.
</event>
<event>
 5   0  0.1473755E-07  0.3400695E+04  0.7818609E-02  0.8137736E-01
        1   -1    0    0  501    0  0.00000000000E+00  0.00000000000E+00  0.17756820861E+04  0.17756820861E+04  0.50400001928E-02 0. -1.
       -1   -1    0    0    0  501  0.00000000000E+00  0.00000000000E+00 -0.16282095144E+04  0.16282095145E+04  0.50400001928E-02 0.  1.
    10030    2    1    2    0    0  0.00000000000E+00  0.00000000000E+00  0.14747257160E+03  0.34038916005E+04  0.34006954978E+04 0.  0.
        1    1    3    3  502    0  0.13324260804E+04  0.10493751426E+04 -0.47352688073E+02  0.16966996572E+04  0.50400001928E-02 0.  1.
       -1    1    3    3    0  502 -0.13324260804E+04 -0.10493751426E+04  0.19482525968E+03  0.17071919433E+04  0.50400001928E-02 0. -1.
</event>
<event>
 5   0  0.1520084E-07  0.3395312E+04  0.7818609E-02  0.8139058E-01
        1   -1    0    0  501    0  0.00000000000E+00  0.00000000000E+00  0.16095264882E+04  0.16095264882E+04  0.50400001928E-02 0. -1.
       -1   -1    0    0    0  501  0.00000000000E+00  0.00000000000E+00 -0.17906111592E+04  0.17906111592E+04  0.50400001928E-02 0.  1.
    10030    2    1    2    0    0  0.00000000000E+00  0.00000000000E+00 -0.18108467095E+03  0.34001376474E+04  0.33953121158E+04 0.  0.
        2    1    3    3  502    0 -0.85763509293E+03 -0.38128595620E+03 -0.15071620147E+04  0.17755152130E+04  0.25500000920E-02 0.  1.
       -2    1    3    3    0  502  0.85763509293E+03  0.38128595620E+03  0.13260773437E+04  0.16246224345E+04  0.25500000920E-02 0. -1.
</event>
<event>
 5   0  0.1473755E-07  0.3389798E+04  0.7818609E-02  0.8140415E-01
        1   -1    0    0  501    0  0.00000000000E+00  0.00000000000E+00  0.21305456331E+04  0.21305456331E+04  0.50400001928E-02 0.  1.
       -1   -1    0    0    0  501  0.00000000000E+00  0.00000000000E+00 -0.13483320843E+04  0.13483320843E+04  0.50400001928E-02 0. -1.
    10030    2    1    2    0    0  0.00000000000E+00  0.00000000000E+00  0.78221354873E+03  0.34788777174E+04  0.33897982443E+04 0.  0.
        1    1    3    3  502    0  0.99247303241E+03  0.33073234931E+02 -0.10185184790E+04  0.14224895258E+04  0.50400001928E-02 0. -1.
       -1    1    3    3    0  502 -0.99247303241E+03 -0.33073234931E+02  0.18007320277E+04  0.20563881916E+04  0.50400001928E-02 0.  1.
</event>
<event>
 5   0  0.1523259E-07  0.3406179E+04  0.7818609E-02  0.8136392E-01
       -1   -1    0    0    0  501  0.00000000000E+00  0.00000000000E+00  0.18868395484E+04  0.18868395484E+04  0.50400001928E-02 0. -1.
        1   -1    0    0  501    0  0.00000000000E+00  0.00000000000E+00 -0.15372335752E+04  0.15372335753E+04  0.50400001928E-02 0.  1.
    10030    2    1    2    0    0  0.00000000000E+00  0.00000000000E+00  0.34960597311E+03  0.34240731236E+04  0.34061785654E+04 0.  0.
        4    1    3    3  502    0  0.10246685192E+04  0.13483805990E+04 -0.62422527845E+01  0.16935514142E+04  0.12699999809E+01 0.  1.
       -4    1    3    3    0  502 -0.10246685192E+04 -0.13483805990E+04  0.35584822590E+03  0.17305217094E+04  0.12699999809E+01 0. -1.
</event>
<event>
 5   0  0.1435806E-07  0.3455381E+04  0.7818609E-02  0.8124446E-01
       -1   -1    0    0    0  501  0.00000000000E+00  0.00000000000E+00  0.17105381909E+04  0.17105381909E+04  0.50400001928E-02 0.  1.
        1   -1    0    0  501    0  0.00000000000E+00  0.00000000000E+00 -0.17450143595E+04  0.17450143595E+04  0.50400001928E-02 0. -1.
    10030    2    1    2    0    0  0.00000000000E+00  0.00000000000E+00 -0.34476168592E+02  0.34555525503E+04  0.34553805611E+04 0.  0.
        3    1    3    3  502    0 -0.75503281904E+03 -0.74939557037E+03  0.13441692424E+04  0.17141934667E+04  0.10100000352E+00 0.  1.
       -3    1    3    3    0  502  0.75503281904E+03  0.74939557037E+03 -0.13786454110E+04  0.17413590837E+04  0.10100000352E+00 0. -1.
</event>
<event>
 5   0  0.4486226E-07  0.3400252E+04  0.7818609E-02  0.8137845E-01
        2   -1    0    0  501    0  0.00000000000E+00  0.00000000000E+00  0.16178726377E+04  0.16178726377E+04  0.25500000920E-02 0.  1.
       -2   -1    0    0    0  501  0.00000000000E+00  0.00000000000E+00 -0.17865609570E+04  0.17865609570E+04  0.25500000920E-02 0. -1.
    10030    2    1    2    0    0  0.00000000000E+00  0.00000000000E+00 -0.16868831935E+03  0.34044335947E+04  0.34002518071E+04 0.  0.
        1    1    3    3  502    0 -0.13119740897E+04 -0.63485449397E+03  0.79201045221E+03  0.16587937778E+04  0.50400001928E-02 0.  1.
       -1    1    3    3    0  502  0.13119740897E+04  0.63485449397E+03 -0.96069877156E+03  0.17456398169E+04  0.50400001928E-02 0. -1.
</event>
<event>
 5   0  0.1421875E-07  0.3400396E+04  0.7818609E-02  0.8137809E-01
        1   -1    0    0  501    0  0.00000000000E+00  0.00000000000E+00  0.18503963776E+04  0.18503963776E+04  0.50400001928E-02 0. -1.
       -1   -1    0    0    0  501  0.00000000000E+00  0.00000000000E+00 -0.15621912893E+04  0.15621912894E+04  0.50400001928E-02 0.  1.
    10030    2    1    2    0    0  0.00000000000E+00  0.00000000000E+00  0.28820508825E+03  0.34125876670E+04  0.34003959199E+04 0.  0.
        5    1    3    3  502    0 -0.48945636567E+03 -0.10532384357E+04  0.13902356860E+04  0.18115341810E+04  0.46999998093E+01 0. -1.
       -5    1    3    3    0  502  0.48945636567E+03  0.10532384357E+04 -0.11020305977E+04  0.16010534859E+04  0.46999998093E+01 0.  1.
</event>
<event>
 5   0  0.4396257E-07  0.3395033E+04  0.7818609E-02  0.8139127E-01
        2   -1    0    0  501    0  0.00000000000E+00  0.00000000000E+00  0.19064711477E+04  0.19064711477E+04  0.25500000920E-02 0.  1.
       -2   -1    0    0    0  501  0.00000000000E+00  0.00000000000E+00 -0.15114634716E+04  0.15114634716E+04  0.25500000920E-02 0. -1.
    10030    2    1    2    0    0  0.00000000000E+00  0.00000000000E+00  0.39500767610E+03  0.34179346192E+04  0.33950325473E+04 0.  0.
        2    1    3    3  502    0 -0.34269739990E+03 -0.15874347698E+04 -0.29996594949E+03  0.16514751670E+04  0.25500000920E-02 0.  1.
       -2    1    3    3    0  502  0.34269739990E+03  0.15874347698E+04  0.69497362559E+03  0.17664594523E+04  0.25500000920E-02 0. -1.
</event>
<event>
 5   0  0.1523259E-07  0.3483267E+04  0.7818609E-02  0.8117767E-01
        1   -1    0    0  501    0  0.00000000000E+00  0.00000000000E+00  0.26331185312E+04  0.26331185312E+04  0.50400001928E-02 0.  1.
       -1   -1    0    0    0  501  0.00000000000E+00  0.00000000000E+00 -0.11519752162E+04  0.11519752162E+04  0.50400001928E-02 0. -1.
    10030    2    1    2    0    0  0.00000000000E+00  0.00000000000E+00  0.14811433150E+04  0.37850937474E+04  0.34832670235E+04 0.  0.
        4    1    3    3  502    0  0.92265080271E+03  0.31761032678E+03  0.23081849590E+04  0.25059689227E+04  0.12699999809E+01 0.  1.
       -4    1    3    3    0  502 -0.92265080271E+03 -0.31761032678E+03 -0.82704164400E+03  0.12791248247E+04  0.12699999809E+01 0. -1.
</event>
<event>
 5   0  0.4381939E-07  0.3398476E+04  0.7818609E-02  0.8138281E-01
        2   -1    0    0  501    0  0.00000000000E+00  0.00000000000E+00  0.14720466891E+04  0.14720466891E+04  0.25500000920E-02 0.  1.
       -2   -1    0    0    0  501  0.00000000000E+00  0.00000000000E+00 -0.19614929150E+04  0.19614929150E+04  0.25500000920E-02 0. -1.
    10030    2    1    2    0    0  0.00000000000E+00  0.00000000000E+00 -0.48944622586E+03  0.34335396041E+04  0.33984756296E+04 0.  0.
        3    1    3    3  502    0  0.10927722553E+04 -0.12270123168E+04  0.19298898376E+03  0.16543745603E+04  0.10100000352E+00 0.  1.
       -3    1    3    3    0  502 -0.10927722553E+04  0.12270123168E+04 -0.68243520962E+03  0.17791650438E+04  0.10100000352E+00 0. -1.
</event>
<event>
 5   0  0.1473755E-07  0.3346310E+04  0.7818609E-02  0.8151211E-01
        1   -1    0    0  501    0  0.00000000000E+00  0.00000000000E+00  0.15480438243E+04  0.15480438243E+04  0.50400001928E-02 0.  1.
       -1   -1    0    0    0  501  0.00000000000E+00  0.00000000000E+00 -0.18083772563E+04  0.18083772563E+04  0.50400001928E-02 0. -1.
    10030    2    1    2    0    0  0.00000000000E+00  0.00000000000E+00 -0.26033343202E+03  0.33564210806E+04  0.33463097547E+04 0.  0.
        1    1    3    3  502    0 -0.64098848777E+03  0.13476380770E+04  0.62872545524E+03  0.16193487352E+04  0.50400001928E-02 0.  1.
       -1    1    3    3    0  502  0.64098848777E+03 -0.13476380770E+04 -0.88905888726E+03  0.17370723454E+04  0.50400001928E-02 0. -1.
</event>
<event>
 5   0  0.4381939E-07  0.3399685E+04  0.7818609E-02  0.8137984E-01
        2   -1    0    0  501    0  0.00000000000E+00  0.00000000000E+00  0.23611444449E+04  0.23611444449E+04  0.25500000920E-02 0.  1.
       -2   -1    0    0    0  501  0.00000000000E+00  0.00000000000E+00 -0.12237559487E+04  0.12237559487E+04  0.25500000920E-02 0. -1.
    10030    2    1    2    0    0  0.00000000000E+00  0.00000000000E+00  0.11373884963E+04  0.35849003936E+04  0.33996850208E+04 0.  0.
        3    1    3    3  502    0 -0.14569734844E+04  0.48331187606E+03 -0.20122246837E+03  0.15481771849E+04  0.10100000352E+00 0. -1.
       -3    1    3    3    0  502  0.14569734844E+04 -0.48331187606E+03  0.13386109646E+04  0.20367232087E+04  0.10100000352E+00 0.  1.
</event>
<event>
 5   0  0.1421875E-07  0.3404353E+04  0.7818609E-02  0.8136839E-01
        1   -1    0    0  501    0  0.00000000000E+00  0.00000000000E+00  0.26958518998E+04  0.26958518998E+04  0.50400001928E-02 0.  1.
       -1   -1    0    0    0  501  0.00000000000E+00  0.00000000000E+00 -0.10747638258E+04  0.10747638258E+04  0.50400001928E-02 0. -1.
    10030    2    1    2    0    0  0.00000000000E+00  0.00000000000E+00  0.16210880740E+04  0.37706157257E+04  0.34043525679E+04 0.  0.
        5    1    3    3  502    0  0.10151995717E+04  0.51067989876E+03 -0.59306068036E+03  0.12818608310E+04  0.46999998093E+01 0. -1.
       -5    1    3    3    0  502 -0.10151995717E+04 -0.51067989876E+03  0.22141487544E+04  0.24887548947E+04  0.46999998093E+01 0.  1.
</event>
<event>
 5   0  0.1421875E-07  0.3397550E+04  0.7818609E-02  0.8138508E-01
        1   -1    0    0  501    0  0.00000000000E+00  0.00000000000E+00  0.26510353822E+04  0.26510353822E+04  0.50400001928E-02 0. -1.
       -1   -1    0    0    0  501  0.00000000000E+00  0.00000000000E+00 -0.10885694595E+04  0.10885694595E+04  0.50400001928E-02 0.  1.
    10030    2    1    2    0    0  0.00000000000E+00  0.00000000000E+00  0.15624659227E+04  0.37396048417E+04  0.33975497955E+04 0.  0.
        5    1    3    3  502    0  0.65203433892E+03 -0.15659481978E+04  0.88254025305E+03  0.19121302062E+04  0.46999998093E+01 0. -1.
       -5    1    3    3    0  502 -0.65203433892E+03  0.15659481978E+04  0.67992566962E+03  0.18274746355E+04  0.46999998093E+01 0.  1.
</event>
<event>
 5   0  0.1435806E-07  0.3385997E+04  0.7818609E-02  0.8141352E-01
        1   -1    0    0  501    0  0.00000000000E+00  0.00000000000E+00  0.13545120348E+04  0.13545120348E+04  0.50400001928E-02 0. -1.
       -1   -1    0    0    0  501  0.00000000000E+00  0.00000000000E+00 -0.21160713385E+04  0.21160713385E+04  0.50400001928E-02 0.  1.
    10030    2    1    2    0    0  0.00000000000E+00  0.00000000000E+00 -0.76155930371E+03  0.34705833733E+04  0.33859971025E+04 0.  0.
        3    1    3    3  502    0  0.25656052153E+03 -0.14747800257E+04  0.42982733704E+03  0.15574180477E+04  0.10100000352E+00 0. -1.
       -3    1    3    3    0  502 -0.25656052153E+03  0.14747800257E+04 -0.11913866407E+04  0.19131653256E+04  0.10100000352E+00 0.  1.
</event>
<event>
 5   0  0.4447909E-07  0.3388550E+04  0.7818609E-02  0.8140722E-01
        2   -1    0    0  501    0  0.00000000000E+00  0.00000000000E+00  0.14064590279E+04  0.14064590279E+04  0.25500000920E-02 0. -1.
       -2   -1    0    0    0  501  0.00000000000E+00  0.00000000000E+00 -0.20409892805E+04  0.20409892805E+04  0.25500000920E-02 0.  1.
    10030    2    1    2    0    0  0.00000000000E+00  0.00000000000E+00 -0.63453025261E+03  0.34474483084E+04  0.33885500141E+04 0.  0.
        5    1    3    3  502    0  0.58127997425E+03 -0.15877189009E+04 -0.42781847503E+03  0.17440723764E+04  0.46999998093E+01 0.  1.
       -5    1    3    3    0  502 -0.58127997425E+03  0.15877189009E+04 -0.20671177758E+03  0.17033759320E+04  0.46999998093E+01 0. -1.
</event>
<event>
 5   0  0.4486226E-07  0.3304025E+04  0.7818609E-02  0.8161872E-01
       -2   -1    0    0    0  501  0.00000000000E+00  0.00000000000E+00  0.18898700268E+04  0.18898700268E+04  0.25500000920E-02 0.  1.
        2   -1    0    0  501    0  0.00000000000E+00  0.00000000000E+00 -0.14440917061E+04  0.14440917061E+04  0.25500000920E-02 0. -1.
    10030    2    1    2    0    0  0.00000000000E+00  0.00000000000E+00  0.44577832068E+03  0.33339617328E+04  0.33040252004E+04 0.  0.
        1    1    3    3  502    0 -0.11712182187E+03 -0.13755065357E+04  0.11385302985E+04  0.17894096768E+04  0.50400001928E-02 0.  1.
       -1    1    3    3    0  502  0.11712182187E+03  0.13755065357E+04 -0.69275197778E+03  0.15445520560E+04  0.50400001928E-02 0. -1.
</event>
<event>
 5   0  0.4486226E-07  0.3415725E+04  0.7818609E-02  0.8134058E-01
       -2   -1    0    0    0  501  0.00000000000E+00  0.00000000000E+00  0.13194916229E+04  0.13194916229E+04  0.25500000920E-02 0.  1.
        2   -1    0    0  501    0  0.00000000000E+00  0.00000000000E+00 -0.22105439636E+04  0.22105439636E+04  0.25500000920E-02 0. -1.
    10030    2    1    2    0    0  0.00000000000E+00  0.00000000000E+00 -0.89105234069E+03  0.35300355866E+04  0.34157249550E+04 0.  0.
        1    1    3    3  502    0  0.34963601974E+03 -0.62008476789E+03 -0.20499114052E+04  0.21699970587E+04  0.50400001928E-02 0. -1.
       -1    1    3    3    0  502 -0.34963601974E+03  0.62008476789E+03  0.11588590645E+04  0.13600385278E+04  0.50400001928E-02 0.  1.
</event>
<event>
 5   0  0.1520084E-07  0.3345518E+04  0.7818609E-02  0.8151409E-01
       -1   -1    0    0    0  501  0.00000000000E+00  0.00000000000E+00  0.11304226436E+04  0.11304226436E+04  0.50400001928E-02 0. -1.
        1   -1    0    0  501    0  0.00000000000E+00  0.00000000000E+00 -0.24752884959E+04  0.24752884959E+04  0.50400001928E-02 0.  1.
    10030    2    1    2    0    0  0.00000000000E+00  0.00000000000E+00 -0.13448658523E+04  0.36057111395E+04  0.33455176970E+04 0.  0.
        2    1    3    3  502    0  0.40605782067E+03  0.63506752057E+03 -0.22818665299E+04  0.24031455573E+04  0.25500000920E-02 0.  1.
       -2    1    3    3    0  502 -0.40605782067E+03 -0.63506752057E+03  0.93700067765E+03  0.12025655821E+04  0.25500000920E-02 0. -1.
</event>
<event>
 5   0  0.1520084E-07  0.3408626E+04  0.7818609E-02  0.8135792E-01
       -1   -1    0    0    0  501  0.00000000000E+00  0.00000000000E+00  0.19519948084E+04  0.19519948084E+04  0.50400001928E-02 0. -1.
        1   -1    0    0  501    0  0.00000000000E+00  0.00000000000E+00 -0.14880586203E+04  0.14880586203E+04  0.50400001928E-02 0.  1.
    10030    2    1    2    0    0  0.00000000000E+00  0.00000000000E+00  0.46393618808E+03  0.34400534287E+04  0.34086259410E+04 0.  0.
        2    1    3    3  502    0  0.85296516431E+03  0.24419870254E+03  0.17005479443E+04  0.19180839108E+04  0.25500000920E-02 0. -1.
       -2    1    3    3    0  502 -0.85296516431E+03 -0.24419870254E+03 -0.12366117562E+04  0.15219695179E+04  0.25500000920E-02 0.  1.
</event>
<event>
 5   0  0.4396257E-07  0.3436880E+04  0.7818609E-02  0.8128914E-01
       -2   -1    0    0    0  501  0.00000000000E+00  0.00000000000E+00  0.15062334114E+04  0.15062334114E+04  0.25500000920E-02 0. -1.
        2   -1    0    0  501    0  0.00000000000E+00  0.00000000000E+00 -0.19605429269E+04  0.19605429269E+04  0.25500000920E-02 0.  1.
    10030    2    1    2    0    0  0.00000000000E+00  0.00000000000E+00 -0.45430951551E+03  0.34667763382E+04  0.34368795503E+04 0.  0.
        2    1    3    3  502    0 -0.93300850235E+03  0.88303379637E+03  0.92416865954E+03  0.15825110623E+04  0.25500000920E-02 0. -1.
       -2    1    3    3    0  502  0.93300850235E+03 -0.88303379637E+03 -0.13784781750E+04  0.18842652759E+04  0.25500000920E-02 0.  1.
</event>
<event>
 5   0  0.1421875E-07  0.3405753E+04  0.7818609E-02  0.8136496E-01
        1   -1    0    0  501    0  0.00000000000E+00  0.00000000000E+00  0.19923760670E+04  0.19923760670E+04  0.50400001928E-02 0. -1.
       -1   -1    0    0    0  501  0.00000000000E+00  0.00000000000E+00 -0.14554418740E+04  0.14554418740E+04  0.50400001928E-02 0.  1.
    10030    2    1    2    0    0  0.00000000000E+00  0.00000000000E+00  0.53693419298E+03  0.34478179409E+04  0.34057525198E+04 0.  0.
        5    1    3    3  502    0  0.67630740865E+03  0.63208785912E+03 -0.11784654192E+04  0.14985758595E+04  0.46999998093E+01 0.  1.
       -5    1    3    3    0  502 -0.67630740865E+03 -0.63208785912E+03  0.17153996121E+04  0.19492420814E+04  0.46999998093E+01 0. -1.
</event>
<event>
 5   0  0.1523259E-07  0.3404584E+04  0.7818609E-02  0.8136782E-01
        1   -1    0    0  501    0  0.00000000000E+00  0.00000000000E+00  0.23401427519E+04  0.23401427519E+04  0.50400001928E-02 0. -1.
       -1   -1    0    0    0  501  0.00000000000E+00  0.00000000000E+00 -0.12382997444E+04  0.12382997444E+04  0.50400001928E-02 0.  1.
    10030    2    1    2    0    0  0.00000000000E+00  0.00000000000E+00  0.11018430075E+04  0.35784424964E+04  0.34045840695E+04 0.  0.
        4    1    3    3  502    0  0.85281998916E+03  0.95840559246E+03 -0.62512380131E+03  0.14271035679E+04  0.12699999809E+01 0.  1.
       -4    1    3    3    0  502 -0.85281998916E+03 -0.95840559246E+03  0.17269668088E+04  0.21513389285E+04  0.12699999809E+01 0. -1.
</event>
<event>
 5   0  0.1435806E-07  0.3216236E+04  0.7818609E-02  0.8184542E-01
        1   -1    0    0  501    0  0.00000000000E+00  0.00000000000E+00  0.17740504288E+04  0.17740504288E+04  0.50400001928E-02 0.  1.
       -1   -1    0    0    0  501  0.00000000000E+00  0.00000000000E+00 -0.14577054660E+04  0.14577054660E+04  0.50400001928E-02 0. -1.
    10030    2    1    2    0    0  0.00000000000E+00  0.00000000000E+00  0.31634496275E+03  0.32317558948E+04  0.32162356922E+04 0.  0.
        3    1    3    3  502    0 -0.23149504038E+03 -0.25245296162E+03  0.17369707741E+04  0.17704208347E+04  0.10100000352E+00 0.  1.
       -3    1    3    3    0  502  0.23149504038E+03  0.25245296162E+03 -0.14206258114E+04  0.14613350601E+04  0.10100000352E+00 0. -1.
</event>
<event>
 5   0  0.1421875E-07  0.3400849E+04  0.7818609E-02  0.8137698E-01
        1   -1    0    0  501    0  0.00000000000E+00  0.00000000000E+00  0.19278307767E+04  0.19278307767E+04  0.50400001928E-02 0. -1.
       -1   -1    0    0    0  501  0.00000000000E+00  0.00000000000E+00 -0.14998428195E+04  0.14998428195E+04  0.50400001928E-02 0.  1.
    10030    2    1    2    0    0  0.00000000000E+00  0.00000000000E+00  0.42798795722E+03  0.34276735962E+04  0.34008488044E+04 0.  0.
        5    1    3    3  502    0 -0.89188098529E+03 -0.11955121254E+03  0.16681760749E+04  0.18954096367E+04  0.46999998093E+01 0. -1.
       -5    1    3    3    0  502  0.89188098529E+03  0.11955121254E+03 -0.12401881176E+04  0.15322639595E+04  0.46999998093E+01 0.  1.
</event>
<event>
 5   0  0.4396257E-07  0.3373597E+04  0.7818609E-02  0.8144417E-01
        2   -1    0    0  501    0  0.00000000000E+00  0.00000000000E+00  0.20501054630E+04  0.20501054630E+04  0.25500000920E-02 0. -1.
       -2   -1    0    0    0  501  0.00000000000E+00  0.00000000000E+00 -0.13878748009E+04  0.13878748009E+04  0.25500000920E-02 0.  1.
    10030    2    1    2    0    0  0.00000000000E+00  0.00000000000E+00  0.66223066218E+03  0.34379802639E+04  0.33735973152E+04 0.  0.
        2    1    3    3  502    0  0.65680594882E+03  0.47609418663E+03  0.18382683997E+04  0.20093009825E+04  0.25500000920E-02 0. -1.
       -2    1    3    3    0  502 -0.65680594882E+03 -0.47609418663E+03 -0.11760377375E+04  0.14286792814E+04  0.25500000920E-02 0.  1.
</event>
<event>
 5   0  0.4396257E-07  0.3390210E+04  0.7818609E-02  0.8140313E-01
        2   -1    0    0  501    0  0.00000000000E+00  0.00000000000E+00  0.13532426500E+04  0.13532426500E+04  0.25500000920E-02 0. -1.
       -2   -1    0    0    0  501  0.00000000000E+00  0.00000000000E+00 -0.21233295656E+04  0.21233295656E+04  0.25500000920E-02 0.  1.
    10030    2    1    2    0    0  0.00000000000E+00  0.00000000000E+00 -0.77008691565E+03  0.34765722156E+04  0.33902095086E+04 0.  0.
        2    1    3    3  502    0 -0.12892353886E+04 -0.10502829320E+04 -0.47791834865E+02  0.16635823346E+04  0.25500000920E-02 0. -1.
       -2    1    3    3    0  502  0.12892353886E+04  0.10502829320E+04 -0.72229508079E+03  0.18129898809E+04  0.25500000920E-02 0.  1.
</event>
<event>
 5   0  0.1523259E-07  0.3397379E+04  0.7818609E-02  0.8138550E-01
       -1   -1    0    0    0  501  0.00000000000E+00  0.00000000000E+00  0.14376997776E+04  0.14376997776E+04  0.50400001928E-02 0. -1.
        1   -1    0    0  501    0  0.00000000000E+00  0.00000000000E+00 -0.20070576850E+04  0.20070576850E+04  0.50400001928E-02 0.  1.
    10030    2    1    2    0    0  0.00000000000E+00  0.00000000000E+00 -0.56935790740E+03  0.34447574626E+04  0.33973792178E+04 0.  0.
        4    1    3    3  502    0 -0.14447114501E+04 -0.59287632923E+03  0.39311254382E+03  0.16103517010E+04  0.12699999809E+01 0. -1.
       -4    1    3    3    0  502  0.14447114501E+04  0.59287632923E+03 -0.96247045122E+03  0.18344057616E+04  0.12699999809E+01 0.  1.
</event>
<event>
 5   0  0.1435806E-07  0.3398513E+04  0.7818609E-02  0.8138271E-01
        1   -1    0    0  501    0  0.00000000000E+00  0.00000000000E+00  0.20722907091E+04  0.20722907091E+04  0.50400001928E-02 0.  1.
       -1   -1    0    0    0  501  0.00000000000E+00  0.00000000000E+00 -0.13933726460E+04  0.13933726460E+04  0.50400001928E-02 0. -1.
    10030    2    1    2    0    0  0.00000000000E+00  0.00000000000E+00  0.67891806307E+03  0.34656633551E+04  0.33985133153E+04 0.  0.
        3    1    3    3  502    0  0.12130784045E+04  0.27560566546E+03 -0.84097734154E+03  0.15015860273E+04  0.10100000352E+00 0. -1.
       -3    1    3    3    0  502 -0.12130784045E+04 -0.27560566546E+03  0.15198954046E+04  0.19640773278E+04  0.10100000352E+00 0.  1.
</event>
<event>
 5   0  0.1473755E-07  0.3337577E+04  0.7818609E-02  0.8153399E-01
       -1   -1    0    0    0  501  0.00000000000E+00  0.00000000000E+00  0.17927597258E+04  0.17927597258E+04  0.50400001928E-02 0.  1.
        1   -1    0    0  501    0  0.00000000000E+00  0.00000000000E+00 -0.15533901929E+04  0.15533901929E+04  0.50400001928E-02 0. -1.
    10030    2    1    2    0    0  0.00000000000E+00  0.00000000000E+00  0.23936953288E+03  0.33461499188E+04  0.33375771910E+04 0.  0.
        1    1    3    3  502    0  0.74100136150E+03  0.97683495890E+03 -0.10152856313E+04  0.15918839367E+04  0.50400001928E-02 0. -1.
       -1    1    3    3    0  502 -0.74100136150E+03 -0.97683495890E+03  0.12546551642E+04  0.17542659821E+04  0.50400001928E-02 0.  1.
</event>
<event>
 5   0  0.1421875E-07  0.3401613E+04  0.7818609E-02  0.8137511E-01
        1   -1    0    0  501    0  0.00000000000E+00  0.00000000000E+00  0.14724924943E+04  0.14724924943E+04  0.50400001928E-02 0. -1.
       -1   -1    0    0    0  501  0.00000000000E+00  0.00000000000E+00 -0.19645208725E+04  0.19645208725E+04  0.50400001928E-02 0.  1.
    10030    2    1    2    0    0  0.00000000000E+00  0.00000000000E+00 -0.49202837820E+03  0.34370133668E+04  0.34016126996E+04 0.  0.
        5    1    3    3  502    0 -0.62339537168E+03 -0.12197486587E+04 -0.12646285428E+04  0.18643272302E+04  0.46999998093E+01 0.  1.
       -5    1    3    3    0  502  0.62339537168E+03  0.12197486587E+04  0.77260016465E+03  0.15726861366E+04  0.46999998093E+01 0. -1.
</event>
<event>
 5   0  0.4486226E-07  0.3399958E+04  0.7818609E-02  0.8137917E-01
       -2   -1    0    0    0  501  0.00000000000E+00  0.00000000000E+00  0.20927377948E+04  0.20927377948E+04  0.25500000920E-02 0. -1.
        2   -1    0    0  501    0  0.00000000000E+00  0.00000000000E+00 -0.13809322717E+04  0.13809322717E+04  0.25500000920E-02 0.  1.
    10030    2    1    2    0    0  0.00000000000E+00  0.00000000000E+00  0.71180552312E+03  0.34736700664E+04  0.33999583273E+04 0.  0.
        1    1    3    3  502    0 -0.94604534520E+02  0.30162507128E+03  0.20624455706E+04  0.20865304774E+04  0.50400001928E-02 0. -1.
       -1    1    3    3    0  502  0.94604534520E+02 -0.30162507128E+03 -0.13506400475E+04  0.13871395890E+04  0.50400001928E-02 0.  1.
</event>
<event>
 5   0  0.4381939E-07  0.3402280E+04  0.7818609E-02  0.8137347E-01
       -2   -1    0    0    0  501  0.00000000000E+00  0.00000000000E+00  0.12982937269E+04  0.12982937269E+04  0.25500000920E-02 0.  1.
        2   -1    0    0  501    0  0.00000000000E+00  0.00000000000E+00 -0.22289853132E+04  0.22289853132E+04  0.25500000920E-02 0. -1.
    10030    2    1    2    0    0  0.00000000000E+00  0.00000000000E+00 -0.93069158629E+03  0.35272790400E+04  0.34022802056E+04 0.  0.
        3    1    3    3  502    0  0.46353592602E+03  0.52952703085E+03 -0.20709919703E+04  0.21872979181E+04  0.10100000352E+00 0. -1.
       -3    1    3    3    0  502 -0.46353592602E+03 -0.52952703085E+03  0.11403003840E+04  0.13399811219E+04  0.10100000352E+00 0.  1.
</event>
<event>
 5   0  0.4486226E-07  0.3395355E+04  0.7818609E-02  0.8139047E-01
       -2   -1    0    0    0  501  0.00000000000E+00  0.00000000000E+00  0.12757138718E+04  0.12757138718E+04  0.25500000920E-02 0. -1.
        2   -1    0    0  501    0  0.00000000000E+00  0.00000000000E+00 -0.22592131921E+04  0.22592131921E+04  0.25500000920E-02 0.  1.
    10030    2    1    2    0    0  0.00000000000E+00  0.00000000000E+00 -0.98349932030E+03  0.35349270639E+04  0.33953554208E+04 0.  0.
        1    1    3    3  502    0  0.74424242616E+03  0.88139059232E+02  0.10941685707E+04  0.13262240172E+04  0.50400001928E-02 0. -1.
       -1    1    3    3    0  502 -0.74424242616E+03 -0.88139059232E+02 -0.20776678910E+04  0.22087030466E+04  0.50400001928E-02 0.  1.
</event>
<event>
 5   0  0.4381939E-07  0.3419430E+04  0.7818609E-02  0.8133154E-01
        2   -1    0    0  501    0  0.00000000000E+00  0.00000000000E+00  0.17139140992E+04  0.17139140992E+04  0.25500000920E-02 0.  1.
       -2   -1    0    0    0  501  0.00000000000E+00  0.00000000000E+00 -0.17055259328E+04  0.17055259328E+04  0.25500000920E-02 0. -1.
    10030    2    1    2    0    0  0.00000000000E+00  0.00000000000E+00  0.83881663901E+01  0.34194400319E+04  0.34194297435E+04 0.  0.
        3    1    3    3  502    0 -0.65025350881E+03 -0.11516449215E+04 -0.10793262656E+04  0.17070620518E+04  0.10100000352E+00 0. -1.
       -3    1    3    3    0  502  0.65025350881E+03  0.11516449215E+04  0.10877144320E+04  0.17123779801E+04  0.10100000352E+00 0.  1.
</event>
<event>
 5   0  0.4447909E-07  0.3405841E+04  0.7818609E-02  0.8136474E-01
       -2   -1    0    0    0  501  0.00000000000E+00  0.00000000000E+00  0.21604249531E+04  0.21604249531E+04  0.25500000920E-02 0. -1.
        2   -1    0    0  501    0  0.00000000000E+00  0.00000000000E+00 -0.13423002607E+04  0.13423002607E+04  0.25500000920E-02 0.  1.
    10030    2    1    2    0    0  0.00000000000E+00  0.00000000000E+00  0.81812469244E+03  0.35027252138E+04  0.34058414395E+04 0.  0.
        5    1    3    3  502    0 -0.96618863675E+03  0.26289729023E+02 -0.10328565814E+04  0.14145764170E+04  0.46999998093E+01 0.  1.
       -5    1    3    3    0  502  0.96618863675E+03 -0.26289729023E+02  0.18509812739E+04  0.20881487969E+04  0.46999998093E+01 0. -1.
</event>
<event>
 5   0  0.1520084E-07  0.3397192E+04  0.7818609E-02  0.8138596E-01
       -1   -1    0    0    0  501  0.00000000000E+00  0.00000000000E+00  0.25964182871E+04  0.25964182871E+04  0.50400001928E-02 0. -1.
        1   -1    0    0  501    0  0.00000000000E+00  0.00000000000E+00 -0.11112342606E+04  0.11112342606E+04  0.50400001928E-02 0.  1.
    10030    2    1    2    0    0  0.00000000000E+00  0.00000000000E+00  0.14851840266E+04  0.37076525477E+04  0.33971923439E+04 0.  0.
        2    1    3    3  502    0 -0.45101913245E+03 -0.16013366178E+04  0.11167512441E+04  0.20037042103E+04  0.25500000920E-02 0.  1.
       -2    1    3    3    0  502  0.45101913245E+03  0.16013366178E+04  0.36843278250E+03  0.17039483374E+04  0.25500000920E-02 0. -1.
</event>
<event>
 5   0  0.1435806E-07  0.3411117E+04  0.7818609E-02  0.8135183E-01
       -1   -1    0    0    0  501  0.00000000000E+00  0.00000000000E+00  0.24766332974E+04  0.24766332974E+04  0.50400001928E-02 0.  1.
        1   -1    0    0  501    0  0.00000000000E+00  0.00000000000E+00 -0.11745503922E+04  0.11745503922E+04  0.50400001928E-02 0. -1.
    10030    2    1    2    0    0  0.00000000000E+00  0.00000000000E+00  0.13020829052E+04  0.36511836895E+04  0.34111174771E+04 0.  0.
        3    1    3    3  502    0 -0.12233622403E+04 -0.35560911672E+03  0.18648031874E+04  0.22584428159E+04  0.10100000352E+00 0.  1.
       -3    1    3    3    0  502  0.12233622403E+04  0.35560911672E+03 -0.56272028218E+03  0.13927408736E+04  0.10100000352E+00 0. -1.
</event>
<event>
 5   0  0.4486226E-07  0.3397665E+04  0.7818609E-02  0.8138480E-01
        2   -1    0    0  501    0  0.00000000000E+00  0.00000000000E+00  0.21261625392E+04  0.21261625392E+04  0.25500000920E-02 0. -1.
       -2   -1    0    0    0  501  0.00000000000E+00  0.00000000000E+00 -0.13573896694E+04  0.13573896694E+04  0.25500000920E-02 0.  1.
    10030    2    1    2    0    0  0.00000000000E+00  0.00000000000E+00  0.76877286983E+03  0.34835522086E+04  0.33976645310E+04 0.  0.
        1    1    3    3  502    0  0.51997369137E+03 -0.16138728704E+04  0.27649915299E+03  0.17179668400E+04  0.50400001928E-02 0. -1.
       -1    1    3    3    0  502 -0.51997369137E+03  0.16138728704E+04  0.49227371684E+03  0.17655853686E+04  0.50400001928E-02 0.  1.
</event>
<event>
 5   0  0.1435806E-07  0.3394165E+04  0.7818609E-02  0.8139340E-01
        1   -1    0    0  501    0  0.00000000000E+00  0.00000000000E+00  0.97982343366E+03  0.97982343367E+03  0.50400001928E-02 0. -1.
       -1   -1    0    0    0  501  0.00000000000E+00  0.00000000000E+00 -0.29393959930E+04  0.29393959930E+04  0.50400001928E-02 0.  1.
    10030    2    1    2    0    0  0.00000000000E+00  0.00000000000E+00 -0.19595725593E+04  0.39192194267E+04  0.33941650371E+04 0.  0.
        3    1    3    3  502    0 -0.14255451886E+04  0.27823359848E+03  0.33779245770E+02  0.14528365592E+04  0.10100000352E+00 0. -1.
       -3    1    3    3    0  502  0.14255451886E+04 -0.27823359848E+03 -0.19933518051E+04  0.24663828675E+04  0.10100000352E+00 0.  1.
</event>
<event>
 5   0  0.1520084E-07  0.3407827E+04  0.7818609E-02  0.8135988E-01
        1   -1    0    0  501    0  0.00000000000E+00  0.00000000000E+00  0.22076775018E+04  0.22076775018E+04  0.50400001928E-02 0. -1.
       -1   -1    0    0    0  501  0.00000000000E+00  0.00000000000E+00 -0.13151021635E+04  0.13151021635E+04  0.50400001928E-02 0.  1.
    10030    2    1    2    0    0  0.00000000000E+00  0.00000000000E+00  0.89257533830E+03  0.35227796652E+04  0.34078271428E+04 0.  0.
        2    1    3    3  502    0  0.46063683832E+03  0.41928617373E+03  0.20857663616E+04  0.21767885767E+04  0.25500000920E-02 0. -1.
       -2    1    3    3    0  502 -0.46063683832E+03 -0.41928617373E+03 -0.11931910233E+04  0.13459910885E+04  0.25500000920E-02 0.  1.
</event>
<event>
 5   0  0.1523259E-07  0.3407496E+04  0.7818609E-02  0.8136069E-01
        1   -1    0    0  501    0  0.00000000000E+00  0.00000000000E+00  0.26645109265E+04  0.26645109265E+04  0.50400001928E-02 0.  1.
       -1   -1    0    0    0  501  0.00000000000E+00  0.00000000000E+00 -0.10894143472E+04  0.10894143472E+04  0.50400001928E-02 0. -1.
    10030    2    1    2    0    0  0.00000000000E+00  0.00000000000E+00  0.15750965793E+04  0.37539252737E+04  0.34074955211E+04 0.  0.
        4    1    3    3  502    0 -0.55302920107E+03  0.59581773042E+03  0.24370769929E+04  0.25690827054E+04  0.12699999809E+01 0.  1.
       -4    1    3    3    0  502  0.55302920107E+03 -0.59581773042E+03 -0.86198041361E+03  0.11848425682E+04  0.12699999809E+01 0. -1.
</event>
<event>
 5   0  0.4521737E-07  0.3398252E+04  0.7818609E-02  0.8138336E-01
       -2   -1    0    0    0  501  0.00000000000E+00  0.00000000000E+00  0.11497992719E+04  0.11497992719E+04  0.25500000920E-02 0.  1.
        2   -1    0    0  501    0  0.00000000000E+00  0.00000000000E+00 -0.25108977584E+04  0.25108977584E+04  0.25500000920E-02 0. -1.
    10030    2    1    2    0    0  0.00000000000E+00  0.00000000000E+00 -0.13610984865E+04  0.36606970302E+04  0.33982515588E+04 0.  0.
        4    1    3    3  502    0 -0.59309078880E+03  0.12836955980E+04  0.33421914385E+03  0.14530433996E+04  0.12699999809E+01 0.  1.
       -4    1    3    3    0  502  0.59309078880E+03 -0.12836955980E+04 -0.16953176303E+04  0.22076536306E+04  0.12699999809E+01 0. -1.
</event>
<event>
 5   0  0.1421875E-07  0.3372536E+04  0.7818609E-02  0.8144680E-01
        3   -1    0    0  501    0  0.00000000000E+00  0.00000000000E+00  0.29727651540E+04  0.29727651557E+04  0.10100000352E+00 0.  1.
       -3   -1    0    0    0  501  0.00000000000E+00  0.00000000000E+00 -0.95651679496E+03  0.95651680029E+03  0.10100000352E+00 0. -1.
    10030    2    1    2    0    0  0.00000000000E+00  0.00000000000E+00  0.20162483590E+04  0.39292819560E+04  0.33725360257E+04 0.  0.
        2    1    3    3  502    0 -0.75332173625E+03 -0.13224745797E+04  0.16228153965E+03  0.15306103195E+04  0.25500000920E-02 0. -1.
       -2    1    3    3    0  502  0.75332173625E+03  0.13224745797E+04  0.18539668194E+04  0.23986716365E+04  0.25500000920E-02 0.  1.
</event>
<event>
 5   0  0.1421875E-07  0.3417689E+04  0.7818609E-02  0.8133579E-01
       -1   -1    0    0    0  501  0.00000000000E+00  0.00000000000E+00  0.10625247172E+04  0.10625247172E+04  0.50400001928E-02 0.  1.
        1   -1    0    0  501    0  0.00000000000E+00  0.00000000000E+00 -0.27483113537E+04  0.27483113537E+04  0.50400001928E-02 0. -1.
    10030    2    1    2    0    0  0.00000000000E+00  0.00000000000E+00 -0.16857866365E+04  0.38108360709E+04  0.34176885427E+04 0.  0.
        5    1    3    3  502    0 -0.63788214531E+03 -0.82547318516E+03  0.66624837604E+03  0.12378241391E+04  0.46999998093E+01 0.  1.
       -5    1    3    3    0  502  0.63788214531E+03  0.82547318516E+03 -0.23520350126E+04  0.25730119318E+04  0.46999998093E+01 0. -1.
</event>
<event>
 5   0  0.1421875E-07  0.3461658E+04  0.7818609E-02  0.8122937E-01
       -1   -1    0    0    0  501  0.00000000000E+00  0.00000000000E+00  0.12985472108E+04  0.12985472108E+04  0.50400001928E-02 0. -1.
        1   -1    0    0  501    0  0.00000000000E+00  0.00000000000E+00 -0.23070165069E+04  0.23070165069E+04  0.50400001928E-02 0.  1.
    10030    2    1    2    0    0  0.00000000000E+00  0.00000000000E+00 -0.10084692960E+04  0.36055637177E+04  0.34616584755E+04 0.  0.
        5    1    3    3  502    0  0.16539770985E+04 -0.46756479777E+03 -0.71639499682E+03  0.18621227038E+04  0.46999998093E+01 0.  1.
       -5    1    3    3    0  502 -0.16539770985E+04  0.46756479777E+03 -0.29207429922E+03  0.17434410139E+04  0.46999998093E+01 0. -1.
</event>
<event>
 5   0  0.4447909E-07  0.3348033E+04  0.7818609E-02  0.8150780E-01
        2   -1    0    0  501    0  0.00000000000E+00  0.00000000000E+00  0.19708667487E+04  0.19708667487E+04  0.25500000920E-02 0. -1.
       -2   -1    0    0    0  501  0.00000000000E+00  0.00000000000E+00 -0.14218772020E+04  0.14218772020E+04  0.25500000920E-02 0.  1.
    10030    2    1    2    0    0  0.00000000000E+00  0.00000000000E+00  0.54898954671E+03  0.33927439508E+04  0.33480325556E+04 0.  0.
        5    1    3    3  502    0 -0.11071774849E+04 -0.50511756537E+02  0.15458064855E+04  0.19020865388E+04  0.46999998093E+01 0. -1.
       -5    1    3    3    0  502  0.11071774849E+04  0.50511756537E+02 -0.99681693876E+03  0.14906574120E+04  0.46999998093E+01 0.  1.
</event>
<event>
 5   0  0.4486226E-07  0.3404976E+04  0.7818609E-02  0.8136686E-01
       -2   -1    0    0    0  501  0.00000000000E+00  0.00000000000E+00  0.13546621295E+04  0.13546621295E+04  0.25500000920E-02 0. -1.
        2   -1    0    0  501    0  0.00000000000E+00  0.00000000000E+00 -0.21396227881E+04  0.21396227881E+04  0.25500000920E-02 0.  1.
    10030    2    1    2    0    0  0.00000000000E+00  0.00000000000E+00 -0.78496065852E+03  0.34942849176E+04  0.34049763362E+04 0.  0.
        1    1    3    3  502    0 -0.15360037083E+04  0.50586232272E+03 -0.93866346069E+03  0.18698377400E+04  0.50400001928E-02 0.  1.
       -1    1    3    3    0  502  0.15360037083E+04 -0.50586232272E+03  0.15370280217E+03  0.16244471776E+04  0.50400001928E-02 0. -1.
</event>
<event>
 5   0  0.1520084E-07  0.3402127E+04  0.7818609E-02  0.8137385E-01
       -1   -1    0    0    0  501  0.00000000000E+00  0.00000000000E+00  0.11582042436E+04  0.11582042436E+04  0.50400001928E-02 0.  1.
        1   -1    0    0  501    0  0.00000000000E+00  0.00000000000E+00 -0.24983646368E+04  0.24983646368E+04  0.50400001928E-02 0. -1.
    10030    2    1    2    0    0  0.00000000000E+00  0.00000000000E+00 -0.13401603932E+04  0.36565688804E+04  0.34021267022E+04 0.  0.
        2    1    3    3  502    0  0.85295654310E+03 -0.75335259389E+03  0.68881272675E+03  0.13302398159E+04  0.25500000920E-02 0.  1.
       -2    1    3    3    0  502 -0.85295654310E+03  0.75335259389E+03 -0.20289731199E+04  0.23263290645E+04  0.25500000920E-02 0. -1.
</event>
<event>
 5   0  0.1421875E-07  0.3400765E+04  0.7818609E-02  0.8137719E-01
        4   -1    0    0  501    0  0.00000000000E+00  0.00000000000E+00  0.21098092307E+04  0.21098096129E+04  0.12699999809E+01 0. -1.
       -4   -1    0    0    0  501  0.00000000000E+00  0.00000000000E+00 -0.13704075154E+04  0.13704081039E+04  0.12699999809E+01 0.  1.
    10030    2    1    2    0    0  0.00000000000E+00  0.00000000000E+00  0.73940171528E+03  0.34802177168E+04  0.34007646875E+04 0.  0.
        1    1    3    3  502    0 -0.64047931410E+03 -0.73198710194E+03  0.17970198052E+04  0.20433548516E+04  0.50400001928E-02 0. -1.
       -1    1    3    3    0  502  0.64047931410E+03  0.73198710194E+03 -0.10576180899E+04  0.14368628652E+04  0.50400001928E-02 0.  1.
</event>
<event>
 5   0  0.4486226E-07  0.3394979E+04  0.7818609E-02  0.8139140E-01
        2   -1    0    0  501    0  0.00000000000E+00  0.00000000000E+00  0.14243363847E+04  0.14243363847E+04  0.25500000920E-02 0.  1.
       -2   -1    0    0    0  501  0.00000000000E+00  0.00000000000E+00 -0.20230264925E+04  0.20230264925E+04  0.25500000920E-02 0. -1.
    10030    2    1    2    0    0  0.00000000000E+00  0.00000000000E+00 -0.59869010780E+03  0.34473628772E+04  0.33949787867E+04 0.  0.
        1    1    3    3  502    0  0.13917472095E+04  0.37103095617E+03  0.61276082319E+03  0.15652795571E+04  0.50400001928E-02 0.  1.
       -1    1    3    3    0  502 -0.13917472095E+04 -0.37103095617E+03 -0.12114509310E+04  0.18820833201E+04  0.50400001928E-02 0. -1.
</event>
<event>
 5   0  0.4486226E-07  0.3411435E+04  0.7818609E-02  0.8135106E-01
       -2   -1    0    0    0  501  0.00000000000E+00  0.00000000000E+00  0.11173948844E+04  0.11173948844E+04  0.25500000920E-02 0. -1.
        2   -1    0    0  501    0  0.00000000000E+00  0.00000000000E+00 -0.26037992492E+04  0.26037992492E+04  0.25500000920E-02 0.  1.
    10030    2    1    2    0    0  0.00000000000E+00  0.00000000000E+00 -0.14864043648E+04  0.37211941336E+04  0.34114348659E+04 0.  0.
        1    1    3    3  502    0  0.10693744603E+04 -0.83250147417E+03 -0.18730372608E+04  0.23119016029E+04  0.50400001928E-02 0.  1.
       -1    1    3    3    0  502 -0.10693744603E+04  0.83250147417E+03  0.38663289605E+03  0.14092925308E+04  0.50400001928E-02 0. -1.
</event>
<event>
 5   0  0.4381939E-07  0.3397680E+04  0.7818609E-02  0.8138476E-01
        2   -1    0    0  501    0  0.00000000000E+00  0.00000000000E+00  0.19330822617E+04  0.19330822617E+04  0.25500000920E-02 0. -1.
       -2   -1    0    0    0  501  0.00000000000E+00  0.00000000000E+00 -0.14929820505E+04  0.14929820505E+04  0.25500000920E-02 0.  1.
    10030    2    1    2    0    0  0.00000000000E+00  0.00000000000E+00  0.44010021113E+03  0.34260643122E+04  0.33976798665E+04 0.  0.
        3    1    3    3  502    0  0.14982765920E+04 -0.10048170925E+03 -0.58102217784E+03  0.16101292188E+04  0.10100000352E+00 0. -1.
       -3    1    3    3    0  502 -0.14982765920E+04  0.10048170925E+03  0.10211223890E+04  0.18159350934E+04  0.10100000352E+00 0.  1.
</event>
<event>
 5   0  0.1523259E-07  0.3402120E+04  0.7818609E-02  0.8137386E-01
       -1   -1    0    0    0  501  0.00000000000E+00  0.00000000000E+00  0.14660840368E+04  0.14660840368E+04  0.50400001928E-02 0.  1.
        1   -1    0    0  501    0  0.00000000000E+00  0.00000000000E+00 -0.19736971186E+04  0.19736971186E+04  0.50400001928E-02 0. -1.
    10030    2    1    2    0    0  0.00000000000E+00  0.00000000000E+00 -0.50761308179E+03  0.34397811554E+04  0.34021204206E+04 0.  0.
        4    1    3    3  502    0 -0.14472375949E+04 -0.96778717054E+02  0.64470487144E+03  0.15872960531E+04  0.12699999809E+01 0.  1.
       -4    1    3    3    0  502  0.14472375949E+04  0.96778717054E+02 -0.11523179532E+04  0.18524851023E+04  0.12699999809E+01 0. -1.
</event>
<event>
 5   0  0.1523259E-07  0.3405736E+04  0.7818609E-02  0.8136500E-01
       -1   -1    0    0    0  501  0.00000000000E+00  0.00000000000E+00  0.28136039648E+04  0.28136039648E+04  0.50400001928E-02 0.  1.
        1   -1    0    0  501    0  0.00000000000E+00  0.00000000000E+00 -0.10306209099E+04  0.10306209099E+04  0.50400001928E-02 0. -1.
    10030    2    1    2    0    0  0.00000000000E+00  0.00000000000E+00  0.17829830549E+04  0.38442248746E+04  0.34057357961E+04 0.  0.
        4    1    3    3  502    0 -0.64245463328E+03  0.15421539126E+04  0.12637580910E+04  0.20947727255E+04  0.12699999809E+01 0.  1.
       -4    1    3    3    0  502  0.64245463328E+03 -0.15421539126E+04  0.51922496393E+03  0.17494521491E+04  0.12699999809E+01 0. -1.
</event>
<event>
 5   0  0.1473755E-07  0.3365398E+04  0.7818609E-02  0.8146451E-01
        1   -1    0    0  501    0  0.00000000000E+00  0.00000000000E+00  0.18296759695E+04  0.18296759695E+04  0.50400001928E-02 0.  1.
       -1   -1    0    0    0  501  0.00000000000E+00  0.00000000000E+00 -0.15475281941E+04  0.15475281941E+04  0.50400001928E-02 0. -1.
    10030    2    1    2    0    0  0.00000000000E+00  0.00000000000E+00  0.28214777541E+03  0.33772041637E+04  0.33653975391E+04 0.  0.
        1    1    3    3  502    0 -0.16637228723E+04  0.21038762337E+03  0.18847229762E+01  0.16769735538E+04  0.50400001928E-02 0.  1.
       -1    1    3    3    0  502  0.16637228723E+04 -0.21038762337E+03  0.28026305243E+03  0.17002306098E+04  0.50400001928E-02 0. -1.
</event>
<event>
 5   0  0.4447909E-07  0.3396217E+04  0.7818609E-02  0.8138835E-01
        2   -1    0    0  501    0  0.00000000000E+00  0.00000000000E+00  0.17715884961E+04  0.17715884961E+04  0.25500000920E-02 0. -1.
       -2   -1    0    0    0  501  0.00000000000E+00  0.00000000000E+00 -0.16276765958E+04  0.16276765958E+04  0.25500000920E-02 0.  1.
    10030    2    1    2    0    0  0.00000000000E+00  0.00000000000E+00  0.14391190024E+03  0.33992650919E+04  0.33962173855E+04 0.  0.
        5    1    3    3  502    0  0.10496836219E+04 -0.33314263458E+03 -0.12217717017E+04  0.16448610586E+04  0.46999998093E+01 0.  1.
       -5    1    3    3    0  502 -0.10496836219E+04  0.33314263458E+03  0.13656836020E+04  0.17544040332E+04  0.46999998093E+01 0. -1.
</event>
<event>
 5   0  0.1435806E-07  0.3431755E+04  0.7818609E-02  0.8130156E-01
       -1   -1    0    0    0  501  0.00000000000E+00  0.00000000000E+00  0.26837041437E+04  0.26837041437E+04  0.50400001928E-02 0. -1.
        1   -1    0    0  501    0  0.00000000000E+00  0.00000000000E+00 -0.10970789595E+04  0.10970789595E+04  0.50400001928E-02 0.  1.
    10030    2    1    2    0    0  0.00000000000E+00  0.00000000000E+00  0.15866251842E+04  0.37807831032E+04  0.34317548570E+04 0.  0.
        3    1    3    3  502    0  0.96716363675E+03 -0.13808935068E+04  0.44151996948E+03  0.17427599580E+04  0.10100000352E+00 0. -1.
       -3    1    3    3    0  502 -0.96716363675E+03  0.13808935068E+04  0.11451052147E+04  0.20380231452E+04  0.10100000352E+00 0.  1.
</event>
<event>
 5   0  0.4447909E-07  0.3384624E+04  0.7818609E-02  0.8141690E-01
        2   -1    0    0  501    0  0.00000000000E+00  0.00000000000E+00  0.13347916379E+04  0.13347916379E+04  0.25500000920E-02 0.  1.
       -2   -1    0    0    0  501  0.00000000000E+00  0.00000000000E+00 -0.21455936569E+04  0.21455936569E+04  0.25500000920E-02 0. -1.
    10030    2    1    2    0    0  0.00000000000E+00  0.00000000000E+00 -0.81080201903E+03  0.34803852948E+04  0.33846243346E+04 0.  0.
        5    1    3    3  502    0 -0.15452895844E+03 -0.64511049112E+02 -0.21370467741E+04  0.21436025470E+04  0.46999998093E+01 0. -1.
       -5    1    3    3    0  502  0.15452895844E+03  0.64511049112E+02  0.13262447551E+04  0.13367827478E+04  0.46999998093E+01 0.  1.
</event>
<event>
 5   0  0.4486226E-07  0.3389023E+04  0.7818609E-02  0.8140606E-01
       -2   -1    0    0    0  501  0.00000000000E+00  0.00000000000E+00  0.12514259305E+04  0.12514259305E+04  0.25500000920E-02 0.  1.
        2   -1    0    0  501    0  0.00000000000E+00  0.00000000000E+00 -0.22944778681E+04  0.22944778681E+04  0.25500000920E-02 0. -1.
    10030    2    1    2    0    0  0.00000000000E+00  0.00000000000E+00 -0.10430519376E+04  0.35459037986E+04  0.33890229277E+04 0.  0.
        1    1    3    3  502    0 -0.66530363509E+03 -0.70196696680E+03  0.93427887938E+03  0.13447169121E+04  0.50400001928E-02 0.  1.
       -1    1    3    3    0  502  0.66530363509E+03  0.70196696680E+03 -0.19773308169E+04  0.22011868864E+04  0.50400001928E-02 0. -1.
</event>
<event>
 5   0  0.4521737E-07  0.3395552E+04  0.7818609E-02  0.8138999E-01
       -2   -1    0    0    0  501  0.00000000000E+00  0.00000000000E+00  0.12538569995E+04  0.12538569995E+04  0.25500000920E-02 0.  1.
        2   -1    0    0  501    0  0.00000000000E+00  0.00000000000E+00 -0.22988610895E+04  0.22988610895E+04  0.25500000920E-02 0. -1.
    10030    2    1    2    0    0  0.00000000000E+00  0.00000000000E+00 -0.10450040900E+04  0.35527180890E+04  0.33955518362E+04 0.  0.
        4    1    3    3  502    0 -0.39129771528E+03  0.16165144063E+04 -0.87917465117E+03  0.18812714870E+04  0.12699999809E+01 0. -1.
       -4    1    3    3    0  502  0.39129771528E+03 -0.16165144063E+04 -0.16582943884E+03  0.16714466020E+04  0.12699999809E+01 0.  1.
</event>
<event>
 5   0  0.4447909E-07  0.3402556E+04  0.7818609E-02  0.8137279E-01
       -2   -1    0    0    0  501  0.00000000000E+00  0.00000000000E+00  0.14820735872E+04  0.14820735872E+04  0.25500000920E-02 0. -1.
        2   -1    0    0  501    0  0.00000000000E+00  0.00000000000E+00 -0.19529039078E+04  0.19529039078E+04  0.25500000920E-02 0.  1.
    10030    2    1    2    0    0  0.00000000000E+00  0.00000000000E+00 -0.47083032064E+03  0.34349774949E+04  0.34025562743E+04 0.  0.
        5    1    3    3  502    0  0.86101787853E+03 -0.17506193778E+03  0.12352869054E+04  0.15159004907E+04  0.46999998093E+01 0. -1.
       -5    1    3    3    0  502 -0.86101787853E+03  0.17506193778E+03 -0.17061172260E+04  0.19190770042E+04  0.46999998093E+01 0.  1.
</event>
<event>
 5   0  0.1523259E-07  0.3364078E+04  0.7818609E-02  0.8146779E-01
       -1   -1    0    0    0  501  0.00000000000E+00  0.00000000000E+00  0.10811111846E+04  0.10811111846E+04  0.50400001928E-02 0. -1.
        1   -1    0    0  501    0  0.00000000000E+00  0.00000000000E+00 -0.26169880901E+04  0.26169880901E+04  0.50400001928E-02 0.  1.
    10030    2    1    2    0    0  0.00000000000E+00  0.00000000000E+00 -0.15358769055E+04  0.36980992747E+04  0.33640779385E+04 0.  0.
        4    1    3    3  502    0 -0.54304128535E+03  0.14552964778E+04 -0.58515363162E+02  0.15544154324E+04  0.12699999809E+01 0.  1.
       -4    1    3    3    0  502  0.54304128535E+03 -0.14552964778E+04 -0.14773615424E+04  0.21436838423E+04  0.12699999809E+01 0. -1.
</event>
<event>
 5   0  0.4486226E-07  0.3402221E+04  0.7818609E-02  0.8137361E-01
       -2   -1    0    0    0  501  0.00000000000E+00  0.00000000000E+00  0.14907061653E+04  0.14907061653E+04  0.25500000920E-02 0.  1.
        2   -1    0    0  501    0  0.00000000000E+00  0.00000000000E+00 -0.19412126273E+04  0.19412126273E+04  0.25500000920E-02 0. -1.
    10030    2    1    2    0    0  0.00000000000E+00  0.00000000000E+00 -0.45050646199E+03  0.34319187926E+04  0.34022214106E+04 0.  0.
        1    1    3    3  502    0 -0.57340238240E+02 -0.28418226237E+03 -0.19161096750E+04  0.19379173738E+04  0.50400001928E-02 0. -1.
       -1    1    3    3    0  502  0.57340238240E+02  0.28418226237E+03  0.14656032130E+04  0.14940014187E+04  0.50400001928E-02 0.  1.
</event>
<event>
 5   0  0.1473755E-07  0.3404381E+04  0.7818609E-02  0.8136832E-01
       -1   -1    0    0    0  501  0.00000000000E+00  0.00000000000E+00  0.23763503331E+04  0.23763503331E+04  0.50400001928E-02 0.  1.
        1   -1    0    0  501    0  0.00000000000E+00  0.00000000000E+00 -0.12192869990E+04  0.12192869990E+04  0.50400001928E-02 0. -1.
    10030    2    1    2    0    0  0.00000000000E+00  0.00000000000E+00  0.11570633341E+04  0.35956373321E+04  0.34043813336E+04 0.  0.
        1    1    3    3  502    0  0.10936223628E+03  0.43276032373E+03  0.23134365618E+04  0.23561049048E+04  0.50400001928E-02 0.  1.
       -1    1    3    3    0  502 -0.10936223628E+03 -0.43276032373E+03 -0.11563732277E+04  0.12395324273E+04  0.50400001928E-02 0. -1.
</event>
<event>
 5   0  0.1520084E-07  0.3407186E+04  0.7818609E-02  0.8136145E-01
       -1   -1    0    0    0  501  0.00000000000E+00  0.00000000000E+00  0.14362814813E+04  0.14362814813E+04  0.50400001928E-02 0. -1.
        1   -1    0    0  501    0  0.00000000000E+00  0.00000000000E+00 -0.20206546980E+04  0.20206546980E+04  0.50400001928E-02 0.  1.
    10030    2    1    2    0    0  0.00000000000E+00  0.00000000000E+00 -0.58437321668E+03  0.34569361793E+04  0.34071858903E+04 0.  0.
        2    1    3    3  502    0  0.11069553415E+04  0.11013942178E+04  0.39879324776E+03  0.16116623113E+04  0.25500000920E-02 0. -1.
       -2    1    3    3    0  502 -0.11069553415E+04 -0.11013942178E+04 -0.98316646444E+03  0.18452738680E+04  0.25500000920E-02 0.  1.
</event>
<event>
 5   0  0.1520084E-07  0.3401631E+04  0.7818609E-02  0.8137506E-01
        1   -1    0    0  501    0  0.00000000000E+00  0.00000000000E+00  0.22618771590E+04  0.22618771590E+04  0.50400001928E-02 0.  1.
       -1   -1    0    0    0  501  0.00000000000E+00  0.00000000000E+00 -0.12789258768E+04  0.12789258768E+04  0.50400001928E-02 0. -1.
    10030    2    1    2    0    0  0.00000000000E+00  0.00000000000E+00  0.98295128213E+03  0.35408030358E+04  0.34016309199E+04 0.  0.
        2    1    3    3  502    0 -0.11824057045E+03 -0.11020332464E+04 -0.85138936869E+03  0.13976129528E+04  0.25500000920E-02 0. -1.
       -2    1    3    3    0  502  0.11824057045E+03  0.11020332464E+04  0.18343406508E+04  0.21431900830E+04  0.25500000920E-02 0.  1.
</event>
<event>
 5   0  0.1473755E-07  0.3409082E+04  0.7818609E-02  0.8135681E-01
       -1   -1    0    0    0  501  0.00000000000E+00  0.00000000000E+00  0.19541432956E+04  0.19541432956E+04  0.50400001928E-02 0.  1.
        1   -1    0    0  501    0  0.00000000000E+00  0.00000000000E+00 -0.14868204714E+04  0.14868204714E+04  0.50400001928E-02 0. -1.
    10030    2    1    2    0    0  0.00000000000E+00  0.00000000000E+00  0.46732282422E+03  0.34409637671E+04  0.34090821381E+04 0.  0.
        1    1    3    3  502    0  0.12236421321E+04  0.76359315976E+03 -0.68317564376E+03  0.15959647682E+04  0.50400001928E-02 0. -1.
       -1    1    3    3    0  502 -0.12236421321E+04 -0.76359315976E+03  0.11504984680E+04  0.18449989989E+04  0.50400001928E-02 0.  1.
</event>
<event>
 5   0  0.1523259E-07  0.3203137E+04  0.7818609E-02  0.8187989E-01
        1   -1    0    0  501    0  0.00000000000E+00  0.00000000000E+00  0.26162080145E+04  0.26162080145E+04  0.50400001928E-02 0. -1.
       -1   -1    0    0    0  501  0.00000000000E+00  0.00000000000E+00 -0.98043511628E+03  0.98043511629E+03  0.50400001928E-02 0.  1.
    10030    2    1    2    0    0  0.00000000000E+00  0.00000000000E+00  0.16357728982E+04  0.35966431308E+04  0.32031373426E+04 0.  0.
        4    1    3    3  502    0  0.85829357873E+03 -0.19127480238E+03 -0.68512578410E+03  0.11147434101E+04  0.12699999809E+01 0.  1.
       -4    1    3    3    0  502 -0.85829357873E+03  0.19127480238E+03  0.23208986823E+04  0.24818997208E+04  0.12699999809E+01 0. -1.
</event>
<event>
 5   0  0.4521737E-07  0.3391714E+04  0.7818609E-02  0.8139943E-01
        2   -1    0    0  501    0  0.00000000000E+00  0.00000000000E+00  0.21912076296E+04  0.21912076296E+04  0.25500000920E-02 0. -1.
       -2   -1    0    0    0  501  0.00000000000E+00  0.00000000000E+00 -0.13124869011E+04  0.13124869011E+04  0.25500000920E-02 0.  1.
    10030    2    1    2    0    0  0.00000000000E+00  0.00000000000E+00  0.87872072855E+03  0.35036945307E+04  0.33917142046E+04 0.  0.
        4    1    3    3  502    0 -0.23906424571E+03 -0.12498765393E+04  0.15973460762E+04  0.20422681452E+04  0.12699999809E+01 0. -1.
       -4    1    3    3    0  502  0.23906424571E+03  0.12498765393E+04 -0.71862534764E+03  0.14614263855E+04  0.12699999809E+01 0.  1.
</event>
<event>
 5   0  0.4396257E-07  0.3428015E+04  0.7818609E-02  0.8131064E-01
        2   -1    0    0  501    0  0.00000000000E+00  0.00000000000E+00  0.25612251565E+04  0.25612251565E+04  0.25500000920E-02 0. -1.
       -2   -1    0    0    0  501  0.00000000000E+00  0.00000000000E+00 -0.11470378889E+04  0.11470378889E+04  0.25500000920E-02 0.  1.
    10030    2    1    2    0    0  0.00000000000E+00  0.00000000000E+00  0.14141872676E+04  0.37082630455E+04  0.34280153422E+04 0.  0.
        2    1    3    3  502    0  0.12394064537E+04  0.11331053318E+04  0.10783194686E+04  0.19957026148E+04  0.25500000920E-02 0. -1.
       -2    1    3    3    0  502 -0.12394064537E+04 -0.11331053318E+04  0.33586779896E+03  0.17125604307E+04  0.25500000920E-02 0.  1.
</event>
<event>
 5   0  0.1421875E-07  0.3380046E+04  0.7818609E-02  0.8142821E-01
        1   -1    0    0  501    0  0.00000000000E+00  0.00000000000E+00  0.15576143897E+04  0.15576143897E+04  0.50400001928E-02 0. -1.
       -1   -1    0    0    0  501  0.00000000000E+00  0.00000000000E+00 -0.18336878130E+04  0.18336878130E+04  0.50400001928E-02 0.  1.
    10030    2    1    2    0    0  0.00000000000E+00  0.00000000000E+00 -0.27607342326E+03  0.33913022027E+04  0.33800464635E+04 0.  0.
        5    1    3    3  502    0  0.24565961971E+03 -0.62952076721E+03 -0.16922307167E+04  0.18221723117E+04  0.46999998093E+01 0.  1.
       -5    1    3    3    0  502 -0.24565961971E+03  0.62952076721E+03  0.14161572934E+04  0.15691298910E+04  0.46999998093E+01 0. -1.
</event>
<event>
 5   0  0.4396257E-07  0.3399503E+04  0.7818609E-02  0.8138028E-01
        2   -1    0    0  501    0  0.00000000000E+00  0.00000000000E+00  0.20061648022E+04  0.20061648022E+04  0.25500000920E-02 0. -1.
       -2   -1    0    0    0  501  0.00000000000E+00  0.00000000000E+00 -0.14401383986E+04  0.14401383986E+04  0.25500000920E-02 0.  1.
    10030    2    1    2    0    0  0.00000000000E+00  0.00000000000E+00  0.56602640358E+03  0.34463032008E+04  0.33995028846E+04 0.  0.
        2    1    3    3  502    0 -0.20459842779E+02  0.56152809287E+03 -0.13432604337E+04  0.14560497921E+04  0.25500000920E-02 0.  1.
       -2    1    3    3    0  502  0.20459842779E+02 -0.56152809287E+03  0.19092868373E+04  0.19902534088E+04  0.25500000920E-02 0. -1.
</event>
<event>
 5   0  0.1421875E-07  0.3385601E+04  0.7818609E-02  0.8141449E-01
        1   -1    0    0  501    0  0.00000000000E+00  0.00000000000E+00  0.14985435100E+04  0.14985435100E+04  0.50400001928E-02 0. -1.
       -1   -1    0    0    0  501  0.00000000000E+00  0.00000000000E+00 -0.19122386539E+04  0.19122386539E+04  0.50400001928E-02 0.  1.
    10030    2    1    2    0    0  0.00000000000E+00  0.00000000000E+00 -0.41369514386E+03  0.34107821639E+04  0.33856005815E+04 0.  0.
        5    1    3    3  502    0 -0.65310431507E+03 -0.79629333980E+02 -0.17781485666E+04  0.18959748131E+04  0.46999998093E+01 0.  1.
       -5    1    3    3    0  502  0.65310431507E+03  0.79629333980E+02  0.13644534227E+04  0.15148073508E+04  0.46999998093E+01 0. -1.
</event>
<event>
 5   0  0.4486226E-07  0.3385887E+04  0.7818609E-02  0.8141379E-01
        2   -1    0    0  501    0  0.00000000000E+00  0.00000000000E+00  0.22752992674E+04  0.22752992674E+04  0.25500000920E-02 0.  1.
       -2   -1    0    0    0  501  0.00000000000E+00  0.00000000000E+00 -0.12596395089E+04  0.12596395089E+04  0.25500000920E-02 0. -1.
    10030    2    1    2    0    0  0.00000000000E+00  0.00000000000E+00  0.10156597585E+04  0.35349387763E+04  0.33858865024E+04 0.  0.
        1    1    3    3  502    0 -0.23253675407E+03  0.38704952825E+03  0.22112740181E+04  0.22569035120E+04  0.50400001928E-02 0.  1.
       -1    1    3    3    0  502  0.23253675407E+03 -0.38704952825E+03 -0.11956142596E+04  0.12780352644E+04  0.50400001928E-02 0. -1.
</event>
<event>
 5   0  0.4521737E-07  0.3399421E+04  0.7818609E-02  0.8138048E-01
       -2   -1    0    0    0  501  0.00000000000E+00  0.00000000000E+00  0.21393416297E+04  0.21393416297E+04  0.25500000920E-02 0. -1.
        2   -1    0    0  501    0  0.00000000000E+00  0.00000000000E+00 -0.13504230529E+04  0.13504230529E+04  0.25500000920E-02 0.  1.
    10030    2    1    2    0    0  0.00000000000E+00  0.00000000000E+00  0.78891857671E+03  0.34897646826E+04  0.33994212771E+04 0.  0.
        4    1    3    3  502    0  0.17889103926E+03 -0.13888287315E+04 -0.59455896802E+03  0.15212985338E+04  0.12699999809E+01 0.  1.
       -4    1    3    3    0  502 -0.17889103926E+03  0.13888287315E+04  0.13834775447E+04  0.19684661488E+04  0.12699999809E+01 0. -1.
</event>
<event>
 5   0  0.1421875E-07  0.3398668E+04  0.7818609E-02  0.8138233E-01
        1   -1    0    0  501    0  0.00000000000E+00  0.00000000000E+00  0.22071682412E+04  0.22071682412E+04  0.50400001928E-02 0.  1.
       -1   -1    0    0    0  501  0.00000000000E+00  0.00000000000E+00 -0.13083443471E+04  0.13083443471E+04  0.50400001928E-02 0. -1.
    10030    2    1    2    0    0  0.00000000000E+00  0.00000000000E+00  0.89882389404E+03  0.35155125883E+04  0.33986680283E+04 0.  0.
        5    1    3    3  502    0  0.13226285184E+03 -0.77559151209E+03  0.20074080758E+04  0.21560948329E+04  0.46999998093E+01 0.  1.
       -5    1    3    3    0  502 -0.13226285184E+03  0.77559151209E+03 -0.11085841818E+04  0.13594177554E+04  0.46999998093E+01 0. -1.
</event>
<event>
 5   0  0.4521737E-07  0.3429970E+04  0.7818609E-02  0.8130590E-01
       -2   -1    0    0    0  501  0.00000000000E+00  0.00000000000E+00  0.12500206674E+04  0.12500206674E+04  0.25500000920E-02 0.  1.
        2   -1    0    0  501    0  0.00000000000E+00  0.00000000000E+00 -0.23528996965E+04  0.23528996965E+04  0.25500000920E-02 0. -1.
    10030    2    1    2    0    0  0.00000000000E+00  0.00000000000E+00 -0.11028790291E+04  0.36029203639E+04  0.34299698244E+04 0.  0.
        4    1    3    3  502    0 -0.10308928817E+04 -0.10044362344E+04  0.42807073471E+03  0.15016252693E+04  0.12699999809E+01 0.  1.
       -4    1    3    3    0  502  0.10308928817E+04  0.10044362344E+04 -0.15309497638E+04  0.21012950946E+04  0.12699999809E+01 0. -1.
</event>
<event>
 5   0  0.4447909E-07  0.3353803E+04  0.7818609E-02  0.8149338E-01
        2   -1    0    0  501    0  0.00000000000E+00  0.00000000000E+00  0.22793528539E+04  0.22793528539E+04  0.25500000920E-02 0. -1.
       -2   -1    0    0    0  501  0.00000000000E+00  0.00000000000E+00 -0.12336831155E+04  0.12336831155E+04  0.25500000920E-02 0.  1.
    10030    2    1    2    0    0  0.00000000000E+00  0.00000000000E+00  0.10456697384E+04  0.35130359694E+04  0.33538032918E+04 0.  0.
        5    1    3    3  502    0 -0.28682585756E+03  0.43486413221E+03 -0.11467682804E+04  0.12595536769E+04  0.46999998093E+01 0.  1.
       -5    1    3    3    0  502  0.28682585756E+03 -0.43486413221E+03  0.21924380188E+04  0.22534822925E+04  0.46999998093E+01 0. -1.
</event>
<event>
 5   0  0.4486226E-07  0.3337793E+04  0.7818609E-02  0.8153345E-01
       -2   -1    0    0    0  501  0.00000000000E+00  0.00000000000E+00  0.11606052197E+04  0.11606052197E+04  0.25500000920E-02 0. -1.
        2   -1    0    0  501    0  0.00000000000E+00  0.00000000000E+00 -0.23997964601E+04  0.23997964601E+04  0.25500000920E-02 0.  1.
    10030    2    1    2    0    0  0.00000000000E+00  0.00000000000E+00 -0.12391912404E+04  0.35604016799E+04  0.33377934615E+04 0.  0.
        1    1    3    3  502    0  0.13239898574E+04 -0.25198615234E+03  0.43030914920E+03  0.14147834206E+04  0.50400001928E-02 0. -1.
       -1    1    3    3    0  502 -0.13239898574E+04  0.25198615234E+03 -0.16695003896E+04  0.21456182592E+04  0.50400001928E-02 0.  1.
</event>
<event>
 5   0  0.1523259E-07  0.3396106E+04  0.7818609E-02  0.8138863E-01
       -1   -1    0    0    0  501  0.00000000000E+00  0.00000000000E+00  0.11694605656E+04  0.11694605656E+04  0.50400001928E-02 0. -1.
        1   -1    0    0  501    0  0.00000000000E+00  0.00000000000E+00 -0.24655676813E+04  0.24655676813E+04  0.50400001928E-02 0.  1.
    10030    2    1    2    0    0  0.00000000000E+00  0.00000000000E+00 -0.12961071157E+04  0.36350282469E+04  0.33961061086E+04 0.  0.
        4    1    3    3  502    0 -0.75008917716E+03  0.44512216190E+02  0.98182458886E+03  0.12363641241E+04  0.12699999809E+01 0. -1.
       -4    1    3    3    0  502  0.75008917716E+03 -0.44512216190E+02 -0.22779317045E+04  0.23986641229E+04  0.12699999809E+01 0.  1.
</event>
<event>
 5   0  0.4486226E-07  0.3399010E+04  0.7818609E-02  0.8138149E-01
       -2   -1    0    0    0  501  0.00000000000E+00  0.00000000000E+00  0.14211255896E+04  0.14211255896E+04  0.25500000920E-02 0. -1.
        2   -1    0    0  501    0  0.00000000000E+00  0.00000000000E+00 -0.20324152681E+04  0.20324152681E+04  0.25500000920E-02 0.  1.
    10030    2    1    2    0    0  0.00000000000E+00  0.00000000000E+00 -0.61128967855E+03  0.34535408577E+04  0.33990100595E+04 0.  0.
        1    1    3    3  502    0  0.13536333861E+04 -0.55178880834E+03 -0.11864570353E+04  0.18826774896E+04  0.50400001928E-02 0.  1.
       -1    1    3    3    0  502 -0.13536333861E+04  0.55178880834E+03  0.57516735674E+03  0.15708633681E+04  0.50400001928E-02 0. -1.
</event>
<event>
 5   0  0.1520084E-07  0.3414281E+04  0.7818609E-02  0.8134410E-01
        1   -1    0    0  501    0  0.00000000000E+00  0.00000000000E+00  0.16997212244E+04  0.16997212245E+04  0.50400001928E-02 0.  1.
       -1   -1    0    0    0  501  0.00000000000E+00  0.00000000000E+00 -0.17145921335E+04  0.17145921336E+04  0.50400001928E-02 0. -1.
    10030    2    1    2    0    0  0.00000000000E+00  0.00000000000E+00 -0.14870909100E+02  0.34143133580E+04  0.34142809730E+04 0.  0.
        2    1    3    3  502    0  0.18300266719E+03  0.64095218053E+03  0.15642088513E+04  0.17003114433E+04  0.25500000920E-02 0.  1.
       -2    1    3    3    0  502 -0.18300266719E+03 -0.64095218053E+03 -0.15790797604E+04  0.17140019147E+04  0.25500000920E-02 0. -1.
</event>
<event>
 5   0  0.4381939E-07  0.3407030E+04  0.7818609E-02  0.8136183E-01
        2   -1    0    0  501    0  0.00000000000E+00  0.00000000000E+00  0.11861823166E+04  0.11861823166E+04  0.25500000920E-02 0.  1.
       -2   -1    0    0    0  501  0.00000000000E+00  0.00000000000E+00 -0.24464739983E+04  0.24464739983E+04  0.25500000920E-02 0. -1.
    10030    2    1    2    0    0  0.00000000000E+00  0.00000000000E+00 -0.12602916816E+04  0.36326563149E+04  0.34070304929E+04 0.  0.
        3    1    3    3  502    0  0.85406691844E+03  0.14138791370E+04 -0.10742374665E+04  0.19703986043E+04  0.10100000352E+00 0. -1.
       -3    1    3    3    0  502 -0.85406691844E+03 -0.14138791370E+04 -0.18605421517E+03  0.16622577106E+04  0.10100000352E+00 0.  1.
</event>
<event>
 5   0  0.1523259E-07  0.3398087E+04  0.7818609E-02  0.8138376E-01
       -1   -1    0    0    0  501  0.00000000000E+00  0.00000000000E+00  0.15079620390E+04  0.15079620390E+04  0.50400001928E-02 0. -1.
        1   -1    0    0  501    0  0.00000000000E+00  0.00000000000E+00 -0.19143379372E+04  0.19143379373E+04  0.50400001928E-02 0.  1.
    10030    2    1    2    0    0  0.00000000000E+00  0.00000000000E+00 -0.40637589827E+03  0.34222999762E+04  0.33980870732E+04 0.  0.
        4    1    3    3  502    0  0.14289799089E+04  0.54344291046E+03 -0.94970745253E+03  0.17997943314E+04  0.12699999809E+01 0.  1.
       -4    1    3    3    0  502 -0.14289799089E+04 -0.54344291046E+03  0.54333155427E+03  0.16225056449E+04  0.12699999809E+01 0. -1.
</event>
<event>
 5   0  0.1473755E-07  0.3406677E+04  0.7818609E-02  0.8136269E-01
        1   -1    0    0  501    0  0.00000000000E+00  0.00000000000E+00  0.17736297568E+04  0.17736297568E+04  0.50400001928E-02 0. -1.
       -1   -1    0    0    0  501  0.00000000000E+00  0.00000000000E+00 -0.16358331854E+04  0.16358331854E+04  0.50400001928E-02 0.  1.
    10030    2    1    2    0    0  0.00000000000E+00  0.00000000000E+00  0.13779657136E+03  0.34094629422E+04  0.34066772168E+04 0.  0.
        1    1    3    3  502    0 -0.13012963463E+04  0.84509319239E+02 -0.10278300944E+04  0.16604061879E+04  0.50400001928E-02 0.  1.
       -1    1    3    3    0  502  0.13012963463E+04 -0.84509319239E+02  0.11656266657E+04  0.17490567543E+04  0.50400001928E-02 0. -1.
</event>
<event>
 5   0  0.4486226E-07  0.3389478E+04  0.7818609E-02  0.8140494E-01
        2   -1    0    0  501    0  0.00000000000E+00  0.00000000000E+00  0.12773805140E+04  0.12773805140E+04  0.25500000920E-02 0.  1.
       -2   -1    0    0    0  501  0.00000000000E+00  0.00000000000E+00 -0.22484611030E+04  0.22484611030E+04  0.25500000920E-02 0. -1.
    10030    2    1    2    0    0  0.00000000000E+00  0.00000000000E+00 -0.97108058902E+03  0.35258416170E+04  0.33894780716E+04 0.  0.
        1    1    3    3  502    0 -0.79476705665E+03 -0.14382814518E+04 -0.54336837183E+02  0.16441595728E+04  0.50400001928E-02 0.  1.
       -1    1    3    3    0  502  0.79476705665E+03  0.14382814518E+04 -0.91674375184E+03  0.18816820442E+04  0.50400001928E-02 0. -1.
</event>
<event>
 5   0  0.4521737E-07  0.3399663E+04  0.7818609E-02  0.8137989E-01
        2   -1    0    0  501    0  0.00000000000E+00  0.00000000000E+00  0.19777798146E+04  0.19777798146E+04  0.25500000920E-02 0. -1.
       -2   -1    0    0    0  501  0.00000000000E+00  0.00000000000E+00 -0.14609444996E+04  0.14609444996E+04  0.25500000920E-02 0.  1.
    10030    2    1    2    0    0  0.00000000000E+00  0.00000000000E+00  0.51683531500E+03  0.34387243142E+04  0.33996626547E+04 0.  0.
        4    1    3    3  502    0  0.16633465151E+03  0.82934849506E+03  0.17497869284E+04  0.19435128119E+04  0.12699999809E+01 0. -1.
       -4    1    3    3    0  502 -0.16633465151E+03 -0.82934849506E+03 -0.12329516134E+04  0.14952115022E+04  0.12699999809E+01 0.  1.
</event>
<event>
 5   0  0.1421875E-07  0.3397578E+04  0.7818609E-02  0.8138501E-01
        3   -1    0    0  501    0  0.00000000000E+00  0.00000000000E+00  0.28651749350E+04  0.28651749368E+04  0.10100000352E+00 0. -1.
       -3   -1    0    0    0  501  0.00000000000E+00  0.00000000000E+00 -0.10072276493E+04  0.10072276543E+04  0.10100000352E+00 0.  1.
    10030    2    1    2    0    0  0.00000000000E+00  0.00000000000E+00  0.18579472858E+04  0.38724025911E+04  0.33975776240E+04 0.  0.
        2    1    3    3  502    0 -0.15793851678E+04 -0.25535683658E+03  0.27799669337E+03  0.16238678468E+04  0.25500000920E-02 0. -1.
       -2    1    3    3    0  502  0.15793851678E+04  0.25535683658E+03  0.15799505924E+04  0.22485347444E+04  0.25500000920E-02 0.  1.
</event>
<event>
 5   0  0.4486226E-07  0.3402390E+04  0.7818609E-02  0.8137320E-01
       -2   -1    0    0    0  501  0.00000000000E+00  0.00000000000E+00  0.26423644738E+04  0.26423644738E+04  0.25500000920E-02 0. -1.
        2   -1    0    0  501    0  0.00000000000E+00  0.00000000000E+00 -0.10952553105E+04  0.10952553105E+04  0.25500000920E-02 0.  1.
    10030    2    1    2    0    0  0.00000000000E+00  0.00000000000E+00  0.15471091633E+04  0.37376197844E+04  0.34023895852E+04 0.  0.
        1    1    3    3  502    0 -0.34831945684E+03 -0.19110517919E+03  0.25906857418E+04  0.26209731488E+04  0.50400001928E-02 0. -1.
       -1    1    3    3    0  502  0.34831945684E+03  0.19110517919E+03 -0.10435765785E+04  0.11166466356E+04  0.50400001928E-02 0.  1.
</event>
<event>
 5   0  0.4381939E-07  0.3371896E+04  0.7818609E-02  0.8144839E-01
       -2   -1    0    0    0  501  0.00000000000E+00  0.00000000000E+00  0.11144598625E+04  0.11144598625E+04  0.25500000920E-02 0.  1.
        2   -1    0    0  501    0  0.00000000000E+00  0.00000000000E+00 -0.25504914049E+04  0.25504914049E+04  0.25500000920E-02 0. -1.
    10030    2    1    2    0    0  0.00000000000E+00  0.00000000000E+00 -0.14360315424E+04  0.36649512674E+04  0.33718957875E+04 0.  0.
        3    1    3    3  502    0  0.47731498005E+03 -0.12468756743E+04 -0.18370021936E+04  0.22709261562E+04  0.10100000352E+00 0. -1.
       -3    1    3    3    0  502 -0.47731498005E+03  0.12468756743E+04  0.40097065116E+03  0.13940251112E+04  0.10100000352E+00 0.  1.
</event>
<event>
 5   0  0.1473755E-07  0.3368779E+04  0.7818609E-02  0.8145612E-01
       -1   -1    0    0    0  501  0.00000000000E+00  0.00000000000E+00  0.11766958553E+04  0.11766958553E+04  0.50400001928E-02 0. -1.
        1   -1    0    0  501    0  0.00000000000E+00  0.00000000000E+00 -0.24111314460E+04  0.24111314460E+04  0.50400001928E-02 0.  1.
    10030    2    1    2    0    0  0.00000000000E+00  0.00000000000E+00 -0.12344355907E+04  0.35878273013E+04  0.33687792324E+04 0.  0.
        1    1    3    3  502    0  0.11060353274E+04 -0.10440420284E+04  0.15360466407E+03  0.15287028147E+04  0.50400001928E-02 0. -1.
       -1    1    3    3    0  502 -0.11060353274E+04  0.10440420284E+04 -0.13880402548E+04  0.20591244867E+04  0.50400001928E-02 0.  1.
</event>
<event>
 5   0  0.1473755E-07  0.3346983E+04  0.7818609E-02  0.8151042E-01
        1   -1    0    0  501    0  0.00000000000E+00  0.00000000000E+00  0.20313297594E+04  0.20313297594E+04  0.50400001928E-02 0.  1.
       -1   -1    0    0    0  501  0.00000000000E+00  0.00000000000E+00 -0.13786902329E+04  0.13786902329E+04  0.50400001928E-02 0. -1.
    10030    2    1    2    0    0  0.00000000000E+00  0.00000000000E+00  0.65263952657E+03  0.34100199923E+04  0.33469834174E+04 0.  0.
        1    1    3    3  502    0  0.69961681214E+03 -0.13459048278E+04  0.10464926206E+04  0.18428429924E+04  0.50400001928E-02 0. -1.
       -1    1    3    3    0  502 -0.69961681214E+03  0.13459048278E+04 -0.39385309408E+03  0.15671769999E+04  0.50400001928E-02 0.  1.
</event>
<event>
 5   0  0.1435806E-07  0.3368012E+04  0.7818609E-02  0.8145802E-01
       -1   -1    0    0    0  501  0.00000000000E+00  0.00000000000E+00  0.12305355168E+04  0.12305355168E+04  0.50400001928E-02 0.  1.
        1   -1    0    0  501    0  0.00000000000E+00  0.00000000000E+00 -0.23045863740E+04  0.23045863740E+04  0.50400001928E-02 0. -1.
    10030    2    1    2    0    0  0.00000000000E+00  0.00000000000E+00 -0.10740508572E+04  0.35351218909E+04  0.33680115112E+04 0.  0.
        3    1    3    3  502    0 -0.21153509264E+03  0.55344648918E+03  0.11175202156E+04  0.12648721493E+04  0.10100000352E+00 0.  1.
       -3    1    3    3    0  502  0.21153509264E+03 -0.55344648918E+03 -0.21915710727E+04  0.22702497415E+04  0.10100000352E+00 0. -1.
</event>
<event>
 5   0  0.1421875E-07  0.3399467E+04  0.7818609E-02  0.8138037E-01
       -1   -1    0    0    0  501  0.00000000000E+00  0.00000000000E+00  0.15881552252E+04  0.15881552252E+04  0.50400001928E-02 0.  1.
        1   -1    0    0  501    0  0.00000000000E+00  0.00000000000E+00 -0.18191513487E+04  0.18191513487E+04  0.50400001928E-02 0. -1.
    10030    2    1    2    0    0  0.00000000000E+00  0.00000000000E+00 -0.23099612347E+03  0.34073065739E+04  0.33994674406E+04 0.  0.
        5    1    3    3  502    0  0.10992578845E+04 -0.10454027406E+04 -0.88397191543E+03  0.17557514699E+04  0.46999998093E+01 0.  1.
       -5    1    3    3    0  502 -0.10992578845E+04  0.10454027406E+04  0.65297579196E+03  0.16515551040E+04  0.46999998093E+01 0. -1.
</event>
<event>
 5   0  0.1421875E-07  0.3393615E+04  0.7818609E-02  0.8139475E-01
        1   -1    0    0  501    0  0.00000000000E+00  0.00000000000E+00  0.20344656342E+04  0.20344656343E+04  0.50400001928E-02 0.  1.
       -1   -1    0    0    0  501  0.00000000000E+00  0.00000000000E+00 -0.14151899511E+04  0.14151899511E+04  0.50400001928E-02 0. -1.
    10030    2    1    2    0    0  0.00000000000E+00  0.00000000000E+00  0.61927568315E+03  0.34496555854E+04  0.33936147816E+04 0.  0.
        5    1    3    3  502    0  0.16542071729E+03 -0.34596179238E+03 -0.13705578743E+04  0.14232022176E+04  0.46999998093E+01 0. -1.
       -5    1    3    3    0  502 -0.16542071729E+03  0.34596179238E+03  0.19898335574E+04  0.20264533678E+04  0.46999998093E+01 0.  1.
</event>
<event>
 5   0  0.4521737E-07  0.3404399E+04  0.7818609E-02  0.8136827E-01
       -2   -1    0    0    0  501  0.00000000000E+00  0.00000000000E+00  0.12743466669E+04  0.12743466669E+04  0.25500000920E-02 0.  1.
        2   -1    0    0  501    0  0.00000000000E+00  0.00000000000E+00 -0.22737014930E+04  0.22737014930E+04  0.25500000920E-02 0. -1.
    10030    2    1    2    0    0  0.00000000000E+00  0.00000000000E+00 -0.99935482606E+03  0.35480481599E+04  0.34043994591E+04 0.  0.
        4    1    3    3  502    0 -0.74061679445E+03 -0.18622820511E+03  0.10857914117E+04  0.13274557556E+04  0.12699999809E+01 0.  1.
       -4    1    3    3    0  502  0.74061679445E+03  0.18622820511E+03 -0.20851462377E+04  0.22205924043E+04  0.12699999809E+01 0. -1.
</event>
<event>
 5   0  0.4486226E-07  0.3393631E+04  0.7818609E-02  0.8139471E-01
        2   -1    0    0  501    0  0.00000000000E+00  0.00000000000E+00  0.23411122709E+04  0.23411122709E+04  0.25500000920E-02 0.  1.
       -2   -1    0    0    0  501  0.00000000000E+00  0.00000000000E+00 -0.12298357466E+04  0.12298357466E+04  0.25500000920E-02 0. -1.
    10030    2    1    2    0    0  0.00000000000E+00  0.00000000000E+00  0.11112765243E+04  0.35709480176E+04  0.33936314223E+04 0.  0.
        1    1    3    3  502    0 -0.81520743191E+03  0.14582115401E+04  0.24306603521E+03  0.16882017505E+04  0.50400001928E-02 0. -1.
       -1    1    3    3    0  502  0.81520743191E+03 -0.14582115401E+04  0.86821048911E+03  0.18827462671E+04  0.50400001928E-02 0.  1.
</event>
<event>
 5   0  0.1520084E-07  0.3398370E+04  0.7818609E-02  0.8138306E-01
        1   -1    0    0  501    0  0.00000000000E+00  0.00000000000E+00  0.17282520908E+04  0.17282520908E+04  0.50400001928E-02 0.  1.
       -1   -1    0    0    0  501  0.00000000000E+00  0.00000000000E+00 -0.16706071239E+04  0.16706071239E+04  0.50400001928E-02 0. -1.
    10030    2    1    2    0    0  0.00000000000E+00  0.00000000000E+00  0.57644966902E+02  0.33988592148E+04  0.33983703476E+04 0.  0.
        2    1    3    3  502    0 -0.96177039031E+03 -0.72798720520E+03  0.12257663842E+04  0.17197298867E+04  0.25500000920E-02 0.  1.
       -2    1    3    3    0  502  0.96177039031E+03  0.72798720520E+03 -0.11681214173E+04  0.16791293280E+04  0.25500000920E-02 0. -1.
</event>
<event>
 5   0  0.4447909E-07  0.3391428E+04  0.7818609E-02  0.8140013E-01
       -2   -1    0    0    0  501  0.00000000000E+00  0.00000000000E+00  0.14397465823E+04  0.14397465823E+04  0.25500000920E-02 0. -1.
        2   -1    0    0  501    0  0.00000000000E+00  0.00000000000E+00 -0.19971886905E+04  0.19971886905E+04  0.25500000920E-02 0.  1.
    10030    2    1    2    0    0  0.00000000000E+00  0.00000000000E+00 -0.55744210821E+03  0.34369352727E+04  0.33914277768E+04 0.  0.
        5    1    3    3  502    0  0.66454518723E+03  0.30776696022E+03  0.12712071036E+04  0.14670822738E+04  0.46999998093E+01 0.  1.
       -5    1    3    3    0  502 -0.66454518723E+03 -0.30776696022E+03 -0.18286492118E+04  0.19698529990E+04  0.46999998093E+01 0. -1.
</event>
<event>
 5   0  0.1520084E-07  0.3391452E+04  0.7818609E-02  0.8140007E-01
       -1   -1    0    0    0  501  0.00000000000E+00  0.00000000000E+00  0.20491679963E+04  0.20491679963E+04  0.50400001928E-02 0.  1.
        1   -1    0    0  501    0  0.00000000000E+00  0.00000000000E+00 -0.14032459235E+04  0.14032459236E+04  0.50400001928E-02 0. -1.
    10030    2    1    2    0    0  0.00000000000E+00  0.00000000000E+00  0.64592207275E+03  0.34524139199E+04  0.33914519825E+04 0.  0.
        2    1    3    3  502    0 -0.12175629028E+04 -0.33133665208E+03 -0.83020456414E+03  0.15104578834E+04  0.25500000920E-02 0. -1.
       -2    1    3    3    0  502  0.12175629028E+04  0.33133665208E+03  0.14761266369E+04  0.19419560364E+04  0.25500000920E-02 0.  1.
</event>
<event>
 5   0  0.4396257E-07  0.3406251E+04  0.7818609E-02  0.8136374E-01
       -2   -1    0    0    0  501  0.00000000000E+00  0.00000000000E+00  0.11138235123E+04  0.11138235123E+04  0.25500000920E-02 0.  1.
        2   -1    0    0  501    0  0.00000000000E+00  0.00000000000E+00 -0.26042156036E+04  0.26042156036E+04  0.25500000920E-02 0. -1.
    10030    2    1    2    0    0  0.00000000000E+00  0.00000000000E+00 -0.14903920913E+04  0.37180391160E+04  0.34062510598E+04 0.  0.
        2    1    3    3  502    0 -0.11006831315E+04  0.12377302751E+04 -0.31247886581E+03  0.16855630013E+04  0.25500000920E-02 0.  1.
       -2    1    3    3    0  502  0.11006831315E+04 -0.12377302751E+04 -0.11779132255E+04  0.20324761146E+04  0.25500000920E-02 0. -1.
</event>
<event>
 5   0  0.4381939E-07  0.3489462E+04  0.7818609E-02  0.8116292E-01
       -2   -1    0    0    0  501  0.00000000000E+00  0.00000000000E+00  0.14331062436E+04  0.14331062436E+04  0.25500000920E-02 0. -1.
        2   -1    0    0  501    0  0.00000000000E+00  0.00000000000E+00 -0.21241179873E+04  0.21241179873E+04  0.25500000920E-02 0.  1.
    10030    2    1    2    0    0  0.00000000000E+00  0.00000000000E+00 -0.69101174375E+03  0.35572242309E+04  0.34894622794E+04 0.  0.
        3    1    3    3  502    0 -0.11862534745E+04 -0.23670786101E+03  0.93623217955E+03  0.15296269550E+04  0.10100000352E+00 0. -1.
       -3    1    3    3    0  502  0.11862534745E+04  0.23670786101E+03 -0.16272439233E+04  0.20275972759E+04  0.10100000352E+00 0.  1.
</event>
<event>
 5   0  0.4486226E-07  0.3438853E+04  0.7818609E-02  0.8128436E-01
        2   -1    0    0  501    0  0.00000000000E+00  0.00000000000E+00  0.18056491215E+04  0.18056491215E+04  0.25500000920E-02 0.  1.
       -2   -1    0    0    0  501  0.00000000000E+00  0.00000000000E+00 -0.16373209177E+04  0.16373209177E+04  0.25500000920E-02 0. -1.
    10030    2    1    2    0    0  0.00000000000E+00  0.00000000000E+00  0.16832820378E+03  0.34429700391E+04  0.34388527602E+04 0.  0.
        1    1    3    3  502    0  0.11516403717E+04 -0.79871108205E+03  0.10814551715E+04  0.17702429851E+04  0.50400001928E-02 0.  1.
       -1    1    3    3    0  502 -0.11516403717E+04  0.79871108205E+03 -0.91312696772E+03  0.16727270541E+04  0.50400001928E-02 0. -1.
</event>
<event>
 5   0  0.4521737E-07  0.3412200E+04  0.7818609E-02  0.8134919E-01
       -2   -1    0    0    0  501  0.00000000000E+00  0.00000000000E+00  0.95041984733E+03  0.95041984734E+03  0.25500000920E-02 0.  1.
        2   -1    0    0  501    0  0.00000000000E+00  0.00000000000E+00 -0.30626220648E+04  0.30626220648E+04  0.25500000920E-02 0. -1.
    10030    2    1    2    0    0  0.00000000000E+00  0.00000000000E+00 -0.21122022174E+04  0.40130419121E+04  0.34121997569E+04 0.  0.
        4    1    3    3  502    0  0.34055896275E+03  0.15572711372E+04 -0.34100439207E+03  0.16301409173E+04  0.12699999809E+01 0.  1.
       -4    1    3    3    0  502 -0.34055896275E+03 -0.15572711372E+04 -0.17711978253E+04  0.23829009948E+04  0.12699999809E+01 0. -1.
</event>
<event>
 5   0  0.1421875E-07  0.3464999E+04  0.7818609E-02  0.8122135E-01
       -1   -1    0    0    0  501  0.00000000000E+00  0.00000000000E+00  0.13876346779E+04  0.13876346779E+04  0.50400001928E-02 0. -1.
        1   -1    0    0  501    0  0.00000000000E+00  0.00000000000E+00 -0.21630723473E+04  0.21630723473E+04  0.50400001928E-02 0.  1.
    10030    2    1    2    0    0  0.00000000000E+00  0.00000000000E+00 -0.77543766943E+03  0.35507070252E+04  0.34649988167E+04 0.  0.
        5    1    3    3  502    0  0.14014521749E+04  0.89043562962E+03  0.11907297637E+03  0.16646754256E+04  0.46999998093E+01 0.  1.
       -5    1    3    3    0  502 -0.14014521749E+04 -0.89043562962E+03 -0.89451064580E+03  0.18860315995E+04  0.46999998093E+01 0. -1.
</event>
<event>
 5   0  0.1523259E-07  0.3383974E+04  0.7818609E-02  0.8141851E-01
       -1   -1    0    0    0  501  0.00000000000E+00  0.00000000000E+00  0.27024937775E+04  0.27024937776E+04  0.50400001928E-02 0.  1.
        1   -1    0    0  501    0  0.00000000000E+00  0.00000000000E+00 -0.10593254904E+04  0.10593254904E+04  0.50400001928E-02 0. -1.
    10030    2    1    2    0    0  0.00000000000E+00  0.00000000000E+00  0.16431682871E+04  0.37618192680E+04  0.33839743180E+04 0.  0.
        4    1    3    3  502    0  0.13759591782E+04 -0.13901968501E+03 -0.26205569473E+03  0.14075741306E+04  0.12699999809E+01 0. -1.
       -4    1    3    3    0  502 -0.13759591782E+04  0.13901968501E+03  0.19052239819E+04  0.23542451374E+04  0.12699999809E+01 0.  1.
</event>
<event>
 5   0  0.1421875E-07  0.3411377E+04  0.7818609E-02  0.8135120E-01
        3   -1    0    0  501    0  0.00000000000E+00  0.00000000000E+00  0.19630682227E+04  0.19630682253E+04  0.10100000352E+00 0.  1.
       -3   -1    0    0    0  501  0.00000000000E+00  0.00000000000E+00 -0.14820538092E+04  0.14820538126E+04  0.10100000352E+00 0. -1.
    10030    2    1    2    0    0  0.00000000000E+00  0.00000000000E+00  0.48101441353E+03  0.34451220379E+04  0.34113767002E+04 0.  0.
        4    1    3    3  502    0 -0.58629265944E+02 -0.48144412909E+03 -0.14109504081E+04  0.14919814031E+04  0.12699999809E+01 0. -1.
       -4    1    3    3    0  502  0.58629265944E+02  0.48144412909E+03  0.18919648216E+04  0.19531406348E+04  0.12699999809E+01 0.  1.
</event>
<event>
 5   0  0.4381939E-07  0.3397686E+04  0.7818609E-02  0.8138474E-01
        2   -1    0    0  501    0  0.00000000000E+00  0.00000000000E+00  0.15779948493E+04  0.15779948493E+04  0.25500000920E-02 0. -1.
       -2   -1    0    0    0  501  0.00000000000E+00  0.00000000000E+00 -0.18289464928E+04  0.18289464928E+04  0.25500000920E-02 0.  1.
    10030    2    1    2    0    0  0.00000000000E+00  0.00000000000E+00 -0.25095164342E+03  0.34069413421E+04  0.33976863571E+04 0.  0.
        3    1    3    3  502    0 -0.14845438650E+03 -0.44841898114E+03 -0.17617755701E+04  0.18239987547E+04  0.10100000352E+00 0.  1.
       -3    1    3    3    0  502  0.14845438650E+03  0.44841898114E+03  0.15108239267E+04  0.15829425874E+04  0.10100000352E+00 0. -1.
</event>
<event>
 5   0  0.4396257E-07  0.3396653E+04  0.7818609E-02  0.8138728E-01
        2   -1    0    0  501    0  0.00000000000E+00  0.00000000000E+00  0.18262388078E+04  0.18262388078E+04  0.25500000920E-02 0.  1.
       -2   -1    0    0    0  501  0.00000000000E+00  0.00000000000E+00 -0.15793730821E+04  0.15793730821E+04  0.25500000920E-02 0. -1.
    10030    2    1    2    0    0  0.00000000000E+00  0.00000000000E+00  0.24686572565E+03  0.34056118899E+04  0.33966527138E+04 0.  0.
        2    1    3    3  502    0 -0.12430257793E+04 -0.11494202611E+04 -0.11206067230E+02  0.16930462488E+04  0.25500000920E-02 0.  1.
       -2    1    3    3    0  502  0.12430257793E+04  0.11494202611E+04  0.25807179288E+03  0.17125656411E+04  0.25500000920E-02 0. -1.
</event>
<event>
 5   0  0.4447909E-07  0.3396474E+04  0.7818609E-02  0.8138772E-01
        2   -1    0    0  501    0  0.00000000000E+00  0.00000000000E+00  0.14878279217E+04  0.14878279217E+04  0.25500000920E-02 0.  1.
       -2   -1    0    0    0  501  0.00000000000E+00  0.00000000000E+00 -0.19384017839E+04  0.19384017839E+04  0.25500000920E-02 0. -1.
    10030    2    1    2    0    0  0.00000000000E+00  0.00000000000E+00 -0.45057386219E+03  0.34262297055E+04  0.33964736404E+04 0.  0.
        5    1    3    3  502    0 -0.70807895806E+03  0.13670533460E+04 -0.94834793911E+03  0.18082025786E+04  0.46999998093E+01 0. -1.
       -5    1    3    3    0  502  0.70807895806E+03 -0.13670533460E+04  0.49777407692E+03  0.16180271269E+04  0.46999998093E+01 0.  1.
</event>
<event>
 5   0  0.1523259E-07  0.3418558E+04  0.7818609E-02  0.8133367E-01
        1   -1    0    0  501    0  0.00000000000E+00  0.00000000000E+00  0.93575875683E+03  0.93575875684E+03  0.50400001928E-02 0.  1.
       -1   -1    0    0    0  501  0.00000000000E+00  0.00000000000E+00 -0.31222095341E+04  0.31222095341E+04  0.50400001928E-02 0. -1.
    10030    2    1    2    0    0  0.00000000000E+00  0.00000000000E+00 -0.21864507772E+04  0.40579682909E+04  0.34185581242E+04 0.  0.
        4    1    3    3  502    0  0.35407224226E+03 -0.14459694192E+04 -0.96225095614E+02  0.14917960973E+04  0.12699999809E+01 0.  1.
       -4    1    3    3    0  502 -0.35407224226E+03  0.14459694192E+04 -0.20902256816E+04  0.25661721936E+04  0.12699999809E+01 0. -1.
</event>
<event>
 5   0  0.1435806E-07  0.3396853E+04  0.7818609E-02  0.8138679E-01
       -1   -1    0    0    0  501  0.00000000000E+00  0.00000000000E+00  0.25810821064E+04  0.25810821064E+04  0.50400001928E-02 0.  1.
        1   -1    0    0  501    0  0.00000000000E+00  0.00000000000E+00 -0.11176138696E+04  0.11176138696E+04  0.50400001928E-02 0. -1.
    10030    2    1    2    0    0  0.00000000000E+00  0.00000000000E+00  0.14634682369E+04  0.36986959760E+04  0.33968533443E+04 0.  0.
        3    1    3    3  502    0  0.42316932509E+03  0.15130427373E+04  0.14342658416E+04  0.21273197026E+04  0.10100000352E+00 0.  1.
       -3    1    3    3    0  502 -0.42316932509E+03 -0.15130427373E+04  0.29202395220E+02  0.15713762734E+04  0.10100000352E+00 0. -1.
</event>
<event>
 5   0  0.4396257E-07  0.3415639E+04  0.7818609E-02  0.8134079E-01
       -2   -1    0    0    0  501  0.00000000000E+00  0.00000000000E+00  0.13007000665E+04  0.13007000665E+04  0.25500000920E-02 0. -1.
        2   -1    0    0  501    0  0.00000000000E+00  0.00000000000E+00 -0.22423675833E+04  0.22423675833E+04  0.25500000920E-02 0.  1.
    10030    2    1    2    0    0  0.00000000000E+00  0.00000000000E+00 -0.94166751674E+03  0.35430676498E+04  0.34156391289E+04 0.  0.
        2    1    3    3  502    0  0.15731688635E+04  0.64976525017E+03 -0.32563847214E+03  0.17329441907E+04  0.25500000920E-02 0. -1.
       -2    1    3    3    0  502 -0.15731688635E+04 -0.64976525017E+03 -0.61602904460E+03  0.18101234591E+04  0.25500000920E-02 0.  1.
</event>
<event>
 5   0  0.1523259E-07  0.3393130E+04  0.7818609E-02  0.8139595E-01
        1   -1    0    0  501    0  0.00000000000E+00  0.00000000000E+00  0.19368967112E+04  0.19368967112E+04  0.50400001928E-02 0. -1.
       -1   -1    0    0    0  501  0.00000000000E+00  0.00000000000E+00 -0.14860534058E+04  0.14860534058E+04  0.50400001928E-02 0.  1.
    10030    2    1    2    0    0  0.00000000000E+00  0.00000000000E+00  0.45084330536E+03  0.34229501170E+04  0.33931295020E+04 0.  0.
        4    1    3    3  502    0  0.30542257860E+03  0.26333362816E+03 -0.14370002578E+04  0.14925142897E+04  0.12699999809E+01 0.  1.
       -4    1    3    3    0  502 -0.30542257860E+03 -0.26333362816E+03  0.18878435632E+04  0.19304358272E+04  0.12699999809E+01 0. -1.
</event>
<event>
 5   0  0.4521737E-07  0.3351120E+04  0.7818609E-02  0.8150008E-01
       -2   -1    0    0    0  501  0.00000000000E+00  0.00000000000E+00  0.12489246771E+04  0.12489246771E+04  0.25500000920E-02 0. -1.
        2   -1    0    0  501    0  0.00000000000E+00  0.00000000000E+00 -0.22479353783E+04  0.22479353783E+04  0.25500000920E-02 0.  1.
    10030    2    1    2    0    0  0.00000000000E+00  0.00000000000E+00 -0.99901070122E+03  0.34968600554E+04  0.33511203897E+04 0.  0.
        4    1    3    3  502    0  0.52662768423E+03  0.15902657216E+04 -0.46307917670E+03  0.17380235096E+04  0.12699999809E+01 0. -1.
       -4    1    3    3    0  502 -0.52662768423E+03 -0.15902657216E+04 -0.53593152452E+03  0.17588365458E+04  0.12699999809E+01 0.  1.
</event>
<event>
 5   0  0.1421875E-07  0.3396418E+04  0.7818609E-02  0.8138786E-01
        1   -1    0    0  501    0  0.00000000000E+00  0.00000000000E+00  0.22285128537E+04  0.22285128537E+04  0.50400001928E-02 0. -1.
       -1   -1    0    0    0  501  0.00000000000E+00  0.00000000000E+00 -0.12940976657E+04  0.12940976657E+04  0.50400001928E-02 0.  1.
    10030    2    1    2    0    0  0.00000000000E+00  0.00000000000E+00  0.93441518794E+03  0.35226105194E+04  0.33964176905E+04 0.  0.
        5    1    3    3  502    0  0.84742811946E+03  0.12154698709E+04 -0.39331194612E+03  0.15330420091E+04  0.46999998093E+01 0.  1.
       -5    1    3    3    0  502 -0.84742811946E+03 -0.12154698709E+04  0.13277271341E+04  0.19895685103E+04  0.46999998093E+01 0. -1.
</event>
<event>
 5   0  0.4381939E-07  0.3404242E+04  0.7818609E-02  0.8136866E-01
       -2   -1    0    0    0  501  0.00000000000E+00  0.00000000000E+00  0.10730938200E+04  0.10730938200E+04  0.25500000920E-02 0. -1.
        2   -1    0    0  501    0  0.00000000000E+00  0.00000000000E+00 -0.26998727245E+04  0.26998727245E+04  0.25500000920E-02 0.  1.
    10030    2    1    2    0    0  0.00000000000E+00  0.00000000000E+00 -0.16267789045E+04  0.37729665445E+04  0.34042424916E+04 0.  0.
        3    1    3    3  502    0 -0.32244529027E+03  0.23384901245E+03 -0.26474920581E+04  0.26772879064E+04  0.10100000352E+00 0.  1.
       -3    1    3    3    0  502  0.32244529027E+03 -0.23384901245E+03  0.10207131536E+04  0.10956786381E+04  0.10100000352E+00 0. -1.
</event>
<event>
 5   0  0.4486226E-07  0.3402261E+04  0.7818609E-02  0.8137352E-01
       -2   -1    0    0    0  501  0.00000000000E+00  0.00000000000E+00  0.98111775636E+03  0.98111775636E+03  0.25500000920E-02 0.  1.
        2   -1    0    0  501    0  0.00000000000E+00  0.00000000000E+00 -0.29495381713E+04  0.29495381713E+04  0.25500000920E-02 0. -1.
    10030    2    1    2    0    0  0.00000000000E+00  0.00000000000E+00 -0.19684204149E+04  0.39306559277E+04  0.34022605855E+04 0.  0.
        1    1    3    3  502    0 -0.97769010922E+03  0.13186233958E+04 -0.46857725352E+03  0.17071058116E+04  0.50400001928E-02 0.  1.
       -1    1    3    3    0  502  0.97769010922E+03 -0.13186233958E+04 -0.14998431614E+04  0.22235501160E+04  0.50400001928E-02 0. -1.
</event>
<event>
 5   0  0.1435806E-07  0.3392637E+04  0.7818609E-02  0.8139716E-01
        1   -1    0    0  501    0  0.00000000000E+00  0.00000000000E+00  0.24925335297E+04  0.24925335298E+04  0.50400001928E-02 0.  1.
       -1   -1    0    0    0  501  0.00000000000E+00  0.00000000000E+00 -0.11544467759E+04  0.11544467760E+04  0.50400001928E-02 0. -1.
    10030    2    1    2    0    0  0.00000000000E+00  0.00000000000E+00  0.13380867538E+04  0.36469803057E+04  0.33926374975E+04 0.  0.
        3    1    3    3  502    0  0.13550067677E+04 -0.99598987562E+03  0.90810768245E+03  0.19112034811E+04  0.10100000352E+00 0. -1.
       -3    1    3    3    0  502 -0.13550067677E+04  0.99598987562E+03  0.42997907134E+03  0.17357768246E+04  0.10100000352E+00 0.  1.
</event>
<event>
 5   0  0.1523259E-07  0.3322979E+04  0.7818609E-02  0.8157073E-01
        1   -1    0    0  501    0  0.00000000000E+00  0.00000000000E+00  0.25353793903E+04  0.25353793904E+04  0.50400001928E-02 0.  1.
       -1   -1    0    0    0  501  0.00000000000E+00  0.00000000000E+00 -0.10888102534E+04  0.10888102534E+04  0.50400001928E-02 0. -1.
    10030    2    1    2    0    0  0.00000000000E+00  0.00000000000E+00  0.14465691369E+04  0.36241896438E+04  0.33229788302E+04 0.  0.
        4    1    3    3  502    0 -0.69445279142E+03  0.12833881937E+04 -0.14320890774E+03  0.14662402052E+04  0.12699999809E+01 0. -1.
       -4    1    3    3    0  502  0.69445279142E+03 -0.12833881937E+04  0.15897780447E+04  0.21579494386E+04  0.12699999809E+01 0.  1.
</event>
<event>
 5   0  0.1523259E-07  0.3403373E+04  0.7818609E-02  0.8137079E-01
        1   -1    0    0  501    0  0.00000000000E+00  0.00000000000E+00  0.29946332424E+04  0.29946332424E+04  0.50400001928E-02 0. -1.
       -1   -1    0    0    0  501  0.00000000000E+00  0.00000000000E+00 -0.96697522342E+03  0.96697522343E+03  0.50400001928E-02 0.  1.
    10030    2    1    2    0    0  0.00000000000E+00  0.00000000000E+00  0.20276580190E+04  0.39616084659E+04  0.34033725325E+04 0.  0.
        4    1    3    3  502    0  0.38691765273E+03  0.13080230628E+04  0.21981086161E+04  0.25869504642E+04  0.12699999809E+01 0. -1.
       -4    1    3    3    0  502 -0.38691765273E+03 -0.13080230628E+04 -0.17045059715E+03  0.13746580017E+04  0.12699999809E+01 0.  1.
</event>
<event>
 5   0  0.1523259E-07  0.3391400E+04  0.7818609E-02  0.8140020E-01
       -1   -1    0    0    0  501  0.00000000000E+00  0.00000000000E+00  0.20800513434E+04  0.20800513434E+04  0.50400001928E-02 0.  1.
        1   -1    0    0  501    0  0.00000000000E+00  0.00000000000E+00 -0.13823686243E+04  0.13823686243E+04  0.50400001928E-02 0. -1.
    10030    2    1    2    0    0  0.00000000000E+00  0.00000000000E+00  0.69768271906E+03  0.34624199677E+04  0.33913995424E+04 0.  0.
        4    1    3    3  502    0 -0.21333196552E+02  0.16955062356E+04  0.33441747624E+03  0.17283035501E+04  0.12699999809E+01 0.  1.
       -4    1    3    3    0  502  0.21333196552E+02 -0.16955062356E+04  0.36326524282E+03  0.17341164176E+04  0.12699999809E+01 0. -1.
</event>
<event>
 5   0  0.1435806E-07  0.3398344E+04  0.7818609E-02  0.8138313E-01
       -1   -1    0    0    0  501  0.00000000000E+00  0.00000000000E+00  0.30560292338E+04  0.30560292338E+04  0.50400001928E-02 0. -1.
        1   -1    0    0  501    0  0.00000000000E+00  0.00000000000E+00 -0.94475037348E+03  0.94475037350E+03  0.50400001928E-02 0.  1.
    10030    2    1    2    0    0  0.00000000000E+00  0.00000000000E+00  0.21112788603E+04  0.40007796073E+04  0.33983435730E+04 0.  0.
        3    1    3    3  502    0  0.12410741608E+04  0.24879466350E+03 -0.27890315998E+03  0.12961291756E+04  0.10100000352E+00 0.  1.
       -3    1    3    3    0  502 -0.12410741608E+04 -0.24879466350E+03  0.23901820203E+04  0.27046504316E+04  0.10100000352E+00 0. -1.
</event>
<event>
 5   0  0.4447909E-07  0.3413978E+04  0.7818609E-02  0.8134484E-01
        2   -1    0    0  501    0  0.00000000000E+00  0.00000000000E+00  0.20869730730E+04  0.20869730730E+04  0.25500000920E-02 0.  1.
       -2   -1    0    0    0  501  0.00000000000E+00  0.00000000000E+00 -0.13961900795E+04  0.13961900795E+04  0.25500000920E-02 0. -1.
    10030    2    1    2    0    0  0.00000000000E+00  0.00000000000E+00  0.69078299351E+03  0.34831631525E+04  0.34139777977E+04 0.  0.
        5    1    3    3  502    0 -0.75495017823E+03  0.14916459425E+04  0.69709697765E+03  0.18113320170E+04  0.46999998093E+01 0.  1.
       -5    1    3    3    0  502  0.75495017823E+03 -0.14916459425E+04 -0.63139841392E+01  0.16718311356E+04  0.46999998093E+01 0. -1.
</event>
<event>
 5   0  0.4396257E-07  0.3375129E+04  0.7818609E-02  0.8144038E-01
        2   -1    0    0  501    0  0.00000000000E+00  0.00000000000E+00  0.19200645931E+04  0.19200645931E+04  0.25500000920E-02 0.  1.
       -2   -1    0    0    0  501  0.00000000000E+00  0.00000000000E+00 -0.14832176892E+04  0.14832176892E+04  0.25500000920E-02 0. -1.
    10030    2    1    2    0    0  0.00000000000E+00  0.00000000000E+00  0.43684690386E+03  0.34032822823E+04  0.33751288976E+04 0.  0.
        2    1    3    3  502    0  0.66512291559E+03 -0.11875805586E+04  0.12243104570E+04  0.18307572671E+04  0.25500000920E-02 0.  1.
       -2    1    3    3    0  502 -0.66512291559E+03  0.11875805586E+04 -0.78746355313E+03  0.15725250152E+04  0.25500000920E-02 0. -1.
</event>
<event>
 5   0  0.1520084E-07  0.3391073E+04  0.7818609E-02  0.8140101E-01
        1   -1    0    0  501    0  0.00000000000E+00  0.00000000000E+00  0.21363408281E+04  0.21363408281E+04  0.50400001928E-02 0.  1.
       -1   -1    0    0    0  501  0.00000000000E+00  0.00000000000E+00 -0.13456858619E+04  0.13456858619E+04  0.50400001928E-02 0. -1.
    10030    2    1    2    0    0  0.00000000000E+00  0.00000000000E+00  0.79065496619E+03  0.34820266901E+04  0.33910727794E+04 0.  0.
        2    1    3    3  502    0 -0.50916703237E+03 -0.11866041724E+04  0.15236932593E+04  0.19972284990E+04  0.25500000920E-02 0.  1.
       -2    1    3    3    0  502  0.50916703237E+03  0.11866041724E+04 -0.73303829313E+03  0.14847981910E+04  0.25500000920E-02 0. -1.
</event>
<event>
 5   0  0.1473755E-07  0.3415582E+04  0.7818609E-02  0.8134092E-01
       -1   -1    0    0    0  501  0.00000000000E+00  0.00000000000E+00  0.20757841845E+04  0.20757841845E+04  0.50400001928E-02 0.  1.
        1   -1    0    0  501    0  0.00000000000E+00  0.00000000000E+00 -0.14050356966E+04  0.14050356966E+04  0.50400001928E-02 0. -1.
    10030    2    1    2    0    0  0.00000000000E+00  0.00000000000E+00  0.67074848785E+03  0.34808198811E+04  0.34155824556E+04 0.  0.
        1    1    3    3  502    0  0.11103970142E+04 -0.57471191448E+03 -0.85014851749E+03  0.15119615788E+04  0.50400001928E-02 0. -1.
       -1    1    3    3    0  502 -0.11103970142E+04  0.57471191448E+03  0.15208970053E+04  0.19688583023E+04  0.50400001928E-02 0.  1.
</event>
<event>
 5   0  0.1435806E-07  0.3410085E+04  0.7818609E-02  0.8135436E-01
       -1   -1    0    0    0  501  0.00000000000E+00  0.00000000000E+00  0.13140992136E+04  0.13140992137E+04  0.50400001928E-02 0.  1.
        1   -1    0    0  501    0  0.00000000000E+00  0.00000000000E+00 -0.22122908200E+04  0.22122908200E+04  0.50400001928E-02 0. -1.
    10030    2    1    2    0    0  0.00000000000E+00  0.00000000000E+00 -0.89819160639E+03  0.35263900337E+04  0.34100848242E+04 0.  0.
        3    1    3    3  502    0 -0.61142659557E+03  0.14980451476E+04  0.10700714859E+03  0.16215524309E+04  0.10100000352E+00 0.  1.
       -3    1    3    3    0  502  0.61142659557E+03 -0.14980451476E+04 -0.10051987550E+04  0.19048376028E+04  0.10100000352E+00 0. -1.
</event>
<event>
 5   0  0.1473755E-07  0.3387015E+04  0.7818609E-02  0.8141101E-01
       -1   -1    0    0    0  501  0.00000000000E+00  0.00000000000E+00  0.17169348448E+04  0.17169348448E+04  0.50400001928E-02 0.  1.
        1   -1    0    0  501    0  0.00000000000E+00  0.00000000000E+00 -0.16704001572E+04  0.16704001573E+04  0.50400001928E-02 0. -1.
    10030    2    1    2    0    0  0.00000000000E+00  0.00000000000E+00  0.46534687565E+02  0.33873350021E+04  0.33870153438E+04 0.  0.
        1    1    3    3  502    0  0.58647317477E+03  0.10737771791E+04  0.11942834919E+04  0.17097547409E+04  0.50400001928E-02 0.  1.
       -1    1    3    3    0  502 -0.58647317477E+03 -0.10737771791E+04 -0.11477488043E+04  0.16775802612E+04  0.50400001928E-02 0. -1.
</event>
<event>
 5   0  0.1523259E-07  0.3394273E+04  0.7818609E-02  0.8139313E-01
       -1   -1    0    0    0  501  0.00000000000E+00  0.00000000000E+00  0.21595752061E+04  0.21595752061E+04  0.50400001928E-02 0.  1.
        1   -1    0    0  501    0  0.00000000000E+00  0.00000000000E+00 -0.13337219497E+04  0.13337219497E+04  0.50400001928E-02 0. -1.
    10030    2    1    2    0    0  0.00000000000E+00  0.00000000000E+00  0.82585325640E+03  0.34932971557E+04  0.33942733268E+04 0.  0.
        4    1    3    3  502    0  0.75622800147E+03 -0.75535725491E+03  0.17696516909E+04  0.20673930669E+04  0.12699999809E+01 0.  1.
       -4    1    3    3    0  502 -0.75622800147E+03  0.75535725491E+03 -0.94379843454E+03  0.14259040889E+04  0.12699999809E+01 0. -1.
</event>
<event>
 5   0  0.1523259E-07  0.3451463E+04  0.7818609E-02  0.8125390E-01
        1   -1    0    0  501    0  0.00000000000E+00  0.00000000000E+00  0.15010843032E+04  0.15010843032E+04  0.50400001928E-02 0.  1.
       -1   -1    0    0    0  501  0.00000000000E+00  0.00000000000E+00 -0.19839980916E+04  0.19839980916E+04  0.50400001928E-02 0. -1.
    10030    2    1    2    0    0  0.00000000000E+00  0.00000000000E+00 -0.48291378835E+03  0.34850823948E+04  0.34514625264E+04 0.  0.
        4    1    3    3  502    0  0.70474953773E+03 -0.15752614002E+04 -0.24664404843E+03  0.17432599604E+04  0.12699999809E+01 0. -1.
       -4    1    3    3    0  502 -0.70474953773E+03  0.15752614002E+04 -0.23626973992E+03  0.17418224344E+04  0.12699999809E+01 0.  1.
</event>
<event>
 5   0  0.1435806E-07  0.3403556E+04  0.7818609E-02  0.8137034E-01
        1   -1    0    0  501    0  0.00000000000E+00  0.00000000000E+00  0.16115616304E+04  0.16115616304E+04  0.50400001928E-02 0. -1.
       -1   -1    0    0    0  501  0.00000000000E+00  0.00000000000E+00 -0.17970451866E+04  0.17970451866E+04  0.50400001928E-02 0.  1.
    10030    2    1    2    0    0  0.00000000000E+00  0.00000000000E+00 -0.18548355620E+03  0.34086068170E+04  0.34035564169E+04 0.  0.
        3    1    3    3  502    0 -0.12101380312E+04 -0.34106303037E+03 -0.12413049353E+04  0.17668038934E+04  0.10100000352E+00 0.  1.
       -3    1    3    3    0  502  0.12101380312E+04  0.34106303037E+03  0.10558213791E+04  0.16418029236E+04  0.10100000352E+00 0. -1.
</event>
<event>
 5   0  0.4396257E-07  0.3390650E+04  0.7818609E-02  0.8140205E-01
       -2   -1    0    0    0  501  0.00000000000E+00  0.00000000000E+00  0.19004644100E+04  0.19004644100E+04  0.25500000920E-02 0. -1.
        2   -1    0    0  501    0  0.00000000000E+00  0.00000000000E+00 -0.15123285006E+04  0.15123285006E+04  0.25500000920E-02 0.  1.
    10030    2    1    2    0    0  0.00000000000E+00  0.00000000000E+00  0.38813590945E+03  0.34127929106E+04  0.33906497853E+04 0.  0.
        2    1    3    3  502    0 -0.17219979171E+03  0.10164879682E+04  0.15486749544E+04  0.18604555012E+04  0.25500000920E-02 0. -1.
       -2    1    3    3    0  502  0.17219979171E+03 -0.10164879682E+04 -0.11605390449E+04  0.15523374094E+04  0.25500000920E-02 0.  1.
</event>
<event>
 5   0  0.1421875E-07  0.3409230E+04  0.7818609E-02  0.8135645E-01
        3   -1    0    0  501    0  0.00000000000E+00  0.00000000000E+00  0.19139025129E+04  0.19139025156E+04  0.10100000352E+00 0.  1.
       -3   -1    0    0    0  501  0.00000000000E+00  0.00000000000E+00 -0.15182137508E+04  0.15182137542E+04  0.10100000352E+00 0. -1.
    10030    2    1    2    0    0  0.00000000000E+00  0.00000000000E+00  0.39568876215E+03  0.34321162698E+04  0.34092304840E+04 0.  0.
        4    1    3    3  502    0  0.72157997983E+03 -0.57379702370E+03 -0.12455835006E+04  0.15496453019E+04  0.12699999809E+01 0. -1.
       -4    1    3    3    0  502 -0.72157997983E+03  0.57379702370E+03  0.16412722627E+04  0.18824709679E+04  0.12699999809E+01 0.  1.
</event>
<event>
 5   0  0.4486226E-07  0.3397073E+04  0.7818609E-02  0.8138625E-01
       -2   -1    0    0    0  501  0.00000000000E+00  0.00000000000E+00  0.14867875842E+04  0.14867875842E+04  0.25500000920E-02 0.  1.
        2   -1    0    0  501    0  0.00000000000E+00  0.00000000000E+00 -0.19404422978E+04  0.19404422978E+04  0.25500000920E-02 0. -1.
    10030    2    1    2    0    0  0.00000000000E+00  0.00000000000E+00 -0.45365471359E+03  0.34272298820E+04  0.33970725728E+04 0.  0.
        1    1    3    3  502    0  0.88169167282E+03  0.59171899392E+03  0.11106541948E+04  0.15365755152E+04  0.50400001928E-02 0.  1.
       -1    1    3    3    0  502 -0.88169167282E+03 -0.59171899392E+03 -0.15643089083E+04  0.18906543667E+04  0.50400001928E-02 0. -1.
</event>
<event>
 5   0  0.1435806E-07  0.3393083E+04  0.7818609E-02  0.8139606E-01
        1   -1    0    0  501    0  0.00000000000E+00  0.00000000000E+00  0.11080919440E+04  0.11080919440E+04  0.50400001928E-02 0. -1.
       -1   -1    0    0    0  501  0.00000000000E+00  0.00000000000E+00 -0.25974864950E+04  0.25974864950E+04  0.50400001928E-02 0.  1.
    10030    2    1    2    0    0  0.00000000000E+00  0.00000000000E+00 -0.14893945510E+04  0.37055784391E+04  0.33930834707E+04 0.  0.
        3    1    3    3  502    0  0.34126966233E+03  0.16616859958E+04 -0.71820363634E+03  0.18421405496E+04  0.10100000352E+00 0.  1.
       -3    1    3    3    0  502 -0.34126966233E+03 -0.16616859958E+04 -0.77119091466E+03  0.18634378895E+04  0.10100000352E+00 0. -1.
</event>
<event>
 5   0  0.4486226E-07  0.3380497E+04  0.7818609E-02  0.8142710E-01
        2   -1    0    0  501    0  0.00000000000E+00  0.00000000000E+00  0.16752917162E+04  0.16752917162E+04  0.25500000920E-02 0.  1.
       -2   -1    0    0    0  501  0.00000000000E+00  0.00000000000E+00 -0.17053384758E+04  0.17053384759E+04  0.25500000920E-02 0. -1.
    10030    2    1    2    0    0  0.00000000000E+00  0.00000000000E+00 -0.30046759685E+02  0.33806301920E+04  0.33804966628E+04 0.  0.
        1    1    3    3  502    0 -0.13639108810E+04 -0.70595207073E+02 -0.10109054979E+04  0.16991664134E+04  0.50400001928E-02 0. -1.
       -1    1    3    3    0  502  0.13639108810E+04  0.70595207073E+02  0.98085873821E+03  0.16814637787E+04  0.50400001928E-02 0.  1.
</event>
<event>
 5   0  0.1473755E-07  0.3376528E+04  0.7818609E-02  0.8143691E-01
       -1   -1    0    0    0  501  0.00000000000E+00  0.00000000000E+00  0.23703537784E+04  0.23703537784E+04  0.50400001928E-02 0. -1.
        1   -1    0    0  501    0  0.00000000000E+00  0.00000000000E+00 -0.12024517587E+04  0.12024517587E+04  0.50400001928E-02 0.  1.
    10030    2    1    2    0    0  0.00000000000E+00  0.00000000000E+00  0.11679020197E+04  0.35728055371E+04  0.33765284359E+04 0.  0.
        1    1    3    3  502    0 -0.40249167990E+03  0.15490058315E+04  0.11526083936E+04  0.19722892100E+04  0.50400001928E-02 0. -1.
       -1    1    3    3    0  502  0.40249167990E+03 -0.15490058315E+04  0.15293626062E+02  0.16005163272E+04  0.50400001928E-02 0.  1.
</event>
<event>
 5   0  0.4447909E-07  0.3399123E+04  0.7818609E-02  0.8138122E-01
       -2   -1    0    0    0  501  0.00000000000E+00  0.00000000000E+00  0.14170665786E+04  0.14170665786E+04  0.25500000920E-02 0. -1.
        2   -1    0    0  501    0  0.00000000000E+00  0.00000000000E+00 -0.20383721983E+04  0.20383721983E+04  0.25500000920E-02 0.  1.
    10030    2    1    2    0    0  0.00000000000E+00  0.00000000000E+00 -0.62130561970E+03  0.34554387769E+04  0.33991228969E+04 0.  0.
        5    1    3    3  502    0  0.27130788247E+03  0.14339749348E+04 -0.11960564602E+04  0.18869195072E+04  0.46999998093E+01 0.  1.
       -5    1    3    3    0  502 -0.27130788247E+03 -0.14339749348E+04  0.57475084050E+03  0.15685192697E+04  0.46999998093E+01 0. -1.
</event>
<event>
 5   0  0.1520084E-07  0.3419366E+04  0.7818609E-02  0.8133170E-01
       -1   -1    0    0    0  501  0.00000000000E+00  0.00000000000E+00  0.22617106950E+04  0.22617106950E+04  0.50400001928E-02 0.  1.
        1   -1    0    0  501    0  0.00000000000E+00  0.00000000000E+00 -0.12923913820E+04  0.12923913820E+04  0.50400001928E-02 0. -1.
    10030    2    1    2    0    0  0.00000000000E+00  0.00000000000E+00  0.96931931302E+03  0.35541020770E+04  0.34193656785E+04 0.  0.
        2    1    3    3  502    0  0.90438521247E+03 -0.63382186866E+03 -0.87190088966E+03  0.14070728251E+04  0.25500000920E-02 0. -1.
       -2    1    3    3    0  502 -0.90438521247E+03  0.63382186866E+03  0.18412202027E+04  0.21470292519E+04  0.25500000920E-02 0.  1.
</event>
<event>
 5   0  0.4381939E-07  0.3393875E+04  0.7818609E-02  0.8139411E-01
        2   -1    0    0  501    0  0.00000000000E+00  0.00000000000E+00  0.18256384697E+04  0.18256384697E+04  0.25500000920E-02 0. -1.
       -2   -1    0    0    0  501  0.00000000000E+00  0.00000000000E+00 -0.15773092369E+04  0.15773092369E+04  0.25500000920E-02 0.  1.
    10030    2    1    2    0    0  0.00000000000E+00  0.00000000000E+00  0.24832923283E+03  0.34029477065E+04  0.33938747304E+04 0.  0.
        3    1    3    3  502    0 -0.11674326664E+04 -0.57064462745E+03 -0.97011086370E+03  0.16216193818E+04  0.10100000352E+00 0.  1.
       -3    1    3    3    0  502  0.11674326664E+04  0.57064462745E+03  0.12184400965E+04  0.17813283247E+04  0.10100000352E+00 0. -1.
</event>
<event>
 5   0  0.4396257E-07  0.3403053E+04  0.7818609E-02  0.8137158E-01
       -2   -1    0    0    0  501  0.00000000000E+00  0.00000000000E+00  0.13056148829E+04  0.13056148829E+04  0.25500000920E-02 0. -1.
        2   -1    0    0  501    0  0.00000000000E+00  0.00000000000E+00 -0.22174929425E+04  0.22174929425E+04  0.25500000920E-02 0.  1.
    10030    2    1    2    0    0  0.00000000000E+00  0.00000000000E+00 -0.91187805965E+03  0.35231078254E+04  0.34030526229E+04 0.  0.
        2    1    3    3  502    0 -0.15133948364E+04 -0.96056402033E+02 -0.12549173380E+04  0.19683516678E+04  0.25500000920E-02 0.  1.
       -2    1    3    3    0  502  0.15133948364E+04  0.96056402033E+02  0.34303927833E+03  0.15547561576E+04  0.25500000920E-02 0. -1.
</event>
<event>
 5   0  0.1520084E-07  0.3445986E+04  0.7818609E-02  0.8126711E-01
       -1   -1    0    0    0  501  0.00000000000E+00  0.00000000000E+00  0.20669354218E+04  0.20669354218E+04  0.50400001928E-02 0.  1.
        1   -1    0    0  501    0  0.00000000000E+00  0.00000000000E+00 -0.14362835343E+04  0.14362835343E+04  0.50400001928E-02 0. -1.
    10030    2    1    2    0    0  0.00000000000E+00  0.00000000000E+00  0.63065188751E+03  0.35032189561E+04  0.34459862523E+04 0.  0.
        2    1    3    3  502    0 -0.11667554323E+04 -0.19340983732E+03 -0.95847263908E+03  0.15222993805E+04  0.25500000920E-02 0. -1.
       -2    1    3    3    0  502  0.11667554323E+04  0.19340983732E+03  0.15891245266E+04  0.19809195756E+04  0.25500000920E-02 0.  1.
</event>
<event>
 5   0  0.4447909E-07  0.3416887E+04  0.7818609E-02  0.8133774E-01
       -2   -1    0    0    0  501  0.00000000000E+00  0.00000000000E+00  0.13517720243E+04  0.13517720243E+04  0.25500000920E-02 0.  1.
        2   -1    0    0  501    0  0.00000000000E+00  0.00000000000E+00 -0.21592245914E+04  0.21592245914E+04  0.25500000920E-02 0. -1.
    10030    2    1    2    0    0  0.00000000000E+00  0.00000000000E+00 -0.80745256714E+03  0.35109966157E+04  0.34168871194E+04 0.  0.
        5    1    3    3  502    0 -0.16514628093E+04  0.23879661348E+03 -0.27017284266E+02  0.16688634626E+04  0.46999998093E+01 0.  1.
       -5    1    3    3    0  502  0.16514628093E+04 -0.23879661348E+03 -0.78043528287E+03  0.18421331531E+04  0.46999998093E+01 0. -1.
</event>
<event>
 5   0  0.4447909E-07  0.3386230E+04  0.7818609E-02  0.8141294E-01
        2   -1    0    0  501    0  0.00000000000E+00  0.00000000000E+00  0.23649041855E+04  0.23649041855E+04  0.25500000920E-02 0. -1.
       -2   -1    0    0    0  501  0.00000000000E+00  0.00000000000E+00 -0.12121580343E+04  0.12121580343E+04  0.25500000920E-02 0.  1.
    10030    2    1    2    0    0  0.00000000000E+00  0.00000000000E+00  0.11527461513E+04  0.35770622198E+04  0.33862295308E+04 0.  0.
        5    1    3    3  502    0  0.10221392029E+04 -0.15786631614E+03  0.19924117036E+04  0.22448645417E+04  0.46999998093E+01 0. -1.
       -5    1    3    3    0  502 -0.10221392029E+04  0.15786631614E+03 -0.83966555228E+03  0.13321976781E+04  0.46999998093E+01 0.  1.
</event>
<event>
 5   0  0.4381939E-07  0.3392876E+04  0.7818609E-02  0.8139657E-01
       -2   -1    0    0    0  501  0.00000000000E+00  0.00000000000E+00  0.12220750746E+04  0.12220750746E+04  0.25500000920E-02 0.  1.
        2   -1    0    0  501    0  0.00000000000E+00  0.00000000000E+00 -0.23549300790E+04  0.23549300790E+04  0.25500000920E-02 0. -1.
    10030    2    1    2    0    0  0.00000000000E+00  0.00000000000E+00 -0.11328550044E+04  0.35770051536E+04  0.33928756841E+04 0.  0.
        3    1    3    3  502    0 -0.63983705250E+03 -0.31565163015E+03  0.10562140512E+04  0.12746040709E+04  0.10100000352E+00 0.  1.
       -3    1    3    3    0  502  0.63983705250E+03  0.31565163015E+03 -0.21890690556E+04  0.23024010827E+04  0.10100000352E+00 0. -1.
</event>
<event>
 5   0  0.4486226E-07  0.3416833E+04  0.7818609E-02  0.8133787E-01
       -2   -1    0    0    0  501  0.00000000000E+00  0.00000000000E+00  0.16375090323E+04  0.16375090323E+04  0.25500000920E-02 0.  1.
        2   -1    0    0  501    0  0.00000000000E+00  0.00000000000E+00 -0.17823945905E+04  0.17823945905E+04  0.25500000920E-02 0. -1.
    10030    2    1    2    0    0  0.00000000000E+00  0.00000000000E+00 -0.14488555814E+03  0.34199036228E+04  0.34168331777E+04 0.  0.
        1    1    3    3  502    0  0.35215061776E+03  0.60164725842E+03 -0.16335551648E+04  0.17760889498E+04  0.50400001928E-02 0. -1.
       -1    1    3    3    0  502 -0.35215061776E+03 -0.60164725842E+03  0.14886696067E+04  0.16438146730E+04  0.50400001928E-02 0.  1.
</event>
<event>
 5   0  0.1421875E-07  0.3393974E+04  0.7818609E-02  0.8139387E-01
       -1   -1    0    0    0  501  0.00000000000E+00  0.00000000000E+00  0.17225177004E+04  0.17225177004E+04  0.50400001928E-02 0. -1.
        1   -1    0    0  501    0  0.00000000000E+00  0.00000000000E+00 -0.16718347034E+04  0.16718347034E+04  0.50400001928E-02 0.  1.
    10030    2    1    2    0    0  0.00000000000E+00  0.00000000000E+00  0.50682997023E+02  0.33943524038E+04  0.33939739945E+04 0.  0.
        5    1    3    3  502    0  0.16901079784E+04 -0.14211490980E+03 -0.30172821519E+02  0.16963472862E+04  0.46999998093E+01 0. -1.
       -5    1    3    3    0  502 -0.16901079784E+04  0.14211490980E+03  0.80855818542E+02  0.16980051176E+04  0.46999998093E+01 0.  1.
</event>
<event>
 5   0  0.1473755E-07  0.3404708E+04  0.7818609E-02  0.8136752E-01
        1   -1    0    0  501    0  0.00000000000E+00  0.00000000000E+00  0.22169633641E+04  0.22169633641E+04  0.50400001928E-02 0. -1.
       -1   -1    0    0    0  501  0.00000000000E+00  0.00000000000E+00 -0.13071976892E+04  0.13071976892E+04  0.50400001928E-02 0.  1.
    10030    2    1    2    0    0  0.00000000000E+00  0.00000000000E+00  0.90976567491E+03  0.35241610533E+04  0.34047081441E+04 0.  0.
        1    1    3    3  502    0  0.49117353439E+03 -0.21796675969E+03 -0.12171067705E+04  0.13304547493E+04  0.50400001928E-02 0.  1.
       -1    1    3    3    0  502 -0.49117353439E+03  0.21796675969E+03  0.21268724454E+04  0.21937063040E+04  0.50400001928E-02 0. -1.
</event>
<event>
 5   0  0.4396257E-07  0.3410126E+04  0.7818609E-02  0.8135426E-01
        2   -1    0    0  501    0  0.00000000000E+00  0.00000000000E+00  0.18568930803E+04  0.18568930803E+04  0.25500000920E-02 0. -1.
       -2   -1    0    0    0  501  0.00000000000E+00  0.00000000000E+00 -0.15656472397E+04  0.15656472397E+04  0.25500000920E-02 0.  1.
    10030    2    1    2    0    0  0.00000000000E+00  0.00000000000E+00  0.29124584064E+03  0.34225403200E+04  0.34101258192E+04 0.  0.
        2    1    3    3  502    0 -0.82747888383E+03 -0.14724770000E+04  0.37955880783E+03  0.17311772605E+04  0.25500000920E-02 0.  1.
       -2    1    3    3    0  502  0.82747888383E+03  0.14724770000E+04 -0.88312967187E+02  0.16913630595E+04  0.25500000920E-02 0. -1.
</event>
<event>
 5   0  0.1520084E-07  0.3400514E+04  0.7818609E-02  0.8137780E-01
       -1   -1    0    0    0  501  0.00000000000E+00  0.00000000000E+00  0.18449284813E+04  0.18449284813E+04  0.50400001928E-02 0.  1.
        1   -1    0    0  501    0  0.00000000000E+00  0.00000000000E+00 -0.15669302133E+04  0.15669302133E+04  0.50400001928E-02 0. -1.
    10030    2    1    2    0    0  0.00000000000E+00  0.00000000000E+00  0.27799826792E+03  0.34118586946E+04  0.34005141839E+04 0.  0.
        2    1    3    3  502    0 -0.16949141428E+04 -0.71049070877E+02  0.24196010668E+02  0.16965751881E+04  0.25500000920E-02 0.  1.
       -2    1    3    3    0  502  0.16949141428E+04  0.71049070877E+02  0.25380225725E+03  0.17152835065E+04  0.25500000920E-02 0. -1.
</event>
<event>
 5   0  0.4486226E-07  0.3406140E+04  0.7818609E-02  0.8136401E-01
        2   -1    0    0  501    0  0.00000000000E+00  0.00000000000E+00  0.18039790315E+04  0.18039790315E+04  0.25500000920E-02 0.  1.
       -2   -1    0    0    0  501  0.00000000000E+00  0.00000000000E+00 -0.16078055045E+04  0.16078055045E+04  0.25500000920E-02 0. -1.
    10030    2    1    2    0    0  0.00000000000E+00  0.00000000000E+00  0.19617352702E+03  0.34117845360E+04  0.34061399952E+04 0.  0.
        1    1    3    3  502    0 -0.14189216410E+03 -0.42300058617E+03  0.17443993828E+04  0.18005532730E+04  0.50400001928E-02 0.  1.
       -1    1    3    3    0  502  0.14189216410E+03  0.42300058617E+03 -0.15482258558E+04  0.16112312630E+04  0.50400001928E-02 0. -1.
</event>
<event>
 5   0  0.4447909E-07  0.3410352E+04  0.7818609E-02  0.8135370E-01
        2   -1    0    0  501    0  0.00000000000E+00  0.00000000000E+00  0.29350814133E+04  0.29350814133E+04  0.25500000920E-02 0.  1.
       -2   -1    0    0    0  501  0.00000000000E+00  0.00000000000E+00 -0.99064565813E+03  0.99064565813E+03  0.25500000920E-02 0. -1.
    10030    2    1    2    0    0  0.00000000000E+00  0.00000000000E+00  0.19444357552E+04  0.39257270714E+04  0.34103522741E+04 0.  0.
        5    1    3    3  502    0 -0.99411140452E+03 -0.57239439010E+03 -0.48007074479E+03  0.12435364218E+04  0.46999998093E+01 0. -1.
       -5    1    3    3    0  502  0.99411140452E+03  0.57239439010E+03  0.24245064999E+04  0.26821906496E+04  0.46999998093E+01 0.  1.
</event>
<event>
 5   0  0.1421875E-07  0.3387150E+04  0.7818609E-02  0.8141067E-01
       -1   -1    0    0    0  501  0.00000000000E+00  0.00000000000E+00  0.15726292777E+04  0.15726292777E+04  0.50400001928E-02 0. -1.
        1   -1    0    0  501    0  0.00000000000E+00  0.00000000000E+00 -0.18238221474E+04  0.18238221474E+04  0.50400001928E-02 0.  1.
    10030    2    1    2    0    0  0.00000000000E+00  0.00000000000E+00 -0.25119286977E+03  0.33964514251E+04  0.33871498971E+04 0.  0.
        5    1    3    3  502    0  0.85146242516E+03 -0.76393400991E+03  0.11266687118E+04  0.16056113817E+04  0.46999998093E+01 0. -1.
       -5    1    3    3    0  502 -0.85146242516E+03  0.76393400991E+03 -0.13778615816E+04  0.17908400434E+04  0.46999998093E+01 0.  1.
</event>
<event>
 5   0  0.1421875E-07  0.3411003E+04  0.7818609E-02  0.8135211E-01
        1   -1    0    0  501    0  0.00000000000E+00  0.00000000000E+00  0.15848703883E+04  0.15848703883E+04  0.50400001928E-02 0.  1.
       -1   -1    0    0    0  501  0.00000000000E+00  0.00000000000E+00 -0.18353143026E+04  0.18353143026E+04  0.50400001928E-02 0. -1.
    10030    2    1    2    0    0  0.00000000000E+00  0.00000000000E+00 -0.25044391433E+03  0.34201846910E+04  0.34110029560E+04 0.  0.
        5    1    3    3  502    0  0.99234150679E+03  0.88244833961E+03  0.94782527498E+03  0.16315181826E+04  0.46999998093E+01 0.  1.
       -5    1    3    3    0  502 -0.99234150679E+03 -0.88244833961E+03 -0.11982691893E+04  0.17886665084E+04  0.46999998093E+01 0. -1.
</event>
<event>
 5   0  0.4486226E-07  0.3416549E+04  0.7818609E-02  0.8133857E-01
        2   -1    0    0  501    0  0.00000000000E+00  0.00000000000E+00  0.30045304303E+04  0.30045304303E+04  0.25500000920E-02 0.  1.
       -2   -1    0    0    0  501  0.00000000000E+00  0.00000000000E+00 -0.97126706714E+03  0.97126706714E+03  0.25500000920E-02 0. -1.
    10030    2    1    2    0    0  0.00000000000E+00  0.00000000000E+00  0.20332633631E+04  0.39757974974E+04  0.34165488196E+04 0.  0.
        1    1    3    3  502    0 -0.15079097594E+04  0.80273831929E+03  0.10219398602E+04  0.19906134053E+04  0.50400001928E-02 0.  1.
       -1    1    3    3    0  502  0.15079097594E+04 -0.80273831929E+03  0.10113235030E+04  0.19851840921E+04  0.50400001928E-02 0. -1.
</event>
<event>
 5   0  0.4521737E-07  0.3392820E+04  0.7818609E-02  0.8139671E-01
       -2   -1    0    0    0  501  0.00000000000E+00  0.00000000000E+00  0.14455658676E+04  0.14455658676E+04  0.25500000920E-02 0. -1.
        2   -1    0    0  501    0  0.00000000000E+00  0.00000000000E+00 -0.19907825730E+04  0.19907825730E+04  0.25500000920E-02 0.  1.
    10030    2    1    2    0    0  0.00000000000E+00  0.00000000000E+00 -0.54521670543E+03  0.34363484405E+04  0.33928202648E+04 0.  0.
        4    1    3    3  502    0  0.12841646195E+03 -0.40851720232E+03 -0.19351390892E+04  0.19819540862E+04  0.12699999809E+01 0.  1.
       -4    1    3    3    0  502 -0.12841646195E+03  0.40851720232E+03  0.13899223838E+04  0.14543943544E+04  0.12699999809E+01 0. -1.
</event>
<event>
 5   0  0.1520084E-07  0.3405651E+04  0.7818609E-02  0.8136521E-01
       -1   -1    0    0    0  501  0.00000000000E+00  0.00000000000E+00  0.18077885660E+04  0.18077885660E+04  0.50400001928E-02 0. -1.
        1   -1    0    0  501    0  0.00000000000E+00  0.00000000000E+00 -0.16039568614E+04  0.16039568614E+04  0.50400001928E-02 0.  1.
    10030    2    1    2    0    0  0.00000000000E+00  0.00000000000E+00  0.20383170459E+03  0.34117454274E+04  0.34056511121E+04 0.  0.
        2    1    3    3  502    0 -0.10723766669E+04 -0.13168335774E+04  0.22692893551E+03  0.17133415095E+04  0.25500000920E-02 0.  1.
       -2    1    3    3    0  502  0.10723766669E+04  0.13168335774E+04 -0.23097230918E+02  0.16984039179E+04  0.25500000920E-02 0. -1.
</event>
<event>
 5   0  0.1523259E-07  0.3452650E+04  0.7818609E-02  0.8125104E-01
       -1   -1    0    0    0  501  0.00000000000E+00  0.00000000000E+00  0.10441106376E+04  0.10441106376E+04  0.50400001928E-02 0.  1.
        1   -1    0    0  501    0  0.00000000000E+00  0.00000000000E+00 -0.28542940069E+04  0.28542940069E+04  0.50400001928E-02 0. -1.
    10030    2    1    2    0    0  0.00000000000E+00  0.00000000000E+00 -0.18101833692E+04  0.38984046445E+04  0.34526504228E+04 0.  0.
        4    1    3    3  502    0  0.74629368489E+03  0.53580089176E+02  0.85151839347E+03  0.11335388292E+04  0.12699999809E+01 0.  1.
       -4    1    3    3    0  502 -0.74629368489E+03 -0.53580089176E+02 -0.26617017627E+04  0.27648658153E+04  0.12699999809E+01 0. -1.
</event>
<event>
 5   0  0.4381939E-07  0.3372254E+04  0.7818609E-02  0.8144750E-01
       -2   -1    0    0    0  501  0.00000000000E+00  0.00000000000E+00  0.10690422027E+04  0.10690422027E+04  0.25500000920E-02 0. -1.
        2   -1    0    0  501    0  0.00000000000E+00  0.00000000000E+00 -0.26594132979E+04  0.26594132979E+04  0.25500000920E-02 0.  1.
    10030    2    1    2    0    0  0.00000000000E+00  0.00000000000E+00 -0.15903710952E+04  0.37284555006E+04  0.33722544684E+04 0.  0.
        3    1    3    3  502    0 -0.11789652274E+04  0.10475392664E+04 -0.13575758965E+03  0.15829490376E+04  0.10100000352E+00 0. -1.
       -3    1    3    3    0  502  0.11789652274E+04 -0.10475392664E+04 -0.14546135055E+04  0.21455064630E+04  0.10100000352E+00 0.  1.
</event>
<event>
 5   0  0.1473755E-07  0.3354585E+04  0.7818609E-02  0.8149144E-01
       -1   -1    0    0    0  501  0.00000000000E+00  0.00000000000E+00  0.18035885420E+04  0.18035885420E+04  0.50400001928E-02 0. -1.
        1   -1    0    0  501    0  0.00000000000E+00  0.00000000000E+00 -0.15598399432E+04  0.15598399432E+04  0.50400001928E-02 0.  1.
    10030    2    1    2    0    0  0.00000000000E+00  0.00000000000E+00  0.24374859883E+03  0.33634284852E+04  0.33545845936E+04 0.  0.
        1    1    3    3  502    0  0.13351383629E+04 -0.61681784461E+03 -0.68663287844E+03  0.16231215023E+04  0.50400001928E-02 0.  1.
       -1    1    3    3    0  502 -0.13351383629E+04  0.61681784461E+03  0.93038147728E+03  0.17403069829E+04  0.50400001928E-02 0. -1.
</event>
<event>
 5   0  0.4447909E-07  0.3405728E+04  0.7818609E-02  0.8136502E-01
        2   -1    0    0  501    0  0.00000000000E+00  0.00000000000E+00  0.91308043579E+03  0.91308043580E+03  0.25500000920E-02 0.  1.
       -2   -1    0    0    0  501  0.00000000000E+00  0.00000000000E+00 -0.31757827340E+04  0.31757827340E+04  0.25500000920E-02 0. -1.
    10030    2    1    2    0    0  0.00000000000E+00  0.00000000000E+00 -0.22627022982E+04  0.40888631698E+04  0.34057275773E+04 0.  0.
        5    1    3    3  502    0  0.68787208974E+03  0.14927423476E+04 -0.59675362792E+03  0.17485950676E+04  0.46999998093E+01 0.  1.
       -5    1    3    3    0  502 -0.68787208974E+03 -0.14927423476E+04 -0.16659486703E+04  0.23402681022E+04  0.46999998093E+01 0. -1.
</event>
<event>
 5   0  0.1520084E-07  0.3409671E+04  0.7818609E-02  0.8135537E-01
       -1   -1    0    0    0  501  0.00000000000E+00  0.00000000000E+00  0.15161156079E+04  0.15161156079E+04  0.50400001928E-02 0. -1.
        1   -1    0    0  501    0  0.00000000000E+00  0.00000000000E+00 -0.19170459918E+04  0.19170459918E+04  0.50400001928E-02 0.  1.
    10030    2    1    2    0    0  0.00000000000E+00  0.00000000000E+00 -0.40093038386E+03  0.34331615997E+04  0.34096705702E+04 0.  0.
        2    1    3    3  502    0 -0.47591854134E+02 -0.10594752211E+04 -0.15444687225E+04  0.18735357919E+04  0.25500000920E-02 0.  1.
       -2    1    3    3    0  502  0.47591854134E+02  0.10594752211E+04  0.11435383386E+04  0.15596258079E+04  0.25500000920E-02 0. -1.
</event>
<event>
 5   0  0.4486226E-07  0.3398601E+04  0.7818609E-02  0.8138250E-01
        2   -1    0    0  501    0  0.00000000000E+00  0.00000000000E+00  0.15829393922E+04  0.15829393922E+04  0.25500000920E-02 0.  1.
       -2   -1    0    0    0  501  0.00000000000E+00  0.00000000000E+00 -0.18242151076E+04  0.18242151076E+04  0.25500000920E-02 0. -1.
    10030    2    1    2    0    0  0.00000000000E+00  0.00000000000E+00 -0.24127571533E+03  0.34071544998E+04  0.33986008613E+04 0.  0.
        1    1    3    3  502    0  0.12387703132E+04 -0.11091087041E+04 -0.47215969134E+03  0.17284700694E+04  0.50400001928E-02 0. -1.
       -1    1    3    3    0  502 -0.12387703132E+04  0.11091087041E+04  0.23088397601E+03  0.16786844304E+04  0.50400001928E-02 0.  1.
</event>
<event>
 5   0  0.4396257E-07  0.3398402E+04  0.7818609E-02  0.8138299E-01
       -2   -1    0    0    0  501  0.00000000000E+00  0.00000000000E+00  0.15205992132E+04  0.15205992132E+04  0.25500000920E-02 0.  1.
        2   -1    0    0  501    0  0.00000000000E+00  0.00000000000E+00 -0.18987809682E+04  0.18987809682E+04  0.25500000920E-02 0. -1.
    10030    2    1    2    0    0  0.00000000000E+00  0.00000000000E+00 -0.37818175504E+03  0.34193801814E+04  0.33984024754E+04 0.  0.
        2    1    3    3  502    0 -0.15784883453E+04  0.29489912392E+03  0.36994103492E+03  0.16478614380E+04  0.25500000920E-02 0.  1.
       -2    1    3    3    0  502  0.15784883453E+04 -0.29489912392E+03 -0.74812278996E+03  0.17715187434E+04  0.25500000920E-02 0. -1.
</event>
<event>
 5   0  0.1523259E-07  0.3383090E+04  0.7818609E-02  0.8142069E-01
        1   -1    0    0  501    0  0.00000000000E+00  0.00000000000E+00  0.10436406070E+04  0.10436406070E+04  0.50400001928E-02 0. -1.
       -1   -1    0    0    0  501  0.00000000000E+00  0.00000000000E+00 -0.27416758953E+04  0.27416758953E+04  0.50400001928E-02 0.  1.
    10030    2    1    2    0    0  0.00000000000E+00  0.00000000000E+00 -0.16980352883E+04  0.37853165024E+04  0.33830898869E+04 0.  0.
        4    1    3    3  502    0  0.59140993933E+02  0.11912432691E+04 -0.21911134460E+04  0.24947019721E+04  0.12699999809E+01 0.  1.
       -4    1    3    3    0  502 -0.59140993933E+02 -0.11912432691E+04  0.49307815768E+03  0.12906145303E+04  0.12699999809E+01 0. -1.
</event>
<event>
 5   0  0.4521737E-07  0.3388823E+04  0.7818609E-02  0.8140655E-01
        2   -1    0    0  501    0  0.00000000000E+00  0.00000000000E+00  0.17960274868E+04  0.17960274868E+04  0.25500000920E-02 0.  1.
       -2   -1    0    0    0  501  0.00000000000E+00  0.00000000000E+00 -0.15985449877E+04  0.15985449877E+04  0.25500000920E-02 0. -1.
    10030    2    1    2    0    0  0.00000000000E+00  0.00000000000E+00  0.19748249902E+03  0.33945724745E+04  0.33888232393E+04 0.  0.
        4    1    3    3  502    0  0.78838745868E+03  0.14716161035E+04 -0.19126742533E+03  0.16804147053E+04  0.12699999809E+01 0. -1.
       -4    1    3    3    0  502 -0.78838745868E+03 -0.14716161035E+04  0.38874992434E+03  0.17141577692E+04  0.12699999809E+01 0.  1.
</event>
<event>
 5   0  0.4447909E-07  0.3398103E+04  0.7818609E-02  0.8138372E-01
        2   -1    0    0  501    0  0.00000000000E+00  0.00000000000E+00  0.24936647183E+04  0.24936647183E+04  0.25500000920E-02 0.  1.
       -2   -1    0    0    0  501  0.00000000000E+00  0.00000000000E+00 -0.11576437864E+04  0.11576437864E+04  0.25500000920E-02 0. -1.
    10030    2    1    2    0    0  0.00000000000E+00  0.00000000000E+00  0.13360209319E+04  0.36513085048E+04  0.33981026863E+04 0.  0.
        5    1    3    3  502    0 -0.90886782684E+03 -0.96887832292E+03  0.18061775690E+04  0.22421118241E+04  0.46999998093E+01 0.  1.
       -5    1    3    3    0  502  0.90886782684E+03  0.96887832292E+03 -0.47015663708E+03  0.14091966806E+04  0.46999998093E+01 0. -1.
</event>
<event>
 5   0  0.1473755E-07  0.3413727E+04  0.7818609E-02  0.8134545E-01
        1   -1    0    0  501    0  0.00000000000E+00  0.00000000000E+00  0.16279319125E+04  0.16279319125E+04  0.50400001928E-02 0.  1.
       -1   -1    0    0    0  501  0.00000000000E+00  0.00000000000E+00 -0.17896225240E+04  0.17896225240E+04  0.50400001928E-02 0. -1.
    10030    2    1    2    0    0  0.00000000000E+00  0.00000000000E+00 -0.16169061144E+03  0.34175544365E+04  0.34137273577E+04 0.  0.
        1    1    3    3  502    0  0.12221699528E+04 -0.95711127550E+03  0.62961375059E+03  0.16751641299E+04  0.50400001928E-02 0.  1.
       -1    1    3    3    0  502 -0.12221699528E+04  0.95711127550E+03 -0.79130436203E+03  0.17423903066E+04  0.50400001928E-02 0. -1.
</event>
<event>
 5   0  0.4521737E-07  0.3403964E+04  0.7818609E-02  0.8136934E-01
        2   -1    0    0  501    0  0.00000000000E+00  0.00000000000E+00  0.17442502844E+04  0.17442502844E+04  0.25500000920E-02 0. -1.
       -2   -1    0    0    0  501  0.00000000000E+00  0.00000000000E+00 -0.16607381542E+04  0.16607381542E+04  0.25500000920E-02 0.  1.
    10030    2    1    2    0    0  0.00000000000E+00  0.00000000000E+00  0.83512130161E+02  0.34049884386E+04  0.34039641584E+04 0.  0.
        4    1    3    3  502    0  0.12949257524E+04  0.38694076154E+03 -0.99305294120E+03  0.16771140731E+04  0.12699999809E+01 0. -1.
       -4    1    3    3    0  502 -0.12949257524E+04 -0.38694076154E+03  0.10765650714E+04  0.17278743655E+04  0.12699999809E+01 0.  1.
</event>
<event>
 5   0  0.1435806E-07  0.3418445E+04  0.7818609E-02  0.8133394E-01
        1   -1    0    0  501    0  0.00000000000E+00  0.00000000000E+00  0.19036498849E+04  0.19036498849E+04  0.50400001928E-02 0. -1.
       -1   -1    0    0    0  501  0.00000000000E+00  0.00000000000E+00 -0.15346530018E+04  0.15346530018E+04  0.50400001928E-02 0.  1.
    10030    2    1    2    0    0  0.00000000000E+00  0.00000000000E+00  0.36899688310E+03  0.34383028866E+04  0.34184452666E+04 0.  0.
        3    1    3    3  502    0 -0.13289708011E+04  0.73129137787E+03 -0.60779020045E+03  0.16341234370E+04  0.10100000352E+00 0.  1.
       -3    1    3    3    0  502  0.13289708011E+04 -0.73129137787E+03  0.97678708356E+03  0.18041794496E+04  0.10100000352E+00 0. -1.
</event>
<event>
 5   0  0.1520084E-07  0.3449247E+04  0.7818609E-02  0.8125924E-01
        1   -1    0    0  501    0  0.00000000000E+00  0.00000000000E+00  0.25604463114E+04  0.25604463114E+04  0.50400001928E-02 0. -1.
       -1   -1    0    0    0  501  0.00000000000E+00  0.00000000000E+00 -0.11616439682E+04  0.11616439682E+04  0.50400001928E-02 0.  1.
    10030    2    1    2    0    0  0.00000000000E+00  0.00000000000E+00  0.13988023432E+04  0.37220902796E+04  0.34492474620E+04 0.  0.
        2    1    3    3  502    0 -0.16643567824E+03  0.61832413066E+03 -0.10286121577E+04  0.12116387814E+04  0.25500000920E-02 0.  1.
       -2    1    3    3    0  502  0.16643567824E+03 -0.61832413066E+03  0.24274145009E+04  0.25104514982E+04  0.25500000920E-02 0. -1.
</event>
<event>
 5   0  0.1520084E-07  0.3403707E+04  0.7818609E-02  0.8136997E-01
       -1   -1    0    0    0  501  0.00000000000E+00  0.00000000000E+00  0.18087729359E+04  0.18087729359E+04  0.50400001928E-02 0.  1.
        1   -1    0    0  501    0  0.00000000000E+00  0.00000000000E+00 -0.16012538020E+04  0.16012538020E+04  0.50400001928E-02 0. -1.
    10030    2    1    2    0    0  0.00000000000E+00  0.00000000000E+00  0.20751913388E+03  0.34100267380E+04  0.34037065330E+04 0.  0.
        2    1    3    3  502    0 -0.11225015160E+04  0.83094049877E+03 -0.87058564560E+03  0.16457190320E+04  0.25500000920E-02 0. -1.
       -2    1    3    3    0  502  0.11225015160E+04 -0.83094049877E+03  0.10781047795E+04  0.17643077060E+04  0.25500000920E-02 0.  1.
</event>
<event>
 5   0  0.1473755E-07  0.3396342E+04  0.7818609E-02  0.8138805E-01
        1   -1    0    0  501    0  0.00000000000E+00  0.00000000000E+00  0.21108077926E+04  0.21108077926E+04  0.50400001928E-02 0.  1.
       -1   -1    0    0    0  501  0.00000000000E+00  0.00000000000E+00 -0.13661993447E+04  0.13661993447E+04  0.50400001928E-02 0. -1.
    10030    2    1    2    0    0  0.00000000000E+00  0.00000000000E+00  0.74460844785E+03  0.34770071373E+04  0.33963416925E+04 0.  0.
        1    1    3    3  502    0 -0.94976985223E+03  0.55699957744E+03  0.16958649698E+04  0.20219469076E+04  0.50400001928E-02 0.  1.
       -1    1    3    3    0  502  0.94976985223E+03 -0.55699957744E+03 -0.95125652191E+03  0.14550602297E+04  0.50400001928E-02 0. -1.
</event>
<event>
 5   0  0.1421875E-07  0.3411698E+04  0.7818609E-02  0.8135041E-01
       -1   -1    0    0    0  501  0.00000000000E+00  0.00000000000E+00  0.18155931089E+04  0.18155931089E+04  0.50400001928E-02 0.  1.
        1   -1    0    0  501    0  0.00000000000E+00  0.00000000000E+00 -0.16027381525E+04  0.16027381525E+04  0.50400001928E-02 0. -1.
    10030    2    1    2    0    0  0.00000000000E+00  0.00000000000E+00  0.21285495639E+03  0.34183312614E+04  0.34116977269E+04 0.  0.
        5    1    3    3  502    0 -0.10303442282E+04  0.25907439860E+03 -0.12307720768E+04  0.16258999869E+04  0.46999998093E+01 0. -1.
       -5    1    3    3    0  502  0.10303442282E+04 -0.25907439860E+03  0.14436270332E+04  0.17924312744E+04  0.46999998093E+01 0.  1.
</event>
<event>
 5   0  0.1520084E-07  0.3401670E+04  0.7818609E-02  0.8137497E-01
       -1   -1    0    0    0  501  0.00000000000E+00  0.00000000000E+00  0.23543465581E+04  0.23543465581E+04  0.50400001928E-02 0. -1.
        1   -1    0    0  501    0  0.00000000000E+00  0.00000000000E+00 -0.12287228802E+04  0.12287228802E+04  0.50400001928E-02 0.  1.
    10030    2    1    2    0    0  0.00000000000E+00  0.00000000000E+00  0.11256236780E+04  0.35830694383E+04  0.34016698746E+04 0.  0.
        2    1    3    3  502    0  0.15510826393E+04  0.54897475762E+03  0.10901402906E+03  0.16489738315E+04  0.25500000920E-02 0.  1.
       -2    1    3    3    0  502 -0.15510826393E+04 -0.54897475762E+03  0.10166096489E+04  0.19340956069E+04  0.25500000920E-02 0. -1.
</event>
<event>
 5   0  0.4521737E-07  0.3396307E+04  0.7818609E-02  0.8138813E-01
        2   -1    0    0  501    0  0.00000000000E+00  0.00000000000E+00  0.18708765958E+04  0.18708765958E+04  0.25500000920E-02 0. -1.
       -2   -1    0    0    0  501  0.00000000000E+00  0.00000000000E+00 -0.15413765039E+04  0.15413765039E+04  0.25500000920E-02 0.  1.
    10030    2    1    2    0    0  0.00000000000E+00  0.00000000000E+00  0.32950009193E+03  0.34122530996E+04  0.33963069510E+04 0.  0.
        4    1    3    3  502    0 -0.39077424195E+03 -0.58837095470E+03  0.17162930255E+04  0.18559494204E+04  0.12699999809E+01 0. -1.
       -4    1    3    3    0  502  0.39077424195E+03  0.58837095470E+03 -0.13867929336E+04  0.15563036793E+04  0.12699999809E+01 0.  1.
</event>
<event>
 5   0  0.4521737E-07  0.3479878E+04  0.7818609E-02  0.8118575E-01
        2   -1    0    0  501    0  0.00000000000E+00  0.00000000000E+00  0.20022113398E+04  0.20022113398E+04  0.25500000920E-02 0.  1.
       -2   -1    0    0    0  501  0.00000000000E+00  0.00000000000E+00 -0.15120216889E+04  0.15120216889E+04  0.25500000920E-02 0. -1.
    10030    2    1    2    0    0  0.00000000000E+00  0.00000000000E+00  0.49018965085E+03  0.35142330287E+04  0.34798775677E+04 0.  0.
        4    1    3    3  502    0 -0.81912862861E+03 -0.47508447614E+03  0.17192004375E+04  0.19627350119E+04  0.12699999809E+01 0.  1.
       -4    1    3    3    0  502  0.81912862861E+03  0.47508447614E+03 -0.12290107866E+04  0.15514980168E+04  0.12699999809E+01 0. -1.
</event>
<event>
 5   0  0.4486226E-07  0.3398956E+04  0.7818609E-02  0.8138163E-01
        2   -1    0    0  501    0  0.00000000000E+00  0.00000000000E+00  0.18049467639E+04  0.18049467639E+04  0.25500000920E-02 0. -1.
       -2   -1    0    0    0  501  0.00000000000E+00  0.00000000000E+00 -0.16001719778E+04  0.16001719778E+04  0.25500000920E-02 0.  1.
    10030    2    1    2    0    0  0.00000000000E+00  0.00000000000E+00  0.20477478609E+03  0.34051187417E+04  0.33989558591E+04 0.  0.
        1    1    3    3  502    0 -0.12282959485E+04  0.10474295677E+03 -0.10695812538E+04  0.16320802930E+04  0.50400001928E-02 0.  1.
       -1    1    3    3    0  502  0.12282959485E+04 -0.10474295677E+03  0.12743560399E+04  0.17730384487E+04  0.50400001928E-02 0. -1.
</event>
<event>
 5   0  0.1523259E-07  0.3401251E+04  0.7818609E-02  0.8137599E-01
        1   -1    0    0  501    0  0.00000000000E+00  0.00000000000E+00  0.16400728887E+04  0.16400728887E+04  0.50400001928E-02 0.  1.
       -1   -1    0    0    0  501  0.00000000000E+00  0.00000000000E+00 -0.17634133719E+04  0.17634133719E+04  0.50400001928E-02 0. -1.
    10030    2    1    2    0    0  0.00000000000E+00  0.00000000000E+00 -0.12334048320E+03  0.34034862606E+04  0.34012506305E+04 0.  0.
        4    1    3    3  502    0 -0.16905704821E+04 -0.10361652133E+02  0.12281180989E+03  0.16950576015E+04  0.12699999809E+01 0. -1.
       -4    1    3    3    0  502  0.16905704821E+04  0.10361652133E+02 -0.24615229309E+03  0.17084286591E+04  0.12699999809E+01 0.  1.
</event>
<event>
 5   0  0.1523259E-07  0.3394269E+04  0.7818609E-02  0.8139314E-01
        1   -1    0    0  501    0  0.00000000000E+00  0.00000000000E+00  0.23840801402E+04  0.23840801402E+04  0.50400001928E-02 0. -1.
       -1   -1    0    0    0  501  0.00000000000E+00  0.00000000000E+00 -0.12081247296E+04  0.12081247296E+04  0.50400001928E-02 0.  1.
    10030    2    1    2    0    0  0.00000000000E+00  0.00000000000E+00  0.11759554106E+04  0.35922048698E+04  0.33942693910E+04 0.  0.
        4    1    3    3  502    0 -0.97258992293E+03  0.22138175151E+03 -0.86516321529E+03  0.13203976825E+04  0.12699999809E+01 0.  1.
       -4    1    3    3    0  502  0.97258992293E+03 -0.22138175151E+03  0.20411186259E+04  0.22718071872E+04  0.12699999809E+01 0. -1.
</event>
<event>
 5   0  0.4447909E-07  0.3399164E+04  0.7818609E-02  0.8138111E-01
        2   -1    0    0  501    0  0.00000000000E+00  0.00000000000E+00  0.20718689433E+04  0.20718689433E+04  0.25500000920E-02 0. -1.
       -2   -1    0    0    0  501  0.00000000000E+00  0.00000000000E+00 -0.13941903784E+04  0.13941903784E+04  0.25500000920E-02 0.  1.
    10030    2    1    2    0    0  0.00000000000E+00  0.00000000000E+00  0.67767856483E+03  0.34660593217E+04  0.33991644539E+04 0.  0.
        5    1    3    3  502    0 -0.89946082079E+02  0.15998573218E+04 -0.23881081518E+03  0.16200884060E+04  0.46999998093E+01 0.  1.
       -5    1    3    3    0  502  0.89946082079E+02 -0.15998573218E+04  0.91648938000E+03  0.18459709157E+04  0.46999998093E+01 0. -1.
</event>
<event>
 5   0  0.1421875E-07  0.3406252E+04  0.7818609E-02  0.8136374E-01
        1   -1    0    0  501    0  0.00000000000E+00  0.00000000000E+00  0.22763424641E+04  0.22763424641E+04  0.50400001928E-02 0.  1.
       -1   -1    0    0    0  501  0.00000000000E+00  0.00000000000E+00 -0.12742539750E+04  0.12742539751E+04  0.50400001928E-02 0. -1.
    10030    2    1    2    0    0  0.00000000000E+00  0.00000000000E+00  0.10020884890E+04  0.35505964391E+04  0.34062521536E+04 0.  0.
        5    1    3    3  502    0  0.39440899801E+03  0.11692571602E+04 -0.72253660836E+03  0.14299657355E+04  0.46999998093E+01 0. -1.
       -5    1    3    3    0  502 -0.39440899801E+03 -0.11692571602E+04  0.17246250974E+04  0.21206307036E+04  0.46999998093E+01 0.  1.
</event>
<event>
 5   0  0.1421875E-07  0.3394542E+04  0.7818609E-02  0.8139247E-01
       -3   -1    0    0    0  501  0.00000000000E+00  0.00000000000E+00  0.98244341034E+03  0.98244341553E+03  0.10100000352E+00 0. -1.
        3   -1    0    0  501    0  0.00000000000E+00  0.00000000000E+00 -0.29322083718E+04  0.29322083735E+04  0.10100000352E+00 0.  1.
    10030    2    1    2    0    0  0.00000000000E+00  0.00000000000E+00 -0.19497649614E+04  0.39146517890E+04  0.33945419757E+04 0.  0.
        4    1    3    3  502    0 -0.85734578775E+03  0.62069828248E+03 -0.25049830684E+04  0.27194208838E+04  0.12699999809E+01 0.  1.
       -4    1    3    3    0  502  0.85734578775E+03 -0.62069828248E+03  0.55521810694E+03  0.11952309052E+04  0.12699999809E+01 0. -1.
</event>
<event>
 5   0  0.4396257E-07  0.3397596E+04  0.7818609E-02  0.8138497E-01
       -2   -1    0    0    0  501  0.00000000000E+00  0.00000000000E+00  0.17051431676E+04  0.17051431676E+04  0.25500000920E-02 0. -1.
        2   -1    0    0  501    0  0.00000000000E+00  0.00000000000E+00 -0.16924764207E+04  0.16924764207E+04  0.25500000920E-02 0.  1.
    10030    2    1    2    0    0  0.00000000000E+00  0.00000000000E+00  0.12666746862E+02  0.33976195883E+04  0.33975959766E+04 0.  0.
        2    1    3    3  502    0  0.95308265148E+03  0.25279406253E+03 -0.13770211814E+04  0.16936524769E+04  0.25500000920E-02 0.  1.
       -2    1    3    3    0  502 -0.95308265148E+03 -0.25279406253E+03  0.13896879283E+04  0.17039671114E+04  0.25500000920E-02 0. -1.
</event>
<event>
 5   0  0.1435806E-07  0.3394024E+04  0.7818609E-02  0.8139375E-01
       -1   -1    0    0    0  501  0.00000000000E+00  0.00000000000E+00  0.22158832848E+04  0.22158832848E+04  0.50400001928E-02 0.  1.
        1   -1    0    0  501    0  0.00000000000E+00  0.00000000000E+00 -0.12996394345E+04  0.12996394345E+04  0.50400001928E-02 0. -1.
    10030    2    1    2    0    0  0.00000000000E+00  0.00000000000E+00  0.91624385031E+03  0.35155227193E+04  0.33940237472E+04 0.  0.
        3    1    3    3  502    0  0.54317485818E+03 -0.31936053949E+03  0.20902249910E+04  0.21831332081E+04  0.10100000352E+00 0.  1.
       -3    1    3    3    0  502 -0.54317485818E+03  0.31936053949E+03 -0.11739811407E+04  0.13323895113E+04  0.10100000352E+00 0. -1.
</event>
<event>
 5   0  0.4381939E-07  0.3356461E+04  0.7818609E-02  0.8148676E-01
       -2   -1    0    0    0  501  0.00000000000E+00  0.00000000000E+00  0.14536055887E+04  0.14536055887E+04  0.25500000920E-02 0. -1.
        2   -1    0    0  501    0  0.00000000000E+00  0.00000000000E+00 -0.19375664160E+04  0.19375664160E+04  0.25500000920E-02 0.  1.
    10030    2    1    2    0    0  0.00000000000E+00  0.00000000000E+00 -0.48396082728E+03  0.33911720047E+04  0.33564608568E+04 0.  0.
        3    1    3    3  502    0  0.86698500237E+03 -0.48931269939E+03  0.11230533144E+04  0.15007793540E+04  0.10100000352E+00 0. -1.
       -3    1    3    3    0  502 -0.86698500237E+03  0.48931269939E+03 -0.16070141417E+04  0.18903926507E+04  0.10100000352E+00 0.  1.
</event>
<event>
 5   0  0.4521737E-07  0.3402556E+04  0.7818609E-02  0.8137279E-01
        2   -1    0    0  501    0  0.00000000000E+00  0.00000000000E+00  0.21174338913E+04  0.21174338913E+04  0.25500000920E-02 0. -1.
       -2   -1    0    0    0  501  0.00000000000E+00  0.00000000000E+00 -0.13669123771E+04  0.13669123771E+04  0.25500000920E-02 0.  1.
    10030    2    1    2    0    0  0.00000000000E+00  0.00000000000E+00  0.75052151422E+03  0.34843462683E+04  0.34025558591E+04 0.  0.
        4    1    3    3  502    0  0.28658865229E+03 -0.16580101810E+04  0.63272874906E+03  0.17976312466E+04  0.12699999809E+01 0. -1.
       -4    1    3    3    0  502 -0.28658865229E+03  0.16580101810E+04  0.11779276516E+03  0.16867150217E+04  0.12699999809E+01 0.  1.
</event>
<event>
 5   0  0.4521737E-07  0.3373658E+04  0.7818609E-02  0.8144402E-01
       -2   -1    0    0    0  501  0.00000000000E+00  0.00000000000E+00  0.19398614354E+04  0.19398614354E+04  0.25500000920E-02 0.  1.
        2   -1    0    0  501    0  0.00000000000E+00  0.00000000000E+00 -0.14668016677E+04  0.14668016677E+04  0.25500000920E-02 0. -1.
    10030    2    1    2    0    0  0.00000000000E+00  0.00000000000E+00  0.47305976772E+03  0.34066631031E+04  0.33736579486E+04 0.  0.
        4    1    3    3  502    0 -0.12105254365E+04 -0.65011362026E+03  0.12245555648E+04  0.18405318514E+04  0.12699999809E+01 0. -1.
       -4    1    3    3    0  502  0.12105254365E+04  0.65011362026E+03 -0.75149579712E+03  0.15661312517E+04  0.12699999809E+01 0.  1.
</event>
<event>
 5   0  0.1520084E-07  0.3401212E+04  0.7818609E-02  0.8137609E-01
       -1   -1    0    0    0  501  0.00000000000E+00  0.00000000000E+00  0.23949819149E+04  0.23949819149E+04  0.50400001928E-02 0.  1.
        1   -1    0    0  501    0  0.00000000000E+00  0.00000000000E+00 -0.12075498861E+04  0.12075498861E+04  0.50400001928E-02 0. -1.
    10030    2    1    2    0    0  0.00000000000E+00  0.00000000000E+00  0.11874320288E+04  0.36025318010E+04  0.34012116303E+04 0.  0.
        2    1    3    3  502    0  0.65692840062E+03 -0.45866844262E+03 -0.99511542710E+03  0.12775704979E+04  0.25500000920E-02 0. -1.
       -2    1    3    3    0  502 -0.65692840062E+03  0.45866844262E+03  0.21825474559E+04  0.23249613031E+04  0.25500000920E-02 0.  1.
</event>
<event>
 5   0  0.4486226E-07  0.3391955E+04  0.7818609E-02  0.8139884E-01
        2   -1    0    0  501    0  0.00000000000E+00  0.00000000000E+00  0.19292272994E+04  0.19292272994E+04  0.25500000920E-02 0. -1.
       -2   -1    0    0    0  501  0.00000000000E+00  0.00000000000E+00 -0.14909284831E+04  0.14909284831E+04  0.25500000920E-02 0.  1.
    10030    2    1    2    0    0  0.00000000000E+00  0.00000000000E+00  0.43829881632E+03  0.34201557825E+04  0.33919551477E+04 0.  0.
        1    1    3    3  502    0  0.50967395914E+03 -0.53719221520E+03  0.17576121633E+04  0.19072345260E+04  0.50400001928E-02 0. -1.
       -1    1    3    3    0  502 -0.50967395914E+03  0.53719221520E+03 -0.13193133470E+04  0.15129212565E+04  0.50400001928E-02 0.  1.
</event>
<event>
 5   0  0.1473755E-07  0.3397090E+04  0.7818609E-02  0.8138621E-01
        1   -1    0    0  501    0  0.00000000000E+00  0.00000000000E+00  0.14818410544E+04  0.14818410544E+04  0.50400001928E-02 0. -1.
       -1   -1    0    0    0  501  0.00000000000E+00  0.00000000000E+00 -0.19469395141E+04  0.19469395141E+04  0.50400001928E-02 0.  1.
    10030    2    1    2    0    0  0.00000000000E+00  0.00000000000E+00 -0.46509845964E+03  0.34287805685E+04  0.33970898737E+04 0.  0.
        1    1    3    3  502    0  0.10826401444E+03 -0.11104055688E+04  0.10601536122E+04  0.15390410344E+04  0.50400001928E-02 0. -1.
       -1    1    3    3    0  502 -0.10826401444E+03  0.11104055688E+04 -0.15252520719E+04  0.18897395341E+04  0.50400001928E-02 0.  1.
</event>
<event>
 5   0  0.1421875E-07  0.3386403E+04  0.7818609E-02  0.8141252E-01
        1   -1    0    0  501    0  0.00000000000E+00  0.00000000000E+00  0.17762982230E+04  0.17762982230E+04  0.50400001928E-02 0. -1.
       -1   -1    0    0    0  501  0.00000000000E+00  0.00000000000E+00 -0.16139918328E+04  0.16139918328E+04  0.50400001928E-02 0.  1.
    10030    2    1    2    0    0  0.00000000000E+00  0.00000000000E+00  0.16230639025E+03  0.33902900558E+04  0.33864027076E+04 0.  0.
        5    1    3    3  502    0 -0.11669088610E+03  0.16392904861E+04 -0.32676842459E+03  0.16756162311E+04  0.46999998093E+01 0.  1.
       -5    1    3    3    0  502  0.11669088610E+03 -0.16392904861E+04  0.48907481484E+03  0.17146738247E+04  0.46999998093E+01 0. -1.
</event>
<event>
 5   0  0.4486226E-07  0.3394398E+04  0.7818609E-02  0.8139283E-01
        2   -1    0    0  501    0  0.00000000000E+00  0.00000000000E+00  0.26855921046E+04  0.26855921046E+04  0.25500000920E-02 0.  1.
       -2   -1    0    0    0  501  0.00000000000E+00  0.00000000000E+00 -0.10725698102E+04  0.10725698102E+04  0.25500000920E-02 0. -1.
    10030    2    1    2    0    0  0.00000000000E+00  0.00000000000E+00  0.16130222943E+04  0.37581619148E+04  0.33943983349E+04 0.  0.
        1    1    3    3  502    0 -0.15927282296E+03 -0.92272310664E+03 -0.76070518635E+03  0.12064237001E+04  0.50400001928E-02 0. -1.
       -1    1    3    3    0  502  0.15927282296E+03  0.92272310664E+03  0.23737274807E+04  0.25517382147E+04  0.50400001928E-02 0.  1.
</event>
<event>
 5   0  0.1421875E-07  0.3400542E+04  0.7818609E-02  0.8137773E-01
        1   -1    0    0  501    0  0.00000000000E+00  0.00000000000E+00  0.12195081261E+04  0.12195081262E+04  0.50400001928E-02 0. -1.
       -1   -1    0    0    0  501  0.00000000000E+00  0.00000000000E+00 -0.23705640256E+04  0.23705640256E+04  0.50400001928E-02 0.  1.
    10030    2    1    2    0    0  0.00000000000E+00  0.00000000000E+00 -0.11510558995E+04  0.35900721518E+04  0.34005423643E+04 0.  0.
        5    1    3    3  502    0  0.72129654175E+03  0.72388535586E+03  0.85911525883E+03  0.13350579866E+04  0.46999998093E+01 0. -1.
       -5    1    3    3    0  502 -0.72129654175E+03 -0.72388535586E+03 -0.20101711583E+04  0.22550141652E+04  0.46999998093E+01 0.  1.
</event>
<event>
 5   0  0.1421875E-07  0.3284887E+04  0.7818609E-02  0.8166752E-01
        1   -1    0    0  501    0  0.00000000000E+00  0.00000000000E+00  0.17264104546E+04  0.17264104546E+04  0.50400001928E-02 0. -1.
       -1   -1    0    0    0  501  0.00000000000E+00  0.00000000000E+00 -0.15625602871E+04  0.15625602871E+04  0.50400001928E-02 0.  1.
    10030    2    1    2    0    0  0.00000000000E+00  0.00000000000E+00  0.16385016749E+03  0.32889707416E+04  0.32848868568E+04 0.  0.
        5    1    3    3  502    0 -0.12346239423E+04  0.93425175591E+03  0.63076321215E+03  0.16718274259E+04  0.46999998093E+01 0. -1.
       -5    1    3    3    0  502  0.12346239423E+04 -0.93425175591E+03 -0.46691304466E+03  0.16171433157E+04  0.46999998093E+01 0.  1.
</event>
<event>
 5   0  0.1473755E-07  0.3385028E+04  0.7818609E-02  0.8141591E-01
        1   -1    0    0  501    0  0.00000000000E+00  0.00000000000E+00  0.20466207510E+04  0.20466207510E+04  0.50400001928E-02 0.  1.
       -1   -1    0    0    0  501  0.00000000000E+00  0.00000000000E+00 -0.13996752827E+04  0.13996752827E+04  0.50400001928E-02 0. -1.
    10030    2    1    2    0    0  0.00000000000E+00  0.00000000000E+00  0.64694546828E+03  0.34462960337E+04  0.33850284952E+04 0.  0.
        1    1    3    3  502    0 -0.24893376140E+03  0.11774019080E+04  0.15351229473E+04  0.19506013775E+04  0.50400001928E-02 0.  1.
       -1    1    3    3    0  502  0.24893376140E+03 -0.11774019080E+04 -0.88817747898E+03  0.14956946562E+04  0.50400001928E-02 0. -1.
</event>
<event>
 5   0  0.4447909E-07  0.3408290E+04  0.7818609E-02  0.8135875E-01
       -2   -1    0    0    0  501  0.00000000000E+00  0.00000000000E+00  0.14515142305E+04  0.14515142305E+04  0.25500000920E-02 0. -1.
        2   -1    0    0  501    0  0.00000000000E+00  0.00000000000E+00 -0.20007458078E+04  0.20007458078E+04  0.25500000920E-02 0.  1.
    10030    2    1    2    0    0  0.00000000000E+00  0.00000000000E+00 -0.54923157732E+03  0.34522600382E+04  0.34082904873E+04 0.  0.
        5    1    3    3  502    0  0.14627796693E+04 -0.40680033265E+03  0.50923986760E+03  0.16014238053E+04  0.46999998093E+01 0. -1.
       -5    1    3    3    0  502 -0.14627796693E+04  0.40680033265E+03 -0.10584714449E+04  0.18508362329E+04  0.46999998093E+01 0.  1.
</event>
<event>
 5   0  0.4486226E-07  0.3362303E+04  0.7818609E-02  0.8147221E-01
        2   -1    0    0  501    0  0.00000000000E+00  0.00000000000E+00  0.18983704660E+04  0.18983704660E+04  0.25500000920E-02 0.  1.
       -2   -1    0    0    0  501  0.00000000000E+00  0.00000000000E+00 -0.14887878722E+04  0.14887878722E+04  0.25500000920E-02 0. -1.
    10030    2    1    2    0    0  0.00000000000E+00  0.00000000000E+00  0.40958259374E+03  0.33871583382E+04  0.33623033336E+04 0.  0.
        1    1    3    3  502    0 -0.13468664994E+04  0.26683367992E+03  0.11820247948E+04  0.18117483808E+04  0.50400001928E-02 0.  1.
       -1    1    3    3    0  502  0.13468664994E+04 -0.26683367992E+03 -0.77244220106E+03  0.15754099574E+04  0.50400001928E-02 0. -1.
</event>
<event>
 5   0  0.1520084E-07  0.3390942E+04  0.7818609E-02  0.8140133E-01
        1   -1    0    0  501    0  0.00000000000E+00  0.00000000000E+00  0.12309536369E+04  0.12309536370E+04  0.50400001928E-02 0.  1.
       -1   -1    0    0    0  501  0.00000000000E+00  0.00000000000E+00 -0.23352799390E+04  0.23352799390E+04  0.50400001928E-02 0. -1.
    10030    2    1    2    0    0  0.00000000000E+00  0.00000000000E+00 -0.11043263021E+04  0.35662335760E+04  0.33909416593E+04 0.  0.
        2    1    3    3  502    0 -0.16836240715E+04  0.64199731743E+02 -0.75145771020E+03  0.18448306996E+04  0.25500000920E-02 0. -1.
       -2    1    3    3    0  502  0.16836240715E+04 -0.64199731743E+02 -0.35286859187E+03  0.17214028764E+04  0.25500000920E-02 0.  1.
</event>
<event>
 5   0  0.1421875E-07  0.3408295E+04  0.7818609E-02  0.8135873E-01
       -1   -1    0    0    0  501  0.00000000000E+00  0.00000000000E+00  0.22148843101E+04  0.22148843101E+04  0.50400001928E-02 0. -1.
        1   -1    0    0  501    0  0.00000000000E+00  0.00000000000E+00 -0.13111829609E+04  0.13111829609E+04  0.50400001928E-02 0.  1.
    10030    2    1    2    0    0  0.00000000000E+00  0.00000000000E+00  0.90370134923E+03  0.35260672710E+04  0.34082949214E+04 0.  0.
        5    1    3    3  502    0 -0.89466368435E+03 -0.42327934600E+03  0.18870535064E+04  0.21308640357E+04  0.46999998093E+01 0. -1.
       -5    1    3    3    0  502  0.89466368435E+03  0.42327934600E+03 -0.98335215716E+03  0.13952032353E+04  0.46999998093E+01 0.  1.
</event>
<event>
 5   0  0.4381939E-07  0.3386039E+04  0.7818609E-02  0.8141341E-01
       -2   -1    0    0    0  501  0.00000000000E+00  0.00000000000E+00  0.14532047576E+04  0.14532047576E+04  0.25500000920E-02 0.  1.
        2   -1    0    0  501    0  0.00000000000E+00  0.00000000000E+00 -0.19724098095E+04  0.19724098095E+04  0.25500000920E-02 0. -1.
    10030    2    1    2    0    0  0.00000000000E+00  0.00000000000E+00 -0.51920505196E+03  0.34256145671E+04  0.33860391723E+04 0.  0.
        3    1    3    3  502    0  0.14325769363E+04  0.43439706141E+03  0.54042304339E+03  0.15915509924E+04  0.10100000352E+00 0.  1.
       -3    1    3    3    0  502 -0.14325769363E+04 -0.43439706141E+03 -0.10596280953E+04  0.18340635747E+04  0.10100000352E+00 0. -1.
</event>
<event>
 5   0  0.4486226E-07  0.3408057E+04  0.7818609E-02  0.8135932E-01
        2   -1    0    0  501    0  0.00000000000E+00  0.00000000000E+00  0.13611399007E+04  0.13611399007E+04  0.25500000920E-02 0. -1.
       -2   -1    0    0    0  501  0.00000000000E+00  0.00000000000E+00 -0.21332945586E+04  0.21332945586E+04  0.25500000920E-02 0.  1.
    10030    2    1    2    0    0  0.00000000000E+00  0.00000000000E+00 -0.77215465796E+03  0.34944344593E+04  0.34080565392E+04 0.  0.
        1    1    3    3  502    0 -0.15222796261E+02 -0.57548597343E+03 -0.20305650009E+04  0.21105947177E+04  0.50400001928E-02 0.  1.
       -1    1    3    3    0  502  0.15222796261E+02  0.57548597343E+03  0.12584103430E+04  0.13838397416E+04  0.50400001928E-02 0. -1.
</event>
<event>
 5   0  0.1421875E-07  0.3271610E+04  0.7818609E-02  0.8170157E-01
       -3   -1    0    0    0  501  0.00000000000E+00  0.00000000000E+00  0.82793380262E+03  0.82793380878E+03  0.10100000352E+00 0. -1.
        3   -1    0    0  501    0  0.00000000000E+00  0.00000000000E+00 -0.32319706369E+04  0.32319706384E+04  0.10100000352E+00 0.  1.
    10030    2    1    2    0    0  0.00000000000E+00  0.00000000000E+00 -0.24040368342E+04  0.40599044472E+04  0.32716098515E+04 0.  0.
        3    1    3    3  502    0 -0.12761113958E+04  0.14459900563E+03 -0.24592965599E+04  0.27744384561E+04  0.10100000352E+00 0.  1.
       -3    1    3    3    0  502  0.12761113958E+04 -0.14459900563E+03  0.55259725664E+02  0.12854659911E+04  0.10100000352E+00 0. -1.
</event>
<event>
 5   0  0.1520084E-07  0.3390812E+04  0.7818609E-02  0.8140165E-01
        1   -1    0    0  501    0  0.00000000000E+00  0.00000000000E+00  0.16863790362E+04  0.16863790362E+04  0.50400001928E-02 0.  1.
       -1   -1    0    0    0  501  0.00000000000E+00  0.00000000000E+00 -0.17044811294E+04  0.17044811294E+04  0.50400001928E-02 0. -1.
    10030    2    1    2    0    0  0.00000000000E+00  0.00000000000E+00 -0.18102093252E+02  0.33908601656E+04  0.33908118463E+04 0.  0.
        2    1    3    3  502    0 -0.69526442108E+03  0.12467567056E+04  0.90562386271E+03  0.16905470945E+04  0.25500000920E-02 0.  1.
       -2    1    3    3    0  502  0.69526442108E+03 -0.12467567056E+04 -0.92372595596E+03  0.17003130711E+04  0.25500000920E-02 0. -1.
</event>
<event>
 5   0  0.1421875E-07  0.3436270E+04  0.7818609E-02  0.8129061E-01
        1   -1    0    0  501    0  0.00000000000E+00  0.00000000000E+00  0.20644849422E+04  0.20644849422E+04  0.50400001928E-02 0. -1.
       -1   -1    0    0    0  501  0.00000000000E+00  0.00000000000E+00 -0.14298910960E+04  0.14298910960E+04  0.50400001928E-02 0.  1.
    10030    2    1    2    0    0  0.00000000000E+00  0.00000000000E+00  0.63459384616E+03  0.34943760382E+04  0.34362704414E+04 0.  0.
        5    1    3    3  502    0  0.52761603994E+03 -0.12899388988E+04  0.13390989478E+04  0.19327516991E+04  0.46999998093E+01 0. -1.
       -5    1    3    3    0  502 -0.52761603994E+03  0.12899388988E+04 -0.70450510167E+03  0.15616243391E+04  0.46999998093E+01 0.  1.
</event>
<event>
 5   0  0.1520084E-07  0.3444138E+04  0.7818609E-02  0.8127158E-01
        1   -1    0    0  501    0  0.00000000000E+00  0.00000000000E+00  0.17067154585E+04  0.17067154585E+04  0.50400001928E-02 0. -1.
       -1   -1    0    0    0  501  0.00000000000E+00  0.00000000000E+00 -0.17375604530E+04  0.17375604530E+04  0.50400001928E-02 0.  1.
    10030    2    1    2    0    0  0.00000000000E+00  0.00000000000E+00 -0.30844994509E+02  0.34442759115E+04  0.34441377936E+04 0.  0.
        2    1    3    3  502    0 -0.59629593181E+03 -0.12267177374E+04 -0.10667096497E+04  0.17315526912E+04  0.25500000920E-02 0.  1.
       -2    1    3    3    0  502  0.59629593181E+03  0.12267177374E+04  0.10358646552E+04  0.17127232203E+04  0.25500000920E-02 0. -1.
</event>
<event>
 5   0  0.1421875E-07  0.3399345E+04  0.7818609E-02  0.8138067E-01
        1   -1    0    0  501    0  0.00000000000E+00  0.00000000000E+00  0.13965865076E+04  0.13965865076E+04  0.50400001928E-02 0. -1.
       -1   -1    0    0    0  501  0.00000000000E+00  0.00000000000E+00 -0.20685344055E+04  0.20685344055E+04  0.50400001928E-02 0.  1.
    10030    2    1    2    0    0  0.00000000000E+00  0.00000000000E+00 -0.67194789789E+03  0.34651209131E+04  0.33993453730E+04 0.  0.
        5    1    3    3  502    0  0.12019574788E+04 -0.26119101060E+03  0.85972890308E+03  0.15006926407E+04  0.46999998093E+01 0. -1.
       -5    1    3    3    0  502 -0.12019574788E+04  0.26119101060E+03 -0.15316768010E+04  0.19644282724E+04  0.46999998093E+01 0.  1.
</event>
<event>
 5   0  0.1520084E-07  0.3367611E+04  0.7818609E-02  0.8145902E-01
        1   -1    0    0  501    0  0.00000000000E+00  0.00000000000E+00  0.20014014957E+04  0.20014014957E+04  0.50400001928E-02 0. -1.
       -1   -1    0    0    0  501  0.00000000000E+00  0.00000000000E+00 -0.14166081471E+04  0.14166081471E+04  0.50400001928E-02 0.  1.
    10030    2    1    2    0    0  0.00000000000E+00  0.00000000000E+00  0.58479334863E+03  0.34180096428E+04  0.33676114173E+04 0.  0.
        2    1    3    3  502    0 -0.15575464724E+04 -0.59097349652E+03  0.54101347378E+03  0.17515411118E+04  0.25500000920E-02 0.  1.
       -2    1    3    3    0  502  0.15575464724E+04  0.59097349652E+03  0.43779874852E+02  0.16664685310E+04  0.25500000920E-02 0. -1.
</event>
<event>
 5   0  0.4381939E-07  0.3407592E+04  0.7818609E-02  0.8136046E-01
        2   -1    0    0  501    0  0.00000000000E+00  0.00000000000E+00  0.16832056982E+04  0.16832056982E+04  0.25500000920E-02 0.  1.
       -2   -1    0    0    0  501  0.00000000000E+00  0.00000000000E+00 -0.17246379027E+04  0.17246379027E+04  0.25500000920E-02 0. -1.
    10030    2    1    2    0    0  0.00000000000E+00  0.00000000000E+00 -0.41432204426E+02  0.34078436009E+04  0.34075917274E+04 0.  0.
        3    1    3    3  502    0  0.16435481612E+04  0.15961174357E+03  0.39906945738E+03  0.16988180917E+04  0.10100000352E+00 0.  1.
       -3    1    3    3    0  502 -0.16435481612E+04 -0.15961174357E+03 -0.44050166181E+03  0.17090255092E+04  0.10100000352E+00 0. -1.
</event>
<event>
 5   0  0.4396257E-07  0.3400714E+04  0.7818609E-02  0.8137731E-01
       -2   -1    0    0    0  501  0.00000000000E+00  0.00000000000E+00  0.16796040229E+04  0.16796040229E+04  0.25500000920E-02 0.  1.
        2   -1    0    0  501    0  0.00000000000E+00  0.00000000000E+00 -0.17213662441E+04  0.17213662441E+04  0.25500000920E-02 0. -1.
    10030    2    1    2    0    0  0.00000000000E+00  0.00000000000E+00 -0.41762221204E+02  0.34009702670E+04  0.34007138477E+04 0.  0.
        2    1    3    3  502    0  0.94553013769E+03 -0.10072044631E+04 -0.10122810302E+04  0.17126590308E+04  0.25500000920E-02 0. -1.
       -2    1    3    3    0  502 -0.94553013769E+03  0.10072044631E+04  0.97051880895E+03  0.16883112362E+04  0.25500000920E-02 0.  1.
</event>
<event>
 5   0  0.4486226E-07  0.3402333E+04  0.7818609E-02  0.8137334E-01
       -2   -1    0    0    0  501  0.00000000000E+00  0.00000000000E+00  0.20764738440E+04  0.20764738440E+04  0.25500000920E-02 0. -1.
        2   -1    0    0  501    0  0.00000000000E+00  0.00000000000E+00 -0.13936933608E+04  0.13936933608E+04  0.25500000920E-02 0.  1.
    10030    2    1    2    0    0  0.00000000000E+00  0.00000000000E+00  0.68278048323E+03  0.34701672048E+04  0.34023332054E+04 0.  0.
        1    1    3    3  502    0  0.73030699908E+03  0.20563771688E+03  0.18943543945E+04  0.20406405258E+04  0.50400001928E-02 0. -1.
       -1    1    3    3    0  502 -0.73030699908E+03 -0.20563771688E+03 -0.12115739113E+04  0.14295266790E+04  0.50400001928E-02 0.  1.
</event>
<event>
 5   0  0.1520084E-07  0.3400223E+04  0.7818609E-02  0.8137852E-01
        1   -1    0    0  501    0  0.00000000000E+00  0.00000000000E+00  0.15670211646E+04  0.15670211646E+04  0.50400001928E-02 0. -1.
       -1   -1    0    0    0  501  0.00000000000E+00  0.00000000000E+00 -0.18445055176E+04  0.18445055176E+04  0.50400001928E-02 0.  1.
    10030    2    1    2    0    0  0.00000000000E+00  0.00000000000E+00 -0.27748435308E+03  0.34115266822E+04  0.34002230423E+04 0.  0.
        2    1    3    3  502    0 -0.15161235205E+04  0.18383284280E+03  0.61070429403E+03  0.16448053922E+04  0.25500000920E-02 0.  1.
       -2    1    3    3    0  502  0.15161235205E+04 -0.18383284280E+03 -0.88818864711E+03  0.17667212900E+04  0.25500000920E-02 0. -1.
</event>
<event>
 5   0  0.4521737E-07  0.3382839E+04  0.7818609E-02  0.8142131E-01
       -2   -1    0    0    0  501  0.00000000000E+00  0.00000000000E+00  0.15142613622E+04  0.15142613622E+04  0.25500000920E-02 0. -1.
        2   -1    0    0  501    0  0.00000000000E+00  0.00000000000E+00 -0.18893043065E+04  0.18893043065E+04  0.25500000920E-02 0.  1.
    10030    2    1    2    0    0  0.00000000000E+00  0.00000000000E+00 -0.37504294425E+03  0.34035656687E+04  0.33828393475E+04 0.  0.
        4    1    3    3  502    0  0.15860984134E+04 -0.57274408622E+03 -0.55742142082E+02  0.16872619134E+04  0.12699999809E+01 0. -1.
       -4    1    3    3    0  502 -0.15860984134E+04  0.57274408622E+03 -0.31930080217E+03  0.17163037553E+04  0.12699999809E+01 0.  1.
</event>
<event>
 5   0  0.1473755E-07  0.3393822E+04  0.7818609E-02  0.8139424E-01
        1   -1    0    0  501    0  0.00000000000E+00  0.00000000000E+00  0.19604030417E+04  0.19604030417E+04  0.50400001928E-02 0. -1.
       -1   -1    0    0    0  501  0.00000000000E+00  0.00000000000E+00 -0.14688341113E+04  0.14688341113E+04  0.50400001928E-02 0.  1.
    10030    2    1    2    0    0  0.00000000000E+00  0.00000000000E+00  0.49156893035E+03  0.34292371530E+04  0.33938219515E+04 0.  0.
        1    1    3    3  502    0  0.22613187766E+02  0.16064126136E+04  0.79777626897E+03  0.17937446353E+04  0.50400001928E-02 0. -1.
       -1    1    3    3    0  502 -0.22613187766E+02 -0.16064126136E+04 -0.30620733862E+03  0.16354925177E+04  0.50400001928E-02 0.  1.
</event>
<event>
 5   0  0.1523259E-07  0.3392566E+04  0.7818609E-02  0.8139733E-01
       -1   -1    0    0    0  501  0.00000000000E+00  0.00000000000E+00  0.22244758869E+04  0.22244758869E+04  0.50400001928E-02 0.  1.
        1   -1    0    0  501    0  0.00000000000E+00  0.00000000000E+00 -0.12935070911E+04  0.12935070911E+04  0.50400001928E-02 0. -1.
    10030    2    1    2    0    0  0.00000000000E+00  0.00000000000E+00  0.93096879579E+03  0.35179829780E+04  0.33925655977E+04 0.  0.
        4    1    3    3  502    0  0.68521880762E+03  0.14209794383E+04 -0.18099389440E+03  0.15879130270E+04  0.12699999809E+01 0.  1.
       -4    1    3    3    0  502 -0.68521880762E+03 -0.14209794383E+04  0.11119626902E+04  0.19300699510E+04  0.12699999809E+01 0. -1.
</event>
<event>
 5   0  0.4381939E-07  0.3397443E+04  0.7818609E-02  0.8138534E-01
        2   -1    0    0  501    0  0.00000000000E+00  0.00000000000E+00  0.14263759359E+04  0.14263759359E+04  0.25500000920E-02 0.  1.
       -2   -1    0    0    0  501  0.00000000000E+00  0.00000000000E+00 -0.20230671248E+04  0.20230671248E+04  0.25500000920E-02 0. -1.
    10030    2    1    2    0    0  0.00000000000E+00  0.00000000000E+00 -0.59669118896E+03  0.34494430607E+04  0.33974427227E+04 0.  0.
        3    1    3    3  502    0 -0.16096172696E+04 -0.22258887796E+02  0.25244353107E+03  0.16294449850E+04  0.10100000352E+00 0.  1.
       -3    1    3    3    0  502  0.16096172696E+04  0.22258887796E+02 -0.84913472003E+03  0.18199980757E+04  0.10100000352E+00 0. -1.
</event>
<event>
 5   0  0.1421875E-07  0.3401254E+04  0.7818609E-02  0.8137599E-01
        1   -1    0    0  501    0  0.00000000000E+00  0.00000000000E+00  0.24641090681E+04  0.24641090681E+04  0.50400001928E-02 0.  1.
       -1   -1    0    0    0  501  0.00000000000E+00  0.00000000000E+00 -0.11737028988E+04  0.11737028988E+04  0.50400001928E-02 0. -1.
    10030    2    1    2    0    0  0.00000000000E+00  0.00000000000E+00  0.12904061693E+04  0.36378119668E+04  0.34012538606E+04 0.  0.
        5    1    3    3  502    0  0.11217975837E+04  0.11836953787E+04  0.11609717819E+04  0.20018596696E+04  0.46999998093E+01 0.  1.
       -5    1    3    3    0  502 -0.11217975837E+04 -0.11836953787E+04  0.12943438747E+03  0.16359522973E+04  0.46999998093E+01 0. -1.
</event>
<event>
 5   0  0.4381939E-07  0.3400859E+04  0.7818609E-02  0.8137695E-01
       -2   -1    0    0    0  501  0.00000000000E+00  0.00000000000E+00  0.13076643163E+04  0.13076643163E+04  0.25500000920E-02 0. -1.
        2   -1    0    0  501    0  0.00000000000E+00  0.00000000000E+00 -0.22111647412E+04  0.22111647412E+04  0.25500000920E-02 0.  1.
    10030    2    1    2    0    0  0.00000000000E+00  0.00000000000E+00 -0.90350042484E+03  0.35188290575E+04  0.34008594382E+04 0.  0.
        3    1    3    3  502    0 -0.25066285480E+03 -0.52586636441E+03  0.12011925439E+04  0.13350021864E+04  0.10100000352E+00 0. -1.
       -3    1    3    3    0  502  0.25066285480E+03  0.52586636441E+03 -0.21046929687E+04  0.21838268711E+04  0.10100000352E+00 0.  1.
</event>
<event>
 5   0  0.1473755E-07  0.3400598E+04  0.7818609E-02  0.8137760E-01
        1   -1    0    0  501    0  0.00000000000E+00  0.00000000000E+00  0.20202426919E+04  0.20202426919E+04  0.50400001928E-02 0.  1.
       -1   -1    0    0    0  501  0.00000000000E+00  0.00000000000E+00 -0.14310243333E+04  0.14310243333E+04  0.50400001928E-02 0. -1.
    10030    2    1    2    0    0  0.00000000000E+00  0.00000000000E+00  0.58921835863E+03  0.34512670252E+04  0.34005978599E+04 0.  0.
        1    1    3    3  502    0 -0.63970572206E+02  0.14590636711E+04 -0.58902872425E+03  0.15747742278E+04  0.50400001928E-02 0. -1.
       -1    1    3    3    0  502  0.63970572206E+02 -0.14590636711E+04  0.11782470829E+04  0.18764927974E+04  0.50400001928E-02 0.  1.
</event>
<event>
 5   0  0.1421875E-07  0.3389028E+04  0.7818609E-02  0.8140605E-01
       -1   -1    0    0    0  501  0.00000000000E+00  0.00000000000E+00  0.34012663673E+04  0.34012663673E+04  0.50400001928E-02 0. -1.
        1   -1    0    0  501    0  0.00000000000E+00  0.00000000000E+00 -0.84420827878E+03  0.84420827879E+03  0.50400001928E-02 0.  1.
    10030    2    1    2    0    0  0.00000000000E+00  0.00000000000E+00  0.25570580886E+04  0.42454746461E+04  0.33890277223E+04 0.  0.
        5    1    3    3  502    0  0.13219152526E+04 -0.68195496240E+02 -0.46769220090E+02  0.13245074597E+04  0.46999998093E+01 0.  1.
       -5    1    3    3    0  502 -0.13219152526E+04  0.68195496240E+02  0.26038273087E+04  0.29209671864E+04  0.46999998093E+01 0. -1.
</event>
<event>
 5   0  0.4447909E-07  0.3397433E+04  0.7818609E-02  0.8138537E-01
        2   -1    0    0  501    0  0.00000000000E+00  0.00000000000E+00  0.16507087354E+04  0.16507087354E+04  0.25500000920E-02 0.  1.
       -2   -1    0    0    0  501  0.00000000000E+00  0.00000000000E+00 -0.17481200649E+04  0.17481200649E+04  0.25500000920E-02 0. -1.
    10030    2    1    2    0    0  0.00000000000E+00  0.00000000000E+00 -0.97411329529E+02  0.33988288003E+04  0.33974325964E+04 0.  0.
        5    1    3    3  502    0 -0.11415107162E+04  0.14855978222E+03 -0.12984180762E+04  0.17352314874E+04  0.46999998093E+01 0. -1.
       -5    1    3    3    0  502  0.11415107162E+04 -0.14855978222E+03  0.12010067467E+04  0.16635973130E+04  0.46999998093E+01 0.  1.
</event>
<event>
 5   0  0.1473755E-07  0.3404204E+04  0.7818609E-02  0.8136875E-01
        1   -1    0    0  501    0  0.00000000000E+00  0.00000000000E+00  0.99988304942E+03  0.99988304943E+03  0.50400001928E-02 0.  1.
       -1   -1    0    0    0  501  0.00000000000E+00  0.00000000000E+00 -0.28974898869E+04  0.28974898869E+04  0.50400001928E-02 0. -1.
    10030    2    1    2    0    0  0.00000000000E+00  0.00000000000E+00 -0.18976068375E+04  0.38973729363E+04  0.34042038857E+04 0.  0.
        1    1    3    3  502    0 -0.76992926458E+03  0.14309896263E+04 -0.15287780051E+04  0.22310725160E+04  0.50400001928E-02 0. -1.
       -1    1    3    3    0  502  0.76992926458E+03 -0.14309896263E+04 -0.36882883243E+03  0.16663004203E+04  0.50400001928E-02 0.  1.
</event>
<event>
 5   0  0.4447909E-07  0.3395181E+04  0.7818609E-02  0.8139090E-01
       -2   -1    0    0    0  501  0.00000000000E+00  0.00000000000E+00  0.16035506992E+04  0.16035506992E+04  0.25500000920E-02 0. -1.
        2   -1    0    0  501    0  0.00000000000E+00  0.00000000000E+00 -0.17971452968E+04  0.17971452968E+04  0.25500000920E-02 0.  1.
    10030    2    1    2    0    0  0.00000000000E+00  0.00000000000E+00 -0.19359459765E+03  0.34006959960E+04  0.33951810539E+04 0.  0.
        5    1    3    3  502    0  0.70627302683E+03 -0.32321201899E+02  0.14490583463E+04  0.16123456296E+04  0.46999998093E+01 0. -1.
       -5    1    3    3    0  502 -0.70627302683E+03  0.32321201899E+02 -0.16426529439E+04  0.17883503663E+04  0.46999998093E+01 0.  1.
</event>
<event>
 5   0  0.1520084E-07  0.3411817E+04  0.7818609E-02  0.8135012E-01
       -1   -1    0    0    0  501  0.00000000000E+00  0.00000000000E+00  0.10504032061E+04  0.10504032061E+04  0.50400001928E-02 0.  1.
        1   -1    0    0  501    0  0.00000000000E+00  0.00000000000E+00 -0.27704826446E+04  0.27704826446E+04  0.50400001928E-02 0. -1.
    10030    2    1    2    0    0  0.00000000000E+00  0.00000000000E+00 -0.17200794385E+04  0.38208858507E+04  0.34118170246E+04 0.  0.
        2    1    3    3  502    0  0.39547394326E+02 -0.23825833605E+03  0.10311596618E+04  0.10590662298E+04  0.25500000920E-02 0.  1.
       -2    1    3    3    0  502 -0.39547394326E+02  0.23825833605E+03 -0.27512391003E+04  0.27618196208E+04  0.25500000920E-02 0. -1.
</event>
<event>
 5   0  0.1435806E-07  0.3391185E+04  0.7818609E-02  0.8140073E-01
       -1   -1    0    0    0  501  0.00000000000E+00  0.00000000000E+00  0.17850463209E+04  0.17850463209E+04  0.50400001928E-02 0.  1.
        1   -1    0    0  501    0  0.00000000000E+00  0.00000000000E+00 -0.16106218849E+04  0.16106218849E+04  0.50400001928E-02 0. -1.
    10030    2    1    2    0    0  0.00000000000E+00  0.00000000000E+00  0.17442443600E+03  0.33956682059E+04  0.33911854388E+04 0.  0.
        3    1    3    3  502    0 -0.63682004432E+03 -0.36028804759E+03 -0.14444134253E+04  0.16191594731E+04  0.10100000352E+00 0. -1.
       -3    1    3    3    0  502  0.63682004432E+03  0.36028804759E+03  0.16188378613E+04  0.17765087327E+04  0.10100000352E+00 0.  1.
</event>
<event>
 5   0  0.1421875E-07  0.3424255E+04  0.7818609E-02  0.8131979E-01
        1   -1    0    0  501    0  0.00000000000E+00  0.00000000000E+00  0.24302549117E+04  0.24302549117E+04  0.50400001928E-02 0.  1.
       -1   -1    0    0    0  501  0.00000000000E+00  0.00000000000E+00 -0.12062026159E+04  0.12062026159E+04  0.50400001928E-02 0. -1.
    10030    2    1    2    0    0  0.00000000000E+00  0.00000000000E+00  0.12240522957E+04  0.36364575276E+04  0.34242545652E+04 0.  0.
        5    1    3    3  502    0  0.40399797736E+03  0.10850820992E+04 -0.72737943935E+03  0.13673772218E+04  0.46999998093E+01 0. -1.
       -5    1    3    3    0  502 -0.40399797736E+03 -0.10850820992E+04  0.19514317351E+04  0.22690803059E+04  0.46999998093E+01 0.  1.
</event>
<event>
 5   0  0.4396257E-07  0.3394641E+04  0.7818609E-02  0.8139223E-01
       -2   -1    0    0    0  501  0.00000000000E+00  0.00000000000E+00  0.19623445500E+04  0.19623445500E+04  0.25500000920E-02 0.  1.
        2   -1    0    0  501    0  0.00000000000E+00  0.00000000000E+00 -0.14680891996E+04  0.14680891996E+04  0.25500000920E-02 0. -1.
    10030    2    1    2    0    0  0.00000000000E+00  0.00000000000E+00  0.49425535043E+03  0.34304337496E+04  0.33946409765E+04 0.  0.
        2    1    3    3  502    0  0.45535195729E+02 -0.12547923258E+04  0.14012376596E+04  0.18815005218E+04  0.25500000920E-02 0.  1.
       -2    1    3    3    0  502 -0.45535195729E+02  0.12547923258E+04 -0.90698230916E+03  0.15489332278E+04  0.25500000920E-02 0. -1.
</event>
<event>
 5   0  0.4486226E-07  0.3393468E+04  0.7818609E-02  0.8139511E-01
       -2   -1    0    0    0  501  0.00000000000E+00  0.00000000000E+00  0.96792924444E+03  0.96792924444E+03  0.25500000920E-02 0.  1.
        2   -1    0    0  501    0  0.00000000000E+00  0.00000000000E+00 -0.29742939376E+04  0.29742939376E+04  0.25500000920E-02 0. -1.
    10030    2    1    2    0    0  0.00000000000E+00  0.00000000000E+00 -0.20063646931E+04  0.39422231820E+04  0.33934678921E+04 0.  0.
        1    1    3    3  502    0 -0.65809884607E+03 -0.67694782162E+03 -0.26409673574E+04  0.28046498939E+04  0.50400001928E-02 0. -1.
       -1    1    3    3    0  502  0.65809884607E+03  0.67694782162E+03  0.63460266425E+03  0.11375732881E+04  0.50400001928E-02 0.  1.
</event>
<event>
 5   0  0.1473755E-07  0.3406359E+04  0.7818609E-02  0.8136347E-01
        1   -1    0    0  501    0  0.00000000000E+00  0.00000000000E+00  0.15794928213E+04  0.15794928213E+04  0.50400001928E-02 0. -1.
       -1   -1    0    0    0  501  0.00000000000E+00  0.00000000000E+00 -0.18365515217E+04  0.18365515218E+04  0.50400001928E-02 0.  1.
    10030    2    1    2    0    0  0.00000000000E+00  0.00000000000E+00 -0.25705870041E+03  0.34160443431E+04  0.34063587272E+04 0.  0.
        1    1    3    3  502    0  0.31932587655E+02  0.26562829540E+03 -0.18153470728E+04  0.18349558785E+04  0.50400001928E-02 0.  1.
       -1    1    3    3    0  502 -0.31932587655E+02 -0.26562829540E+03  0.15582883723E+04  0.15810884646E+04  0.50400001928E-02 0. -1.
</event>
<event>
 5   0  0.1435806E-07  0.3399841E+04  0.7818609E-02  0.8137945E-01
       -1   -1    0    0    0  501  0.00000000000E+00  0.00000000000E+00  0.14972798461E+04  0.14972798461E+04  0.50400001928E-02 0.  1.
        1   -1    0    0  501    0  0.00000000000E+00  0.00000000000E+00 -0.19299866347E+04  0.19299866347E+04  0.50400001928E-02 0. -1.
    10030    2    1    2    0    0  0.00000000000E+00  0.00000000000E+00 -0.43270678864E+03  0.34272664808E+04  0.33998412265E+04 0.  0.
        3    1    3    3  502    0  0.13263634209E+04 -0.81323358145E+03  0.47411065461E+03  0.16264592541E+04  0.10100000352E+00 0.  1.
       -3    1    3    3    0  502 -0.13263634209E+04  0.81323358145E+03 -0.90681744325E+03  0.18008072267E+04  0.10100000352E+00 0. -1.
</event>
<event>
 5   0  0.1435806E-07  0.3397989E+04  0.7818609E-02  0.8138400E-01
       -1   -1    0    0    0  501  0.00000000000E+00  0.00000000000E+00  0.11924919169E+04  0.11924919169E+04  0.50400001928E-02 0.  1.
        1   -1    0    0  501    0  0.00000000000E+00  0.00000000000E+00 -0.24206302373E+04  0.24206302373E+04  0.50400001928E-02 0. -1.
    10030    2    1    2    0    0  0.00000000000E+00  0.00000000000E+00 -0.12281383205E+04  0.36131221542E+04  0.33979888121E+04 0.  0.
        3    1    3    3  502    0  0.11262627545E+04  0.77430960319E+03 -0.16872026754E+04  0.21713304751E+04  0.10100000352E+00 0. -1.
       -3    1    3    3    0  502 -0.11262627545E+04 -0.77430960319E+03  0.45906435493E+03  0.14417916791E+04  0.10100000352E+00 0.  1.
</event>
<event>
 5   0  0.1523259E-07  0.3409224E+04  0.7818609E-02  0.8135646E-01
       -1   -1    0    0    0  501  0.00000000000E+00  0.00000000000E+00  0.16270922586E+04  0.16270922586E+04  0.50400001928E-02 0.  1.
        1   -1    0    0  501    0  0.00000000000E+00  0.00000000000E+00 -0.17858245919E+04  0.17858245919E+04  0.50400001928E-02 0. -1.
    10030    2    1    2    0    0  0.00000000000E+00  0.00000000000E+00 -0.15873233326E+03  0.34129168505E+04  0.34092235883E+04 0.  0.
        4    1    3    3  502    0 -0.62628003933E+03 -0.71939782482E+03 -0.14936739982E+04  0.17722368757E+04  0.12699999809E+01 0. -1.
       -4    1    3    3    0  502  0.62628003933E+03  0.71939782482E+03  0.13349416649E+04  0.16406799748E+04  0.12699999809E+01 0.  1.
</event>
<event>
 5   0  0.4486226E-07  0.3413635E+04  0.7818609E-02  0.8134568E-01
        2   -1    0    0  501    0  0.00000000000E+00  0.00000000000E+00  0.25140545619E+04  0.25140545619E+04  0.25500000920E-02 0. -1.
       -2   -1    0    0    0  501  0.00000000000E+00  0.00000000000E+00 -0.11587761385E+04  0.11587761385E+04  0.25500000920E-02 0.  1.
    10030    2    1    2    0    0  0.00000000000E+00  0.00000000000E+00  0.13552784234E+04  0.36728307004E+04  0.34136352689E+04 0.  0.
        1    1    3    3  502    0  0.16348948244E+04 -0.37023571742E+03  0.10233975782E+04  0.19640005541E+04  0.50400001928E-02 0. -1.
       -1    1    3    3    0  502 -0.16348948244E+04  0.37023571742E+03  0.33188084518E+03  0.17088301463E+04  0.50400001928E-02 0.  1.
</event>
<event>
 5   0  0.4381939E-07  0.3405915E+04  0.7818609E-02  0.8136456E-01
       -2   -1    0    0    0  501  0.00000000000E+00  0.00000000000E+00  0.11258589881E+04  0.11258589881E+04  0.25500000920E-02 0. -1.
        2   -1    0    0  501    0  0.00000000000E+00  0.00000000000E+00 -0.25758681168E+04  0.25758681168E+04  0.25500000920E-02 0.  1.
    10030    2    1    2    0    0  0.00000000000E+00  0.00000000000E+00 -0.14500091287E+04  0.37017271048E+04  0.34059150144E+04 0.  0.
        3    1    3    3  502    0 -0.98943680791E+02 -0.89875038192E+03  0.84342639974E+03  0.12364910849E+04  0.10100000352E+00 0. -1.
       -3    1    3    3    0  502  0.98943680791E+02  0.89875038192E+03 -0.22934355284E+04  0.24652360200E+04  0.10100000352E+00 0.  1.
</event>
<event>
 5   0  0.1435806E-07  0.3251963E+04  0.7818609E-02  0.8175227E-01
       -1   -1    0    0    0  501  0.00000000000E+00  0.00000000000E+00  0.22207027986E+04  0.22207027986E+04  0.50400001928E-02 0.  1.
        1   -1    0    0  501    0  0.00000000000E+00  0.00000000000E+00 -0.11905311681E+04  0.11905311681E+04  0.50400001928E-02 0. -1.
    10030    2    1    2    0    0  0.00000000000E+00  0.00000000000E+00  0.10301716305E+04  0.34112339667E+04  0.32519630360E+04 0.  0.
        3    1    3    3  502    0 -0.15206742218E+04  0.56235042692E+03  0.38606679903E+03  0.16666540358E+04  0.10100000352E+00 0. -1.
       -3    1    3    3    0  502  0.15206742218E+04 -0.56235042692E+03  0.64410483148E+03  0.17445799310E+04  0.10100000352E+00 0.  1.
</event>
<event>
 5   0  0.4521737E-07  0.3423647E+04  0.7818609E-02  0.8132127E-01
        2   -1    0    0  501    0  0.00000000000E+00  0.00000000000E+00  0.23090716509E+04  0.23090716509E+04  0.25500000920E-02 0. -1.
       -2   -1    0    0    0  501  0.00000000000E+00  0.00000000000E+00 -0.12690552726E+04  0.12690552726E+04  0.25500000920E-02 0.  1.
    10030    2    1    2    0    0  0.00000000000E+00  0.00000000000E+00  0.10400163783E+04  0.35781269235E+04  0.34236469172E+04 0.  0.
        4    1    3    3  502    0  0.31074036478E+03 -0.11441591066E+04  0.18105018718E+04  0.21641576367E+04  0.12699999809E+01 0. -1.
       -4    1    3    3    0  502 -0.31074036478E+03  0.11441591066E+04 -0.77048549351E+03  0.14139692869E+04  0.12699999809E+01 0.  1.
</event>
<event>
 5   0  0.1435806E-07  0.3388724E+04  0.7818609E-02  0.8140679E-01
        1   -1    0    0  501    0  0.00000000000E+00  0.00000000000E+00  0.11650841467E+04  0.11650841468E+04  0.50400001928E-02 0.  1.
       -1   -1    0    0    0  501  0.00000000000E+00  0.00000000000E+00 -0.24640810998E+04  0.24640810998E+04  0.50400001928E-02 0. -1.
    10030    2    1    2    0    0  0.00000000000E+00  0.00000000000E+00 -0.12989969530E+04  0.36291652465E+04  0.33887235506E+04 0.  0.
        3    1    3    3  502    0 -0.12025710481E+04  0.68766321514E+03  0.39532846711E+03  0.14406048835E+04  0.10100000352E+00 0.  1.
       -3    1    3    3    0  502  0.12025710481E+04 -0.68766321514E+03 -0.16943254201E+04  0.21885603630E+04  0.10100000352E+00 0. -1.
</event>
<event>
 5   0  0.1435806E-07  0.3416045E+04  0.7818609E-02  0.8133979E-01
       -1   -1    0    0    0  501  0.00000000000E+00  0.00000000000E+00  0.21825829481E+04  0.21825829481E+04  0.50400001928E-02 0. -1.
        1   -1    0    0  501    0  0.00000000000E+00  0.00000000000E+00 -0.13366463660E+04  0.13366463660E+04  0.50400001928E-02 0.  1.
    10030    2    1    2    0    0  0.00000000000E+00  0.00000000000E+00  0.84593658213E+03  0.35192293141E+04  0.34160454131E+04 0.  0.
        3    1    3    3  502    0  0.16073781501E+04  0.32867182735E+03 -0.66408532726E+02  0.16419804478E+04  0.10100000352E+00 0.  1.
       -3    1    3    3    0  502 -0.16073781501E+04 -0.32867182735E+03  0.91234511486E+03  0.18772488664E+04  0.10100000352E+00 0. -1.
</event>
<event>
 5   0  0.4381939E-07  0.3391379E+04  0.7818609E-02  0.8140025E-01
       -2   -1    0    0    0  501  0.00000000000E+00  0.00000000000E+00  0.23093168297E+04  0.23093168297E+04  0.25500000920E-02 0.  1.
        2   -1    0    0  501    0  0.00000000000E+00  0.00000000000E+00 -0.12451143127E+04  0.12451143127E+04  0.25500000920E-02 0. -1.
    10030    2    1    2    0    0  0.00000000000E+00  0.00000000000E+00  0.10642025170E+04  0.35544311423E+04  0.33913793283E+04 0.  0.
        3    1    3    3  502    0 -0.14068156236E+04 -0.55548502233E+03 -0.27135151826E+03  0.15366604913E+04  0.10100000352E+00 0. -1.
       -3    1    3    3    0  502  0.14068156236E+04  0.55548502233E+03  0.13355540352E+04  0.20177706510E+04  0.10100000352E+00 0.  1.
</event>
<event>
 5   0  0.1523259E-07  0.3323704E+04  0.7818609E-02  0.8156890E-01
        1   -1    0    0  501    0  0.00000000000E+00  0.00000000000E+00  0.19047683270E+04  0.19047683270E+04  0.50400001928E-02 0. -1.
       -1   -1    0    0    0  501  0.00000000000E+00  0.00000000000E+00 -0.14499151342E+04  0.14499151342E+04  0.50400001928E-02 0.  1.
    10030    2    1    2    0    0  0.00000000000E+00  0.00000000000E+00  0.45485319286E+03  0.33546834612E+04  0.33237042134E+04 0.  0.
        4    1    3    3  502    0  0.79117878693E+03 -0.10805058060E+04  0.12206177261E+04  0.18120060474E+04  0.12699999809E+01 0. -1.
       -4    1    3    3    0  502 -0.79117878693E+03  0.10805058060E+04 -0.76576453324E+03  0.15426774138E+04  0.12699999809E+01 0.  1.
</event>
<event>
 5   0  0.1435806E-07  0.3347697E+04  0.7818609E-02  0.8150864E-01
       -1   -1    0    0    0  501  0.00000000000E+00  0.00000000000E+00  0.11102302639E+04  0.11102302639E+04  0.50400001928E-02 0. -1.
        1   -1    0    0  501    0  0.00000000000E+00  0.00000000000E+00 -0.25235929298E+04  0.25235929298E+04  0.50400001928E-02 0.  1.
    10030    2    1    2    0    0  0.00000000000E+00  0.00000000000E+00 -0.14133626660E+04  0.36338231937E+04  0.33476972650E+04 0.  0.
        3    1    3    3  502    0  0.14450755141E+04 -0.25862663285E+03 -0.15795488118E+04  0.21564103124E+04  0.10100000352E+00 0.  1.
       -3    1    3    3    0  502 -0.14450755141E+04  0.25862663285E+03  0.16618614581E+03  0.14774128813E+04  0.10100000352E+00 0. -1.
</event>
<event>
 5   0  0.4396257E-07  0.3380738E+04  0.7818609E-02  0.8142650E-01
        2   -1    0    0  501    0  0.00000000000E+00  0.00000000000E+00  0.21333940410E+04  0.21333940410E+04  0.25500000920E-02 0. -1.
       -2   -1    0    0    0  501  0.00000000000E+00  0.00000000000E+00 -0.13393432004E+04  0.13393432004E+04  0.25500000920E-02 0.  1.
    10030    2    1    2    0    0  0.00000000000E+00  0.00000000000E+00  0.79405084052E+03  0.34727372414E+04  0.33807376725E+04 0.  0.
        2    1    3    3  502    0  0.13415720018E+04 -0.96659197205E+03  0.75762150952E+03  0.18188198999E+04  0.25500000920E-02 0.  1.
       -2    1    3    3    0  502 -0.13415720018E+04  0.96659197205E+03  0.36429331003E+02  0.16539173415E+04  0.25500000920E-02 0. -1.
</event>
<event>
 5   0  0.1473755E-07  0.3497358E+04  0.7818609E-02  0.8114416E-01
       -1   -1    0    0    0  501  0.00000000000E+00  0.00000000000E+00  0.15308453457E+04  0.15308453457E+04  0.50400001928E-02 0.  1.
        1   -1    0    0  501    0  0.00000000000E+00  0.00000000000E+00 -0.19975096130E+04  0.19975096131E+04  0.50400001928E-02 0. -1.
    10030    2    1    2    0    0  0.00000000000E+00  0.00000000000E+00 -0.46666426733E+03  0.35283549588E+04  0.34973580281E+04 0.  0.
        1    1    3    3  502    0 -0.30283569397E+03  0.14341932919E+04  0.72866958012E+03  0.16369420311E+04  0.50400001928E-02 0.  1.
       -1    1    3    3    0  502  0.30283569397E+03 -0.14341932919E+04 -0.11953338475E+04  0.18914129277E+04  0.50400001928E-02 0. -1.
</event>
<event>
 5   0  0.4486226E-07  0.3409432E+04  0.7818609E-02  0.8135595E-01
        2   -1    0    0  501    0  0.00000000000E+00  0.00000000000E+00  0.14736593464E+04  0.14736593464E+04  0.25500000920E-02 0.  1.
       -2   -1    0    0    0  501  0.00000000000E+00  0.00000000000E+00 -0.19720004569E+04  0.19720004569E+04  0.25500000920E-02 0. -1.
    10030    2    1    2    0    0  0.00000000000E+00  0.00000000000E+00 -0.49834111057E+03  0.34456598033E+04  0.34094321547E+04 0.  0.
        1    1    3    3  502    0  0.11019919971E+04  0.52810354747E+03  0.95206223954E+03  0.15490972295E+04  0.50400001928E-02 0.  1.
       -1    1    3    3    0  502 -0.11019919971E+04 -0.52810354747E+03 -0.14504033501E+04  0.18965625738E+04  0.50400001928E-02 0. -1.
</event>
<event>
 5   0  0.1520084E-07  0.3412789E+04  0.7818609E-02  0.8134775E-01
       -1   -1    0    0    0  501  0.00000000000E+00  0.00000000000E+00  0.16174417527E+04  0.16174417527E+04  0.50400001928E-02 0.  1.
        1   -1    0    0  501    0  0.00000000000E+00  0.00000000000E+00 -0.18002394606E+04  0.18002394606E+04  0.50400001928E-02 0. -1.
    10030    2    1    2    0    0  0.00000000000E+00  0.00000000000E+00 -0.18279770788E+03  0.34176812133E+04  0.34127891634E+04 0.  0.
        2    1    3    3  502    0  0.13571446981E+04  0.85594882007E+02 -0.11237083218E+04  0.17640545932E+04  0.25500000920E-02 0. -1.
       -2    1    3    3    0  502 -0.13571446981E+04 -0.85594882007E+02  0.94091061390E+03  0.16536266201E+04  0.25500000920E-02 0.  1.
</event>
<event>
 5   0  0.1523259E-07  0.3391126E+04  0.7818609E-02  0.8140088E-01
        1   -1    0    0  501    0  0.00000000000E+00  0.00000000000E+00  0.34134983210E+04  0.34134983210E+04  0.50400001928E-02 0.  1.
       -1   -1    0    0    0  501  0.00000000000E+00  0.00000000000E+00 -0.84222501328E+03  0.84222501330E+03  0.50400001928E-02 0. -1.
    10030    2    1    2    0    0  0.00000000000E+00  0.00000000000E+00  0.25712733077E+04  0.42557233343E+04  0.33911258713E+04 0.  0.
        4    1    3    3  502    0 -0.30555932984E+03 -0.10672583016E+04  0.28940049592E+04  0.30996246714E+04  0.12699999809E+01 0.  1.
       -4    1    3    3    0  502  0.30555932984E+03  0.10672583016E+04 -0.32273165157E+03  0.11560986629E+04  0.12699999809E+01 0. -1.
</event>
<event>
 5   0  0.4381939E-07  0.3401147E+04  0.7818609E-02  0.8137625E-01
        2   -1    0    0  501    0  0.00000000000E+00  0.00000000000E+00  0.12959879403E+04  0.12959879403E+04  0.25500000920E-02 0.  1.
       -2   -1    0    0    0  501  0.00000000000E+00  0.00000000000E+00 -0.22314635484E+04  0.22314635484E+04  0.25500000920E-02 0. -1.
    10030    2    1    2    0    0  0.00000000000E+00  0.00000000000E+00 -0.93547560802E+03  0.35274514887E+04  0.34011467760E+04 0.  0.
        3    1    3    3  502    0  0.94045436598E+03 -0.56356929336E+02 -0.19360524539E+04  0.21531209052E+04  0.10100000352E+00 0. -1.
       -3    1    3    3    0  502 -0.94045436598E+03  0.56356929336E+02  0.10005768459E+04  0.13743305835E+04  0.10100000352E+00 0.  1.
</event>
<event>
 5   0  0.1435806E-07  0.3425525E+04  0.7818609E-02  0.8131670E-01
       -1   -1    0    0    0  501  0.00000000000E+00  0.00000000000E+00  0.12970471340E+04  0.12970471340E+04  0.50400001928E-02 0. -1.
        1   -1    0    0  501    0  0.00000000000E+00  0.00000000000E+00 -0.22617188535E+04  0.22617188535E+04  0.50400001928E-02 0.  1.
    10030    2    1    2    0    0  0.00000000000E+00  0.00000000000E+00 -0.96467171943E+03  0.35587659875E+04  0.34255253360E+04 0.  0.
        3    1    3    3  502    0  0.85589754114E+03  0.34968256414E+03 -0.19801915654E+04  0.21854054870E+04  0.10100000352E+00 0.  1.
       -3    1    3    3    0  502 -0.85589754114E+03 -0.34968256414E+03  0.10155198460E+04  0.13733605005E+04  0.10100000352E+00 0. -1.
</event>
<event>
 5   0  0.4396257E-07  0.3402274E+04  0.7818609E-02  0.8137349E-01
        2   -1    0    0  501    0  0.00000000000E+00  0.00000000000E+00  0.15159470728E+04  0.15159470728E+04  0.25500000920E-02 0.  1.
       -2   -1    0    0    0  501  0.00000000000E+00  0.00000000000E+00 -0.19089493963E+04  0.19089493963E+04  0.25500000920E-02 0. -1.
    10030    2    1    2    0    0  0.00000000000E+00  0.00000000000E+00 -0.39300232346E+03  0.34248964691E+04  0.34022735042E+04 0.  0.
        2    1    3    3  502    0  0.38036326376E+03  0.13210616753E+04  0.81215250575E+03  0.15967065651E+04  0.25500000920E-02 0.  1.
       -2    1    3    3    0  502 -0.38036326376E+03 -0.13210616753E+04 -0.12051548292E+04  0.18281899039E+04  0.25500000920E-02 0. -1.
</event>
<event>
 5   0  0.4381939E-07  0.3404282E+04  0.7818609E-02  0.8136856E-01
        2   -1    0    0  501    0  0.00000000000E+00  0.00000000000E+00  0.21230821653E+04  0.21230821653E+04  0.25500000920E-02 0. -1.
       -2   -1    0    0    0  501  0.00000000000E+00  0.00000000000E+00 -0.13646597315E+04  0.13646597315E+04  0.25500000920E-02 0.  1.
    10030    2    1    2    0    0  0.00000000000E+00  0.00000000000E+00  0.75842243373E+03  0.34877418968E+04  0.34042824428E+04 0.  0.
        3    1    3    3  502    0 -0.14825645051E+04  0.75283524001E+03  0.62447229568E+01  0.16627679986E+04  0.10100000352E+00 0. -1.
       -3    1    3    3    0  502  0.14825645051E+04 -0.75283524001E+03  0.75217771077E+03  0.18249738982E+04  0.10100000352E+00 0.  1.
</event>
<event>
 5   0  0.4396257E-07  0.3387807E+04  0.7818609E-02  0.8140905E-01
       -2   -1    0    0    0  501  0.00000000000E+00  0.00000000000E+00  0.14332834156E+04  0.14332834156E+04  0.25500000920E-02 0.  1.
        2   -1    0    0  501    0  0.00000000000E+00  0.00000000000E+00 -0.20019131140E+04  0.20019131140E+04  0.25500000920E-02 0. -1.
    10030    2    1    2    0    0  0.00000000000E+00  0.00000000000E+00 -0.56862969842E+03  0.34351965296E+04  0.33878068810E+04 0.  0.
        2    1    3    3  502    0 -0.22171999275E+03  0.15684700891E+04  0.32412096002E+03  0.16168835989E+04  0.25500000920E-02 0.  1.
       -2    1    3    3    0  502  0.22171999275E+03 -0.15684700891E+04 -0.89275065844E+03  0.18183129307E+04  0.25500000920E-02 0. -1.
</event>
<event>
 5   0  0.4396257E-07  0.3268629E+04  0.7818609E-02  0.8170924E-01
        2   -1    0    0  501    0  0.00000000000E+00  0.00000000000E+00  0.13641149617E+04  0.13641149617E+04  0.25500000920E-02 0. -1.
       -2   -1    0    0    0  501  0.00000000000E+00  0.00000000000E+00 -0.19580343294E+04  0.19580343294E+04  0.25500000920E-02 0.  1.
    10030    2    1    2    0    0  0.00000000000E+00  0.00000000000E+00 -0.59391936768E+03  0.33221492910E+04  0.32686290240E+04 0.  0.
        2    1    3    3  502    0  0.22006110822E+03 -0.67436654808E+03 -0.17934082521E+04  0.19286031969E+04  0.25500000920E-02 0.  1.
       -2    1    3    3    0  502 -0.22006110822E+03  0.67436654808E+03  0.11994888844E+04  0.13935460941E+04  0.25500000920E-02 0. -1.
</event>
<event>
 5   0  0.1421875E-07  0.3356126E+04  0.7818609E-02  0.8148759E-01
        1   -1    0    0  501    0  0.00000000000E+00  0.00000000000E+00  0.18152307913E+04  0.18152307913E+04  0.50400001928E-02 0. -1.
       -1   -1    0    0    0  501  0.00000000000E+00  0.00000000000E+00 -0.15512603936E+04  0.15512603936E+04  0.50400001928E-02 0.  1.
    10030    2    1    2    0    0  0.00000000000E+00  0.00000000000E+00  0.26397039768E+03  0.33664911849E+04  0.33561261191E+04 0.  0.
        5    1    3    3  502    0  0.67096907804E+02  0.90983077854E+03  0.15447309657E+04  0.17940205927E+04  0.46999998093E+01 0. -1.
       -5    1    3    3    0  502 -0.67096907804E+02 -0.90983077854E+03 -0.12807605681E+04  0.15724705922E+04  0.46999998093E+01 0.  1.
</event>
<event>
 5   0  0.1473755E-07  0.3386757E+04  0.7818609E-02  0.8141164E-01
       -1   -1    0    0    0  501  0.00000000000E+00  0.00000000000E+00  0.11664377133E+04  0.11664377133E+04  0.50400001928E-02 0.  1.
        1   -1    0    0  501    0  0.00000000000E+00  0.00000000000E+00 -0.24583665573E+04  0.24583665573E+04  0.50400001928E-02 0. -1.
    10030    2    1    2    0    0  0.00000000000E+00  0.00000000000E+00 -0.12919288440E+04  0.36248042706E+04  0.33867574259E+04 0.  0.
        1    1    3    3  502    0 -0.10100720887E+03  0.16525441507E+04 -0.10265217677E+04  0.19480378759E+04  0.50400001928E-02 0. -1.
       -1    1    3    3    0  502  0.10100720887E+03 -0.16525441507E+04 -0.26540707633E+03  0.16767663947E+04  0.50400001928E-02 0.  1.
</event>
<event>
 5   0  0.4396257E-07  0.3398875E+04  0.7818609E-02  0.8138183E-01
       -2   -1    0    0    0  501  0.00000000000E+00  0.00000000000E+00  0.13242297115E+04  0.13242297115E+04  0.25500000920E-02 0. -1.
        2   -1    0    0  501    0  0.00000000000E+00  0.00000000000E+00 -0.21809565695E+04  0.21809565695E+04  0.25500000920E-02 0.  1.
    10030    2    1    2    0    0  0.00000000000E+00  0.00000000000E+00 -0.85672685798E+03  0.35051862811E+04  0.33988748073E+04 0.  0.
        2    1    3    3  502    0  0.68584782814E+03 -0.14995211298E+04 -0.42375551771E+01  0.16489295980E+04  0.25500000920E-02 0.  1.
       -2    1    3    3    0  502 -0.68584782814E+03  0.14995211298E+04 -0.85248930280E+03  0.18562566831E+04  0.25500000920E-02 0. -1.
</event>
<event>
 5   0  0.4396257E-07  0.3406243E+04  0.7818609E-02  0.8136376E-01
       -2   -1    0    0    0  501  0.00000000000E+00  0.00000000000E+00  0.18617731324E+04  0.18617731324E+04  0.25500000920E-02 0. -1.
        2   -1    0    0  501    0  0.00000000000E+00  0.00000000000E+00 -0.15579893795E+04  0.15579893795E+04  0.25500000920E-02 0.  1.
    10030    2    1    2    0    0  0.00000000000E+00  0.00000000000E+00  0.30378375295E+03  0.34197625119E+04  0.34062429551E+04 0.  0.
        2    1    3    3  502    0 -0.16866555072E+04  0.19750856187E+02  0.38825329559E+03  0.17308776727E+04  0.25500000920E-02 0. -1.
       -2    1    3    3    0  502  0.16866555072E+04 -0.19750856187E+02 -0.84469542632E+02  0.16888848392E+04  0.25500000920E-02 0.  1.
</event>
<event>
 5   0  0.4381939E-07  0.3394992E+04  0.7818609E-02  0.8139136E-01
        2   -1    0    0  501    0  0.00000000000E+00  0.00000000000E+00  0.25387786579E+04  0.25387786579E+04  0.25500000920E-02 0.  1.
       -2   -1    0    0    0  501  0.00000000000E+00  0.00000000000E+00 -0.11349918938E+04  0.11349918938E+04  0.25500000920E-02 0. -1.
    10030    2    1    2    0    0  0.00000000000E+00  0.00000000000E+00  0.14037867641E+04  0.36737705517E+04  0.33949923104E+04 0.  0.
        3    1    3    3  502    0 -0.36913953677E+03 -0.44568999155E+03  0.24287358314E+04  0.24967301246E+04  0.10100000352E+00 0.  1.
       -3    1    3    3    0  502  0.36913953677E+03  0.44568999155E+03 -0.10249490673E+04  0.11770404271E+04  0.10100000352E+00 0. -1.
</event>
<event>
 5   0  0.1520084E-07  0.3412066E+04  0.7818609E-02  0.8134951E-01
        1   -1    0    0  501    0  0.00000000000E+00  0.00000000000E+00  0.10866139357E+04  0.10866139357E+04  0.50400001928E-02 0.  1.
       -1   -1    0    0    0  501  0.00000000000E+00  0.00000000000E+00 -0.26785490426E+04  0.26785490426E+04  0.50400001928E-02 0. -1.
    10030    2    1    2    0    0  0.00000000000E+00  0.00000000000E+00 -0.15919351068E+04  0.37651629783E+04  0.34120660704E+04 0.  0.
        2    1    3    3  502    0  0.81166026144E+03 -0.14043204249E+04 -0.21243328130E+03  0.16358594484E+04  0.25500000920E-02 0.  1.
       -2    1    3    3    0  502 -0.81166026144E+03  0.14043204249E+04 -0.13795018255E+04  0.21293035299E+04  0.25500000920E-02 0. -1.
</event>
<event>
 5   0  0.1473755E-07  0.3400737E+04  0.7818609E-02  0.8137725E-01
        1   -1    0    0  501    0  0.00000000000E+00  0.00000000000E+00  0.19753833664E+04  0.19753833664E+04  0.50400001928E-02 0.  1.
       -1   -1    0    0    0  501  0.00000000000E+00  0.00000000000E+00 -0.14636413485E+04  0.14636413485E+04  0.50400001928E-02 0. -1.
    10030    2    1    2    0    0  0.00000000000E+00  0.00000000000E+00  0.51174201787E+03  0.34390247149E+04  0.34007368462E+04 0.  0.
        1    1    3    3  502    0 -0.10661390893E+03 -0.93925513937E+03 -0.11734371951E+04  0.15068250042E+04  0.50400001928E-02 0. -1.
       -1    1    3    3    0  502  0.10661390893E+03  0.93925513937E+03  0.16851792130E+04  0.19321997108E+04  0.50400001928E-02 0.  1.
</event>
<event>
 5   0  0.4396257E-07  0.3393104E+04  0.7818609E-02  0.8139601E-01
        2   -1    0    0  501    0  0.00000000000E+00  0.00000000000E+00  0.20924506734E+04  0.20924506734E+04  0.25500000920E-02 0.  1.
       -2   -1    0    0    0  501  0.00000000000E+00  0.00000000000E+00 -0.13755584587E+04  0.13755584587E+04  0.25500000920E-02 0. -1.
    10030    2    1    2    0    0  0.00000000000E+00  0.00000000000E+00  0.71689221469E+03  0.34680091321E+04  0.33931037257E+04 0.  0.
        2    1    3    3  502    0  0.24524714635E+03  0.78517560132E+03 -0.11581026643E+04  0.14205100030E+04  0.25500000920E-02 0. -1.
       -2    1    3    3    0  502 -0.24524714635E+03 -0.78517560132E+03  0.18749948789E+04  0.20474991291E+04  0.25500000920E-02 0.  1.
</event>
<event>
 5   0  0.4447909E-07  0.3380323E+04  0.7818609E-02  0.8142753E-01
       -2   -1    0    0    0  501  0.00000000000E+00  0.00000000000E+00  0.20552577395E+04  0.20552577395E+04  0.25500000920E-02 0.  1.
        2   -1    0    0  501    0  0.00000000000E+00  0.00000000000E+00 -0.13899210827E+04  0.13899210827E+04  0.25500000920E-02 0. -1.
    10030    2    1    2    0    0  0.00000000000E+00  0.00000000000E+00  0.66533665681E+03  0.34451788223E+04  0.33803230985E+04 0.  0.
        5    1    3    3  502    0  0.91510355554E+03 -0.11807784769E+04 -0.47305087057E+03  0.15669880488E+04  0.46999998093E+01 0.  1.
       -5    1    3    3    0  502 -0.91510355554E+03  0.11807784769E+04  0.11383875274E+04  0.18781907734E+04  0.46999998093E+01 0. -1.
</event>
<event>
 5   0  0.1520084E-07  0.3384320E+04  0.7818609E-02  0.8141766E-01
        1   -1    0    0  501    0  0.00000000000E+00  0.00000000000E+00  0.19539367757E+04  0.19539367757E+04  0.50400001928E-02 0. -1.
       -1   -1    0    0    0  501  0.00000000000E+00  0.00000000000E+00 -0.14654542047E+04  0.14654542047E+04  0.50400001928E-02 0.  1.
    10030    2    1    2    0    0  0.00000000000E+00  0.00000000000E+00  0.48848257107E+03  0.34193909804E+04  0.33843196443E+04 0.  0.
        2    1    3    3  502    0 -0.74999115607E+01  0.61563821078E+03  0.18367534058E+04  0.19371963579E+04  0.25500000920E-02 0. -1.
       -2    1    3    3    0  502  0.74999115607E+01 -0.61563821078E+03 -0.13482708347E+04  0.14821946225E+04  0.25500000920E-02 0.  1.
</event>
<event>
 5   0  0.1421875E-07  0.3369393E+04  0.7818609E-02  0.8145459E-01
        1   -1    0    0  501    0  0.00000000000E+00  0.00000000000E+00  0.24918946865E+04  0.24918946865E+04  0.50400001928E-02 0. -1.
       -1   -1    0    0    0  501  0.00000000000E+00  0.00000000000E+00 -0.11389734988E+04  0.11389734988E+04  0.50400001928E-02 0.  1.
    10030    2    1    2    0    0  0.00000000000E+00  0.00000000000E+00  0.13529211877E+04  0.36308681853E+04  0.33693928294E+04 0.  0.
        5    1    3    3  502    0  0.32569521200E+03 -0.46439769143E+03  0.23858928519E+04  0.24523966600E+04  0.46999998093E+01 0. -1.
       -5    1    3    3    0  502 -0.32569521200E+03  0.46439769143E+03 -0.10329716642E+04  0.11784715253E+04  0.46999998093E+01 0.  1.
</event>
<event>
 5   0  0.4521737E-07  0.3371355E+04  0.7818609E-02  0.8144973E-01
       -2   -1    0    0    0  501  0.00000000000E+00  0.00000000000E+00  0.13883317974E+04  0.13883317974E+04  0.25500000920E-02 0.  1.
        2   -1    0    0  501    0  0.00000000000E+00  0.00000000000E+00 -0.20467066780E+04  0.20467066780E+04  0.25500000920E-02 0. -1.
    10030    2    1    2    0    0  0.00000000000E+00  0.00000000000E+00 -0.65837488057E+03  0.34350384754E+04  0.33713546007E+04 0.  0.
        4    1    3    3  502    0  0.13758674328E+04 -0.97269239162E+03 -0.27964103619E+03  0.17080229517E+04  0.12699999809E+01 0.  1.
       -4    1    3    3    0  502 -0.13758674328E+04  0.97269239162E+03 -0.37873384438E+03  0.17270155237E+04  0.12699999809E+01 0. -1.
</event>
<event>
 5   0  0.1435806E-07  0.3407671E+04  0.7818609E-02  0.8136026E-01
        1   -1    0    0  501    0  0.00000000000E+00  0.00000000000E+00  0.18834661297E+04  0.18834661297E+04  0.50400001928E-02 0. -1.
       -1   -1    0    0    0  501  0.00000000000E+00  0.00000000000E+00 -0.15413364700E+04  0.15413364700E+04  0.50400001928E-02 0.  1.
    10030    2    1    2    0    0  0.00000000000E+00  0.00000000000E+00  0.34212965968E+03  0.34248025998E+04  0.34076707798E+04 0.  0.
        3    1    3    3  502    0  0.55965008023E+02  0.16927228549E+04 -0.15914250360E+02  0.16937225331E+04  0.10100000352E+00 0.  1.
       -3    1    3    3    0  502 -0.55965008023E+02 -0.16927228549E+04  0.35804391004E+03  0.17310800667E+04  0.10100000352E+00 0. -1.
</event>
<event>
 5   0  0.1520084E-07  0.3388777E+04  0.7818609E-02  0.8140666E-01
       -1   -1    0    0    0  501  0.00000000000E+00  0.00000000000E+00  0.14760759025E+04  0.14760759025E+04  0.50400001928E-02 0.  1.
        1   -1    0    0  501    0  0.00000000000E+00  0.00000000000E+00 -0.19449902433E+04  0.19449902433E+04  0.50400001928E-02 0. -1.
    10030    2    1    2    0    0  0.00000000000E+00  0.00000000000E+00 -0.46891434075E+03  0.34210661458E+04  0.33887774956E+04 0.  0.
        2    1    3    3  502    0 -0.10141576270E+04  0.18719374105E+03 -0.15916610115E+04  0.18965605618E+04  0.25500000920E-02 0. -1.
       -2    1    3    3    0  502  0.10141576270E+04 -0.18719374105E+03  0.11227466707E+04  0.15245055840E+04  0.25500000920E-02 0.  1.
</event>
<event>
 5   0  0.4396257E-07  0.3401213E+04  0.7818609E-02  0.8137609E-01
        2   -1    0    0  501    0  0.00000000000E+00  0.00000000000E+00  0.16763289664E+04  0.16763289664E+04  0.25500000920E-02 0.  1.
       -2   -1    0    0    0  501  0.00000000000E+00  0.00000000000E+00 -0.17252358122E+04  0.17252358122E+04  0.25500000920E-02 0. -1.
    10030    2    1    2    0    0  0.00000000000E+00  0.00000000000E+00 -0.48906845875E+02  0.34015647786E+04  0.34012131752E+04 0.  0.
        2    1    3    3  502    0 -0.16556147578E+04  0.11916086687E+03  0.34545401571E+03  0.16954639529E+04  0.25500000920E-02 0.  1.
       -2    1    3    3    0  502  0.16556147578E+04 -0.11916086687E+03 -0.39436086159E+03  0.17061008257E+04  0.25500000920E-02 0. -1.
</event>
<event>
 5   0  0.4447909E-07  0.3348904E+04  0.7818609E-02  0.8150562E-01
       -2   -1    0    0    0  501  0.00000000000E+00  0.00000000000E+00  0.14461766684E+04  0.14461766684E+04  0.25500000920E-02 0.  1.
        2   -1    0    0  501    0  0.00000000000E+00  0.00000000000E+00 -0.19387603863E+04  0.19387603863E+04  0.25500000920E-02 0. -1.
    10030    2    1    2    0    0  0.00000000000E+00  0.00000000000E+00 -0.49258371793E+03  0.33849370547E+04  0.33489043201E+04 0.  0.
        5    1    3    3  502    0  0.79092945605E+03 -0.40976091761E+03 -0.16793958422E+04  0.19010170695E+04  0.46999998093E+01 0. -1.
       -5    1    3    3    0  502 -0.79092945605E+03  0.40976091761E+03  0.11868121242E+04  0.14839199851E+04  0.46999998093E+01 0.  1.
</event>
<event>
 5   0  0.1523259E-07  0.3388291E+04  0.7818609E-02  0.8140786E-01
        1   -1    0    0  501    0  0.00000000000E+00  0.00000000000E+00  0.15372175031E+04  0.15372175031E+04  0.50400001928E-02 0.  1.
       -1   -1    0    0    0  501  0.00000000000E+00  0.00000000000E+00 -0.18670937792E+04  0.18670937792E+04  0.50400001928E-02 0. -1.
    10030    2    1    2    0    0  0.00000000000E+00  0.00000000000E+00 -0.32987627608E+03  0.34043112823E+04  0.33882911547E+04 0.  0.
        4    1    3    3  502    0 -0.58376891655E+03  0.10127532252E+04  0.10671028419E+04  0.15827714084E+04  0.12699999809E+01 0.  1.
       -4    1    3    3    0  502  0.58376891655E+03 -0.10127532252E+04 -0.13969791180E+04  0.18215398739E+04  0.12699999809E+01 0. -1.
</event>
<event>
 5   0  0.4447909E-07  0.3412791E+04  0.7818609E-02  0.8134774E-01
       -2   -1    0    0    0  501  0.00000000000E+00  0.00000000000E+00  0.12965928686E+04  0.12965928686E+04  0.25500000920E-02 0. -1.
        2   -1    0    0  501    0  0.00000000000E+00  0.00000000000E+00 -0.22457202337E+04  0.22457202337E+04  0.25500000920E-02 0.  1.
    10030    2    1    2    0    0  0.00000000000E+00  0.00000000000E+00 -0.94912736514E+03  0.35423131023E+04  0.34127905531E+04 0.  0.
        5    1    3    3  502    0  0.10966030156E+04 -0.13046475369E+04 -0.56214236593E+03  0.17946223834E+04  0.46999998093E+01 0.  1.
       -5    1    3    3    0  502 -0.10966030156E+04  0.13046475369E+04 -0.38698499921E+03  0.17476907189E+04  0.46999998093E+01 0. -1.
</event>
<event>
 5   0  0.1435806E-07  0.3435704E+04  0.7818609E-02  0.8129198E-01
        1   -1    0    0  501    0  0.00000000000E+00  0.00000000000E+00  0.19146971183E+04  0.19146971183E+04  0.50400001928E-02 0. -1.
       -1   -1    0    0    0  501  0.00000000000E+00  0.00000000000E+00 -0.15412443429E+04  0.15412443429E+04  0.50400001928E-02 0.  1.
    10030    2    1    2    0    0  0.00000000000E+00  0.00000000000E+00  0.37345277546E+03  0.34559414612E+04  0.34357043539E+04 0.  0.
        3    1    3    3  502    0 -0.52327215087E+03 -0.12189041738E+04 -0.91125013157E+03  0.16093221993E+04  0.10100000352E+00 0.  1.
       -3    1    3    3    0  502  0.52327215087E+03  0.12189041738E+04  0.12847029070E+04  0.18466192619E+04  0.10100000352E+00 0. -1.
</event>
<event>
 5   0  0.4396257E-07  0.3403899E+04  0.7818609E-02  0.8136950E-01
        2   -1    0    0  501    0  0.00000000000E+00  0.00000000000E+00  0.20941326244E+04  0.20941326244E+04  0.25500000920E-02 0.  1.
       -2   -1    0    0    0  501  0.00000000000E+00  0.00000000000E+00 -0.13832132196E+04  0.13832132196E+04  0.25500000920E-02 0. -1.
    10030    2    1    2    0    0  0.00000000000E+00  0.00000000000E+00  0.71091940475E+03  0.34773458440E+04  0.34038988996E+04 0.  0.
        2    1    3    3  502    0  0.59845736989E+03 -0.10006030464E+04 -0.91116195618E+03  0.14797208488E+04  0.25500000920E-02 0. -1.
       -2    1    3    3    0  502 -0.59845736989E+03  0.10006030464E+04  0.16220813609E+04  0.19976249952E+04  0.25500000920E-02 0.  1.
</event>
<event>
 5   0  0.4381939E-07  0.3407898E+04  0.7818609E-02  0.8135971E-01
        2   -1    0    0  501    0  0.00000000000E+00  0.00000000000E+00  0.27689982178E+04  0.27689982178E+04  0.25500000920E-02 0.  1.
       -2   -1    0    0    0  501  0.00000000000E+00  0.00000000000E+00 -0.10485534895E+04  0.10485534895E+04  0.25500000920E-02 0. -1.
    10030    2    1    2    0    0  0.00000000000E+00  0.00000000000E+00  0.17204447283E+04  0.38175517072E+04  0.34078983221E+04 0.  0.
        3    1    3    3  502    0 -0.12298343625E+04 -0.19214149903E+03 -0.44328273498E+03  0.13213290688E+04  0.10100000352E+00 0. -1.
       -3    1    3    3    0  502  0.12298343625E+04  0.19214149903E+03  0.21637274633E+04  0.24962226384E+04  0.10100000352E+00 0.  1.
</event>
<event>
 5   0  0.4486226E-07  0.3411294E+04  0.7818609E-02  0.8135140E-01
        2   -1    0    0  501    0  0.00000000000E+00  0.00000000000E+00  0.15567185651E+04  0.15567185651E+04  0.25500000920E-02 0.  1.
       -2   -1    0    0    0  501  0.00000000000E+00  0.00000000000E+00 -0.18688234544E+04  0.18688234544E+04  0.25500000920E-02 0. -1.
    10030    2    1    2    0    0  0.00000000000E+00  0.00000000000E+00 -0.31210488929E+03  0.34255420194E+04  0.34112942800E+04 0.  0.
        1    1    3    3  502    0 -0.71777096450E+03 -0.13964264449E+04  0.51308658778E+03  0.16518050188E+04  0.50400001928E-02 0. -1.
       -1    1    3    3    0  502  0.71777096450E+03  0.13964264449E+04 -0.82519147707E+03  0.17737370006E+04  0.50400001928E-02 0.  1.
</event>
<event>
 5   0  0.1473755E-07  0.3403497E+04  0.7818609E-02  0.8137049E-01
       -1   -1    0    0    0  501  0.00000000000E+00  0.00000000000E+00  0.15326552640E+04  0.15326552640E+04  0.50400001928E-02 0.  1.
        1   -1    0    0  501    0  0.00000000000E+00  0.00000000000E+00 -0.18894967743E+04  0.18894967743E+04  0.50400001928E-02 0. -1.
    10030    2    1    2    0    0  0.00000000000E+00  0.00000000000E+00 -0.35684151027E+03  0.34221520383E+04  0.34034965417E+04 0.  0.
        1    1    3    3  502    0  0.12404775970E+04 -0.11563387048E+04 -0.32077115526E+03  0.17259194660E+04  0.50400001928E-02 0. -1.
       -1    1    3    3    0  502 -0.12404775970E+04  0.11563387048E+04 -0.36070355008E+02  0.16962325723E+04  0.50400001928E-02 0.  1.
</event>
<event>
 5   0  0.4381939E-07  0.3425506E+04  0.7818609E-02  0.8131675E-01
        2   -1    0    0  501    0  0.00000000000E+00  0.00000000000E+00  0.26003123056E+04  0.26003123056E+04  0.25500000920E-02 0. -1.
       -2   -1    0    0    0  501  0.00000000000E+00  0.00000000000E+00 -0.11281425146E+04  0.11281425146E+04  0.25500000920E-02 0.  1.
    10030    2    1    2    0    0  0.00000000000E+00  0.00000000000E+00  0.14721697910E+04  0.37284548202E+04  0.34255060141E+04 0.  0.
        3    1    3    3  502    0  0.76196337541E+03 -0.83005043379E+03 -0.66793871105E+03  0.13098526787E+04  0.10100000352E+00 0.  1.
       -3    1    3    3    0  502 -0.76196337541E+03  0.83005043379E+03  0.21401085020E+04  0.24186021415E+04  0.10100000352E+00 0. -1.
</event>
<event>
 5   0  0.1523259E-07  0.3521451E+04  0.7818609E-02  0.8108725E-01
       -1   -1    0    0    0  501  0.00000000000E+00  0.00000000000E+00  0.22416458142E+04  0.22416458143E+04  0.50400001928E-02 0. -1.
        1   -1    0    0  501    0  0.00000000000E+00  0.00000000000E+00 -0.13829812220E+04  0.13829812220E+04  0.50400001928E-02 0.  1.
    10030    2    1    2    0    0  0.00000000000E+00  0.00000000000E+00  0.85866459224E+03  0.36246270363E+04  0.35214508757E+04 0.  0.
        4    1    3    3  502    0  0.41944127480E+03  0.14788815999E+04 -0.45438618271E+03  0.16029629395E+04  0.12699999809E+01 0.  1.
       -4    1    3    3    0  502 -0.41944127480E+03 -0.14788815999E+04  0.13130507749E+04  0.20216640967E+04  0.12699999809E+01 0. -1.
</event>
<event>
 5   0  0.4447909E-07  0.3398544E+04  0.7818609E-02  0.8138264E-01
        2   -1    0    0  501    0  0.00000000000E+00  0.00000000000E+00  0.13348653997E+04  0.13348653997E+04  0.25500000920E-02 0.  1.
       -2   -1    0    0    0  501  0.00000000000E+00  0.00000000000E+00 -0.21631580988E+04  0.21631580988E+04  0.25500000920E-02 0. -1.
    10030    2    1    2    0    0  0.00000000000E+00  0.00000000000E+00 -0.82829269909E+03  0.34980234984E+04  0.33985437470E+04 0.  0.
        5    1    3    3  502    0 -0.69886544317E+03 -0.14783112970E+04 -0.88993874649E+03  0.18616740480E+04  0.46999998093E+01 0.  1.
       -5    1    3    3    0  502  0.69886544317E+03  0.14783112970E+04  0.61646047393E+02  0.16363494504E+04  0.46999998093E+01 0. -1.
</event>
<event>
 5   0  0.1523259E-07  0.3383910E+04  0.7818609E-02  0.8141867E-01
       -1   -1    0    0    0  501  0.00000000000E+00  0.00000000000E+00  0.13628954333E+04  0.13628954333E+04  0.50400001928E-02 0.  1.
        1   -1    0    0  501    0  0.00000000000E+00  0.00000000000E+00 -0.21004634730E+04  0.21004634730E+04  0.50400001928E-02 0. -1.
    10030    2    1    2    0    0  0.00000000000E+00  0.00000000000E+00 -0.73756803974E+03  0.34633589063E+04  0.33839102087E+04 0.  0.
        4    1    3    3  502    0 -0.10125622530E+04 -0.38406687098E+03  0.96170667859E+03  0.14483338794E+04  0.12699999809E+01 0.  1.
       -4    1    3    3    0  502  0.10125622530E+04  0.38406687098E+03 -0.16992747183E+04  0.20150250269E+04  0.12699999809E+01 0. -1.
</event>
<event>
 5   0  0.1421875E-07  0.3412367E+04  0.7818609E-02  0.8134878E-01
        1   -1    0    0  501    0  0.00000000000E+00  0.00000000000E+00  0.16069433837E+04  0.16069433837E+04  0.50400001928E-02 0.  1.
       -1   -1    0    0    0  501  0.00000000000E+00  0.00000000000E+00 -0.18115521469E+04  0.18115521469E+04  0.50400001928E-02 0. -1.
    10030    2    1    2    0    0  0.00000000000E+00  0.00000000000E+00 -0.20460876323E+03  0.34184955306E+04  0.34123667662E+04 0.  0.
        5    1    3    3  502    0 -0.15982862332E+03 -0.14692830642E+04  0.75169471533E+03  0.16581329701E+04  0.46999998093E+01 0.  1.
       -5    1    3    3    0  502  0.15982862332E+03  0.14692830642E+04 -0.95630347856E+03  0.17603625605E+04  0.46999998093E+01 0. -1.
</event>
<event>
 5   0  0.4486226E-07  0.3385132E+04  0.7818609E-02  0.8141565E-01
        2   -1    0    0  501    0  0.00000000000E+00  0.00000000000E+00  0.10742433997E+04  0.10742433997E+04  0.25500000920E-02 0. -1.
       -2   -1    0    0    0  501  0.00000000000E+00  0.00000000000E+00 -0.26667885086E+04  0.26667885086E+04  0.25500000920E-02 0.  1.
    10030    2    1    2    0    0  0.00000000000E+00  0.00000000000E+00 -0.15925451089E+04  0.37410319083E+04  0.33851321709E+04 0.  0.
        1    1    3    3  502    0 -0.88508674389E+01 -0.53463227659E+03 -0.25709952476E+04  0.26260096291E+04  0.50400001928E-02 0.  1.
       -1    1    3    3    0  502  0.88508674389E+01  0.53463227659E+03  0.97845013870E+03  0.11150222791E+04  0.50400001928E-02 0. -1.
</event>
<event>
 5   0  0.4521737E-07  0.3335346E+04  0.7818609E-02  0.8153959E-01
        2   -1    0    0  501    0  0.00000000000E+00  0.00000000000E+00  0.23481940815E+04  0.23481940815E+04  0.25500000920E-02 0.  1.
       -2   -1    0    0    0  501  0.00000000000E+00  0.00000000000E+00 -0.11843709183E+04  0.11843709183E+04  0.25500000920E-02 0. -1.
    10030    2    1    2    0    0  0.00000000000E+00  0.00000000000E+00  0.11638231632E+04  0.35325649998E+04  0.33353457276E+04 0.  0.
        4    1    3    3  502    0  0.42172692651E+03  0.11991786468E+03  0.22860572422E+04  0.23277227546E+04  0.12699999809E+01 0.  1.
       -4    1    3    3    0  502 -0.42172692651E+03 -0.11991786468E+03 -0.11222340790E+04  0.12048422452E+04  0.12699999809E+01 0. -1.
</event>
<event>
 5   0  0.4381939E-07  0.3421445E+04  0.7818609E-02  0.8132663E-01
       -2   -1    0    0    0  501  0.00000000000E+00  0.00000000000E+00  0.20654699476E+04  0.20654699476E+04  0.25500000920E-02 0.  1.
        2   -1    0    0  501    0  0.00000000000E+00  0.00000000000E+00 -0.14169033309E+04  0.14169033309E+04  0.25500000920E-02 0. -1.
    10030    2    1    2    0    0  0.00000000000E+00  0.00000000000E+00  0.64856661665E+03  0.34823732785E+04  0.34214448695E+04 0.  0.
        3    1    3    3  502    0 -0.24499020587E+03  0.10252886222E+04 -0.10470533302E+04  0.14857851952E+04  0.10100000352E+00 0. -1.
       -3    1    3    3    0  502  0.24499020587E+03 -0.10252886222E+04  0.16956199469E+04  0.19965880833E+04  0.10100000352E+00 0.  1.
</event>
<event>
 5   0  0.1523259E-07  0.3401412E+04  0.7818609E-02  0.8137560E-01
       -1   -1    0    0    0  501  0.00000000000E+00  0.00000000000E+00  0.16075747401E+04  0.16075747401E+04  0.50400001928E-02 0. -1.
        1   -1    0    0  501    0  0.00000000000E+00  0.00000000000E+00 -0.17992323124E+04  0.17992323124E+04  0.50400001928E-02 0.  1.
    10030    2    1    2    0    0  0.00000000000E+00  0.00000000000E+00 -0.19165757229E+03  0.34068070525E+04  0.34014117169E+04 0.  0.
        4    1    3    3  502    0 -0.29619033658E+03 -0.83074003995E+02 -0.17711351779E+04  0.17976516451E+04  0.12699999809E+01 0.  1.
       -4    1    3    3    0  502  0.29619033658E+03  0.83074003995E+02  0.15794776056E+04  0.16091554074E+04  0.12699999809E+01 0. -1.
</event>
<event>
 5   0  0.1520084E-07  0.3393973E+04  0.7818609E-02  0.8139387E-01
       -1   -1    0    0    0  501  0.00000000000E+00  0.00000000000E+00  0.15735863427E+04  0.15735863427E+04  0.50400001928E-02 0. -1.
        1   -1    0    0  501    0  0.00000000000E+00  0.00000000000E+00 -0.18300640467E+04  0.18300640467E+04  0.50400001928E-02 0.  1.
    10030    2    1    2    0    0  0.00000000000E+00  0.00000000000E+00 -0.25647770401E+03  0.34036503894E+04  0.33939733588E+04 0.  0.
        2    1    3    3  502    0  0.26442381012E+03  0.78987700678E+03  0.13544685330E+04  0.15900976838E+04  0.25500000920E-02 0. -1.
       -2    1    3    3    0  502 -0.26442381012E+03 -0.78987700678E+03 -0.16109462370E+04  0.18135527056E+04  0.25500000920E-02 0.  1.
</event>
<event>
 5   0  0.4447909E-07  0.3348331E+04  0.7818609E-02  0.8150705E-01
        2   -1    0    0  501    0  0.00000000000E+00  0.00000000000E+00  0.10472803882E+04  0.10472803882E+04  0.25500000920E-02 0. -1.
       -2   -1    0    0    0  501  0.00000000000E+00  0.00000000000E+00 -0.26762935985E+04  0.26762935985E+04  0.25500000920E-02 0.  1.
    10030    2    1    2    0    0  0.00000000000E+00  0.00000000000E+00 -0.16290132103E+04  0.37235739867E+04  0.33483308073E+04 0.  0.
        5    1    3    3  502    0  0.14132866972E+04  0.89744618926E+03 -0.80969024104E+03  0.18596798992E+04  0.46999998093E+01 0. -1.
       -5    1    3    3    0  502 -0.14132866972E+04 -0.89744618926E+03 -0.81932296927E+03  0.18638940874E+04  0.46999998093E+01 0.  1.
</event>
<event>
 5   0  0.1473755E-07  0.3401961E+04  0.7818609E-02  0.8137425E-01
        1   -1    0    0  501    0  0.00000000000E+00  0.00000000000E+00  0.20493166399E+04  0.20493166400E+04  0.50400001928E-02 0.  1.
       -1   -1    0    0    0  501  0.00000000000E+00  0.00000000000E+00 -0.14118531302E+04  0.14118531302E+04  0.50400001928E-02 0. -1.
    10030    2    1    2    0    0  0.00000000000E+00  0.00000000000E+00  0.63746350973E+03  0.34611697702E+04  0.34019606776E+04 0.  0.
        1    1    3    3  502    0 -0.13575809247E+03 -0.15903742168E+04 -0.27938929862E+03  0.16204254964E+04  0.50400001928E-02 0. -1.
       -1    1    3    3    0  502  0.13575809247E+03  0.15903742168E+04  0.91685280835E+03  0.18407442738E+04  0.50400001928E-02 0.  1.
</event>
<event>
 5   0  0.4381939E-07  0.3396158E+04  0.7818609E-02  0.8138850E-01
        2   -1    0    0  501    0  0.00000000000E+00  0.00000000000E+00  0.19383375587E+04  0.19383375587E+04  0.25500000920E-02 0.  1.
       -2   -1    0    0    0  501  0.00000000000E+00  0.00000000000E+00 -0.14876007817E+04  0.14876007817E+04  0.25500000920E-02 0. -1.
    10030    2    1    2    0    0  0.00000000000E+00  0.00000000000E+00  0.45073677702E+03  0.34259383404E+04  0.33961581044E+04 0.  0.
        3    1    3    3  502    0  0.16158190269E+02 -0.28893439089E+03  0.19132795494E+04  0.19350407783E+04  0.10100000352E+00 0.  1.
       -3    1    3    3    0  502 -0.16158190269E+02  0.28893439089E+03 -0.14625427724E+04  0.14908975621E+04  0.10100000352E+00 0. -1.
</event>
<event>
 5   0  0.1520084E-07  0.3406189E+04  0.7818609E-02  0.8136389E-01
       -1   -1    0    0    0  501  0.00000000000E+00  0.00000000000E+00  0.25783671905E+04  0.25783671905E+04  0.50400001928E-02 0. -1.
        1   -1    0    0  501    0  0.00000000000E+00  0.00000000000E+00 -0.11249483925E+04  0.11249483925E+04  0.50400001928E-02 0.  1.
    10030    2    1    2    0    0  0.00000000000E+00  0.00000000000E+00  0.14534187980E+04  0.37033155831E+04  0.34061885011E+04 0.  0.
        2    1    3    3  502    0 -0.16849627175E+04 -0.17246265088E+03  0.92024669448E+03  0.19276142519E+04  0.25500000920E-02 0. -1.
       -2    1    3    3    0  502  0.16849627175E+04  0.17246265088E+03  0.53317210353E+03  0.17757013311E+04  0.25500000920E-02 0.  1.
</event>
<event>
 5   0  0.1523259E-07  0.3404842E+04  0.7818609E-02  0.8136719E-01
       -1   -1    0    0    0  501  0.00000000000E+00  0.00000000000E+00  0.95595223179E+03  0.95595223180E+03  0.50400001928E-02 0.  1.
        1   -1    0    0  501    0  0.00000000000E+00  0.00000000000E+00 -0.30317805430E+04  0.30317805430E+04  0.50400001928E-02 0. -1.
    10030    2    1    2    0    0  0.00000000000E+00  0.00000000000E+00 -0.20758283112E+04  0.39877327748E+04  0.34048420677E+04 0.  0.
        4    1    3    3  502    0 -0.42707533254E+03 -0.16201717044E+04 -0.68483039549E+03  0.18100673951E+04  0.12699999809E+01 0. -1.
       -4    1    3    3    0  502  0.42707533254E+03  0.16201717044E+04 -0.13909979158E+04  0.21776653797E+04  0.12699999809E+01 0.  1.
</event>
<event>
 5   0  0.1421875E-07  0.3403277E+04  0.7818609E-02  0.8137102E-01
        3   -1    0    0  501    0  0.00000000000E+00  0.00000000000E+00  0.32464449495E+04  0.32464449511E+04  0.10100000352E+00 0. -1.
       -3   -1    0    0    0  501  0.00000000000E+00  0.00000000000E+00 -0.89192151528E+03  0.89192152099E+03  0.10100000352E+00 0.  1.
    10030    2    1    2    0    0  0.00000000000E+00  0.00000000000E+00  0.23545234342E+04  0.41383664721E+04  0.34032773109E+04 0.  0.
        3    1    3    3  502    0 -0.52195340608E+03  0.94618279564E+03 -0.42114760265E+03  0.11597683192E+04  0.10100000352E+00 0.  1.
       -3    1    3    3    0  502  0.52195340608E+03 -0.94618279564E+03  0.27756710369E+04  0.29785981528E+04  0.10100000352E+00 0. -1.
</event>
<event>
 5   0  0.4521737E-07  0.3392340E+04  0.7818609E-02  0.8139789E-01
       -2   -1    0    0    0  501  0.00000000000E+00  0.00000000000E+00  0.17441232531E+04  0.17441232531E+04  0.25500000920E-02 0. -1.
        2   -1    0    0  501    0  0.00000000000E+00  0.00000000000E+00 -0.16495349525E+04  0.16495349525E+04  0.25500000920E-02 0.  1.
    10030    2    1    2    0    0  0.00000000000E+00  0.00000000000E+00  0.94588300655E+02  0.33936582056E+04  0.33923397634E+04 0.  0.
        4    1    3    3  502    0 -0.44903029080E+03 -0.14723298962E+04 -0.66544827979E+03  0.16769634914E+04  0.12699999809E+01 0.  1.
       -4    1    3    3    0  502  0.44903029080E+03  0.14723298962E+04  0.76003658044E+03  0.17166947143E+04  0.12699999809E+01 0. -1.
</event>
<event>
 5   0  0.1421875E-07  0.3399882E+04  0.7818609E-02  0.8137935E-01
       -1   -1    0    0    0  501  0.00000000000E+00  0.00000000000E+00  0.24030658427E+04  0.24030658427E+04  0.50400001928E-02 0.  1.
        1   -1    0    0  501    0  0.00000000000E+00  0.00000000000E+00 -0.12025469498E+04  0.12025469498E+04  0.50400001928E-02 0. -1.
    10030    2    1    2    0    0  0.00000000000E+00  0.00000000000E+00  0.12005188929E+04  0.36056127924E+04  0.33998820563E+04 0.  0.
        5    1    3    3  502    0 -0.45426293385E+03  0.14290233197E+04  0.14495394836E+04  0.20855812777E+04  0.46999998093E+01 0.  1.
       -5    1    3    3    0  502  0.45426293385E+03 -0.14290233197E+04 -0.24902059075E+03  0.15200315147E+04  0.46999998093E+01 0. -1.
</event>
<event>
 5   0  0.4396257E-07  0.3439990E+04  0.7818609E-02  0.8128161E-01
       -2   -1    0    0    0  501  0.00000000000E+00  0.00000000000E+00  0.13470362320E+04  0.13470362320E+04  0.25500000920E-02 0.  1.
        2   -1    0    0  501    0  0.00000000000E+00  0.00000000000E+00 -0.21962158695E+04  0.21962158695E+04  0.25500000920E-02 0. -1.
    10030    2    1    2    0    0  0.00000000000E+00  0.00000000000E+00 -0.84917963749E+03  0.35432521015E+04  0.34399897381E+04 0.  0.
        2    1    3    3  502    0  0.31006828766E+03 -0.69311700936E+03 -0.20142349312E+04  0.21526021207E+04  0.25500000920E-02 0. -1.
       -2    1    3    3    0  502 -0.31006828766E+03  0.69311700936E+03  0.11650552937E+04  0.13906499808E+04  0.25500000920E-02 0.  1.
</event>
<event>
 5   0  0.1523259E-07  0.3459631E+04  0.7818609E-02  0.8123424E-01
       -1   -1    0    0    0  501  0.00000000000E+00  0.00000000000E+00  0.15462263964E+04  0.15462263964E+04  0.50400001928E-02 0.  1.
        1   -1    0    0  501    0  0.00000000000E+00  0.00000000000E+00 -0.19352023167E+04  0.19352023167E+04  0.50400001928E-02 0. -1.
    10030    2    1    2    0    0  0.00000000000E+00  0.00000000000E+00 -0.38897592032E+03  0.34814287131E+04  0.34596305608E+04 0.  0.
        4    1    3    3  502    0  0.17203508893E+04 -0.11133494279E+03 -0.51265382868E+02  0.17247122670E+04  0.12699999809E+01 0. -1.
       -4    1    3    3    0  502 -0.17203508893E+04  0.11133494279E+03 -0.33771053745E+03  0.17567164460E+04  0.12699999809E+01 0.  1.
</event>
<event>
 5   0  0.1473755E-07  0.3366973E+04  0.7818609E-02  0.8146060E-01
        1   -1    0    0  501    0  0.00000000000E+00  0.00000000000E+00  0.13070973026E+04  0.13070973026E+04  0.50400001928E-02 0. -1.
       -1   -1    0    0    0  501  0.00000000000E+00  0.00000000000E+00 -0.21682597626E+04  0.21682597626E+04  0.50400001928E-02 0.  1.
    10030    2    1    2    0    0  0.00000000000E+00  0.00000000000E+00 -0.86116245998E+03  0.34753570653E+04  0.33669728167E+04 0.  0.
        1    1    3    3  502    0 -0.70693699235E+03 -0.14735779765E+04 -0.84722642558E+03  0.18409194932E+04  0.50400001928E-02 0.  1.
       -1    1    3    3    0  502  0.70693699235E+03  0.14735779765E+04 -0.13936034398E+02  0.16344375721E+04  0.50400001928E-02 0. -1.
</event>
<event>
 5   0  0.4396257E-07  0.3399217E+04  0.7818609E-02  0.8138099E-01
        2   -1    0    0  501    0  0.00000000000E+00  0.00000000000E+00  0.22343149969E+04  0.22343149969E+04  0.25500000920E-02 0. -1.
       -2   -1    0    0    0  501  0.00000000000E+00  0.00000000000E+00 -0.12928656738E+04  0.12928656738E+04  0.25500000920E-02 0.  1.
    10030    2    1    2    0    0  0.00000000000E+00  0.00000000000E+00  0.94144932311E+03  0.35271806706E+04  0.33992170651E+04 0.  0.
        2    1    3    3  502    0 -0.98187474530E+03  0.85830241974E+03  0.16016663942E+04  0.20654530489E+04  0.25500000920E-02 0. -1.
       -2    1    3    3    0  502  0.98187474530E+03 -0.85830241974E+03 -0.66021707104E+03  0.14617276217E+04  0.25500000920E-02 0.  1.
</event>
<event>
 5   0  0.4486226E-07  0.3396858E+04  0.7818609E-02  0.8138678E-01
        2   -1    0    0  501    0  0.00000000000E+00  0.00000000000E+00  0.16211629366E+04  0.16211629366E+04  0.25500000920E-02 0.  1.
       -2   -1    0    0    0  501  0.00000000000E+00  0.00000000000E+00 -0.17793773149E+04  0.17793773149E+04  0.25500000920E-02 0. -1.
    10030    2    1    2    0    0  0.00000000000E+00  0.00000000000E+00 -0.15821437828E+03  0.34005402515E+04  0.33968576968E+04 0.  0.
        1    1    3    3  502    0  0.16132199263E+04 -0.16140962139E+03  0.42753331417E+03  0.16766980442E+04  0.50400001928E-02 0. -1.
       -1    1    3    3    0  502 -0.16132199263E+04  0.16140962139E+03 -0.58574769244E+03  0.17238422073E+04  0.50400001928E-02 0.  1.
</event>
<event>
 5   0  0.1520084E-07  0.3402384E+04  0.7818609E-02  0.8137321E-01
        1   -1    0    0  501    0  0.00000000000E+00  0.00000000000E+00  0.13940511754E+04  0.13940511754E+04  0.50400001928E-02 0.  1.
       -1   -1    0    0    0  501  0.00000000000E+00  0.00000000000E+00 -0.20760026798E+04  0.20760026798E+04  0.50400001928E-02 0. -1.
    10030    2    1    2    0    0  0.00000000000E+00  0.00000000000E+00 -0.68195150443E+03  0.34700538553E+04  0.34023838561E+04 0.  0.
        2    1    3    3  502    0  0.15022144483E+04 -0.79171808246E+03 -0.44592131573E+03  0.17556513294E+04  0.25500000920E-02 0. -1.
       -2    1    3    3    0  502 -0.15022144483E+04  0.79171808246E+03 -0.23603018869E+03  0.17144025258E+04  0.25500000920E-02 0.  1.
</event>
<event>
 5   0  0.1435806E-07  0.3392483E+04  0.7818609E-02  0.8139754E-01
        1   -1    0    0  501    0  0.00000000000E+00  0.00000000000E+00  0.20318911084E+04  0.20318911084E+04  0.50400001928E-02 0.  1.
       -1   -1    0    0    0  501  0.00000000000E+00  0.00000000000E+00 -0.14160379035E+04  0.14160379035E+04  0.50400001928E-02 0. -1.
    10030    2    1    2    0    0  0.00000000000E+00  0.00000000000E+00  0.61585320495E+03  0.34479290119E+04  0.33924827636E+04 0.  0.
        3    1    3    3  502    0  0.59266698910E+03 -0.15888490532E+04  0.34780228483E+03  0.17310869167E+04  0.10100000352E+00 0.  1.
       -3    1    3    3    0  502 -0.59266698910E+03  0.15888490532E+04  0.26805092013E+03  0.17168420952E+04  0.10100000352E+00 0. -1.
</event>
<event>
 5   0  0.1473755E-07  0.3377469E+04  0.7818609E-02  0.8143458E-01
       -1   -1    0    0    0  501  0.00000000000E+00  0.00000000000E+00  0.18453276468E+04  0.18453276468E+04  0.50400001928E-02 0.  1.
        1   -1    0    0  501    0  0.00000000000E+00  0.00000000000E+00 -0.15454299065E+04  0.15454299066E+04  0.50400001928E-02 0. -1.
    10030    2    1    2    0    0  0.00000000000E+00  0.00000000000E+00  0.29989774028E+03  0.33907575534E+04  0.33774691903E+04 0.  0.
        1    1    3    3  502    0 -0.67440241719E+03 -0.33320018386E+03  0.16678444360E+04  0.18296300297E+04  0.50400001928E-02 0.  1.
       -1    1    3    3    0  502  0.67440241719E+03  0.33320018386E+03 -0.13679466957E+04  0.15611275237E+04  0.50400001928E-02 0. -1.
</event>
<event>
 5   0  0.4521737E-07  0.3449589E+04  0.7818609E-02  0.8125842E-01
        2   -1    0    0  501    0  0.00000000000E+00  0.00000000000E+00  0.25660283031E+04  0.25660283031E+04  0.25500000920E-02 0. -1.
       -2   -1    0    0    0  501  0.00000000000E+00  0.00000000000E+00 -0.11593465376E+04  0.11593465376E+04  0.25500000920E-02 0.  1.
    10030    2    1    2    0    0  0.00000000000E+00  0.00000000000E+00  0.14066817655E+04  0.37253748408E+04  0.34495889776E+04 0.  0.
        4    1    3    3  502    0  0.11060929982E+04  0.59361538909E+03 -0.57405640520E+03  0.13803489849E+04  0.12699999809E+01 0.  1.
       -4    1    3    3    0  502 -0.11060929982E+04 -0.59361538909E+03  0.19807381707E+04  0.23450258559E+04  0.12699999809E+01 0. -1.
</event>
<event>
 5   0  0.1435806E-07  0.3399197E+04  0.7818609E-02  0.8138103E-01
       -1   -1    0    0    0  501  0.00000000000E+00  0.00000000000E+00  0.17661456717E+04  0.17661456717E+04  0.50400001928E-02 0. -1.
        1   -1    0    0  501    0  0.00000000000E+00  0.00000000000E+00 -0.16355590773E+04  0.16355590773E+04  0.50400001928E-02 0.  1.
    10030    2    1    2    0    0  0.00000000000E+00  0.00000000000E+00  0.13058659435E+03  0.34017047490E+04  0.33991973083E+04 0.  0.
        3    1    3    3  502    0  0.12393680437E+04  0.11561864158E+04  0.19122490501E+03  0.17056867093E+04  0.10100000352E+00 0.  1.
       -3    1    3    3    0  502 -0.12393680437E+04 -0.11561864158E+04 -0.60638310663E+02  0.16960180397E+04  0.10100000352E+00 0. -1.
</event>
<event>
 5   0  0.1473755E-07  0.3407256E+04  0.7818609E-02  0.8136128E-01
        1   -1    0    0  501    0  0.00000000000E+00  0.00000000000E+00  0.18003782289E+04  0.18003782289E+04  0.50400001928E-02 0. -1.
       -1   -1    0    0    0  501  0.00000000000E+00  0.00000000000E+00 -0.16120768212E+04  0.16120768212E+04  0.50400001928E-02 0.  1.
    10030    2    1    2    0    0  0.00000000000E+00  0.00000000000E+00  0.18830140768E+03  0.34124550501E+04  0.34072557944E+04 0.  0.
        1    1    3    3  502    0  0.60267991899E+03  0.13560623356E+04 -0.74391759989E+03  0.16599823910E+04  0.50400001928E-02 0.  1.
       -1    1    3    3    0  502 -0.60267991899E+03 -0.13560623356E+04  0.93221900757E+03  0.17524726591E+04  0.50400001928E-02 0. -1.
</event>
<event>
 5   0  0.1473755E-07  0.3395904E+04  0.7818609E-02  0.8138912E-01
        1   -1    0    0  501    0  0.00000000000E+00  0.00000000000E+00  0.26333071386E+04  0.26333071386E+04  0.50400001928E-02 0. -1.
       -1   -1    0    0    0  501  0.00000000000E+00  0.00000000000E+00 -0.10948366008E+04  0.10948366008E+04  0.50400001928E-02 0.  1.
    10030    2    1    2    0    0  0.00000000000E+00  0.00000000000E+00  0.15384705378E+04  0.37281437394E+04  0.33959040248E+04 0.  0.
        1    1    3    3  502    0 -0.86892215851E+03 -0.54454258455E+03 -0.71649291353E+03  0.12509654028E+04  0.50400001928E-02 0.  1.
       -1    1    3    3    0  502  0.86892215851E+03  0.54454258455E+03  0.22549634513E+04  0.24771783365E+04  0.50400001928E-02 0. -1.
</event>
<event>
 5   0  0.4521737E-07  0.3406478E+04  0.7818609E-02  0.8136318E-01
        2   -1    0    0  501    0  0.00000000000E+00  0.00000000000E+00  0.13286562639E+04  0.13286562639E+04  0.25500000920E-02 0. -1.
       -2   -1    0    0    0  501  0.00000000000E+00  0.00000000000E+00 -0.21834259647E+04  0.21834259647E+04  0.25500000920E-02 0.  1.
    10030    2    1    2    0    0  0.00000000000E+00  0.00000000000E+00 -0.85476970083E+03  0.35120822285E+04  0.34064777026E+04 0.  0.
        4    1    3    3  502    0 -0.28557487669E+02 -0.25186475447E+03 -0.21638703297E+04  0.21786665191E+04  0.12699999809E+01 0.  1.
       -4    1    3    3    0  502  0.28557487669E+02  0.25186475447E+03  0.13091006289E+04  0.13334157094E+04  0.12699999809E+01 0. -1.
</event>
<event>
 5   0  0.4381939E-07  0.3372331E+04  0.7818609E-02  0.8144731E-01
       -2   -1    0    0    0  501  0.00000000000E+00  0.00000000000E+00  0.16082855019E+04  0.16082855019E+04  0.25500000920E-02 0. -1.
        2   -1    0    0  501    0  0.00000000000E+00  0.00000000000E+00 -0.17678163562E+04  0.17678163562E+04  0.25500000920E-02 0.  1.
    10030    2    1    2    0    0  0.00000000000E+00  0.00000000000E+00 -0.15953085432E+03  0.33761018582E+04  0.33723305982E+04 0.  0.
        3    1    3    3  502    0 -0.15167821115E+04 -0.73428881927E+03 -0.13766921142E+03  0.16907870551E+04  0.10100000352E+00 0.  1.
       -3    1    3    3    0  502  0.15167821115E+04  0.73428881927E+03 -0.21861642895E+02  0.16853148031E+04  0.10100000352E+00 0. -1.
</event>
<event>
 5   0  0.4447909E-07  0.3397132E+04  0.7818609E-02  0.8138611E-01
        2   -1    0    0  501    0  0.00000000000E+00  0.00000000000E+00  0.20107016619E+04  0.20107016619E+04  0.25500000920E-02 0.  1.
       -2   -1    0    0    0  501  0.00000000000E+00  0.00000000000E+00 -0.14348855867E+04  0.14348855867E+04  0.25500000920E-02 0. -1.
    10030    2    1    2    0    0  0.00000000000E+00  0.00000000000E+00  0.57581607527E+03  0.34455872486E+04  0.33971322222E+04 0.  0.
        5    1    3    3  502    0  0.10808624754E+04  0.11885334377E+04  0.84734522857E+03  0.18162850684E+04  0.46999998093E+01 0.  1.
       -5    1    3    3    0  502 -0.10808624754E+04 -0.11885334377E+04 -0.27152915330E+03  0.16293021802E+04  0.46999998093E+01 0. -1.
</event>
<event>
 5   0  0.4381939E-07  0.3384838E+04  0.7818609E-02  0.8141638E-01
       -2   -1    0    0    0  501  0.00000000000E+00  0.00000000000E+00  0.14105404969E+04  0.14105404969E+04  0.25500000920E-02 0. -1.
        2   -1    0    0  501    0  0.00000000000E+00  0.00000000000E+00 -0.20306278216E+04  0.20306278216E+04  0.25500000920E-02 0.  1.
    10030    2    1    2    0    0  0.00000000000E+00  0.00000000000E+00 -0.62008732476E+03  0.34411683185E+04  0.33848384165E+04 0.  0.
        3    1    3    3  502    0  0.14753308944E+04  0.24294220489E+03  0.49603253480E+03  0.15753318535E+04  0.10100000352E+00 0. -1.
       -3    1    3    3    0  502 -0.14753308944E+04 -0.24294220489E+03 -0.11161198596E+04  0.18658364650E+04  0.10100000352E+00 0.  1.
</event>
<event>
 5   0  0.1421875E-07  0.3369894E+04  0.7818609E-02  0.8145335E-01
        1   -1    0    0  501    0  0.00000000000E+00  0.00000000000E+00  0.25613728229E+04  0.25613728229E+04  0.50400001928E-02 0. -1.
       -1   -1    0    0    0  501  0.00000000000E+00  0.00000000000E+00 -0.11084079179E+04  0.11084079179E+04  0.50400001928E-02 0.  1.
    10030    2    1    2    0    0  0.00000000000E+00  0.00000000000E+00  0.14529649050E+04  0.36697807408E+04  0.33698937180E+04 0.  0.
        5    1    3    3  502    0  0.86274725888E+03 -0.92454091266E+03  0.19390889385E+04  0.23149938949E+04  0.46999998093E+01 0. -1.
       -5    1    3    3    0  502 -0.86274725888E+03  0.92454091266E+03 -0.48612403356E+03  0.13547868459E+04  0.46999998093E+01 0.  1.
</event>
<event>
 5   0  0.4447909E-07  0.3441083E+04  0.7818609E-02  0.8127896E-01
        2   -1    0    0  501    0  0.00000000000E+00  0.00000000000E+00  0.21957940049E+04  0.21957940050E+04  0.25500000920E-02 0.  1.
       -2   -1    0    0    0  501  0.00000000000E+00  0.00000000000E+00 -0.13481518521E+04  0.13481518521E+04  0.25500000920E-02 0. -1.
    10030    2    1    2    0    0  0.00000000000E+00  0.00000000000E+00  0.84764215281E+03  0.35439458571E+04  0.34410834077E+04 0.  0.
        5    1    3    3  502    0  0.50741856282E+03  0.16033917566E+04  0.49780153781E+02  0.16825096958E+04  0.46999998093E+01 0. -1.
       -5    1    3    3    0  502 -0.50741856282E+03 -0.16033917566E+04  0.79786199903E+03  0.18614361612E+04  0.46999998093E+01 0.  1.
</event>
<event>
 5   0  0.4396257E-07  0.3398880E+04  0.7818609E-02  0.8138181E-01
       -2   -1    0    0    0  501  0.00000000000E+00  0.00000000000E+00  0.16909908922E+04  0.16909908922E+04  0.25500000920E-02 0. -1.
        2   -1    0    0  501    0  0.00000000000E+00  0.00000000000E+00 -0.17079308690E+04  0.17079308690E+04  0.25500000920E-02 0.  1.
    10030    2    1    2    0    0  0.00000000000E+00  0.00000000000E+00 -0.16939976741E+02  0.33989217612E+04  0.33988795471E+04 0.  0.
        2    1    3    3  502    0  0.85226882451E+03  0.33250798111E+03  0.14237390706E+04  0.16923228557E+04  0.25500000920E-02 0. -1.
       -2    1    3    3    0  502 -0.85226882451E+03 -0.33250798111E+03 -0.14406790474E+04  0.17065989055E+04  0.25500000920E-02 0.  1.
</event>
<event>
 5   0  0.4447909E-07  0.3368412E+04  0.7818609E-02  0.8145703E-01
        2   -1    0    0  501    0  0.00000000000E+00  0.00000000000E+00  0.28449232361E+04  0.28449232361E+04  0.25500000920E-02 0. -1.
       -2   -1    0    0    0  501  0.00000000000E+00  0.00000000000E+00 -0.99705683101E+03  0.99705683101E+03  0.25500000920E-02 0.  1.
    10030    2    1    2    0    0  0.00000000000E+00  0.00000000000E+00  0.18478664051E+04  0.38419800671E+04  0.33684121757E+04 0.  0.
        5    1    3    3  502    0  0.66195287229E+03  0.85667879000E+03 -0.54758277458E+03  0.12132391106E+04  0.46999998093E+01 0.  1.
       -5    1    3    3    0  502 -0.66195287229E+03 -0.85667879000E+03  0.23954491797E+04  0.26287409566E+04  0.46999998093E+01 0. -1.
</event>
<event>
 5   0  0.1473755E-07  0.3397991E+04  0.7818609E-02  0.8138400E-01
       -1   -1    0    0    0  501  0.00000000000E+00  0.00000000000E+00  0.19035919837E+04  0.19035919837E+04  0.50400001928E-02 0. -1.
        1   -1    0    0  501    0  0.00000000000E+00  0.00000000000E+00 -0.15163884617E+04  0.15163884617E+04  0.50400001928E-02 0.  1.
    10030    2    1    2    0    0  0.00000000000E+00  0.00000000000E+00  0.38720352198E+03  0.34199804454E+04  0.33979905355E+04 0.  0.
        1    1    3    3  502    0 -0.12292195685E+04  0.11234572969E+04  0.53260171516E+03  0.17483711370E+04  0.50400001928E-02 0. -1.
       -1    1    3    3    0  502  0.12292195685E+04 -0.11234572969E+04 -0.14539819317E+03  0.16716093085E+04  0.50400001928E-02 0.  1.
</event>
<event>
 5   0  0.4396257E-07  0.3397887E+04  0.7818609E-02  0.8138425E-01
       -2   -1    0    0    0  501  0.00000000000E+00  0.00000000000E+00  0.11080264877E+04  0.11080264877E+04  0.25500000920E-02 0.  1.
        2   -1    0    0  501    0  0.00000000000E+00  0.00000000000E+00 -0.26050004073E+04  0.26050004073E+04  0.25500000920E-02 0. -1.
    10030    2    1    2    0    0  0.00000000000E+00  0.00000000000E+00 -0.14969739196E+04  0.37130268950E+04  0.33978872563E+04 0.  0.
        2    1    3    3  502    0 -0.17600389525E+03 -0.63172555822E+03  0.96414753781E+03  0.11660338875E+04  0.25500000920E-02 0.  1.
       -2    1    3    3    0  502  0.17600389525E+03  0.63172555822E+03 -0.24611214574E+04  0.25469930075E+04  0.25500000920E-02 0. -1.
</event>
<event>
 5   0  0.1421875E-07  0.3402493E+04  0.7818609E-02  0.8137295E-01
       -1   -1    0    0    0  501  0.00000000000E+00  0.00000000000E+00  0.12906900134E+04  0.12906900134E+04  0.50400001928E-02 0.  1.
        1   -1    0    0  501    0  0.00000000000E+00  0.00000000000E+00 -0.22423973698E+04  0.22423973698E+04  0.50400001928E-02 0. -1.
    10030    2    1    2    0    0  0.00000000000E+00  0.00000000000E+00 -0.95170735639E+03  0.35330873832E+04  0.34024931396E+04 0.  0.
        5    1    3    3  502    0  0.48745516135E+01 -0.81884830865E+03  0.10725828607E+04  0.13494415130E+04  0.46999998093E+01 0.  1.
       -5    1    3    3    0  502 -0.48745516135E+01  0.81884830865E+03 -0.20242902171E+04  0.21836458703E+04  0.46999998093E+01 0. -1.
</event>
<event>
 5   0  0.1435806E-07  0.3397010E+04  0.7818609E-02  0.8138640E-01
       -1   -1    0    0    0  501  0.00000000000E+00  0.00000000000E+00  0.11672758836E+04  0.11672758837E+04  0.50400001928E-02 0. -1.
        1   -1    0    0  501    0  0.00000000000E+00  0.00000000000E+00 -0.24714978440E+04  0.24714978440E+04  0.50400001928E-02 0.  1.
    10030    2    1    2    0    0  0.00000000000E+00  0.00000000000E+00 -0.13042219604E+04  0.36387737277E+04  0.33970103502E+04 0.  0.
        3    1    3    3  502    0  0.63718269102E+03 -0.94507874664E+03 -0.20009954241E+04  0.23028587270E+04  0.10100000352E+00 0.  1.
       -3    1    3    3    0  502 -0.63718269102E+03  0.94507874664E+03  0.69677346373E+03  0.13359150007E+04  0.10100000352E+00 0. -1.
</event>
<event>
 5   0  0.4521737E-07  0.3398601E+04  0.7818609E-02  0.8138250E-01
        2   -1    0    0  501    0  0.00000000000E+00  0.00000000000E+00  0.14895322821E+04  0.14895322821E+04  0.25500000920E-02 0. -1.
       -2   -1    0    0    0  501  0.00000000000E+00  0.00000000000E+00 -0.19386095283E+04  0.19386095283E+04  0.25500000920E-02 0.  1.
    10030    2    1    2    0    0  0.00000000000E+00  0.00000000000E+00 -0.44907724624E+03  0.34281418105E+04  0.33986005796E+04 0.  0.
        4    1    3    3  502    0 -0.71740585366E+03  0.13765052306E+04  0.47297916585E+03  0.16226979734E+04  0.12699999809E+01 0. -1.
       -4    1    3    3    0  502  0.71740585366E+03 -0.13765052306E+04 -0.92205641209E+03  0.18054438370E+04  0.12699999809E+01 0.  1.
</event>
<event>
 5   0  0.1421875E-07  0.3401327E+04  0.7818609E-02  0.8137581E-01
        1   -1    0    0  501    0  0.00000000000E+00  0.00000000000E+00  0.24461320510E+04  0.24461320510E+04  0.50400001928E-02 0. -1.
       -1   -1    0    0    0  501  0.00000000000E+00  0.00000000000E+00 -0.11823795645E+04  0.11823795645E+04  0.50400001928E-02 0.  1.
    10030    2    1    2    0    0  0.00000000000E+00  0.00000000000E+00  0.12637524865E+04  0.36285116154E+04  0.34013271228E+04 0.  0.
        5    1    3    3  502    0  0.38277560375E+03 -0.10722739384E+04  0.19795637355E+04  0.22836337786E+04  0.46999998093E+01 0. -1.
       -5    1    3    3    0  502 -0.38277560375E+03  0.10722739384E+04 -0.71581124899E+03  0.13448778368E+04  0.46999998093E+01 0.  1.
</event>
<event>
 5   0  0.1473755E-07  0.3393508E+04  0.7818609E-02  0.8139501E-01
        1   -1    0    0  501    0  0.00000000000E+00  0.00000000000E+00  0.17096487918E+04  0.17096487918E+04  0.50400001928E-02 0.  1.
       -1   -1    0    0    0  501  0.00000000000E+00  0.00000000000E+00 -0.16839566093E+04  0.16839566093E+04  0.50400001928E-02 0. -1.
    10030    2    1    2    0    0  0.00000000000E+00  0.00000000000E+00  0.25692182498E+02  0.33936054012E+04  0.33935081451E+04 0.  0.
        1    1    3    3  502    0 -0.16602102695E+04  0.28585100131E+03 -0.18955894025E+03  0.16952703400E+04  0.50400001928E-02 0. -1.
       -1    1    3    3    0  502  0.16602102695E+04 -0.28585100131E+03  0.21525112275E+03  0.16983350611E+04  0.50400001928E-02 0.  1.
</event>
<event>
 5   0  0.1421875E-07  0.3399649E+04  0.7818609E-02  0.8137992E-01
        1   -1    0    0  501    0  0.00000000000E+00  0.00000000000E+00  0.21972750786E+04  0.21972750787E+04  0.50400001928E-02 0.  1.
       -1   -1    0    0    0  501  0.00000000000E+00  0.00000000000E+00 -0.13149942330E+04  0.13149942330E+04  0.50400001928E-02 0. -1.
    10030    2    1    2    0    0  0.00000000000E+00  0.00000000000E+00  0.88228084565E+03  0.35122693117E+04  0.33996494271E+04 0.  0.
        5    1    3    3  502    0  0.10617523113E+04  0.65679375667E+03  0.16329077125E+04  0.20555061900E+04  0.46999998093E+01 0.  1.
       -5    1    3    3    0  502 -0.10617523113E+04 -0.65679375667E+03 -0.75062686687E+03  0.14567631217E+04  0.46999998093E+01 0. -1.
</event>
<event>
 5   0  0.4447909E-07  0.3399717E+04  0.7818609E-02  0.8137976E-01
       -2   -1    0    0    0  501  0.00000000000E+00  0.00000000000E+00  0.11136439943E+04  0.11136439943E+04  0.25500000920E-02 0. -1.
        2   -1    0    0  501    0  0.00000000000E+00  0.00000000000E+00 -0.25946519039E+04  0.25946519039E+04  0.25500000920E-02 0.  1.
    10030    2    1    2    0    0  0.00000000000E+00  0.00000000000E+00 -0.14810079096E+04  0.37082958982E+04  0.33997167588E+04 0.  0.
        5    1    3    3  502    0 -0.80311205393E+02  0.11702969599E+04 -0.20823908350E+04  0.23900666400E+04  0.46999998093E+01 0.  1.
       -5    1    3    3    0  502  0.80311205393E+02 -0.11702969599E+04  0.60138292542E+03  0.13182292582E+04  0.46999998093E+01 0. -1.
</event>
<event>
 5   0  0.1473755E-07  0.3392730E+04  0.7818609E-02  0.8139693E-01
       -1   -1    0    0    0  501  0.00000000000E+00  0.00000000000E+00  0.13618376436E+04  0.13618376436E+04  0.50400001928E-02 0. -1.
        1   -1    0    0  501    0  0.00000000000E+00  0.00000000000E+00 -0.21130664331E+04  0.21130664332E+04  0.50400001928E-02 0.  1.
    10030    2    1    2    0    0  0.00000000000E+00  0.00000000000E+00 -0.75122878957E+03  0.34749040767E+04  0.33927295277E+04 0.  0.
        1    1    3    3  502    0  0.64063151128E+03  0.87315097355E+03 -0.17129392946E+04  0.20265641818E+04  0.50400001928E-02 0.  1.
       -1    1    3    3    0  502 -0.64063151128E+03 -0.87315097355E+03  0.96171050502E+03  0.14483398950E+04  0.50400001928E-02 0. -1.
</event>
<event>
 5   0  0.1421875E-07  0.3388693E+04  0.7818609E-02  0.8140687E-01
        3   -1    0    0  501    0  0.00000000000E+00  0.00000000000E+00  0.12207272576E+04  0.12207272618E+04  0.10100000352E+00 0.  1.
       -3   -1    0    0    0  501  0.00000000000E+00  0.00000000000E+00 -0.23517215097E+04  0.23517215119E+04  0.10100000352E+00 0. -1.
    10030    2    1    2    0    0  0.00000000000E+00  0.00000000000E+00 -0.11309942521E+04  0.35724487737E+04  0.33886932942E+04 0.  0.
        1    1    3    3  502    0 -0.46423238277E+03 -0.32966822484E+03  0.11168500553E+04  0.12536135328E+04  0.50400001928E-02 0.  1.
       -1    1    3    3    0  502  0.46423238277E+03  0.32966822484E+03 -0.22478443074E+04  0.23188352409E+04  0.50400001928E-02 0. -1.
</event>
<event>
 5   0  0.4447909E-07  0.3391079E+04  0.7818609E-02  0.8140099E-01
       -2   -1    0    0    0  501  0.00000000000E+00  0.00000000000E+00  0.14629483745E+04  0.14629483745E+04  0.25500000920E-02 0. -1.
        2   -1    0    0  501    0  0.00000000000E+00  0.00000000000E+00 -0.19651093281E+04  0.19651093281E+04  0.25500000920E-02 0.  1.
    10030    2    1    2    0    0  0.00000000000E+00  0.00000000000E+00 -0.50216095361E+03  0.34280577027E+04  0.33910785879E+04 0.  0.
        5    1    3    3  502    0 -0.13505823740E+04 -0.17463218320E+03  0.77001459426E+03  0.15644531676E+04  0.46999998093E+01 0. -1.
       -5    1    3    3    0  502  0.13505823740E+04  0.17463218320E+03 -0.12721755479E+04  0.18636045350E+04  0.46999998093E+01 0.  1.
</event>
<event>
 5   0  0.1421875E-07  0.3370513E+04  0.7818609E-02  0.8145182E-01
       -1   -1    0    0    0  501  0.00000000000E+00  0.00000000000E+00  0.10585236644E+04  0.10585236644E+04  0.50400001928E-02 0.  1.
        1   -1    0    0  501    0  0.00000000000E+00  0.00000000000E+00 -0.26830664080E+04  0.26830664080E+04  0.50400001928E-02 0. -1.
    10030    2    1    2    0    0  0.00000000000E+00  0.00000000000E+00 -0.16245427436E+04  0.37415900724E+04  0.33705128903E+04 0.  0.
        5    1    3    3  502    0 -0.10042583235E+04 -0.29868644050E+03  0.65302011630E+03  0.12345872720E+04  0.46999998093E+01 0.  1.
       -5    1    3    3    0  502  0.10042583235E+04  0.29868644050E+03 -0.22775628599E+04  0.25070028003E+04  0.46999998093E+01 0. -1.
</event>
<event>
 5   0  0.4521737E-07  0.3413592E+04  0.7818609E-02  0.8134578E-01
       -2   -1    0    0    0  501  0.00000000000E+00  0.00000000000E+00  0.12828284134E+04  0.12828284134E+04  0.25500000920E-02 0.  1.
        2   -1    0    0  501    0  0.00000000000E+00  0.00000000000E+00 -0.22708824665E+04  0.22708824665E+04  0.25500000920E-02 0. -1.
    10030    2    1    2    0    0  0.00000000000E+00  0.00000000000E+00 -0.98805405312E+03  0.35537108800E+04  0.34135919801E+04 0.  0.
        4    1    3    3  502    0 -0.42683232504E+01  0.43238240989E+03 -0.22129151088E+04  0.22547655441E+04  0.12699999809E+01 0. -1.
       -4    1    3    3    0  502  0.42683232504E+01 -0.43238240989E+03  0.12248610557E+04  0.12989453359E+04  0.12699999809E+01 0.  1.
</event>
<event>
 5   0  0.1523259E-07  0.3396122E+04  0.7818609E-02  0.8138859E-01
        1   -1    0    0  501    0  0.00000000000E+00  0.00000000000E+00  0.21488411364E+04  0.21488411364E+04  0.50400001928E-02 0. -1.
       -1   -1    0    0    0  501  0.00000000000E+00  0.00000000000E+00 -0.13418448049E+04  0.13418448049E+04  0.50400001928E-02 0.  1.
    10030    2    1    2    0    0  0.00000000000E+00  0.00000000000E+00  0.80699633152E+03  0.34906859414E+04  0.33961220918E+04 0.  0.
        4    1    3    3  502    0  0.14024536315E+04  0.47623883015E+03  0.12571230535E+04  0.19426887544E+04  0.12699999809E+01 0. -1.
       -4    1    3    3    0  502 -0.14024536315E+04 -0.47623883015E+03 -0.45012672202E+03  0.15479971869E+04  0.12699999809E+01 0.  1.
</event>
<event>
 5   0  0.1520084E-07  0.3407752E+04  0.7818609E-02  0.8136006E-01
       -1   -1    0    0    0  501  0.00000000000E+00  0.00000000000E+00  0.96720482646E+03  0.96720482647E+03  0.50400001928E-02 0. -1.
        1   -1    0    0  501    0  0.00000000000E+00  0.00000000000E+00 -0.30016324846E+04  0.30016324846E+04  0.50400001928E-02 0.  1.
    10030    2    1    2    0    0  0.00000000000E+00  0.00000000000E+00 -0.20344276582E+04  0.39688373111E+04  0.34077520018E+04 0.  0.
        2    1    3    3  502    0 -0.87538057939E+03  0.97463384793E+03  0.25166178835E+03  0.13339924857E+04  0.25500000920E-02 0. -1.
       -2    1    3    3    0  502  0.87538057939E+03 -0.97463384793E+03 -0.22860894465E+04  0.26348448254E+04  0.25500000920E-02 0.  1.
</event>
<event>
 5   0  0.1435806E-07  0.3393280E+04  0.7818609E-02  0.8139558E-01
        1   -1    0    0  501    0  0.00000000000E+00  0.00000000000E+00  0.18110241299E+04  0.18110241299E+04  0.50400001928E-02 0. -1.
       -1   -1    0    0    0  501  0.00000000000E+00  0.00000000000E+00 -0.15894804970E+04  0.15894804970E+04  0.50400001928E-02 0.  1.
    10030    2    1    2    0    0  0.00000000000E+00  0.00000000000E+00  0.22154363289E+03  0.34005046270E+04  0.33932801442E+04 0.  0.
        3    1    3    3  502    0  0.27366188458E+03  0.70492163132E+03  0.16328149114E+04  0.17994137597E+04  0.10100000352E+00 0. -1.
       -3    1    3    3    0  502 -0.27366188458E+03 -0.70492163132E+03 -0.14112712786E+04  0.16010908673E+04  0.10100000352E+00 0.  1.
</event>
<event>
 5   0  0.4381939E-07  0.3394209E+04  0.7818609E-02  0.8139329E-01
        2   -1    0    0  501    0  0.00000000000E+00  0.00000000000E+00  0.17421870046E+04  0.17421870047E+04  0.25500000920E-02 0.  1.
       -2   -1    0    0    0  501  0.00000000000E+00  0.00000000000E+00 -0.16531889600E+04  0.16531889600E+04  0.25500000920E-02 0. -1.
    10030    2    1    2    0    0  0.00000000000E+00  0.00000000000E+00  0.88998044616E+02  0.33953759647E+04  0.33942093762E+04 0.  0.
        3    1    3    3  502    0 -0.69926146655E+03  0.79015615547E+02 -0.15003614709E+04  0.16571948044E+04  0.10100000352E+00 0. -1.
       -3    1    3    3    0  502  0.69926146655E+03 -0.79015615547E+02  0.15893595155E+04  0.17381811603E+04  0.10100000352E+00 0.  1.
</event>
<event>
 5   0  0.1520084E-07  0.3402001E+04  0.7818609E-02  0.8137415E-01
        1   -1    0    0  501    0  0.00000000000E+00  0.00000000000E+00  0.13023295023E+04  0.13023295023E+04  0.50400001928E-02 0. -1.
       -1   -1    0    0    0  501  0.00000000000E+00  0.00000000000E+00 -0.22217137043E+04  0.22217137043E+04  0.50400001928E-02 0.  1.
    10030    2    1    2    0    0  0.00000000000E+00  0.00000000000E+00 -0.91938420200E+03  0.35240432066E+04  0.34020013538E+04 0.  0.
        2    1    3    3  502    0 -0.13783573543E+04 -0.64909120141E+03 -0.12432774924E+04  0.19664504333E+04  0.25500000920E-02 0.  1.
       -2    1    3    3    0  502  0.13783573543E+04  0.64909120141E+03  0.32389329036E+03  0.15575927733E+04  0.25500000920E-02 0. -1.
</event>
<event>
 5   0  0.1523259E-07  0.3409171E+04  0.7818609E-02  0.8135659E-01
        1   -1    0    0  501    0  0.00000000000E+00  0.00000000000E+00  0.19731283269E+04  0.19731283269E+04  0.50400001928E-02 0. -1.
       -1   -1    0    0    0  501  0.00000000000E+00  0.00000000000E+00 -0.14725913912E+04  0.14725913912E+04  0.50400001928E-02 0.  1.
    10030    2    1    2    0    0  0.00000000000E+00  0.00000000000E+00  0.50053693570E+03  0.34457197181E+04  0.34091710358E+04 0.  0.
        4    1    3    3  502    0 -0.10837018665E+04 -0.54114716496E+03  0.14624425239E+04  0.18989443747E+04  0.12699999809E+01 0. -1.
       -4    1    3    3    0  502  0.10837018665E+04  0.54114716496E+03 -0.96190558815E+03  0.15467753434E+04  0.12699999809E+01 0.  1.
</event>
<event>
 5   0  0.4447909E-07  0.3406851E+04  0.7818609E-02  0.8136227E-01
       -2   -1    0    0    0  501  0.00000000000E+00  0.00000000000E+00  0.16390497224E+04  0.16390497224E+04  0.25500000920E-02 0. -1.
        2   -1    0    0  501    0  0.00000000000E+00  0.00000000000E+00 -0.17703300486E+04  0.17703300486E+04  0.25500000920E-02 0.  1.
    10030    2    1    2    0    0  0.00000000000E+00  0.00000000000E+00 -0.13128032614E+03  0.34093797710E+04  0.34068513174E+04 0.  0.
        5    1    3    3  502    0 -0.11672759649E+04 -0.12405376230E+04 -0.52587768065E+02  0.17041872948E+04  0.46999998093E+01 0.  1.
       -5    1    3    3    0  502  0.11672759649E+04  0.12405376230E+04 -0.78692558076E+02  0.17051924762E+04  0.46999998093E+01 0. -1.
</event>
<event>
 5   0  0.4521737E-07  0.3378036E+04  0.7818609E-02  0.8143318E-01
        2   -1    0    0  501    0  0.00000000000E+00  0.00000000000E+00  0.20588353415E+04  0.20588353415E+04  0.25500000920E-02 0.  1.
       -2   -1    0    0    0  501  0.00000000000E+00  0.00000000000E+00 -0.13856293270E+04  0.13856293270E+04  0.25500000920E-02 0. -1.
    10030    2    1    2    0    0  0.00000000000E+00  0.00000000000E+00  0.67320601457E+03  0.34444646685E+04  0.33780364880E+04 0.  0.
        4    1    3    3  502    0 -0.10740589351E+04 -0.10571191510E+04 -0.44107270941E+03  0.15702389128E+04  0.12699999809E+01 0. -1.
       -4    1    3    3    0  502  0.10740589351E+04  0.10571191510E+04  0.11142787240E+04  0.18742257557E+04  0.12699999809E+01 0.  1.
</event>
<event>
 5   0  0.1520084E-07  0.3381667E+04  0.7818609E-02  0.8142420E-01
       -1   -1    0    0    0  501  0.00000000000E+00  0.00000000000E+00  0.25354386803E+04  0.25354386803E+04  0.50400001928E-02 0.  1.
        1   -1    0    0  501    0  0.00000000000E+00  0.00000000000E+00 -0.11275834574E+04  0.11275834574E+04  0.50400001928E-02 0. -1.
    10030    2    1    2    0    0  0.00000000000E+00  0.00000000000E+00  0.14078552229E+04  0.36630221377E+04  0.33816674663E+04 0.  0.
        2    1    3    3  502    0 -0.11931725357E+04 -0.49563178717E+03 -0.47750900248E+03  0.13774347229E+04  0.25500000920E-02 0. -1.
       -2    1    3    3    0  502  0.11931725357E+04  0.49563178717E+03  0.18853642254E+04  0.22855874148E+04  0.25500000920E-02 0.  1.
</event>
<event>
 5   0  0.1435806E-07  0.3366109E+04  0.7818609E-02  0.8146275E-01
        1   -1    0    0  501    0  0.00000000000E+00  0.00000000000E+00  0.24598280428E+04  0.24598280428E+04  0.50400001928E-02 0. -1.
       -1   -1    0    0    0  501  0.00000000000E+00  0.00000000000E+00 -0.11515733686E+04  0.11515733686E+04  0.50400001928E-02 0.  1.
    10030    2    1    2    0    0  0.00000000000E+00  0.00000000000E+00  0.13082546742E+04  0.36114014113E+04  0.33661090091E+04 0.  0.
        3    1    3    3  502    0 -0.11207013532E+04 -0.35900555173E+03  0.19450620083E+04  0.22733505527E+04  0.10100000352E+00 0. -1.
       -3    1    3    3    0  502  0.11207013532E+04  0.35900555173E+03 -0.63680733409E+03  0.13380508586E+04  0.10100000352E+00 0.  1.
</event>
<event>
 5   0  0.1421875E-07  0.3385867E+04  0.7818609E-02  0.8141384E-01
        1   -1    0    0  501    0  0.00000000000E+00  0.00000000000E+00  0.19266413040E+04  0.19266413040E+04  0.50400001928E-02 0. -1.
       -1   -1    0    0    0  501  0.00000000000E+00  0.00000000000E+00 -0.14875755728E+04  0.14875755728E+04  0.50400001928E-02 0.  1.
    10030    2    1    2    0    0  0.00000000000E+00  0.00000000000E+00  0.43906573126E+03  0.34142168768E+04  0.33858674170E+04 0.  0.
        5    1    3    3  502    0 -0.98191157370E+03 -0.95847577263E+03 -0.78032175642E+03  0.15785278835E+04  0.46999998093E+01 0. -1.
       -5    1    3    3    0  502  0.98191157370E+03  0.95847577263E+03  0.12193874877E+04  0.18356889934E+04  0.46999998093E+01 0.  1.
</event>
<event>
 5   0  0.4396257E-07  0.3391155E+04  0.7818609E-02  0.8140081E-01
        2   -1    0    0  501    0  0.00000000000E+00  0.00000000000E+00  0.21472242008E+04  0.21472242008E+04  0.25500000920E-02 0.  1.
       -2   -1    0    0    0  501  0.00000000000E+00  0.00000000000E+00 -0.13389302069E+04  0.13389302069E+04  0.25500000920E-02 0. -1.
    10030    2    1    2    0    0  0.00000000000E+00  0.00000000000E+00  0.80829399388E+03  0.34861544077E+04  0.33911551681E+04 0.  0.
        2    1    3    3  502    0  0.61674852433E+03 -0.15472574693E+04  0.73020557231E+03  0.18186766058E+04  0.25500000920E-02 0.  1.
       -2    1    3    3    0  502 -0.61674852433E+03  0.15472574693E+04  0.78088421567E+02  0.16674778020E+04  0.25500000920E-02 0. -1.
</event>
<event>
 5   0  0.1473755E-07  0.3399483E+04  0.7818609E-02  0.8138033E-01
       -1   -1    0    0    0  501  0.00000000000E+00  0.00000000000E+00  0.19619254154E+04  0.19619254154E+04  0.50400001928E-02 0.  1.
        1   -1    0    0  501    0  0.00000000000E+00  0.00000000000E+00 -0.14725945511E+04  0.14725945511E+04  0.50400001928E-02 0. -1.
    10030    2    1    2    0    0  0.00000000000E+00  0.00000000000E+00  0.48933086437E+03  0.34345199665E+04  0.33994827114E+04 0.  0.
        1    1    3    3  502    0  0.58384761680E+03  0.65366912507E+03  0.17160268955E+04  0.19268911933E+04  0.50400001928E-02 0.  1.
       -1    1    3    3    0  502 -0.58384761680E+03 -0.65366912507E+03 -0.12266960312E+04  0.15076287731E+04  0.50400001928E-02 0. -1.
</event>
<event>
 5   0  0.4447909E-07  0.3401229E+04  0.7818609E-02  0.8137605E-01
       -2   -1    0    0    0  501  0.00000000000E+00  0.00000000000E+00  0.16145108495E+04  0.16145108495E+04  0.25500000920E-02 0.  1.
        2   -1    0    0  501    0  0.00000000000E+00  0.00000000000E+00 -0.17913104179E+04  0.17913104179E+04  0.25500000920E-02 0. -1.
    10030    2    1    2    0    0  0.00000000000E+00  0.00000000000E+00 -0.17679956842E+03  0.34058212674E+04  0.34012292510E+04 0.  0.
        5    1    3    3  502    0  0.42549022486E+03 -0.95811983326E+03 -0.14292492539E+04  0.17725154629E+04  0.46999998093E+01 0. -1.
       -5    1    3    3    0  502 -0.42549022486E+03  0.95811983326E+03  0.12524496855E+04  0.16333058045E+04  0.46999998093E+01 0.  1.
</event>
<event>
 5   0  0.1435806E-07  0.3371995E+04  0.7818609E-02  0.8144814E-01
       -1   -1    0    0    0  501  0.00000000000E+00  0.00000000000E+00  0.24098410894E+04  0.24098410894E+04  0.50400001928E-02 0. -1.
        1   -1    0    0  501    0  0.00000000000E+00  0.00000000000E+00 -0.11795747652E+04  0.11795747652E+04  0.50400001928E-02 0.  1.
    10030    2    1    2    0    0  0.00000000000E+00  0.00000000000E+00  0.12302663241E+04  0.35894158546E+04  0.33719950992E+04 0.  0.
        3    1    3    3  502    0  0.66433503093E+03  0.22731823445E+02  0.22644667299E+04  0.23600142690E+04  0.10100000352E+00 0. -1.
       -3    1    3    3    0  502 -0.66433503093E+03 -0.22731823445E+02 -0.10342004057E+04  0.12294015856E+04  0.10100000352E+00 0.  1.
</event>
<event>
 5   0  0.4396257E-07  0.3400947E+04  0.7818609E-02  0.8137674E-01
        2   -1    0    0  501    0  0.00000000000E+00  0.00000000000E+00  0.19212931465E+04  0.19212931465E+04  0.25500000920E-02 0.  1.
       -2   -1    0    0    0  501  0.00000000000E+00  0.00000000000E+00 -0.15050335366E+04  0.15050335366E+04  0.25500000920E-02 0. -1.
    10030    2    1    2    0    0  0.00000000000E+00  0.00000000000E+00  0.41625960989E+03  0.34263266831E+04  0.34009472910E+04 0.  0.
        2    1    3    3  502    0  0.14915020913E+04 -0.54177091505E+03 -0.40759082985E+03  0.16383603076E+04  0.25500000920E-02 0.  1.
       -2    1    3    3    0  502 -0.14915020913E+04  0.54177091505E+03  0.82385043975E+03  0.17879663755E+04  0.25500000920E-02 0. -1.
</event>
<event>
 5   0  0.4447909E-07  0.3369847E+04  0.7818609E-02  0.8145347E-01
       -2   -1    0    0    0  501  0.00000000000E+00  0.00000000000E+00  0.98032854427E+03  0.98032854427E+03  0.25500000920E-02 0. -1.
        2   -1    0    0  501    0  0.00000000000E+00  0.00000000000E+00 -0.28959346814E+04  0.28959346814E+04  0.25500000920E-02 0.  1.
    10030    2    1    2    0    0  0.00000000000E+00  0.00000000000E+00 -0.19156061372E+04  0.38762632257E+04  0.33698471363E+04 0.  0.
        5    1    3    3  502    0 -0.16725634352E+04  0.20339947449E+03 -0.96962071882E+03  0.19439717641E+04  0.46999998093E+01 0.  1.
       -5    1    3    3    0  502  0.16725634352E+04 -0.20339947449E+03 -0.94598541836E+03  0.19322914617E+04  0.46999998093E+01 0. -1.
</event>
<event>
 5   0  0.1473755E-07  0.3398294E+04  0.7818609E-02  0.8138325E-01
        1   -1    0    0  501    0  0.00000000000E+00  0.00000000000E+00  0.16407778068E+04  0.16407778068E+04  0.50400001928E-02 0.  1.
       -1   -1    0    0    0  501  0.00000000000E+00  0.00000000000E+00 -0.17595925186E+04  0.17595925186E+04  0.50400001928E-02 0. -1.
    10030    2    1    2    0    0  0.00000000000E+00  0.00000000000E+00 -0.11881471184E+03  0.34003703254E+04  0.33982938975E+04 0.  0.
        1    1    3    3  502    0  0.15908634366E+04 -0.45154747201E+03 -0.44997745940E+03  0.17138323451E+04  0.50400001928E-02 0. -1.
       -1    1    3    3    0  502 -0.15908634366E+04  0.45154747201E+03  0.33116274756E+03  0.16865379802E+04  0.50400001928E-02 0.  1.
</event>
<event>
 5   0  0.1523259E-07  0.3410015E+04  0.7818609E-02  0.8135453E-01
        1   -1    0    0  501    0  0.00000000000E+00  0.00000000000E+00  0.16896243934E+04  0.16896243934E+04  0.50400001928E-02 0.  1.
       -1   -1    0    0    0  501  0.00000000000E+00  0.00000000000E+00 -0.17205306048E+04  0.17205306048E+04  0.50400001928E-02 0. -1.
    10030    2    1    2    0    0  0.00000000000E+00  0.00000000000E+00 -0.30906211457E+02  0.34101549982E+04  0.34100149440E+04 0.  0.
        4    1    3    3  502    0  0.31798655699E+03  0.15737846637E+04  0.55827355834E+03  0.16998778183E+04  0.12699999809E+01 0.  1.
       -4    1    3    3    0  502 -0.31798655699E+03 -0.15737846637E+04 -0.58917976979E+03  0.17102771799E+04  0.12699999809E+01 0. -1.
</event>
<event>
 5   0  0.4381939E-07  0.3403450E+04  0.7818609E-02  0.8137060E-01
       -2   -1    0    0    0  501  0.00000000000E+00  0.00000000000E+00  0.16736402496E+04  0.16736402496E+04  0.25500000920E-02 0.  1.
        2   -1    0    0  501    0  0.00000000000E+00  0.00000000000E+00 -0.17302811634E+04  0.17302811634E+04  0.25500000920E-02 0. -1.
    10030    2    1    2    0    0  0.00000000000E+00  0.00000000000E+00 -0.56640913785E+02  0.34039214131E+04  0.34034501308E+04 0.  0.
        3    1    3    3  502    0 -0.15643058100E+03 -0.15693393137E+04  0.61096425203E+03  0.16913230725E+04  0.10100000352E+00 0.  1.
       -3    1    3    3    0  502  0.15643058100E+03  0.15693393137E+04 -0.66760516581E+03  0.17125983405E+04  0.10100000352E+00 0. -1.
</event>
<event>
 5   0  0.1421875E-07  0.3420729E+04  0.7818609E-02  0.8132837E-01
        1   -1    0    0  501    0  0.00000000000E+00  0.00000000000E+00  0.18833961737E+04  0.18833961737E+04  0.50400001928E-02 0.  1.
       -1   -1    0    0    0  501  0.00000000000E+00  0.00000000000E+00 -0.15532293548E+04  0.15532293548E+04  0.50400001928E-02 0. -1.
    10030    2    1    2    0    0  0.00000000000E+00  0.00000000000E+00  0.33016681891E+03  0.34366255285E+04  0.34207287081E+04 0.  0.
        5    1    3    3  502    0 -0.17032765372E+04 -0.11891874309E+02  0.32082561547E+03  0.17332753804E+04  0.46999998093E+01 0. -1.
       -5    1    3    3    0  502  0.17032765372E+04  0.11891874309E+02  0.93412034407E+01  0.17033501481E+04  0.46999998093E+01 0.  1.
</event>
<event>
 5   0  0.4486226E-07  0.3393303E+04  0.7818609E-02  0.8139552E-01
        2   -1    0    0  501    0  0.00000000000E+00  0.00000000000E+00  0.23606562594E+04  0.23606562594E+04  0.25500000920E-02 0.  1.
       -2   -1    0    0    0  501  0.00000000000E+00  0.00000000000E+00 -0.12194181216E+04  0.12194181216E+04  0.25500000920E-02 0. -1.
    10030    2    1    2    0    0  0.00000000000E+00  0.00000000000E+00  0.11412381378E+04  0.35800743810E+04  0.33933034179E+04 0.  0.
        1    1    3    3  502    0  0.15695342878E+04  0.27059563325E+03 -0.46347377989E+02  0.15933637239E+04  0.50400001928E-02 0.  1.
       -1    1    3    3    0  502 -0.15695342878E+04 -0.27059563325E+03  0.11875855158E+04  0.19867106570E+04  0.50400001928E-02 0. -1.
</event>
<event>
 5   0  0.1473755E-07  0.3418219E+04  0.7818609E-02  0.8133449E-01
        1   -1    0    0  501    0  0.00000000000E+00  0.00000000000E+00  0.13714861694E+04  0.13714861694E+04  0.50400001928E-02 0.  1.
       -1   -1    0    0    0  501  0.00000000000E+00  0.00000000000E+00 -0.21298464629E+04  0.21298464629E+04  0.50400001928E-02 0. -1.
    10030    2    1    2    0    0  0.00000000000E+00  0.00000000000E+00 -0.75836029352E+03  0.35013326322E+04  0.34182188149E+04 0.  0.
        1    1    3    3  502    0 -0.16182669921E+04  0.54900128720E+03 -0.40929737088E+03  0.17571894630E+04  0.50400001928E-02 0. -1.
       -1    1    3    3    0  502  0.16182669921E+04 -0.54900128720E+03 -0.34906292264E+03  0.17441431693E+04  0.50400001928E-02 0.  1.
</event>
<event>
 5   0  0.4396257E-07  0.3388702E+04  0.7818609E-02  0.8140685E-01
        2   -1    0    0  501    0  0.00000000000E+00  0.00000000000E+00  0.14023242253E+04  0.14023242253E+04  0.25500000920E-02 0. -1.
       -2   -1    0    0    0  501  0.00000000000E+00  0.00000000000E+00 -0.20471910623E+04  0.20471910623E+04  0.25500000920E-02 0.  1.
    10030    2    1    2    0    0  0.00000000000E+00  0.00000000000E+00 -0.64486683696E+03  0.34495152876E+04  0.33887021826E+04 0.  0.
        2    1    3    3  502    0  0.11651252792E+04 -0.88817680612E+03  0.54398779979E+03  0.15627852321E+04  0.25500000920E-02 0. -1.
       -2    1    3    3    0  502 -0.11651252792E+04  0.88817680612E+03 -0.11888546367E+04  0.18867300556E+04  0.25500000920E-02 0.  1.
</event>
<event>
 5   0  0.1435806E-07  0.3422295E+04  0.7818609E-02  0.8132456E-01
       -1   -1    0    0    0  501  0.00000000000E+00  0.00000000000E+00  0.14918661195E+04  0.14918661195E+04  0.50400001928E-02 0. -1.
        1   -1    0    0  501    0  0.00000000000E+00  0.00000000000E+00 -0.19626600335E+04  0.19626600335E+04  0.50400001928E-02 0.  1.
    10030    2    1    2    0    0  0.00000000000E+00  0.00000000000E+00 -0.47079391395E+03  0.34545261530E+04  0.34222951410E+04 0.  0.
        3    1    3    3  502    0 -0.32363028066E+03 -0.98071725217E+03  0.11418143333E+04  0.15395723007E+04  0.10100000352E+00 0. -1.
       -3    1    3    3    0  502  0.32363028066E+03  0.98071725217E+03 -0.16126082472E+04  0.19149538523E+04  0.10100000352E+00 0.  1.
</event>
<event>
 5   0  0.4521737E-07  0.3389397E+04  0.7818609E-02  0.8140514E-01
       -2   -1    0    0    0  501  0.00000000000E+00  0.00000000000E+00  0.13211283708E+04  0.13211283708E+04  0.25500000920E-02 0. -1.
        2   -1    0    0  501    0  0.00000000000E+00  0.00000000000E+00 -0.21739009632E+04  0.21739009632E+04  0.25500000920E-02 0.  1.
    10030    2    1    2    0    0  0.00000000000E+00  0.00000000000E+00 -0.85277259233E+03  0.34950293340E+04  0.33893965468E+04 0.  0.
        4    1    3    3  502    0 -0.15039418979E+04 -0.23005779235E+03  0.34335853357E+03  0.15597001364E+04  0.12699999809E+01 0. -1.
       -4    1    3    3    0  502  0.15039418979E+04  0.23005779235E+03 -0.11961311259E+04  0.19353291976E+04  0.12699999809E+01 0.  1.
</event>
<event>
 5   0  0.4486226E-07  0.3407849E+04  0.7818609E-02  0.8135983E-01
       -2   -1    0    0    0  501  0.00000000000E+00  0.00000000000E+00  0.22336188730E+04  0.22336188730E+04  0.25500000920E-02 0. -1.
        2   -1    0    0  501    0  0.00000000000E+00  0.00000000000E+00 -0.12998451620E+04  0.12998451620E+04  0.25500000920E-02 0.  1.
    10030    2    1    2    0    0  0.00000000000E+00  0.00000000000E+00  0.93377371102E+03  0.35334640350E+04  0.34078489906E+04 0.  0.
        1    1    3    3  502    0  0.13566431072E+04  0.98836448792E+02  0.15309247693E+04  0.20479208513E+04  0.50400001928E-02 0. -1.
       -1    1    3    3    0  502 -0.13566431072E+04 -0.98836448792E+02 -0.59715105827E+03  0.14855431836E+04  0.50400001928E-02 0.  1.
</event>
<event>
 5   0  0.1435806E-07  0.3402924E+04  0.7818609E-02  0.8137189E-01
        1   -1    0    0  501    0  0.00000000000E+00  0.00000000000E+00  0.23265700495E+04  0.23265700495E+04  0.50400001928E-02 0. -1.
       -1   -1    0    0    0  501  0.00000000000E+00  0.00000000000E+00 -0.12443095946E+04  0.12443095946E+04  0.50400001928E-02 0.  1.
    10030    2    1    2    0    0  0.00000000000E+00  0.00000000000E+00  0.10822604549E+04  0.35708796441E+04  0.34029242925E+04 0.  0.
        3    1    3    3  502    0  0.77528482083E+03 -0.13785465317E+04  0.11994005957E+04  0.19849480831E+04  0.10100000352E+00 0. -1.
       -3    1    3    3    0  502 -0.77528482083E+03  0.13785465317E+04 -0.11714014085E+03  0.15859315610E+04  0.10100000352E+00 0.  1.
</event>
<event>
 5   0  0.1421875E-07  0.3386342E+04  0.7818609E-02  0.8141267E-01
        1   -1    0    0  501    0  0.00000000000E+00  0.00000000000E+00  0.13556858575E+04  0.13556858575E+04  0.50400001928E-02 0. -1.
       -1   -1    0    0    0  501  0.00000000000E+00  0.00000000000E+00 -0.21146699057E+04  0.21146699057E+04  0.50400001928E-02 0.  1.
    10030    2    1    2    0    0  0.00000000000E+00  0.00000000000E+00 -0.75898404822E+03  0.34703557633E+04  0.33863420291E+04 0.  0.
        5    1    3    3  502    0 -0.31459178683E+03  0.66977658962E+03 -0.19401788828E+04  0.20765078521E+04  0.46999998093E+01 0.  1.
       -5    1    3    3    0  502  0.31459178683E+03 -0.66977658962E+03  0.11811948346E+04  0.13938479112E+04  0.46999998093E+01 0. -1.
</event>
<event>
 5   0  0.1435806E-07  0.3390925E+04  0.7818609E-02  0.8140137E-01
        1   -1    0    0  501    0  0.00000000000E+00  0.00000000000E+00  0.27734324726E+04  0.27734324726E+04  0.50400001928E-02 0. -1.
       -1   -1    0    0    0  501  0.00000000000E+00  0.00000000000E+00 -0.10364750193E+04  0.10364750193E+04  0.50400001928E-02 0.  1.
    10030    2    1    2    0    0  0.00000000000E+00  0.00000000000E+00  0.17369574533E+04  0.38099074919E+04  0.33909252280E+04 0.  0.
        3    1    3    3  502    0 -0.97368288965E+03 -0.12709858951E+04  0.24176800142E+03  0.16192329331E+04  0.10100000352E+00 0.  1.
       -3    1    3    3    0  502  0.97368288965E+03  0.12709858951E+04  0.14951894519E+04  0.21906745587E+04  0.10100000352E+00 0. -1.
</event>
<event>
 5   0  0.1421875E-07  0.3407310E+04  0.7818609E-02  0.8136115E-01
        3   -1    0    0  501    0  0.00000000000E+00  0.00000000000E+00  0.18316492834E+04  0.18316492862E+04  0.10100000352E+00 0. -1.
       -3   -1    0    0    0  501  0.00000000000E+00  0.00000000000E+00 -0.15846048510E+04  0.15846048543E+04  0.10100000352E+00 0.  1.
    10030    2    1    2    0    0  0.00000000000E+00  0.00000000000E+00  0.24704443237E+03  0.34162541405E+04  0.34073099948E+04 0.  0.
        4    1    3    3  502    0  0.19739889337E+03  0.27035288567E+03  0.17983506827E+04  0.18292413172E+04  0.12699999809E+01 0. -1.
       -4    1    3    3    0  502 -0.19739889337E+03 -0.27035288567E+03 -0.15513062503E+04  0.15870128232E+04  0.12699999809E+01 0.  1.
</event>
<event>
 5   0  0.4396257E-07  0.3402657E+04  0.7818609E-02  0.8137254E-01
       -2   -1    0    0    0  501  0.00000000000E+00  0.00000000000E+00  0.17039145803E+04  0.17039145803E+04  0.25500000920E-02 0.  1.
        2   -1    0    0  501    0  0.00000000000E+00  0.00000000000E+00 -0.16987464100E+04  0.16987464100E+04  0.25500000920E-02 0. -1.
    10030    2    1    2    0    0  0.00000000000E+00  0.00000000000E+00  0.51681703648E+01  0.34026609903E+04  0.34026570654E+04 0.  0.
        2    1    3    3  502    0  0.11012096371E+04  0.18018569120E+03  0.12868710598E+04  0.17032811490E+04  0.25500000920E-02 0.  1.
       -2    1    3    3    0  502 -0.11012096371E+04 -0.18018569120E+03 -0.12817028894E+04  0.16993798413E+04  0.25500000920E-02 0. -1.
</event>
<event>
 5   0  0.1435806E-07  0.3411094E+04  0.7818609E-02  0.8135189E-01
       -1   -1    0    0    0  501  0.00000000000E+00  0.00000000000E+00  0.12020372433E+04  0.12020372433E+04  0.50400001928E-02 0. -1.
        1   -1    0    0  501    0  0.00000000000E+00  0.00000000000E+00 -0.24199667955E+04  0.24199667955E+04  0.50400001928E-02 0.  1.
    10030    2    1    2    0    0  0.00000000000E+00  0.00000000000E+00 -0.12179295522E+04  0.36220040387E+04  0.34110937927E+04 0.  0.
        3    1    3    3  502    0 -0.15762190102E+03  0.50657619719E+03 -0.23301219203E+04  0.23897556948E+04  0.10100000352E+00 0.  1.
       -3    1    3    3    0  502  0.15762190102E+03 -0.50657619719E+03  0.11121923681E+04  0.12322483439E+04  0.10100000352E+00 0. -1.
</event>
<event>
 5   0  0.4486226E-07  0.3386931E+04  0.7818609E-02  0.8141121E-01
        2   -1    0    0  501    0  0.00000000000E+00  0.00000000000E+00  0.18113956926E+04  0.18113956926E+04  0.25500000920E-02 0.  1.
       -2   -1    0    0    0  501  0.00000000000E+00  0.00000000000E+00 -0.15832126874E+04  0.15832126874E+04  0.25500000920E-02 0. -1.
    10030    2    1    2    0    0  0.00000000000E+00  0.00000000000E+00  0.22818300524E+03  0.33946083800E+04  0.33869305528E+04 0.  0.
        1    1    3    3  502    0  0.14417060142E+04 -0.79296130802E+03  0.51565017627E+03  0.17242966600E+04  0.50400001928E-02 0.  1.
       -1    1    3    3    0  502 -0.14417060142E+04  0.79296130802E+03 -0.28746717104E+03  0.16703117200E+04  0.50400001928E-02 0. -1.
</event>
<event>
 5   0  0.4521737E-07  0.3368940E+04  0.7818609E-02  0.8145572E-01
        2   -1    0    0  501    0  0.00000000000E+00  0.00000000000E+00  0.12464481184E+04  0.12464481184E+04  0.25500000920E-02 0.  1.
       -2   -1    0    0    0  501  0.00000000000E+00  0.00000000000E+00 -0.22764197261E+04  0.22764197261E+04  0.25500000920E-02 0. -1.
    10030    2    1    2    0    0  0.00000000000E+00  0.00000000000E+00 -0.10299716077E+04  0.35228678445E+04  0.33689399427E+04 0.  0.
        4    1    3    3  502    0  0.21082727737E+03 -0.11738758626E+04  0.72890437125E+03  0.13977610228E+04  0.12699999809E+01 0.  1.
       -4    1    3    3    0  502 -0.21082727737E+03  0.11738758626E+04 -0.17588759789E+04  0.21251068217E+04  0.12699999809E+01 0. -1.
</event>
<event>
 5   0  0.1421875E-07  0.3404488E+04  0.7818609E-02  0.8136806E-01
       -1   -1    0    0    0  501  0.00000000000E+00  0.00000000000E+00  0.97640088251E+03  0.97640088252E+03  0.50400001928E-02 0.  1.
        1   -1    0    0  501    0  0.00000000000E+00  0.00000000000E+00 -0.29676682137E+04  0.29676682137E+04  0.50400001928E-02 0. -1.
    10030    2    1    2    0    0  0.00000000000E+00  0.00000000000E+00 -0.19912673312E+04  0.39440690962E+04  0.34044875461E+04 0.  0.
        5    1    3    3  502    0 -0.30122025724E+03 -0.12419038125E+04 -0.22983842949E+04  0.26297625710E+04  0.46999998093E+01 0. -1.
       -5    1    3    3    0  502  0.30122025724E+03  0.12419038125E+04  0.30711696372E+03  0.13143065252E+04  0.46999998093E+01 0.  1.
</event>
<event>
 5   0  0.4381939E-07  0.3390118E+04  0.7818609E-02  0.8140336E-01
        2   -1    0    0  501    0  0.00000000000E+00  0.00000000000E+00  0.10274712087E+04  0.10274712088E+04  0.25500000920E-02 0.  1.
       -2   -1    0    0    0  501  0.00000000000E+00  0.00000000000E+00 -0.27964045526E+04  0.27964045526E+04  0.25500000920E-02 0. -1.
    10030    2    1    2    0    0  0.00000000000E+00  0.00000000000E+00 -0.17689333439E+04  0.38238757614E+04  0.33901180899E+04 0.  0.
        3    1    3    3  502    0  0.34221162879E+03  0.73548194216E+02 -0.27551966893E+04  0.27773417044E+04  0.10100000352E+00 0. -1.
       -3    1    3    3    0  502 -0.34221162879E+03 -0.73548194216E+02  0.98626334544E+03  0.10465340570E+04  0.10100000352E+00 0.  1.
</event>
<event>
 5   0  0.4381939E-07  0.3414938E+04  0.7818609E-02  0.8134250E-01
       -2   -1    0    0    0  501  0.00000000000E+00  0.00000000000E+00  0.16302903268E+04  0.16302903268E+04  0.25500000920E-02 0.  1.
        2   -1    0    0  501    0  0.00000000000E+00  0.00000000000E+00 -0.17883010188E+04  0.17883010188E+04  0.25500000920E-02 0. -1.
    10030    2    1    2    0    0  0.00000000000E+00  0.00000000000E+00 -0.15801069193E+03  0.34185913456E+04  0.34149376875E+04 0.  0.
        3    1    3    3  502    0  0.15568943892E+04  0.65679263790E+03  0.16651841843E+03  0.16979473202E+04  0.10100000352E+00 0.  1.
       -3    1    3    3    0  502 -0.15568943892E+04 -0.65679263790E+03 -0.32452911037E+03  0.17206440254E+04  0.10100000352E+00 0. -1.
</event>
<event>
 5   0  0.1520084E-07  0.3404933E+04  0.7818609E-02  0.8136697E-01
       -1   -1    0    0    0  501  0.00000000000E+00  0.00000000000E+00  0.18111693966E+04  0.18111693966E+04  0.50400001928E-02 0. -1.
        1   -1    0    0  501    0  0.00000000000E+00  0.00000000000E+00 -0.16002875886E+04  0.16002875886E+04  0.50400001928E-02 0.  1.
    10030    2    1    2    0    0  0.00000000000E+00  0.00000000000E+00  0.21088180803E+03  0.34114569852E+04  0.34049328370E+04 0.  0.
        2    1    3    3  502    0  0.89042283931E+03  0.98810585178E+03 -0.95922678216E+03  0.16399152499E+04  0.25500000920E-02 0.  1.
       -2    1    3    3    0  502 -0.89042283931E+03 -0.98810585178E+03  0.11701085902E+04  0.17715417353E+04  0.25500000920E-02 0. -1.
</event>
<event>
 5   0  0.1421875E-07  0.3399075E+04  0.7818609E-02  0.8138133E-01
        1   -1    0    0  501    0  0.00000000000E+00  0.00000000000E+00  0.14637714690E+04  0.14637714690E+04  0.50400001928E-02 0. -1.
       -1   -1    0    0    0  501  0.00000000000E+00  0.00000000000E+00 -0.19732778591E+04  0.19732778591E+04  0.50400001928E-02 0.  1.
    10030    2    1    2    0    0  0.00000000000E+00  0.00000000000E+00 -0.50950639011E+03  0.34370493282E+04  0.33990750687E+04 0.  0.
        5    1    3    3  502    0 -0.11830800530E+04  0.11044617198E+04 -0.77909400143E+03  0.17962526703E+04  0.46999998093E+01 0. -1.
       -5    1    3    3    0  502  0.11830800530E+04 -0.11044617198E+04  0.26958761132E+03  0.16407966579E+04  0.46999998093E+01 0.  1.
</event>
<event>
 5   0  0.1473755E-07  0.3385887E+04  0.7818609E-02  0.8141379E-01
       -1   -1    0    0    0  501  0.00000000000E+00  0.00000000000E+00  0.20923129558E+04  0.20923129558E+04  0.50400001928E-02 0. -1.
        1   -1    0    0  501    0  0.00000000000E+00  0.00000000000E+00 -0.13698034532E+04  0.13698034532E+04  0.50400001928E-02 0.  1.
    10030    2    1    2    0    0  0.00000000000E+00  0.00000000000E+00  0.72250950253E+03  0.34621164090E+04  0.33858868924E+04 0.  0.
        1    1    3    3  502    0  0.24382307109E+03  0.11314113184E+04 -0.90208434450E+03  0.14674118120E+04  0.50400001928E-02 0.  1.
       -1    1    3    3    0  502 -0.24382307109E+03 -0.11314113184E+04  0.16245938470E+04  0.19947045970E+04  0.50400001928E-02 0. -1.
</event>
<event>
 5   0  0.4447909E-07  0.3397885E+04  0.7818609E-02  0.8138426E-01
       -2   -1    0    0    0  501  0.00000000000E+00  0.00000000000E+00  0.19421641089E+04  0.19421641089E+04  0.25500000920E-02 0.  1.
        2   -1    0    0  501    0  0.00000000000E+00  0.00000000000E+00 -0.14861796593E+04  0.14861796593E+04  0.25500000920E-02 0. -1.
    10030    2    1    2    0    0  0.00000000000E+00  0.00000000000E+00  0.45598444960E+03  0.34283437681E+04  0.33978845146E+04 0.  0.
        5    1    3    3  502    0 -0.15499459580E+04 -0.69168379532E+03  0.30365618530E+03  0.17242355159E+04  0.46999998093E+01 0.  1.
       -5    1    3    3    0  502  0.15499459580E+04  0.69168379532E+03  0.15232826430E+03  0.17041082523E+04  0.46999998093E+01 0. -1.
</event>
<event>
 5   0  0.4381939E-07  0.3418518E+04  0.7818609E-02  0.8133376E-01
       -2   -1    0    0    0  501  0.00000000000E+00  0.00000000000E+00  0.14777082364E+04  0.14777082364E+04  0.25500000920E-02 0.  1.
        2   -1    0    0  501    0  0.00000000000E+00  0.00000000000E+00 -0.19770932955E+04  0.19770932955E+04  0.25500000920E-02 0. -1.
    10030    2    1    2    0    0  0.00000000000E+00  0.00000000000E+00 -0.49938505911E+03  0.34548015319E+04  0.34185184199E+04 0.  0.
        3    1    3    3  502    0 -0.38570418582E+03  0.78528717538E+03  0.12342667455E+04  0.15128972457E+04  0.10100000352E+00 0.  1.
       -3    1    3    3    0  502  0.38570418582E+03 -0.78528717538E+03 -0.17336518046E+04  0.19419042862E+04  0.10100000352E+00 0. -1.
</event>
<event>
 5   0  0.4521737E-07  0.3401228E+04  0.7818609E-02  0.8137605E-01
        2   -1    0    0  501    0  0.00000000000E+00  0.00000000000E+00  0.24407842012E+04  0.24407842012E+04  0.25500000920E-02 0. -1.
       -2   -1    0    0    0  501  0.00000000000E+00  0.00000000000E+00 -0.11849013112E+04  0.11849013112E+04  0.25500000920E-02 0.  1.
    10030    2    1    2    0    0  0.00000000000E+00  0.00000000000E+00  0.12558828900E+04  0.36256855124E+04  0.34012282489E+04 0.  0.
        4    1    3    3  502    0 -0.47011797069E+03 -0.12435367194E+04  0.17584431360E+04  0.22044315264E+04  0.12699999809E+01 0.  1.
       -4    1    3    3    0  502  0.47011797069E+03  0.12435367194E+04 -0.50256024603E+03  0.14212539860E+04  0.12699999809E+01 0. -1.
</event>
<event>
 5   0  0.4381939E-07  0.3377491E+04  0.7818609E-02  0.8143453E-01
        2   -1    0    0  501    0  0.00000000000E+00  0.00000000000E+00  0.14377075200E+04  0.14377075200E+04  0.25500000920E-02 0. -1.
       -2   -1    0    0    0  501  0.00000000000E+00  0.00000000000E+00 -0.19836171632E+04  0.19836171632E+04  0.25500000920E-02 0.  1.
    10030    2    1    2    0    0  0.00000000000E+00  0.00000000000E+00 -0.54590964316E+03  0.34213246831E+04  0.33774909695E+04 0.  0.
        3    1    3    3  502    0 -0.10728236628E+04  0.52922117560E+03 -0.14804127707E+04  0.19033254178E+04  0.10100000352E+00 0.  1.
       -3    1    3    3    0  502  0.10728236628E+04 -0.52922117560E+03  0.93450312751E+03  0.15179992654E+04  0.10100000352E+00 0. -1.
</event>
<event>
 5   0  0.1421875E-07  0.3366341E+04  0.7818609E-02  0.8146217E-01
       -1   -1    0    0    0  501  0.00000000000E+00  0.00000000000E+00  0.31934127048E+04  0.31934127048E+04  0.50400001928E-02 0.  1.
        1   -1    0    0  501    0  0.00000000000E+00  0.00000000000E+00 -0.88715841171E+03  0.88715841172E+03  0.50400001928E-02 0. -1.
    10030    2    1    2    0    0  0.00000000000E+00  0.00000000000E+00  0.23062542931E+04  0.40805711166E+04  0.33663410066E+04 0.  0.
        5    1    3    3  502    0 -0.12675487745E+04 -0.10739947369E+04  0.14804041387E+04  0.22252557368E+04  0.46999998093E+01 0. -1.
       -5    1    3    3    0  502  0.12675487745E+04  0.10739947369E+04  0.82585015446E+03  0.18553153797E+04  0.46999998093E+01 0.  1.
</event>
<event>
 5   0  0.1523259E-07  0.3379976E+04  0.7818609E-02  0.8142838E-01
        1   -1    0    0  501    0  0.00000000000E+00  0.00000000000E+00  0.20880400278E+04  0.20880400278E+04  0.50400001928E-02 0.  1.
       -1   -1    0    0    0  501  0.00000000000E+00  0.00000000000E+00 -0.13678185996E+04  0.13678185996E+04  0.50400001928E-02 0. -1.
    10030    2    1    2    0    0  0.00000000000E+00  0.00000000000E+00  0.72022142815E+03  0.34558586274E+04  0.33799763234E+04 0.  0.
        4    1    3    3  502    0 -0.38883903077E+03  0.15444363837E+04 -0.21789391573E+03  0.16074697218E+04  0.12699999809E+01 0. -1.
       -4    1    3    3    0  502  0.38883903077E+03 -0.15444363837E+04  0.93811534388E+03  0.18483889056E+04  0.12699999809E+01 0.  1.
</event>
<event>
 5   0  0.1421875E-07  0.3426250E+04  0.7818609E-02  0.8131493E-01
        1   -1    0    0  501    0  0.00000000000E+00  0.00000000000E+00  0.26931120737E+04  0.26931120737E+04  0.50400001928E-02 0. -1.
       -1   -1    0    0    0  501  0.00000000000E+00  0.00000000000E+00 -0.10897422611E+04  0.10897422611E+04  0.50400001928E-02 0.  1.
    10030    2    1    2    0    0  0.00000000000E+00  0.00000000000E+00  0.16033698125E+04  0.37828543348E+04  0.34262504524E+04 0.  0.
        5    1    3    3  502    0  0.69312163024E+03  0.14592092305E+04  0.17219784797E+03  0.16246179125E+04  0.46999998093E+01 0.  1.
       -5    1    3    3    0  502 -0.69312163024E+03 -0.14592092305E+04  0.14311719646E+04  0.21582364224E+04  0.46999998093E+01 0. -1.
</event>
<event>
 5   0  0.1523259E-07  0.3403136E+04  0.7818609E-02  0.8137137E-01
        1   -1    0    0  501    0  0.00000000000E+00  0.00000000000E+00  0.24510972089E+04  0.24510972089E+04  0.50400001928E-02 0.  1.
       -1   -1    0    0    0  501  0.00000000000E+00  0.00000000000E+00 -0.11812398594E+04  0.11812398594E+04  0.50400001928E-02 0. -1.
    10030    2    1    2    0    0  0.00000000000E+00  0.00000000000E+00  0.12698573495E+04  0.36323370683E+04  0.34031360375E+04 0.  0.
        4    1    3    3  502    0  0.15063029438E+04 -0.78833543546E+03  0.56013194341E+03  0.17900197552E+04  0.12699999809E+01 0.  1.
       -4    1    3    3    0  502 -0.15063029438E+04  0.78833543546E+03  0.70972540604E+03  0.18423173131E+04  0.12699999809E+01 0. -1.
</event>
<event>
 5   0  0.4381939E-07  0.3415354E+04  0.7818609E-02  0.8134148E-01
       -2   -1    0    0    0  501  0.00000000000E+00  0.00000000000E+00  0.20197108759E+04  0.20197108759E+04  0.25500000920E-02 0.  1.
        2   -1    0    0  501    0  0.00000000000E+00  0.00000000000E+00 -0.14438502046E+04  0.14438502046E+04  0.25500000920E-02 0. -1.
    10030    2    1    2    0    0  0.00000000000E+00  0.00000000000E+00  0.57586067130E+03  0.34635610805E+04  0.34153535462E+04 0.  0.
        3    1    3    3  502    0 -0.86654741274E+03 -0.55662250055E+03 -0.10934367733E+04  0.15021108528E+04  0.10100000352E+00 0. -1.
       -3    1    3    3    0  502  0.86654741274E+03  0.55662250055E+03  0.16692974446E+04  0.19614502276E+04  0.10100000352E+00 0.  1.
</event>
<event>
 5   0  0.1435806E-07  0.3399331E+04  0.7818609E-02  0.8138071E-01
       -1   -1    0    0    0  501  0.00000000000E+00  0.00000000000E+00  0.17660504339E+04  0.17660504339E+04  0.50400001928E-02 0.  1.
        1   -1    0    0  501    0  0.00000000000E+00  0.00000000000E+00 -0.16357756339E+04  0.16357756339E+04  0.50400001928E-02 0. -1.
    10030    2    1    2    0    0  0.00000000000E+00  0.00000000000E+00  0.13027479996E+03  0.34018260678E+04  0.33993306800E+04 0.  0.
        3    1    3    3  502    0 -0.40861312362E+03 -0.12272317674E+04  0.11685799272E+04  0.17431699723E+04  0.10100000352E+00 0.  1.
       -3    1    3    3    0  502  0.40861312362E+03  0.12272317674E+04 -0.10383051273E+04  0.16586560955E+04  0.10100000352E+00 0. -1.
</event>
<event>
 5   0  0.4447909E-07  0.3398497E+04  0.7818609E-02  0.8138275E-01
        2   -1    0    0  501    0  0.00000000000E+00  0.00000000000E+00  0.31468428572E+04  0.31468428572E+04  0.25500000920E-02 0. -1.
       -2   -1    0    0    0  501  0.00000000000E+00  0.00000000000E+00 -0.91756883749E+03  0.91756883749E+03  0.25500000920E-02 0.  1.
    10030    2    1    2    0    0  0.00000000000E+00  0.00000000000E+00  0.22292740197E+04  0.40644116947E+04  0.33984966925E+04 0.  0.
        5    1    3    3  502    0 -0.25277640710E+03 -0.98633540193E+03 -0.51231695482E+03  0.11398439320E+04  0.46999998093E+01 0.  1.
       -5    1    3    3    0  502  0.25277640710E+03  0.98633540193E+03  0.27415909745E+04  0.29245677627E+04  0.46999998093E+01 0. -1.
</event>
<event>
 5   0  0.4381939E-07  0.3312994E+04  0.7818609E-02  0.8159597E-01
       -2   -1    0    0    0  501  0.00000000000E+00  0.00000000000E+00  0.18342479498E+04  0.18342479498E+04  0.25500000920E-02 0.  1.
        2   -1    0    0  501    0  0.00000000000E+00  0.00000000000E+00 -0.14959715352E+04  0.14959715352E+04  0.25500000920E-02 0. -1.
    10030    2    1    2    0    0  0.00000000000E+00  0.00000000000E+00  0.33827641463E+03  0.33302194850E+04  0.33129942478E+04 0.  0.
        3    1    3    3  502    0  0.63906010754E+03 -0.11451611008E+04 -0.84814679375E+03  0.15617761561E+04  0.10100000352E+00 0. -1.
       -3    1    3    3    0  502 -0.63906010754E+03  0.11451611008E+04  0.11864232084E+04  0.17684433289E+04  0.10100000352E+00 0.  1.
</event>
<event>
 5   0  0.1435806E-07  0.3409666E+04  0.7818609E-02  0.8135538E-01
       -1   -1    0    0    0  501  0.00000000000E+00  0.00000000000E+00  0.22087537201E+04  0.22087537201E+04  0.50400001928E-02 0.  1.
        1   -1    0    0  501    0  0.00000000000E+00  0.00000000000E+00 -0.13158803759E+04  0.13158803759E+04  0.50400001928E-02 0. -1.
    10030    2    1    2    0    0  0.00000000000E+00  0.00000000000E+00  0.89287334422E+03  0.35246340960E+04  0.34096660690E+04 0.  0.
        3    1    3    3  502    0 -0.98696397784E+03 -0.11413002547E+04  0.12667893270E+04  0.19701318164E+04  0.10100000352E+00 0.  1.
       -3    1    3    3    0  502  0.98696397784E+03  0.11413002547E+04 -0.37391598277E+03  0.15545022796E+04  0.10100000352E+00 0. -1.
</event>
<event>
 5   0  0.4521737E-07  0.3344526E+04  0.7818609E-02  0.8151657E-01
       -2   -1    0    0    0  501  0.00000000000E+00  0.00000000000E+00  0.12947602869E+04  0.12947602869E+04  0.25500000920E-02 0.  1.
        2   -1    0    0  501    0  0.00000000000E+00  0.00000000000E+00 -0.21598313895E+04  0.21598313895E+04  0.25500000920E-02 0. -1.
    10030    2    1    2    0    0  0.00000000000E+00  0.00000000000E+00 -0.86507110260E+03  0.34545916764E+04  0.33445262203E+04 0.  0.
        4    1    3    3  502    0 -0.70480981875E+01  0.14335337144E+04  0.45684282464E+03  0.15045848482E+04  0.12699999809E+01 0.  1.
       -4    1    3    3    0  502  0.70480981875E+01 -0.14335337144E+04 -0.13219139272E+04  0.19500068282E+04  0.12699999809E+01 0. -1.
</event>
<event>
 5   0  0.1421875E-07  0.3400256E+04  0.7818609E-02  0.8137843E-01
        4   -1    0    0  501    0  0.00000000000E+00  0.00000000000E+00  0.22218608418E+04  0.22218612048E+04  0.12699999809E+01 0. -1.
       -4   -1    0    0    0  501  0.00000000000E+00  0.00000000000E+00 -0.13009069992E+04  0.13009076192E+04  0.12699999809E+01 0.  1.
    10030    2    1    2    0    0  0.00000000000E+00  0.00000000000E+00  0.92095384255E+03  0.35227688239E+04  0.34002564913E+04 0.  0.
        4    1    3    3  502    0 -0.64206019736E+03 -0.11497896690E+04  0.15744754112E+04  0.20526158953E+04  0.12699999809E+01 0. -1.
       -4    1    3    3    0  502  0.64206019736E+03  0.11497896690E+04 -0.65352156867E+03  0.14701529287E+04  0.12699999809E+01 0.  1.
</event>
<event>
 5   0  0.1520084E-07  0.3406196E+04  0.7818609E-02  0.8136387E-01
        1   -1    0    0  501    0  0.00000000000E+00  0.00000000000E+00  0.16909181968E+04  0.16909181969E+04  0.50400001928E-02 0.  1.
       -1   -1    0    0    0  501  0.00000000000E+00  0.00000000000E+00 -0.17153650923E+04  0.17153650923E+04  0.50400001928E-02 0. -1.
    10030    2    1    2    0    0  0.00000000000E+00  0.00000000000E+00 -0.24446895487E+02  0.34062832892E+04  0.34061955604E+04 0.  0.
        2    1    3    3  502    0 -0.15053917343E+04 -0.42989227980E+01  0.78423871047E+03  0.16974254356E+04  0.25500000920E-02 0.  1.
       -2    1    3    3    0  502  0.15053917343E+04  0.42989227980E+01 -0.80868560596E+03  0.17088578536E+04  0.25500000920E-02 0. -1.
</event>
<event>
 5   0  0.1523259E-07  0.3384893E+04  0.7818609E-02  0.8141624E-01
       -1   -1    0    0    0  501  0.00000000000E+00  0.00000000000E+00  0.15384779403E+04  0.15384779403E+04  0.50400001928E-02 0.  1.
        1   -1    0    0  501    0  0.00000000000E+00  0.00000000000E+00 -0.18618237297E+04  0.18618237297E+04  0.50400001928E-02 0. -1.
    10030    2    1    2    0    0  0.00000000000E+00  0.00000000000E+00 -0.32334578945E+03  0.34003016700E+04  0.33848927527E+04 0.  0.
        4    1    3    3  502    0  0.55340251223E+03  0.11247033752E+04  0.98067622653E+03  0.15915211267E+04  0.12699999809E+01 0.  1.
       -4    1    3    3    0  502 -0.55340251223E+03 -0.11247033752E+04 -0.13040220160E+04  0.18087805433E+04  0.12699999809E+01 0. -1.
</event>
<event>
 5   0  0.1435806E-07  0.3420669E+04  0.7818609E-02  0.8132852E-01
       -1   -1    0    0    0  501  0.00000000000E+00  0.00000000000E+00  0.24913219379E+04  0.24913219379E+04  0.50400001928E-02 0. -1.
        1   -1    0    0  501    0  0.00000000000E+00  0.00000000000E+00 -0.11741734924E+04  0.11741734924E+04  0.50400001928E-02 0.  1.
    10030    2    1    2    0    0  0.00000000000E+00  0.00000000000E+00  0.13171484455E+04  0.36654954302E+04  0.34206690459E+04 0.  0.
        3    1    3    3  502    0  0.14061151268E+04  0.86066107746E+03  0.11465187255E+04  0.20080842707E+04  0.10100000352E+00 0. -1.
       -3    1    3    3    0  502 -0.14061151268E+04 -0.86066107746E+03  0.17062972001E+03  0.16574111595E+04  0.10100000352E+00 0.  1.
</event>
<event>
 5   0  0.1421875E-07  0.3404900E+04  0.7818609E-02  0.8136705E-01
       -1   -1    0    0    0  501  0.00000000000E+00  0.00000000000E+00  0.17547245103E+04  0.17547245103E+04  0.50400001928E-02 0. -1.
        1   -1    0    0  501    0  0.00000000000E+00  0.00000000000E+00 -0.16517327669E+04  0.16517327669E+04  0.50400001928E-02 0.  1.
    10030    2    1    2    0    0  0.00000000000E+00  0.00000000000E+00  0.10299174343E+03  0.34064572772E+04  0.34048999813E+04 0.  0.
        5    1    3    3  502    0  0.16952351711E+04 -0.15536522920E+03  0.70299172302E+02  0.17037971426E+04  0.46999998093E+01 0.  1.
       -5    1    3    3    0  502 -0.16952351711E+04  0.15536522920E+03  0.32692571133E+02  0.17026601346E+04  0.46999998093E+01 0. -1.
</event>
<event>
 5   0  0.4381939E-07  0.3201515E+04  0.7818609E-02  0.8188417E-01
        2   -1    0    0  501    0  0.00000000000E+00  0.00000000000E+00  0.25406486418E+04  0.25406486418E+04  0.25500000920E-02 0.  1.
       -2   -1    0    0    0  501  0.00000000000E+00  0.00000000000E+00 -0.10085711120E+04  0.10085711120E+04  0.25500000920E-02 0. -1.
    10030    2    1    2    0    0  0.00000000000E+00  0.00000000000E+00  0.15320775298E+04  0.35492197538E+04  0.32015151574E+04 0.  0.
        3    1    3    3  502    0  0.28544817328E+03  0.78402501188E+03 -0.74843625481E+03  0.11208624878E+04  0.10100000352E+00 0. -1.
       -3    1    3    3    0  502 -0.28544817328E+03 -0.78402501188E+03  0.22805137847E+04  0.24283572659E+04  0.10100000352E+00 0.  1.
</event>
<event>
 5   0  0.1473755E-07  0.3397634E+04  0.7818609E-02  0.8138487E-01
        1   -1    0    0  501    0  0.00000000000E+00  0.00000000000E+00  0.20521645385E+04  0.20521645385E+04  0.50400001928E-02 0.  1.
       -1   -1    0    0    0  501  0.00000000000E+00  0.00000000000E+00 -0.14063095081E+04  0.14063095082E+04  0.50400001928E-02 0. -1.
    10030    2    1    2    0    0  0.00000000000E+00  0.00000000000E+00  0.64585503033E+03  0.34584740466E+04  0.33976335899E+04 0.  0.
        1    1    3    3  502    0 -0.15880768882E+04  0.46547929781E+03  0.71362250040E+03  0.18021976175E+04  0.50400001928E-02 0.  1.
       -1    1    3    3    0  502  0.15880768882E+04 -0.46547929781E+03 -0.67767470078E+02  0.16562764291E+04  0.50400001928E-02 0. -1.
</event>
<event>
 5   0  0.4486226E-07  0.3403582E+04  0.7818609E-02  0.8137028E-01
        2   -1    0    0  501    0  0.00000000000E+00  0.00000000000E+00  0.20990283366E+04  0.20990283366E+04  0.25500000920E-02 0.  1.
       -2   -1    0    0    0  501  0.00000000000E+00  0.00000000000E+00 -0.13797301342E+04  0.13797301342E+04  0.25500000920E-02 0. -1.
    10030    2    1    2    0    0  0.00000000000E+00  0.00000000000E+00  0.71929820242E+03  0.34787584708E+04  0.34035820240E+04 0.  0.
        1    1    3    3  502    0  0.13113588876E+04 -0.28517383575E+03  0.14292363434E+04  0.19605363485E+04  0.50400001928E-02 0.  1.
       -1    1    3    3    0  502 -0.13113588876E+04  0.28517383575E+03 -0.70993814096E+03  0.15182221223E+04  0.50400001928E-02 0. -1.
</event>
<event>
 5   0  0.1435806E-07  0.3401571E+04  0.7818609E-02  0.8137521E-01
        1   -1    0    0  501    0  0.00000000000E+00  0.00000000000E+00  0.25812737956E+04  0.25812737956E+04  0.50400001928E-02 0. -1.
       -1   -1    0    0    0  501  0.00000000000E+00  0.00000000000E+00 -0.11206368520E+04  0.11206368520E+04  0.50400001928E-02 0.  1.
    10030    2    1    2    0    0  0.00000000000E+00  0.00000000000E+00  0.14606369435E+04  0.37019106476E+04  0.34015705435E+04 0.  0.
        3    1    3    3  502    0 -0.96911950331E+03 -0.45197667557E+03 -0.70902871765E+03  0.12830421893E+04  0.10100000352E+00 0.  1.
       -3    1    3    3    0  502  0.96911950331E+03  0.45197667557E+03  0.21696656612E+04  0.24188684583E+04  0.10100000352E+00 0. -1.
</event>
<event>
 5   0  0.1520084E-07  0.3403453E+04  0.7818609E-02  0.8137059E-01
        1   -1    0    0  501    0  0.00000000000E+00  0.00000000000E+00  0.13481984469E+04  0.13481984469E+04  0.50400001928E-02 0.  1.
       -1   -1    0    0    0  501  0.00000000000E+00  0.00000000000E+00 -0.21479580859E+04  0.21479580859E+04  0.50400001928E-02 0. -1.
    10030    2    1    2    0    0  0.00000000000E+00  0.00000000000E+00 -0.79975963905E+03  0.34961565328E+04  0.34034533965E+04 0.  0.
        2    1    3    3  502    0  0.15707210358E+04  0.63629041118E+02 -0.10692895312E+04  0.19012083864E+04  0.25500000920E-02 0. -1.
       -2    1    3    3    0  502 -0.15707210358E+04 -0.63629041118E+02  0.26952989212E+03  0.15949481464E+04  0.25500000920E-02 0.  1.
</event>
<event>
 5   0  0.1421875E-07  0.3399198E+04  0.7818609E-02  0.8138103E-01
        1   -1    0    0  501    0  0.00000000000E+00  0.00000000000E+00  0.32905258576E+04  0.32905258576E+04  0.50400001928E-02 0.  1.
       -1   -1    0    0    0  501  0.00000000000E+00  0.00000000000E+00 -0.87786495571E+03  0.87786495572E+03  0.50400001928E-02 0. -1.
    10030    2    1    2    0    0  0.00000000000E+00  0.00000000000E+00  0.24126609019E+04  0.41683908133E+04  0.33991983386E+04 0.  0.
        5    1    3    3  502    0  0.15107498018E+04  0.74060028490E+03  0.91160939907E+03  0.19136111235E+04  0.46999998093E+01 0. -1.
       -5    1    3    3    0  502 -0.15107498018E+04 -0.74060028490E+03  0.15010515028E+04  0.22547796898E+04  0.46999998093E+01 0.  1.
</event>
<event>
 5   0  0.4447909E-07  0.3397775E+04  0.7818609E-02  0.8138453E-01
       -2   -1    0    0    0  501  0.00000000000E+00  0.00000000000E+00  0.21239528610E+04  0.21239528610E+04  0.25500000920E-02 0. -1.
        2   -1    0    0  501    0  0.00000000000E+00  0.00000000000E+00 -0.13588904056E+04  0.13588904057E+04  0.25500000920E-02 0.  1.
    10030    2    1    2    0    0  0.00000000000E+00  0.00000000000E+00  0.76506245538E+03  0.34828432667E+04  0.33977752515E+04 0.  0.
        5    1    3    3  502    0  0.54029304866E+02 -0.15265434611E+03 -0.13509548868E+04  0.13606335698E+04  0.46999998093E+01 0.  1.
       -5    1    3    3    0  502 -0.54029304866E+02  0.15265434611E+03  0.21160173422E+04  0.21222096969E+04  0.46999998093E+01 0. -1.
</event>
<event>
 5   0  0.4447909E-07  0.3395670E+04  0.7818609E-02  0.8138970E-01
       -2   -1    0    0    0  501  0.00000000000E+00  0.00000000000E+00  0.13019701422E+04  0.13019701422E+04  0.25500000920E-02 0. -1.
        2   -1    0    0  501    0  0.00000000000E+00  0.00000000000E+00 -0.22140627033E+04  0.22140627033E+04  0.25500000920E-02 0.  1.
    10030    2    1    2    0    0  0.00000000000E+00  0.00000000000E+00 -0.91209256105E+03  0.35160328455E+04  0.33956699090E+04 0.  0.
        5    1    3    3  502    0  0.72512992641E+03 -0.34493480425E+03 -0.20050084476E+04  0.21598320292E+04  0.46999998093E+01 0.  1.
       -5    1    3    3    0  502 -0.72512992641E+03  0.34493480425E+03  0.10929158865E+04  0.13562008164E+04  0.46999998093E+01 0. -1.
</event>
<event>
 5   0  0.4447909E-07  0.3408081E+04  0.7818609E-02  0.8135926E-01
        2   -1    0    0  501    0  0.00000000000E+00  0.00000000000E+00  0.26479718816E+04  0.26479718816E+04  0.25500000920E-02 0. -1.
       -2   -1    0    0    0  501  0.00000000000E+00  0.00000000000E+00 -0.10965957111E+04  0.10965957111E+04  0.25500000920E-02 0.  1.
    10030    2    1    2    0    0  0.00000000000E+00  0.00000000000E+00  0.15513761705E+04  0.37445675928E+04  0.34080813421E+04 0.  0.
        5    1    3    3  502    0 -0.80594248734E+03 -0.71228863544E+02  0.24234619826E+04  0.25549573215E+04  0.46999998093E+01 0. -1.
       -5    1    3    3    0  502  0.80594248734E+03  0.71228863544E+02 -0.87208581201E+03  0.11896102712E+04  0.46999998093E+01 0.  1.
</event>
<event>
 5   0  0.1523259E-07  0.3396200E+04  0.7818609E-02  0.8138840E-01
       -1   -1    0    0    0  501  0.00000000000E+00  0.00000000000E+00  0.13904356036E+04  0.13904356036E+04  0.50400001928E-02 0.  1.
        1   -1    0    0  501    0  0.00000000000E+00  0.00000000000E+00 -0.20738413880E+04  0.20738413880E+04  0.50400001928E-02 0. -1.
    10030    2    1    2    0    0  0.00000000000E+00  0.00000000000E+00 -0.68340578438E+03  0.34642769916E+04  0.33961995831E+04 0.  0.
        4    1    3    3  502    0 -0.12746629704E+04 -0.49244311902E+03  0.68660958747E+03  0.15292809592E+04  0.12699999809E+01 0.  1.
       -4    1    3    3    0  502  0.12746629704E+04  0.49244311902E+03 -0.13700153718E+04  0.19349960324E+04  0.12699999809E+01 0. -1.
</event>
<event>
 5   0  0.4396257E-07  0.3399413E+04  0.7818609E-02  0.8138050E-01
       -2   -1    0    0    0  501  0.00000000000E+00  0.00000000000E+00  0.10563513835E+04  0.10563513835E+04  0.25500000920E-02 0.  1.
        2   -1    0    0  501    0  0.00000000000E+00  0.00000000000E+00 -0.27348871123E+04  0.27348871123E+04  0.25500000920E-02 0. -1.
    10030    2    1    2    0    0  0.00000000000E+00  0.00000000000E+00 -0.16785357288E+04  0.37912384958E+04  0.33994127639E+04 0.  0.
        2    1    3    3  502    0 -0.34726750612E+03  0.22106699390E+03 -0.26784496051E+04  0.27098999287E+04  0.25500000920E-02 0. -1.
       -2    1    3    3    0  502  0.34726750612E+03 -0.22106699390E+03  0.99991387631E+03  0.10813385671E+04  0.25500000920E-02 0.  1.
</event>
<event>
 5   0  0.4381939E-07  0.3401856E+04  0.7818609E-02  0.8137451E-01
        2   -1    0    0  501    0  0.00000000000E+00  0.00000000000E+00  0.22184192680E+04  0.22184192680E+04  0.25500000920E-02 0.  1.
       -2   -1    0    0    0  501  0.00000000000E+00  0.00000000000E+00 -0.13041523035E+04  0.13041523035E+04  0.25500000920E-02 0. -1.
    10030    2    1    2    0    0  0.00000000000E+00  0.00000000000E+00  0.91426696456E+03  0.35225715715E+04  0.34018563159E+04 0.  0.
        3    1    3    3  502    0 -0.43656788550E+03  0.14267114825E+04  0.13028525428E+04  0.19807882096E+04  0.10100000352E+00 0.  1.
       -3    1    3    3    0  502  0.43656788550E+03 -0.14267114825E+04 -0.38858557821E+03  0.15417833618E+04  0.10100000352E+00 0. -1.
</event>
<event>
 5   0  0.1435806E-07  0.3370474E+04  0.7818609E-02  0.8145191E-01
       -1   -1    0    0    0  501  0.00000000000E+00  0.00000000000E+00  0.15348355579E+04  0.15348355579E+04  0.50400001928E-02 0.  1.
        1   -1    0    0  501    0  0.00000000000E+00  0.00000000000E+00 -0.18503764447E+04  0.18503764447E+04  0.50400001928E-02 0. -1.
    10030    2    1    2    0    0  0.00000000000E+00  0.00000000000E+00 -0.31554088686E+03  0.33852120026E+04  0.33704738912E+04 0.  0.
        3    1    3    3  502    0 -0.50197353935E+03 -0.13978486344E+04 -0.95753453820E+03  0.17671532591E+04  0.10100000352E+00 0. -1.
       -3    1    3    3    0  502  0.50197353935E+03  0.13978486344E+04  0.64199365134E+03  0.16180587435E+04  0.10100000352E+00 0.  1.
</event>
<event>
 5   0  0.4381939E-07  0.3384587E+04  0.7818609E-02  0.8141700E-01
       -2   -1    0    0    0  501  0.00000000000E+00  0.00000000000E+00  0.14718176602E+04  0.14718176602E+04  0.25500000920E-02 0.  1.
        2   -1    0    0  501    0  0.00000000000E+00  0.00000000000E+00 -0.19457961117E+04  0.19457961117E+04  0.25500000920E-02 0. -1.
    10030    2    1    2    0    0  0.00000000000E+00  0.00000000000E+00 -0.47397845151E+03  0.34176137719E+04  0.33845868760E+04 0.  0.
        3    1    3    3  502    0  0.22231644943E+03 -0.88449185802E+03  0.12024408088E+04  0.15091767158E+04  0.10100000352E+00 0.  1.
       -3    1    3    3    0  502 -0.22231644943E+03  0.88449185802E+03 -0.16764192603E+04  0.19084370561E+04  0.10100000352E+00 0. -1.
</event>
<event>
 5   0  0.1473755E-07  0.3414555E+04  0.7818609E-02  0.8134343E-01
       -1   -1    0    0    0  501  0.00000000000E+00  0.00000000000E+00  0.26190743350E+04  0.26190743350E+04  0.50400001928E-02 0.  1.
        1   -1    0    0  501    0  0.00000000000E+00  0.00000000000E+00 -0.11129110889E+04  0.11129110889E+04  0.50400001928E-02 0. -1.
    10030    2    1    2    0    0  0.00000000000E+00  0.00000000000E+00  0.15061632461E+04  0.37319854239E+04  0.34145552390E+04 0.  0.
        1    1    3    3  502    0 -0.11649469093E+04  0.10815770034E+04  0.72377673131E+02  0.15912726489E+04  0.50400001928E-02 0.  1.
       -1    1    3    3    0  502  0.11649469093E+04 -0.10815770034E+04  0.14337855730E+04  0.21407127750E+04  0.50400001928E-02 0. -1.
</event>
<event>
 5   0  0.4447909E-07  0.3368873E+04  0.7818609E-02  0.8145588E-01
        2   -1    0    0  501    0  0.00000000000E+00  0.00000000000E+00  0.20224807511E+04  0.20224807511E+04  0.25500000920E-02 0.  1.
       -2   -1    0    0    0  501  0.00000000000E+00  0.00000000000E+00 -0.14028938565E+04  0.14028938565E+04  0.25500000920E-02 0. -1.
    10030    2    1    2    0    0  0.00000000000E+00  0.00000000000E+00  0.61958689463E+03  0.34253746076E+04  0.33688727020E+04 0.  0.
        5    1    3    3  502    0 -0.35620119312E+02 -0.16384225659E+04 -0.86103623526E+02  0.16410768481E+04  0.46999998093E+01 0. -1.
       -5    1    3    3    0  502  0.35620119312E+02  0.16384225659E+04  0.70569051815E+03  0.17842977595E+04  0.46999998093E+01 0.  1.
</event>
<event>
 5   0  0.1435806E-07  0.3398244E+04  0.7818609E-02  0.8138337E-01
        1   -1    0    0  501    0  0.00000000000E+00  0.00000000000E+00  0.18529515526E+04  0.18529515526E+04  0.50400001928E-02 0.  1.
       -1   -1    0    0    0  501  0.00000000000E+00  0.00000000000E+00 -0.15580631309E+04  0.15580631309E+04  0.50400001928E-02 0. -1.
    10030    2    1    2    0    0  0.00000000000E+00  0.00000000000E+00  0.29488842163E+03  0.34110146835E+04  0.33982439568E+04 0.  0.
        3    1    3    3  502    0  0.82274583807E+03  0.22782458338E+03  0.16220466688E+04  0.18329894055E+04  0.10100000352E+00 0.  1.
       -3    1    3    3    0  502 -0.82274583807E+03 -0.22782458338E+03 -0.13271582471E+04  0.15780252780E+04  0.10100000352E+00 0. -1.
</event>
<event>
 5   0  0.4396257E-07  0.3395177E+04  0.7818609E-02  0.8139091E-01
        2   -1    0    0  501    0  0.00000000000E+00  0.00000000000E+00  0.89736022346E+03  0.89736022347E+03  0.25500000920E-02 0. -1.
       -2   -1    0    0    0  501  0.00000000000E+00  0.00000000000E+00 -0.32114264613E+04  0.32114264613E+04  0.25500000920E-02 0.  1.
    10030    2    1    2    0    0  0.00000000000E+00  0.00000000000E+00 -0.23140662378E+04  0.41087866847E+04  0.33951767948E+04 0.  0.
        2    1    3    3  502    0  0.13430898282E+04  0.17860302108E+03 -0.23947479093E+04  0.27514735824E+04  0.25500000920E-02 0.  1.
       -2    1    3    3    0  502 -0.13430898282E+04 -0.17860302108E+03  0.80681671486E+02  0.13573131023E+04  0.25500000920E-02 0. -1.
</event>
<event>
 5   0  0.1421875E-07  0.3406798E+04  0.7818609E-02  0.8136240E-01
       -1   -1    0    0    0  501  0.00000000000E+00  0.00000000000E+00  0.12127308663E+04  0.12127308663E+04  0.50400001928E-02 0. -1.
        1   -1    0    0  501    0  0.00000000000E+00  0.00000000000E+00 -0.23925898462E+04  0.23925898462E+04  0.50400001928E-02 0.  1.
    10030    2    1    2    0    0  0.00000000000E+00  0.00000000000E+00 -0.11798589799E+04  0.36053207125E+04  0.34067976499E+04 0.  0.
        5    1    3    3  502    0  0.42744386454E+03  0.13822545243E+04  0.36146269041E+03  0.14913125742E+04  0.46999998093E+01 0. -1.
       -5    1    3    3    0  502 -0.42744386454E+03 -0.13822545243E+04 -0.15413216703E+04  0.21140081383E+04  0.46999998093E+01 0.  1.
</event>
<event>
 5   0  0.1520084E-07  0.3399386E+04  0.7818609E-02  0.8138057E-01
       -1   -1    0    0    0  501  0.00000000000E+00  0.00000000000E+00  0.17633256392E+04  0.17633256392E+04  0.50400001928E-02 0. -1.
        1   -1    0    0  501    0  0.00000000000E+00  0.00000000000E+00 -0.16383565088E+04  0.16383565088E+04  0.50400001928E-02 0.  1.
    10030    2    1    2    0    0  0.00000000000E+00  0.00000000000E+00  0.12496913041E+03  0.34016821480E+04  0.33993858493E+04 0.  0.
        2    1    3    3  502    0 -0.12926712957E+04  0.70912595225E+03 -0.78372094864E+03  0.16697536406E+04  0.25500000920E-02 0.  1.
       -2    1    3    3    0  502  0.12926712957E+04 -0.70912595225E+03  0.90869007905E+03  0.17319285074E+04  0.25500000920E-02 0. -1.
</event>
<event>
 5   0  0.1421875E-07  0.3410923E+04  0.7818609E-02  0.8135231E-01
       -1   -1    0    0    0  501  0.00000000000E+00  0.00000000000E+00  0.16093107487E+04  0.16093107487E+04  0.50400001928E-02 0. -1.
        1   -1    0    0  501    0  0.00000000000E+00  0.00000000000E+00 -0.18073573748E+04  0.18073573748E+04  0.50400001928E-02 0.  1.
    10030    2    1    2    0    0  0.00000000000E+00  0.00000000000E+00 -0.19804662606E+03  0.34166681235E+04  0.34109234234E+04 0.  0.
        5    1    3    3  502    0  0.76419297082E+03  0.10138855746E+04  0.10415879022E+04  0.16422187135E+04  0.46999998093E+01 0. -1.
       -5    1    3    3    0  502 -0.76419297082E+03 -0.10138855746E+04 -0.12396345283E+04  0.17744494100E+04  0.46999998093E+01 0.  1.
</event>
<event>
 5   0  0.4447909E-07  0.3389257E+04  0.7818609E-02  0.8140548E-01
        2   -1    0    0  501    0  0.00000000000E+00  0.00000000000E+00  0.30278009782E+04  0.30278009782E+04  0.25500000920E-02 0. -1.
       -2   -1    0    0    0  501  0.00000000000E+00  0.00000000000E+00 -0.94846609614E+03  0.94846609614E+03  0.25500000920E-02 0.  1.
    10030    2    1    2    0    0  0.00000000000E+00  0.00000000000E+00  0.20793348821E+04  0.39762670744E+04  0.33892574843E+04 0.  0.
        5    1    3    3  502    0 -0.16267704850E+04  0.25997094831E+02  0.48355911246E+03  0.16973242369E+04  0.46999998093E+01 0.  1.
       -5    1    3    3    0  502  0.16267704850E+04 -0.25997094831E+02  0.15957757696E+04  0.22789428375E+04  0.46999998093E+01 0. -1.
</event>
<event>
 5   0  0.1421875E-07  0.3392437E+04  0.7818609E-02  0.8139765E-01
       -1   -1    0    0    0  501  0.00000000000E+00  0.00000000000E+00  0.13732505819E+04  0.13732505819E+04  0.50400001928E-02 0. -1.
        1   -1    0    0  501    0  0.00000000000E+00  0.00000000000E+00 -0.20951437313E+04  0.20951437313E+04  0.50400001928E-02 0.  1.
    10030    2    1    2    0    0  0.00000000000E+00  0.00000000000E+00 -0.72189314941E+03  0.34683943132E+04  0.33924370875E+04 0.  0.
        5    1    3    3  502    0  0.12196657362E+04 -0.34908341845E+02 -0.15656034252E+04  0.19849280278E+04  0.46999998093E+01 0.  1.
       -5    1    3    3    0  502 -0.12196657362E+04  0.34908341845E+02  0.84371027582E+03  0.14834662854E+04  0.46999998093E+01 0. -1.
</event>
<event>
 5   0  0.4486226E-07  0.3408336E+04  0.7818609E-02  0.8135863E-01
       -2   -1    0    0    0  501  0.00000000000E+00  0.00000000000E+00  0.19829874319E+04  0.19829874319E+04  0.25500000920E-02 0. -1.
        2   -1    0    0  501    0  0.00000000000E+00  0.00000000000E+00 -0.14645525326E+04  0.14645525326E+04  0.25500000920E-02 0.  1.
    10030    2    1    2    0    0  0.00000000000E+00  0.00000000000E+00  0.51843489934E+03  0.34475399645E+04  0.34083364068E+04 0.  0.
        1    1    3    3  502    0  0.93575672241E+02 -0.38114117637E+03 -0.14182193751E+04  0.14715200300E+04  0.50400001928E-02 0.  1.
       -1    1    3    3    0  502 -0.93575672241E+02  0.38114117637E+03  0.19366542744E+04  0.19760199345E+04  0.50400001928E-02 0. -1.
</event>
<event>
 5   0  0.4447909E-07  0.3395807E+04  0.7818609E-02  0.8138936E-01
        2   -1    0    0  501    0  0.00000000000E+00  0.00000000000E+00  0.11757247437E+04  0.11757247437E+04  0.25500000920E-02 0.  1.
       -2   -1    0    0    0  501  0.00000000000E+00  0.00000000000E+00 -0.24519994416E+04  0.24519994416E+04  0.25500000920E-02 0. -1.
    10030    2    1    2    0    0  0.00000000000E+00  0.00000000000E+00 -0.12762746979E+04  0.36277241853E+04  0.33958070705E+04 0.  0.
        5    1    3    3  502    0  0.10589290828E+04  0.37241013129E+03  0.72276928193E+03  0.13350796355E+04  0.46999998093E+01 0.  1.
       -5    1    3    3    0  502 -0.10589290828E+04 -0.37241013129E+03 -0.19990439798E+04  0.22926445498E+04  0.46999998093E+01 0. -1.
</event>
<event>
 5   0  0.4447909E-07  0.3408167E+04  0.7818609E-02  0.8135905E-01
       -2   -1    0    0    0  501  0.00000000000E+00  0.00000000000E+00  0.10892976887E+04  0.10892976887E+04  0.25500000920E-02 0. -1.
        2   -1    0    0  501    0  0.00000000000E+00  0.00000000000E+00 -0.26658461764E+04  0.26658461764E+04  0.25500000920E-02 0.  1.
    10030    2    1    2    0    0  0.00000000000E+00  0.00000000000E+00 -0.15765484877E+04  0.37551438651E+04  0.34081667086E+04 0.  0.
        5    1    3    3  502    0  0.95604728345E+03  0.62635953656E+03  0.60433612404E+03  0.12929025168E+04  0.46999998093E+01 0. -1.
       -5    1    3    3    0  502 -0.95604728345E+03 -0.62635953656E+03 -0.21808846118E+04  0.24622413483E+04  0.46999998093E+01 0.  1.
</event>
<event>
 5   0  0.1421875E-07  0.3391274E+04  0.7818609E-02  0.8140051E-01
       -1   -1    0    0    0  501  0.00000000000E+00  0.00000000000E+00  0.17034858904E+04  0.17034858904E+04  0.50400001928E-02 0.  1.
        1   -1    0    0  501    0  0.00000000000E+00  0.00000000000E+00 -0.16878246223E+04  0.16878246223E+04  0.50400001928E-02 0. -1.
    10030    2    1    2    0    0  0.00000000000E+00  0.00000000000E+00  0.15661268023E+02  0.33913105127E+04  0.33912743502E+04 0.  0.
        5    1    3    3  502    0 -0.12192737418E+04 -0.10502195692E+04  0.54222733023E+03  0.16981231312E+04  0.46999998093E+01 0.  1.
       -5    1    3    3    0  502  0.12192737418E+04  0.10502195692E+04 -0.52656606221E+03  0.16931873815E+04  0.46999998093E+01 0. -1.
</event>
<event>
 5   0  0.1421875E-07  0.3374412E+04  0.7818609E-02  0.8144215E-01
        1   -1    0    0  501    0  0.00000000000E+00  0.00000000000E+00  0.30179215799E+04  0.30179215799E+04  0.50400001928E-02 0. -1.
       -1   -1    0    0    0  501  0.00000000000E+00  0.00000000000E+00 -0.94325315310E+03  0.94325315311E+03  0.50400001928E-02 0.  1.
    10030    2    1    2    0    0  0.00000000000E+00  0.00000000000E+00  0.20746684268E+04  0.39611747330E+04  0.33744119761E+04 0.  0.
        5    1    3    3  502    0 -0.10380672991E+04  0.75911436827E+03  0.23194001741E+04  0.26520704363E+04  0.46999998093E+01 0.  1.
       -5    1    3    3    0  502  0.10380672991E+04 -0.75911436827E+03 -0.24473174728E+03  0.13091042967E+04  0.46999998093E+01 0. -1.
</event>
<event>
 5   0  0.4447909E-07  0.3386165E+04  0.7818609E-02  0.8141310E-01
        2   -1    0    0  501    0  0.00000000000E+00  0.00000000000E+00  0.16230471822E+04  0.16230471822E+04  0.25500000920E-02 0. -1.
       -2   -1    0    0    0  501  0.00000000000E+00  0.00000000000E+00 -0.17661395061E+04  0.17661395061E+04  0.25500000920E-02 0.  1.
    10030    2    1    2    0    0  0.00000000000E+00  0.00000000000E+00 -0.14309232393E+03  0.33891866884E+04  0.33861646439E+04 0.  0.
        5    1    3    3  502    0 -0.58494102494E+03 -0.80148936001E+03  0.13015252667E+04  0.16366219193E+04  0.46999998093E+01 0. -1.
       -5    1    3    3    0  502  0.58494102494E+03  0.80148936001E+03 -0.14446175906E+04  0.17525647691E+04  0.46999998093E+01 0.  1.
</event>
<event>
 5   0  0.1523259E-07  0.3399679E+04  0.7818609E-02  0.8137985E-01
        1   -1    0    0  501    0  0.00000000000E+00  0.00000000000E+00  0.18698008339E+04  0.18698008339E+04  0.50400001928E-02 0.  1.
       -1   -1    0    0    0  501  0.00000000000E+00  0.00000000000E+00 -0.15453274704E+04  0.15453274704E+04  0.50400001928E-02 0. -1.
    10030    2    1    2    0    0  0.00000000000E+00  0.00000000000E+00  0.32447336349E+03  0.34151283043E+04  0.33996791571E+04 0.  0.
        4    1    3    3  502    0  0.28766975846E+03  0.23272973207E+03  0.18288528576E+04  0.18659103424E+04  0.12699999809E+01 0.  1.
       -4    1    3    3    0  502 -0.28766975846E+03 -0.23272973207E+03 -0.15043794941E+04  0.15492179619E+04  0.12699999809E+01 0. -1.
</event>
<event>
 5   0  0.4486226E-07  0.3405125E+04  0.7818609E-02  0.8136650E-01
        2   -1    0    0  501    0  0.00000000000E+00  0.00000000000E+00  0.28984709463E+04  0.28984709463E+04  0.25500000920E-02 0. -1.
       -2   -1    0    0    0  501  0.00000000000E+00  0.00000000000E+00 -0.10000853558E+04  0.10000853558E+04  0.25500000920E-02 0.  1.
    10030    2    1    2    0    0  0.00000000000E+00  0.00000000000E+00  0.18983855905E+04  0.38985563021E+04  0.34051245779E+04 0.  0.
        1    1    3    3  502    0  0.50644819948E+02 -0.16254550184E+04  0.15262646860E+04  0.22302808806E+04  0.50400001928E-02 0. -1.
       -1    1    3    3    0  502 -0.50644819948E+02  0.16254550184E+04  0.37212090452E+03  0.16682754216E+04  0.50400001928E-02 0.  1.
</event>
<event>
 5   0  0.1421875E-07  0.3402979E+04  0.7818609E-02  0.8137176E-01
        1   -1    0    0  501    0  0.00000000000E+00  0.00000000000E+00  0.15675989263E+04  0.15675989263E+04  0.50400001928E-02 0. -1.
       -1   -1    0    0    0  501  0.00000000000E+00  0.00000000000E+00 -0.18468160330E+04  0.18468160330E+04  0.50400001928E-02 0.  1.
    10030    2    1    2    0    0  0.00000000000E+00  0.00000000000E+00 -0.27921710663E+03  0.34144149593E+04  0.34029791833E+04 0.  0.
        5    1    3    3  502    0  0.16562036515E+04  0.12928245203E+03  0.22948665580E+03  0.16770243597E+04  0.46999998093E+01 0. -1.
       -5    1    3    3    0  502 -0.16562036515E+04 -0.12928245203E+03 -0.50870376244E+03  0.17373905996E+04  0.46999998093E+01 0.  1.
</event>
<event>
 5   0  0.1473755E-07  0.3398166E+04  0.7818609E-02  0.8138357E-01
        1   -1    0    0  501    0  0.00000000000E+00  0.00000000000E+00  0.20682788025E+04  0.20682788025E+04  0.50400001928E-02 0.  1.
       -1   -1    0    0    0  501  0.00000000000E+00  0.00000000000E+00 -0.13957903064E+04  0.13957903064E+04  0.50400001928E-02 0. -1.
    10030    2    1    2    0    0  0.00000000000E+00  0.00000000000E+00  0.67248849613E+03  0.34640691089E+04  0.33981662723E+04 0.  0.
        1    1    3    3  502    0  0.88907101968E+03  0.40695795295E+03  0.17527325102E+04  0.20070210028E+04  0.50400001928E-02 0.  1.
       -1    1    3    3    0  502 -0.88907101968E+03 -0.40695795295E+03 -0.10802440141E+04  0.14570481061E+04  0.50400001928E-02 0. -1.
</event>
<event>
 5   0  0.1473755E-07  0.3281030E+04  0.7818609E-02  0.8167739E-01
       -1   -1    0    0    0  501  0.00000000000E+00  0.00000000000E+00  0.14366005442E+04  0.14366005442E+04  0.50400001928E-02 0. -1.
        1   -1    0    0  501    0  0.00000000000E+00  0.00000000000E+00 -0.18733734119E+04  0.18733734119E+04  0.50400001928E-02 0.  1.
    10030    2    1    2    0    0  0.00000000000E+00  0.00000000000E+00 -0.43677286770E+03  0.33099739561E+04  0.32810298768E+04 0.  0.
        1    1    3    3  502    0  0.19555967662E+03  0.10206964388E+03 -0.18583430665E+04  0.18713900588E+04  0.50400001928E-02 0.  1.
       -1    1    3    3    0  502 -0.19555967662E+03 -0.10206964388E+03  0.14215701988E+04  0.14385838973E+04  0.50400001928E-02 0. -1.
</event>
<event>
 5   0  0.1523259E-07  0.3401741E+04  0.7818609E-02  0.8137479E-01
        1   -1    0    0  501    0  0.00000000000E+00  0.00000000000E+00  0.23116637525E+04  0.23116637525E+04  0.50400001928E-02 0. -1.
       -1   -1    0    0    0  501  0.00000000000E+00  0.00000000000E+00 -0.12514622340E+04  0.12514622340E+04  0.50400001928E-02 0.  1.
    10030    2    1    2    0    0  0.00000000000E+00  0.00000000000E+00  0.10602015185E+04  0.35631259865E+04  0.34017406627E+04 0.  0.
        4    1    3    3  502    0 -0.12528444454E+04 -0.22733804676E+03 -0.65107596783E+03  0.14301060522E+04  0.12699999809E+01 0.  1.
       -4    1    3    3    0  502  0.12528444454E+04  0.22733804676E+03  0.17112774863E+04  0.21330199343E+04  0.12699999809E+01 0. -1.
</event>
<event>
 5   0  0.4521737E-07  0.3396960E+04  0.7818609E-02  0.8138653E-01
        2   -1    0    0  501    0  0.00000000000E+00  0.00000000000E+00  0.95956571812E+03  0.95956571812E+03  0.25500000920E-02 0. -1.
       -2   -1    0    0    0  501  0.00000000000E+00  0.00000000000E+00 -0.30063957133E+04  0.30063957133E+04  0.25500000920E-02 0.  1.
    10030    2    1    2    0    0  0.00000000000E+00  0.00000000000E+00 -0.20468299952E+04  0.39659614314E+04  0.33969599713E+04 0.  0.
        4    1    3    3  502    0 -0.46789369340E+03 -0.12648802236E+04  0.18199236628E+03  0.13608707957E+04  0.12699999809E+01 0. -1.
       -4    1    3    3    0  502  0.46789369340E+03  0.12648802236E+04 -0.22288223614E+04  0.26050906357E+04  0.12699999809E+01 0.  1.
</event>
<event>
 5   0  0.4381939E-07  0.3383392E+04  0.7818609E-02  0.8141995E-01
       -2   -1    0    0    0  501  0.00000000000E+00  0.00000000000E+00  0.14389624177E+04  0.14389624177E+04  0.25500000920E-02 0. -1.
        2   -1    0    0  501    0  0.00000000000E+00  0.00000000000E+00 -0.19888181063E+04  0.19888181063E+04  0.25500000920E-02 0.  1.
    10030    2    1    2    0    0  0.00000000000E+00  0.00000000000E+00 -0.54985568866E+03  0.34277805240E+04  0.33833915000E+04 0.  0.
        3    1    3    3  502    0  0.10453368745E+04  0.10426990527E+04  0.56166858099E+03  0.15796905079E+04  0.10100000352E+00 0. -1.
       -3    1    3    3    0  502 -0.10453368745E+04 -0.10426990527E+04 -0.11115242696E+04  0.18480900161E+04  0.10100000352E+00 0.  1.
</event>
<event>
 5   0  0.1473755E-07  0.3396095E+04  0.7818609E-02  0.8138865E-01
        1   -1    0    0  501    0  0.00000000000E+00  0.00000000000E+00  0.24347612881E+04  0.24347612881E+04  0.50400001928E-02 0. -1.
       -1   -1    0    0    0  501  0.00000000000E+00  0.00000000000E+00 -0.11842497329E+04  0.11842497329E+04  0.50400001928E-02 0.  1.
    10030    2    1    2    0    0  0.00000000000E+00  0.00000000000E+00  0.12505115551E+04  0.36190110210E+04  0.33960950547E+04 0.  0.
        1    1    3    3  502    0  0.97361009192E+03 -0.35516413377E+03  0.20586519084E+04  0.23048006103E+04  0.50400001928E-02 0. -1.
       -1    1    3    3    0  502 -0.97361009192E+03  0.35516413377E+03 -0.80814035328E+03  0.13142104107E+04  0.50400001928E-02 0.  1.
</event>
<event>
 5   0  0.4447909E-07  0.3397245E+04  0.7818609E-02  0.8138583E-01
        2   -1    0    0  501    0  0.00000000000E+00  0.00000000000E+00  0.16528143669E+04  0.16528143669E+04  0.25500000920E-02 0. -1.
       -2   -1    0    0    0  501  0.00000000000E+00  0.00000000000E+00 -0.17457000070E+04  0.17457000070E+04  0.25500000920E-02 0.  1.
    10030    2    1    2    0    0  0.00000000000E+00  0.00000000000E+00 -0.92885640063E+02  0.33985143739E+04  0.33972447965E+04 0.  0.
        5    1    3    3  502    0  0.13198475810E+04  0.16730180543E+03  0.10100334863E+04  0.16703823708E+04  0.46999998093E+01 0. -1.
       -5    1    3    3    0  502 -0.13198475810E+04 -0.16730180543E+03 -0.11029191263E+04  0.17281320032E+04  0.46999998093E+01 0.  1.
</event>
<event>
 5   0  0.4381939E-07  0.3395349E+04  0.7818609E-02  0.8139049E-01
        2   -1    0    0  501    0  0.00000000000E+00  0.00000000000E+00  0.16873203714E+04  0.16873203714E+04  0.25500000920E-02 0.  1.
       -2   -1    0    0    0  501  0.00000000000E+00  0.00000000000E+00 -0.17080925536E+04  0.17080925536E+04  0.25500000920E-02 0. -1.
    10030    2    1    2    0    0  0.00000000000E+00  0.00000000000E+00 -0.20772182180E+02  0.33954129250E+04  0.33953493852E+04 0.  0.
        3    1    3    3  502    0 -0.10959223239E+04 -0.73493846295E+03 -0.10785442112E+04  0.17042411537E+04  0.10100000352E+00 0. -1.
       -3    1    3    3    0  502  0.10959223239E+04  0.73493846295E+03  0.10577720290E+04  0.16911717713E+04  0.10100000352E+00 0.  1.
</event>
<event>
 5   0  0.4521737E-07  0.3397623E+04  0.7818609E-02  0.8138490E-01
        2   -1    0    0  501    0  0.00000000000E+00  0.00000000000E+00  0.21339295873E+04  0.21339295873E+04  0.25500000920E-02 0.  1.
       -2   -1    0    0    0  501  0.00000000000E+00  0.00000000000E+00 -0.13524163443E+04  0.13524163443E+04  0.25500000920E-02 0. -1.
    10030    2    1    2    0    0  0.00000000000E+00  0.00000000000E+00  0.78151324305E+03  0.34863459316E+04  0.33976234350E+04 0.  0.
        4    1    3    3  502    0  0.79609625384E+03 -0.47687559390E+03  0.18508618693E+04  0.20704759959E+04  0.12699999809E+01 0.  1.
       -4    1    3    3    0  502 -0.79609625384E+03  0.47687559390E+03 -0.10693486263E+04  0.14158699357E+04  0.12699999809E+01 0. -1.
</event>
<event>
 5   0  0.4396257E-07  0.3404878E+04  0.7818609E-02  0.8136710E-01
        2   -1    0    0  501    0  0.00000000000E+00  0.00000000000E+00  0.16196795133E+04  0.16196795133E+04  0.25500000920E-02 0. -1.
       -2   -1    0    0    0  501  0.00000000000E+00  0.00000000000E+00 -0.17894268638E+04  0.17894268638E+04  0.25500000920E-02 0.  1.
    10030    2    1    2    0    0  0.00000000000E+00  0.00000000000E+00 -0.16974735049E+03  0.34091063771E+04  0.34048776964E+04 0.  0.
        2    1    3    3  502    0  0.13019044664E+04  0.70850366741E+03  0.75364200474E+03  0.16628015389E+04  0.25500000920E-02 0. -1.
       -2    1    3    3    0  502 -0.13019044664E+04 -0.70850366741E+03 -0.92338935523E+03  0.17463048382E+04  0.25500000920E-02 0.  1.
</event>
<event>
 5   0  0.4396257E-07  0.3398031E+04  0.7818609E-02  0.8138390E-01
        2   -1    0    0  501    0  0.00000000000E+00  0.00000000000E+00  0.11538359218E+04  0.11538359218E+04  0.25500000920E-02 0.  1.
       -2   -1    0    0    0  501  0.00000000000E+00  0.00000000000E+00 -0.25017885829E+04  0.25017885829E+04  0.25500000920E-02 0. -1.
    10030    2    1    2    0    0  0.00000000000E+00  0.00000000000E+00 -0.13479526611E+04  0.36556245047E+04  0.33980309214E+04 0.  0.
        2    1    3    3  502    0  0.11446636873E+04  0.38856094194E+03 -0.19583917804E+04  0.23014197635E+04  0.25500000920E-02 0. -1.
       -2    1    3    3    0  502 -0.11446636873E+04 -0.38856094194E+03  0.61043911928E+03  0.13542047411E+04  0.25500000920E-02 0.  1.
</event>
<event>
 5   0  0.4396257E-07  0.3404839E+04  0.7818609E-02  0.8136720E-01
        2   -1    0    0  501    0  0.00000000000E+00  0.00000000000E+00  0.14270549884E+04  0.14270549884E+04  0.25500000920E-02 0. -1.
       -2   -1    0    0    0  501  0.00000000000E+00  0.00000000000E+00 -0.20309181007E+04  0.20309181007E+04  0.25500000920E-02 0.  1.
    10030    2    1    2    0    0  0.00000000000E+00  0.00000000000E+00 -0.60386311239E+03  0.34579730891E+04  0.34048387960E+04 0.  0.
        2    1    3    3  502    0 -0.16853833722E+04  0.19515072470E+03 -0.44422832882E+03  0.17538357177E+04  0.25500000920E-02 0.  1.
       -2    1    3    3    0  502  0.16853833722E+04 -0.19515072470E+03 -0.15963478358E+03  0.17041373714E+04  0.25500000920E-02 0. -1.
</event>
<event>
 5   0  0.4381939E-07  0.3402244E+04  0.7818609E-02  0.8137356E-01
        2   -1    0    0  501    0  0.00000000000E+00  0.00000000000E+00  0.27872412849E+04  0.27872412849E+04  0.25500000920E-02 0.  1.
       -2   -1    0    0    0  501  0.00000000000E+00  0.00000000000E+00 -0.10382365639E+04  0.10382365639E+04  0.25500000920E-02 0. -1.
    10030    2    1    2    0    0  0.00000000000E+00  0.00000000000E+00  0.17490047210E+04  0.38254778489E+04  0.34022438563E+04 0.  0.
        3    1    3    3  502    0 -0.11604652681E+04 -0.39403796989E+03 -0.45203543479E+03  0.13062471453E+04  0.10100000352E+00 0. -1.
       -3    1    3    3    0  502  0.11604652681E+04  0.39403796989E+03  0.22010401558E+04  0.25192307036E+04  0.10100000352E+00 0.  1.
</event>
<event>
 5   0  0.4521737E-07  0.3400681E+04  0.7818609E-02  0.8137739E-01
       -2   -1    0    0    0  501  0.00000000000E+00  0.00000000000E+00  0.16906561862E+04  0.16906561862E+04  0.25500000920E-02 0. -1.
        2   -1    0    0  501    0  0.00000000000E+00  0.00000000000E+00 -0.17100798567E+04  0.17100798567E+04  0.25500000920E-02 0.  1.
    10030    2    1    2    0    0  0.00000000000E+00  0.00000000000E+00 -0.19423670456E+02  0.34007360430E+04  0.34006805723E+04 0.  0.
        4    1    3    3  502    0 -0.82227542231E+03  0.17157318273E+03 -0.14881070970E+04  0.17088120354E+04  0.12699999809E+01 0.  1.
       -4    1    3    3    0  502  0.82227542231E+03 -0.17157318273E+03  0.14686834265E+04  0.16919240076E+04  0.12699999809E+01 0. -1.
</event>
<event>
 5   0  0.4486226E-07  0.3409703E+04  0.7818609E-02  0.8135529E-01
       -2   -1    0    0    0  501  0.00000000000E+00  0.00000000000E+00  0.16185588518E+04  0.16185588518E+04  0.25500000920E-02 0.  1.
        2   -1    0    0  501    0  0.00000000000E+00  0.00000000000E+00 -0.17957443618E+04  0.17957443618E+04  0.25500000920E-02 0. -1.
    10030    2    1    2    0    0  0.00000000000E+00  0.00000000000E+00 -0.17718550995E+03  0.34143032136E+04  0.34097025866E+04 0.  0.
        1    1    3    3  502    0  0.66009389923E+03 -0.10322989616E+03 -0.16591916372E+04  0.17886579483E+04  0.50400001928E-02 0. -1.
       -1    1    3    3    0  502 -0.66009389923E+03  0.10322989616E+03  0.14820061272E+04  0.16256452652E+04  0.50400001928E-02 0.  1.
</event>
<event>
 5   0  0.1473755E-07  0.3406908E+04  0.7818609E-02  0.8136213E-01
       -1   -1    0    0    0  501  0.00000000000E+00  0.00000000000E+00  0.15835025623E+04  0.15835025623E+04  0.50400001928E-02 0. -1.
        1   -1    0    0  501    0  0.00000000000E+00  0.00000000000E+00 -0.18324922456E+04  0.18324922456E+04  0.50400001928E-02 0.  1.
    10030    2    1    2    0    0  0.00000000000E+00  0.00000000000E+00 -0.24898968327E+03  0.34159948079E+04  0.34069083735E+04 0.  0.
        1    1    3    3  502    0 -0.12375947241E+04  0.11703763345E+04 -0.10615121614E+03  0.17066603488E+04  0.50400001928E-02 0. -1.
       -1    1    3    3    0  502  0.12375947241E+04 -0.11703763345E+04 -0.14283846713E+03  0.17093344591E+04  0.50400001928E-02 0.  1.
</event>
<event>
 5   0  0.1435806E-07  0.3398519E+04  0.7818609E-02  0.8138270E-01
        1   -1    0    0  501    0  0.00000000000E+00  0.00000000000E+00  0.26875699957E+04  0.26875699957E+04  0.50400001928E-02 0.  1.
       -1   -1    0    0    0  501  0.00000000000E+00  0.00000000000E+00 -0.10743841058E+04  0.10743841058E+04  0.50400001928E-02 0. -1.
    10030    2    1    2    0    0  0.00000000000E+00  0.00000000000E+00  0.16131858899E+04  0.37619541015E+04  0.33985187872E+04 0.  0.
        3    1    3    3  502    0  0.14028233812E+04  0.95329513159E+03  0.69157012555E+03  0.18316534322E+04  0.10100000352E+00 0. -1.
       -3    1    3    3    0  502 -0.14028233812E+04 -0.95329513159E+03  0.92161576438E+03  0.19303006694E+04  0.10100000352E+00 0.  1.
</event>
<event>
 5   0  0.1473755E-07  0.3400927E+04  0.7818609E-02  0.8137679E-01
       -1   -1    0    0    0  501  0.00000000000E+00  0.00000000000E+00  0.13198294598E+04  0.13198294598E+04  0.50400001928E-02 0.  1.
        1   -1    0    0  501    0  0.00000000000E+00  0.00000000000E+00 -0.21908703979E+04  0.21908703979E+04  0.50400001928E-02 0. -1.
    10030    2    1    2    0    0  0.00000000000E+00  0.00000000000E+00 -0.87104093807E+03  0.35106998577E+04  0.34009265171E+04 0.  0.
        1    1    3    3  502    0  0.19194310802E+03 -0.86012286233E+03 -0.19367379402E+04  0.21278175072E+04  0.50400001928E-02 0. -1.
       -1    1    3    3    0  502 -0.19194310802E+03  0.86012286233E+03  0.10656970021E+04  0.13828823505E+04  0.50400001928E-02 0.  1.
</event>
<event>
 5   0  0.4521737E-07  0.3354201E+04  0.7818609E-02  0.8149239E-01
       -2   -1    0    0    0  501  0.00000000000E+00  0.00000000000E+00  0.15691679689E+04  0.15691679689E+04  0.25500000920E-02 0. -1.
        2   -1    0    0  501    0  0.00000000000E+00  0.00000000000E+00 -0.17924566684E+04  0.17924566684E+04  0.25500000920E-02 0.  1.
    10030    2    1    2    0    0  0.00000000000E+00  0.00000000000E+00 -0.22328869955E+03  0.33616246373E+04  0.33542007034E+04 0.  0.
        4    1    3    3  502    0  0.13089449304E+04 -0.83841595538E+03 -0.74262963827E+03  0.17227241618E+04  0.12699999809E+01 0.  1.
       -4    1    3    3    0  502 -0.13089449304E+04  0.83841595538E+03  0.51934093871E+03  0.16389004755E+04  0.12699999809E+01 0. -1.
</event>
<event>
 5   0  0.4396257E-07  0.3470775E+04  0.7818609E-02  0.8120751E-01
       -2   -1    0    0    0  501  0.00000000000E+00  0.00000000000E+00  0.14671352391E+04  0.14671352391E+04  0.25500000920E-02 0.  1.
        2   -1    0    0  501    0  0.00000000000E+00  0.00000000000E+00 -0.20526873455E+04  0.20526873455E+04  0.25500000920E-02 0. -1.
    10030    2    1    2    0    0  0.00000000000E+00  0.00000000000E+00 -0.58555210637E+03  0.35198225846E+04  0.34707750947E+04 0.  0.
        2    1    3    3  502    0 -0.16151135230E+03  0.98584548185E+03  0.11462879707E+04  0.15205108822E+04  0.25500000920E-02 0.  1.
       -2    1    3    3    0  502  0.16151135230E+03 -0.98584548185E+03 -0.17318400771E+04  0.19993117024E+04  0.25500000920E-02 0. -1.
</event>
<event>
 5   0  0.4396257E-07  0.3381716E+04  0.7818609E-02  0.8142408E-01
       -2   -1    0    0    0  501  0.00000000000E+00  0.00000000000E+00  0.13123777174E+04  0.13123777174E+04  0.25500000920E-02 0. -1.
        2   -1    0    0  501    0  0.00000000000E+00  0.00000000000E+00 -0.21784895069E+04  0.21784895069E+04  0.25500000920E-02 0.  1.
    10030    2    1    2    0    0  0.00000000000E+00  0.00000000000E+00 -0.86611178949E+03  0.34908672242E+04  0.33817161834E+04 0.  0.
        2    1    3    3  502    0  0.44663987873E+03  0.36814968001E+03  0.12069261951E+04  0.13385410747E+04  0.25500000920E-02 0. -1.
       -2    1    3    3    0  502 -0.44663987873E+03 -0.36814968001E+03 -0.20730379846E+04  0.21523261495E+04  0.25500000920E-02 0.  1.
</event>
<event>
 5   0  0.4486226E-07  0.3346618E+04  0.7818609E-02  0.8151134E-01
       -2   -1    0    0    0  501  0.00000000000E+00  0.00000000000E+00  0.11808245269E+04  0.11808245270E+04  0.25500000920E-02 0.  1.
        2   -1    0    0  501    0  0.00000000000E+00  0.00000000000E+00 -0.23711932772E+04  0.23711932772E+04  0.25500000920E-02 0. -1.
    10030    2    1    2    0    0  0.00000000000E+00  0.00000000000E+00 -0.11903687502E+04  0.35520178041E+04  0.33466181018E+04 0.  0.
        1    1    3    3  502    0  0.13736616801E+04  0.70415982477E+03  0.90348813089E+02  0.15462698271E+04  0.50400001928E-02 0.  1.
       -1    1    3    3    0  502 -0.13736616801E+04 -0.70415982477E+03 -0.12807175633E+04  0.20057479770E+04  0.50400001928E-02 0. -1.
</event>
<event>
 5   0  0.4447909E-07  0.3410428E+04  0.7818609E-02  0.8135352E-01
        2   -1    0    0  501    0  0.00000000000E+00  0.00000000000E+00  0.19905639717E+04  0.19905639717E+04  0.25500000920E-02 0.  1.
       -2   -1    0    0    0  501  0.00000000000E+00  0.00000000000E+00 -0.14607691267E+04  0.14607691267E+04  0.25500000920E-02 0. -1.
    10030    2    1    2    0    0  0.00000000000E+00  0.00000000000E+00  0.52979484494E+03  0.34513330984E+04  0.34104277706E+04 0.  0.
        5    1    3    3  502    0  0.57437309314E+03  0.13040863021E+04  0.12127134691E+04  0.18711604906E+04  0.46999998093E+01 0.  1.
       -5    1    3    3    0  502 -0.57437309314E+03 -0.13040863021E+04 -0.68291862416E+03  0.15801726078E+04  0.46999998093E+01 0. -1.
</event>
<event>
 5   0  0.1520084E-07  0.3403344E+04  0.7818609E-02  0.8137086E-01
        1   -1    0    0  501    0  0.00000000000E+00  0.00000000000E+00  0.20179948987E+04  0.20179948987E+04  0.50400001928E-02 0.  1.
       -1   -1    0    0    0  501  0.00000000000E+00  0.00000000000E+00 -0.14349332037E+04  0.14349332037E+04  0.50400001928E-02 0. -1.
    10030    2    1    2    0    0  0.00000000000E+00  0.00000000000E+00  0.58306169505E+03  0.34529281024E+04  0.34033441701E+04 0.  0.
        2    1    3    3  502    0 -0.15538715673E+04 -0.36696322530E+03 -0.30569547771E+03  0.16256163697E+04  0.25500000920E-02 0. -1.
       -2    1    3    3    0  502  0.15538715673E+04  0.36696322530E+03  0.88875717276E+03  0.18273117327E+04  0.25500000920E-02 0.  1.
</event>
<event>
 5   0  0.1435806E-07  0.3396689E+04  0.7818609E-02  0.8138719E-01
       -1   -1    0    0    0  501  0.00000000000E+00  0.00000000000E+00  0.18067931858E+04  0.18067931858E+04  0.50400001928E-02 0. -1.
        1   -1    0    0  501    0  0.00000000000E+00  0.00000000000E+00 -0.15964055865E+04  0.15964055865E+04  0.50400001928E-02 0.  1.
    10030    2    1    2    0    0  0.00000000000E+00  0.00000000000E+00  0.21038759925E+03  0.34031987723E+04  0.33966894091E+04 0.  0.
        3    1    3    3  502    0  0.16882697925E+04  0.16974443380E+03  0.17818023066E+03  0.17061114470E+04  0.10100000352E+00 0.  1.
       -3    1    3    3    0  502 -0.16882697925E+04 -0.16974443380E+03  0.32207368595E+02  0.16970873253E+04  0.10100000352E+00 0. -1.
</event>
<event>
 5   0  0.1473755E-07  0.3406087E+04  0.7818609E-02  0.8136414E-01
        1   -1    0    0  501    0  0.00000000000E+00  0.00000000000E+00  0.17581561534E+04  0.17581561534E+04  0.50400001928E-02 0.  1.
       -1   -1    0    0    0  501  0.00000000000E+00  0.00000000000E+00 -0.16496582049E+04  0.16496582049E+04  0.50400001928E-02 0. -1.
    10030    2    1    2    0    0  0.00000000000E+00  0.00000000000E+00  0.10849794852E+03  0.34078143583E+04  0.34060867423E+04 0.  0.
        1    1    3    3  502    0  0.14491840691E+04 -0.77308881645E+03  0.50453940303E+03  0.17182435199E+04  0.50400001928E-02 0. -1.
       -1    1    3    3    0  502 -0.14491840691E+04  0.77308881645E+03 -0.39604145451E+03  0.16895708384E+04  0.50400001928E-02 0.  1.
</event>
<event>
 5   0  0.1520084E-07  0.3399625E+04  0.7818609E-02  0.8137998E-01
        1   -1    0    0  501    0  0.00000000000E+00  0.00000000000E+00  0.18552329694E+04  0.18552329694E+04  0.50400001928E-02 0. -1.
       -1   -1    0    0    0  501  0.00000000000E+00  0.00000000000E+00 -0.15574126811E+04  0.15574126811E+04  0.50400001928E-02 0.  1.
    10030    2    1    2    0    0  0.00000000000E+00  0.00000000000E+00  0.29782028832E+03  0.34126456505E+04  0.33996254811E+04 0.  0.
        2    1    3    3  502    0  0.61945148271E+03 -0.11352789622E+04 -0.95839425296E+03  0.16096887915E+04  0.25500000920E-02 0.  1.
       -2    1    3    3    0  502 -0.61945148271E+03  0.11352789622E+04  0.12562145413E+04  0.18029568589E+04  0.25500000920E-02 0. -1.
</event>
<event>
 5   0  0.4381939E-07  0.3395547E+04  0.7818609E-02  0.8139000E-01
        2   -1    0    0  501    0  0.00000000000E+00  0.00000000000E+00  0.16482716460E+04  0.16482716460E+04  0.25500000920E-02 0. -1.
       -2   -1    0    0    0  501  0.00000000000E+00  0.00000000000E+00 -0.17487623112E+04  0.17487623112E+04  0.25500000920E-02 0.  1.
    10030    2    1    2    0    0  0.00000000000E+00  0.00000000000E+00 -0.10049066515E+03  0.33970339572E+04  0.33955472803E+04 0.  0.
        3    1    3    3  502    0  0.31186776731E+03  0.86808244070E+03  0.13757231405E+04  0.16563341444E+04  0.10100000352E+00 0. -1.
       -3    1    3    3    0  502 -0.31186776731E+03 -0.86808244070E+03 -0.14762138057E+04  0.17406998129E+04  0.10100000352E+00 0.  1.
</event>
<event>
 5   0  0.1520084E-07  0.3432444E+04  0.7818609E-02  0.8129989E-01
        1   -1    0    0  501    0  0.00000000000E+00  0.00000000000E+00  0.17801415398E+04  0.17801415398E+04  0.50400001928E-02 0.  1.
       -1   -1    0    0    0  501  0.00000000000E+00  0.00000000000E+00 -0.16545977493E+04  0.16545977493E+04  0.50400001928E-02 0. -1.
    10030    2    1    2    0    0  0.00000000000E+00  0.00000000000E+00  0.12554379049E+03  0.34347392891E+04  0.34324441351E+04 0.  0.
        2    1    3    3  502    0  0.85928268299E+02 -0.60569229241E+03  0.16673313417E+04  0.17760181934E+04  0.25500000920E-02 0.  1.
       -2    1    3    3    0  502 -0.85928268299E+02  0.60569229241E+03 -0.15417875512E+04  0.16587210957E+04  0.25500000920E-02 0. -1.
</event>
<event>
 5   0  0.4447909E-07  0.3401195E+04  0.7818609E-02  0.8137613E-01
        2   -1    0    0  501    0  0.00000000000E+00  0.00000000000E+00  0.18887850962E+04  0.18887850962E+04  0.25500000920E-02 0.  1.
       -2   -1    0    0    0  501  0.00000000000E+00  0.00000000000E+00 -0.15311597768E+04  0.15311597768E+04  0.25500000920E-02 0. -1.
    10030    2    1    2    0    0  0.00000000000E+00  0.00000000000E+00  0.35762531942E+03  0.34199448730E+04  0.34011949467E+04 0.  0.
        5    1    3    3  502    0  0.12226403347E+04 -0.70179578376E+03  0.11351831914E+04  0.18099805740E+04  0.46999998093E+01 0.  1.
       -5    1    3    3    0  502 -0.12226403347E+04  0.70179578376E+03 -0.77755787195E+03  0.16099642991E+04  0.46999998093E+01 0. -1.
</event>
<event>
 5   0  0.4486226E-07  0.3388834E+04  0.7818609E-02  0.8140652E-01
        2   -1    0    0  501    0  0.00000000000E+00  0.00000000000E+00  0.19569181736E+04  0.19569181736E+04  0.25500000920E-02 0. -1.
       -2   -1    0    0    0  501  0.00000000000E+00  0.00000000000E+00 -0.14671281486E+04  0.14671281486E+04  0.25500000920E-02 0.  1.
    10030    2    1    2    0    0  0.00000000000E+00  0.00000000000E+00  0.48979002497E+03  0.34240463222E+04  0.33888344527E+04 0.  0.
        1    1    3    3  502    0  0.97547247858E+03  0.19884152125E+03 -0.11404699072E+04  0.15138547210E+04  0.50400001928E-02 0.  1.
       -1    1    3    3    0  502 -0.97547247858E+03 -0.19884152125E+03  0.16302599321E+04  0.19101916012E+04  0.50400001928E-02 0. -1.
</event>
<event>
 5   0  0.1421875E-07  0.3428007E+04  0.7818609E-02  0.8131067E-01
       -1   -1    0    0    0  501  0.00000000000E+00  0.00000000000E+00  0.27699748341E+04  0.27699748341E+04  0.50400001928E-02 0. -1.
        1   -1    0    0  501    0  0.00000000000E+00  0.00000000000E+00 -0.10605899238E+04  0.10605899238E+04  0.50400001928E-02 0.  1.
    10030    2    1    2    0    0  0.00000000000E+00  0.00000000000E+00  0.17093849103E+04  0.38305647579E+04  0.34280066501E+04 0.  0.
        5    1    3    3  502    0 -0.64971460540E+03 -0.13195064947E+04 -0.12874866498E+03  0.14764229634E+04  0.46999998093E+01 0.  1.
       -5    1    3    3    0  502  0.64971460540E+03  0.13195064947E+04  0.18381335753E+04  0.23541417945E+04  0.46999998093E+01 0. -1.
</event>
<event>
 5   0  0.1435806E-07  0.3392892E+04  0.7818609E-02  0.8139653E-01
       -1   -1    0    0    0  501  0.00000000000E+00  0.00000000000E+00  0.17435790619E+04  0.17435790619E+04  0.50400001928E-02 0.  1.
        1   -1    0    0  501    0  0.00000000000E+00  0.00000000000E+00 -0.16505870012E+04  0.16505870012E+04  0.50400001928E-02 0. -1.
    10030    2    1    2    0    0  0.00000000000E+00  0.00000000000E+00  0.92992060720E+02  0.33941660631E+04  0.33928919435E+04 0.  0.
        3    1    3    3  502    0  0.16103717213E+04 -0.31032296864E+03  0.48063077066E+03  0.17089772887E+04  0.10100000352E+00 0.  1.
       -3    1    3    3    0  502 -0.16103717213E+04  0.31032296864E+03 -0.38763870994E+03  0.16851887743E+04  0.10100000352E+00 0. -1.
</event>
<event>
 5   0  0.1473755E-07  0.3398154E+04  0.7818609E-02  0.8138360E-01
       -1   -1    0    0    0  501  0.00000000000E+00  0.00000000000E+00  0.14761417575E+04  0.14761417575E+04  0.50400001928E-02 0.  1.
        1   -1    0    0  501    0  0.00000000000E+00  0.00000000000E+00 -0.19556812644E+04  0.19556812644E+04  0.50400001928E-02 0. -1.
    10030    2    1    2    0    0  0.00000000000E+00  0.00000000000E+00 -0.47953950693E+03  0.34318230219E+04  0.33981540746E+04 0.  0.
        1    1    3    3  502    0 -0.51591988584E+03 -0.83305857577E+03  0.11620403573E+04  0.15200321416E+04  0.50400001928E-02 0.  1.
       -1    1    3    3    0  502  0.51591988584E+03  0.83305857577E+03 -0.16415798643E+04  0.19117908803E+04  0.50400001928E-02 0. -1.
</event>
<event>
 5   0  0.1421875E-07  0.3401922E+04  0.7818609E-02  0.8137435E-01
        1   -1    0    0  501    0  0.00000000000E+00  0.00000000000E+00  0.21994753983E+04  0.21994753983E+04  0.50400001928E-02 0.  1.
       -1   -1    0    0    0  501  0.00000000000E+00  0.00000000000E+00 -0.13154354279E+04  0.13154354279E+04  0.50400001928E-02 0. -1.
    10030    2    1    2    0    0  0.00000000000E+00  0.00000000000E+00  0.88403997042E+03  0.35149108262E+04  0.34019217285E+04 0.  0.
        5    1    3    3  502    0 -0.94792879323E+03 -0.59337599349E+03  0.17662196845E+04  0.20905066684E+04  0.46999998093E+01 0.  1.
       -5    1    3    3    0  502  0.94792879323E+03  0.59337599349E+03 -0.88217971410E+03  0.14244041578E+04  0.46999998093E+01 0. -1.
</event>
<event>
 5   0  0.4396257E-07  0.3397762E+04  0.7818609E-02  0.8138456E-01
        2   -1    0    0  501    0  0.00000000000E+00  0.00000000000E+00  0.20827974119E+04  0.20827974119E+04  0.25500000920E-02 0. -1.
       -2   -1    0    0    0  501  0.00000000000E+00  0.00000000000E+00 -0.13857308688E+04  0.13857308688E+04  0.25500000920E-02 0.  1.
    10030    2    1    2    0    0  0.00000000000E+00  0.00000000000E+00  0.69706654308E+03  0.34685282807E+04  0.33977620089E+04 0.  0.
        2    1    3    3  502    0  0.48249253015E+03 -0.12376781669E+03 -0.13095112760E+04  0.14010486416E+04  0.25500000920E-02 0.  1.
       -2    1    3    3    0  502 -0.48249253015E+03  0.12376781669E+03  0.20065778191E+04  0.20674796391E+04  0.25500000920E-02 0. -1.
</event>
<event>
 5   0  0.1520084E-07  0.3407126E+04  0.7818609E-02  0.8136160E-01
       -1   -1    0    0    0  501  0.00000000000E+00  0.00000000000E+00  0.12673775507E+04  0.12673775507E+04  0.50400001928E-02 0. -1.
        1   -1    0    0  501    0  0.00000000000E+00  0.00000000000E+00 -0.22898674004E+04  0.22898674004E+04  0.50400001928E-02 0.  1.
    10030    2    1    2    0    0  0.00000000000E+00  0.00000000000E+00 -0.10224898497E+04  0.35572449512E+04  0.34071257901E+04 0.  0.
        2    1    3    3  502    0 -0.40284423662E+03 -0.63511524120E+02 -0.22381502077E+04  0.22750018780E+04  0.25500000920E-02 0.  1.
       -2    1    3    3    0  502  0.40284423662E+03  0.63511524120E+02  0.12156603580E+04  0.12822430731E+04  0.25500000920E-02 0. -1.
</event>
<event>
 5   0  0.4447909E-07  0.3423985E+04  0.7818609E-02  0.8132045E-01
       -2   -1    0    0    0  501  0.00000000000E+00  0.00000000000E+00  0.21508996181E+04  0.21508996181E+04  0.25500000920E-02 0.  1.
        2   -1    0    0  501    0  0.00000000000E+00  0.00000000000E+00 -0.13626474584E+04  0.13626474584E+04  0.25500000920E-02 0. -1.
    10030    2    1    2    0    0  0.00000000000E+00  0.00000000000E+00  0.78825215963E+03  0.35135470765E+04  0.34239847534E+04 0.  0.
        5    1    3    3  502    0  0.16372799956E+04  0.20030700899E+03  0.86446798582E+03  0.18622931215E+04  0.46999998093E+01 0.  1.
       -5    1    3    3    0  502 -0.16372799956E+04 -0.20030700899E+03 -0.76215826192E+02  0.16512539550E+04  0.46999998093E+01 0. -1.
</event>
<event>
 5   0  0.1435806E-07  0.3398599E+04  0.7818609E-02  0.8138250E-01
       -1   -1    0    0    0  501  0.00000000000E+00  0.00000000000E+00  0.14375170944E+04  0.14375170944E+04  0.50400001928E-02 0. -1.
        1   -1    0    0  501    0  0.00000000000E+00  0.00000000000E+00 -0.20087544526E+04  0.20087544526E+04  0.50400001928E-02 0.  1.
    10030    2    1    2    0    0  0.00000000000E+00  0.00000000000E+00 -0.57123735825E+03  0.34462715470E+04  0.33985990432E+04 0.  0.
        3    1    3    3  502    0  0.11971364813E+04  0.10798467850E+04 -0.83019373850E+03  0.18134019101E+04  0.10100000352E+00 0.  1.
       -3    1    3    3    0  502 -0.11971364813E+04 -0.10798467850E+04  0.25895638026E+03  0.16328696369E+04  0.10100000352E+00 0. -1.
</event>
<event>
 5   0  0.4381939E-07  0.3382297E+04  0.7818609E-02  0.8142265E-01
        2   -1    0    0  501    0  0.00000000000E+00  0.00000000000E+00  0.22896419756E+04  0.22896419756E+04  0.25500000920E-02 0. -1.
       -2   -1    0    0    0  501  0.00000000000E+00  0.00000000000E+00 -0.12490961673E+04  0.12490961673E+04  0.25500000920E-02 0.  1.
    10030    2    1    2    0    0  0.00000000000E+00  0.00000000000E+00  0.10405458084E+04  0.35387381429E+04  0.33822968623E+04 0.  0.
        3    1    3    3  502    0  0.59557047954E+03 -0.10572205805E+04  0.17527053714E+04  0.21317588234E+04  0.10100000352E+00 0. -1.
       -3    1    3    3    0  502 -0.59557047954E+03  0.10572205805E+04 -0.71215956305E+03  0.14069793195E+04  0.10100000352E+00 0.  1.
</event>
<event>
 5   0  0.4447909E-07  0.3400926E+04  0.7818609E-02  0.8137679E-01
        2   -1    0    0  501    0  0.00000000000E+00  0.00000000000E+00  0.20556021988E+04  0.20556021988E+04  0.25500000920E-02 0. -1.
       -2   -1    0    0    0  501  0.00000000000E+00  0.00000000000E+00 -0.14066800373E+04  0.14066800373E+04  0.25500000920E-02 0.  1.
    10030    2    1    2    0    0  0.00000000000E+00  0.00000000000E+00  0.64892216143E+03  0.34622822361E+04  0.34009260960E+04 0.  0.
        5    1    3    3  502    0 -0.43283718647E+03  0.12363289269E+04 -0.77939550562E+03  0.15242495497E+04  0.46999998093E+01 0.  1.
       -5    1    3    3    0  502  0.43283718647E+03 -0.12363289269E+04  0.14283176670E+04  0.19380326864E+04  0.46999998093E+01 0. -1.
</event>
<event>
 5   0  0.4447909E-07  0.3402239E+04  0.7818609E-02  0.8137357E-01
        2   -1    0    0  501    0  0.00000000000E+00  0.00000000000E+00  0.19431912836E+04  0.19431912836E+04  0.25500000920E-02 0. -1.
       -2   -1    0    0    0  501  0.00000000000E+00  0.00000000000E+00 -0.14892039468E+04  0.14892039468E+04  0.25500000920E-02 0.  1.
    10030    2    1    2    0    0  0.00000000000E+00  0.00000000000E+00  0.45398733688E+03  0.34323952304E+04  0.34022393384E+04 0.  0.
        5    1    3    3  502    0  0.85069619159E+03 -0.11794204371E+04 -0.66347884474E+03  0.15984188579E+04  0.46999998093E+01 0.  1.
       -5    1    3    3    0  502 -0.85069619159E+03  0.11794204371E+04  0.11174661816E+04  0.18339763725E+04  0.46999998093E+01 0. -1.
</event>
<event>
 5   0  0.4381939E-07  0.3390926E+04  0.7818609E-02  0.8140137E-01
        2   -1    0    0  501    0  0.00000000000E+00  0.00000000000E+00  0.11278290859E+04  0.11278290859E+04  0.25500000920E-02 0. -1.
       -2   -1    0    0    0  501  0.00000000000E+00  0.00000000000E+00 -0.25487855884E+04  0.25487855884E+04  0.25500000920E-02 0.  1.
    10030    2    1    2    0    0  0.00000000000E+00  0.00000000000E+00 -0.14209565025E+04  0.36766146743E+04  0.33909258443E+04 0.  0.
        3    1    3    3  502    0  0.84077018253E+03 -0.13839693687E+04 -0.16583361330E+03  0.16278103424E+04  0.10100000352E+00 0.  1.
       -3    1    3    3    0  502 -0.84077018253E+03  0.13839693687E+04 -0.12551228892E+04  0.20488043319E+04  0.10100000352E+00 0. -1.
</event>
<event>
 5   0  0.1473755E-07  0.3403613E+04  0.7818609E-02  0.8137020E-01
        1   -1    0    0  501    0  0.00000000000E+00  0.00000000000E+00  0.16399210321E+04  0.16399210321E+04  0.50400001928E-02 0. -1.
       -1   -1    0    0    0  501  0.00000000000E+00  0.00000000000E+00 -0.17660276754E+04  0.17660276754E+04  0.50400001928E-02 0.  1.
    10030    2    1    2    0    0  0.00000000000E+00  0.00000000000E+00 -0.12610664331E+03  0.34059487075E+04  0.34036133318E+04 0.  0.
        1    1    3    3  502    0 -0.10570499117E+03 -0.74677769132E+03 -0.15896476644E+04  0.17594971334E+04  0.50400001928E-02 0.  1.
       -1    1    3    3    0  502  0.10570499117E+03  0.74677769132E+03  0.14635410211E+04  0.16464515741E+04  0.50400001928E-02 0. -1.
</event>
<event>
 5   0  0.1523259E-07  0.3399618E+04  0.7818609E-02  0.8138000E-01
        1   -1    0    0  501    0  0.00000000000E+00  0.00000000000E+00  0.28854859676E+04  0.28854859676E+04  0.50400001928E-02 0. -1.
       -1   -1    0    0    0  501  0.00000000000E+00  0.00000000000E+00 -0.10013391336E+04  0.10013391336E+04  0.50400001928E-02 0.  1.
    10030    2    1    2    0    0  0.00000000000E+00  0.00000000000E+00  0.18841468341E+04  0.38868251012E+04  0.33996176366E+04 0.  0.
        4    1    3    3  502    0 -0.67338916552E+03 -0.14661178361E+04  0.33022079114E+03  0.16468156732E+04  0.12699999809E+01 0.  1.
       -4    1    3    3    0  502  0.67338916552E+03  0.14661178361E+04  0.15539260429E+04  0.22400094280E+04  0.12699999809E+01 0. -1.
</event>
<event>
 5   0  0.1421875E-07  0.3406280E+04  0.7818609E-02  0.8136367E-01
        1   -1    0    0  501    0  0.00000000000E+00  0.00000000000E+00  0.20229863984E+04  0.20229863984E+04  0.50400001928E-02 0. -1.
       -1   -1    0    0    0  501  0.00000000000E+00  0.00000000000E+00 -0.14338636022E+04  0.14338636022E+04  0.50400001928E-02 0.  1.
    10030    2    1    2    0    0  0.00000000000E+00  0.00000000000E+00  0.58912279620E+03  0.34568500006E+04  0.34062804139E+04 0.  0.
        5    1    3    3  502    0  0.12693333395E+04 -0.79276487711E+03 -0.53051600016E+03  0.15878137780E+04  0.46999998093E+01 0.  1.
       -5    1    3    3    0  502 -0.12693333395E+04  0.79276487711E+03  0.11196387964E+04  0.18690362226E+04  0.46999998093E+01 0. -1.
</event>
<event>
 5   0  0.4396257E-07  0.3397474E+04  0.7818609E-02  0.8138527E-01
        2   -1    0    0  501    0  0.00000000000E+00  0.00000000000E+00  0.23719986374E+04  0.23719986374E+04  0.25500000920E-02 0. -1.
       -2   -1    0    0    0  501  0.00000000000E+00  0.00000000000E+00 -0.12165722288E+04  0.12165722288E+04  0.25500000920E-02 0.  1.
    10030    2    1    2    0    0  0.00000000000E+00  0.00000000000E+00  0.11554264086E+04  0.35885708662E+04  0.33974741612E+04 0.  0.
        2    1    3    3  502    0 -0.34049922371E+03  0.12803908081E+04 -0.54527491670E+03  0.14327124895E+04  0.25500000920E-02 0.  1.
       -2    1    3    3    0  502  0.34049922371E+03 -0.12803908081E+04  0.17007013253E+04  0.21558583767E+04  0.25500000920E-02 0. -1.
</event>
<event>
 5   0  0.1435806E-07  0.3394321E+04  0.7818609E-02  0.8139301E-01
        1   -1    0    0  501    0  0.00000000000E+00  0.00000000000E+00  0.99075574296E+03  0.99075574297E+03  0.50400001928E-02 0.  1.
       -1   -1    0    0    0  501  0.00000000000E+00  0.00000000000E+00 -0.29072292167E+04  0.29072292167E+04  0.50400001928E-02 0. -1.
    10030    2    1    2    0    0  0.00000000000E+00  0.00000000000E+00 -0.19164734737E+04  0.38979849597E+04  0.33943211649E+04 0.  0.
        3    1    3    3  502    0 -0.15863916538E+04  0.41719618462E+03 -0.14583615667E+04  0.21948825948E+04  0.10100000352E+00 0. -1.
       -3    1    3    3    0  502  0.15863916538E+04 -0.41719618462E+03 -0.45811190704E+03  0.17031023649E+04  0.10100000352E+00 0.  1.
</event>
<event>
 5   0  0.1523259E-07  0.3404003E+04  0.7818609E-02  0.8136924E-01
        1   -1    0    0  501    0  0.00000000000E+00  0.00000000000E+00  0.23754481295E+04  0.23754481295E+04  0.50400001928E-02 0.  1.
       -1   -1    0    0    0  501  0.00000000000E+00  0.00000000000E+00 -0.12194793457E+04  0.12194793457E+04  0.50400001928E-02 0. -1.
    10030    2    1    2    0    0  0.00000000000E+00  0.00000000000E+00  0.11559687837E+04  0.35949274752E+04  0.34040034846E+04 0.  0.
        4    1    3    3  502    0 -0.13476234464E+04  0.58536302125E+03  0.14852799111E+04  0.20892096227E+04  0.12699999809E+01 0.  1.
       -4    1    3    3    0  502  0.13476234464E+04 -0.58536302125E+03 -0.32931112739E+03  0.15057178526E+04  0.12699999809E+01 0. -1.
</event>
<event>
 5   0  0.4521737E-07  0.3395241E+04  0.7818609E-02  0.8139075E-01
       -2   -1    0    0    0  501  0.00000000000E+00  0.00000000000E+00  0.21007290581E+04  0.21007290581E+04  0.25500000920E-02 0.  1.
        2   -1    0    0  501    0  0.00000000000E+00  0.00000000000E+00 -0.13718641319E+04  0.13718641319E+04  0.25500000920E-02 0. -1.
    10030    2    1    2    0    0  0.00000000000E+00  0.00000000000E+00  0.72886492618E+03  0.34725931900E+04  0.33952406958E+04 0.  0.
        4    1    3    3  502    0  0.92588138934E+02  0.56443615854E+03 -0.12703416697E+04  0.13931727499E+04  0.12699999809E+01 0. -1.
       -4    1    3    3    0  502 -0.92588138934E+02 -0.56443615854E+03  0.19992065959E+04  0.20794204400E+04  0.12699999809E+01 0.  1.
</event>
<event>
 5   0  0.1523259E-07  0.3409023E+04  0.7818609E-02  0.8135695E-01
       -1   -1    0    0    0  501  0.00000000000E+00  0.00000000000E+00  0.14280499788E+04  0.14280499788E+04  0.50400001928E-02 0. -1.
        1   -1    0    0  501    0  0.00000000000E+00  0.00000000000E+00 -0.20344941448E+04  0.20344941448E+04  0.50400001928E-02 0.  1.
    10030    2    1    2    0    0  0.00000000000E+00  0.00000000000E+00 -0.60644416601E+03  0.34625441237E+04  0.34090229219E+04 0.  0.
        4    1    3    3  502    0  0.16017532256E+04 -0.55825595297E+03 -0.13297611156E+03  0.17014544848E+04  0.12699999809E+01 0.  1.
       -4    1    3    3    0  502 -0.16017532256E+04  0.55825595297E+03 -0.47346805445E+03  0.17610896389E+04  0.12699999809E+01 0. -1.
</event>
<event>
 5   0  0.1523259E-07  0.3414078E+04  0.7818609E-02  0.8134460E-01
        1   -1    0    0  501    0  0.00000000000E+00  0.00000000000E+00  0.28441461624E+04  0.28441461624E+04  0.50400001928E-02 0.  1.
       -1   -1    0    0    0  501  0.00000000000E+00  0.00000000000E+00 -0.10245544227E+04  0.10245544227E+04  0.50400001928E-02 0. -1.
    10030    2    1    2    0    0  0.00000000000E+00  0.00000000000E+00  0.18195917398E+04  0.38687005851E+04  0.34140782237E+04 0.  0.
        4    1    3    3  502    0 -0.82180582785E+03 -0.53720333829E+03  0.24921808430E+04  0.26786039671E+04  0.12699999809E+01 0.  1.
       -4    1    3    3    0  502  0.82180582785E+03  0.53720333829E+03 -0.67258910330E+03  0.11900966180E+04  0.12699999809E+01 0. -1.
</event>
<event>
 5   0  0.1473755E-07  0.3400249E+04  0.7818609E-02  0.8137845E-01
       -1   -1    0    0    0  501  0.00000000000E+00  0.00000000000E+00  0.17202900439E+04  0.17202900439E+04  0.50400001928E-02 0. -1.
        1   -1    0    0  501    0  0.00000000000E+00  0.00000000000E+00 -0.16801957230E+04  0.16801957230E+04  0.50400001928E-02 0.  1.
    10030    2    1    2    0    0  0.00000000000E+00  0.00000000000E+00  0.40094320958E+02  0.34004857669E+04  0.34002493874E+04 0.  0.
        1    1    3    3  502    0  0.15878135022E+03  0.51709804320E+03 -0.15918409484E+04  0.16812374932E+04  0.50400001928E-02 0.  1.
       -1    1    3    3    0  502 -0.15878135022E+03 -0.51709804320E+03  0.16319352693E+04  0.17192482737E+04  0.50400001928E-02 0. -1.
</event>
<event>
 5   0  0.4486226E-07  0.3393145E+04  0.7818609E-02  0.8139591E-01
       -2   -1    0    0    0  501  0.00000000000E+00  0.00000000000E+00  0.17571402638E+04  0.17571402638E+04  0.25500000920E-02 0.  1.
        2   -1    0    0  501    0  0.00000000000E+00  0.00000000000E+00 -0.16380928268E+04  0.16380928268E+04  0.25500000920E-02 0. -1.
    10030    2    1    2    0    0  0.00000000000E+00  0.00000000000E+00  0.11904743703E+03  0.33952330906E+04  0.33931453620E+04 0.  0.
        1    1    3    3  502    0 -0.12843616045E+04 -0.92895291729E+03 -0.54567947840E+03  0.16763962380E+04  0.50400001928E-02 0. -1.
       -1    1    3    3    0  502  0.12843616045E+04  0.92895291729E+03  0.66472691543E+03  0.17188368526E+04  0.50400001928E-02 0.  1.
</event>
<event>
 5   0  0.1435806E-07  0.3396833E+04  0.7818609E-02  0.8138684E-01
        1   -1    0    0  501    0  0.00000000000E+00  0.00000000000E+00  0.19807403740E+04  0.19807403740E+04  0.50400001928E-02 0. -1.
       -1   -1    0    0    0  501  0.00000000000E+00  0.00000000000E+00 -0.14563339465E+04  0.14563339465E+04  0.50400001928E-02 0.  1.
    10030    2    1    2    0    0  0.00000000000E+00  0.00000000000E+00  0.52440642754E+03  0.34370743205E+04  0.33968334936E+04 0.  0.
        3    1    3    3  502    0 -0.34266240709E+03  0.86009151863E+03 -0.11785485176E+04  0.14987166391E+04  0.10100000352E+00 0.  1.
       -3    1    3    3    0  502  0.34266240709E+03 -0.86009151863E+03  0.17029549452E+04  0.19383576814E+04  0.10100000352E+00 0. -1.
</event>
<event>
 5   0  0.4396257E-07  0.3419817E+04  0.7818609E-02  0.8133060E-01
       -2   -1    0    0    0  501  0.00000000000E+00  0.00000000000E+00  0.16409299379E+04  0.16409299379E+04  0.25500000920E-02 0.  1.
        2   -1    0    0  501    0  0.00000000000E+00  0.00000000000E+00 -0.17817870396E+04  0.17817870396E+04  0.25500000920E-02 0. -1.
    10030    2    1    2    0    0  0.00000000000E+00  0.00000000000E+00 -0.14085710176E+03  0.34227169775E+04  0.34198173614E+04 0.  0.
        2    1    3    3  502    0 -0.64555138878E+03  0.38490530087E+03  0.14667444589E+04  0.16480982962E+04  0.25500000920E-02 0.  1.
       -2    1    3    3    0  502  0.64555138878E+03 -0.38490530087E+03 -0.16076015607E+04  0.17746186813E+04  0.25500000920E-02 0. -1.
</event>
<event>
 5   0  0.4381939E-07  0.3396232E+04  0.7818609E-02  0.8138832E-01
        2   -1    0    0  501    0  0.00000000000E+00  0.00000000000E+00  0.15226409724E+04  0.15226409724E+04  0.25500000920E-02 0. -1.
       -2   -1    0    0    0  501  0.00000000000E+00  0.00000000000E+00 -0.18938129613E+04  0.18938129613E+04  0.25500000920E-02 0.  1.
    10030    2    1    2    0    0  0.00000000000E+00  0.00000000000E+00 -0.37117198891E+03  0.34164539336E+04  0.33962315638E+04 0.  0.
        3    1    3    3  502    0 -0.41299799850E+02  0.79545224431E+03 -0.16942315587E+04  0.18721299450E+04  0.10100000352E+00 0.  1.
       -3    1    3    3    0  502  0.41299799850E+02 -0.79545224431E+03  0.13230595698E+04  0.15443239886E+04  0.10100000352E+00 0. -1.
</event>
<event>
 5   0  0.1421875E-07  0.3376094E+04  0.7818609E-02  0.8143799E-01
        1   -1    0    0  501    0  0.00000000000E+00  0.00000000000E+00  0.16772971623E+04  0.16772971623E+04  0.50400001928E-02 0. -1.
       -1   -1    0    0    0  501  0.00000000000E+00  0.00000000000E+00 -0.16988653905E+04  0.16988653905E+04  0.50400001928E-02 0.  1.
    10030    2    1    2    0    0  0.00000000000E+00  0.00000000000E+00 -0.21568228156E+02  0.33761625528E+04  0.33760936590E+04 0.  0.
        5    1    3    3  502    0  0.99351400885E+03 -0.91103543617E+03 -0.10268876980E+04  0.16945725379E+04  0.46999998093E+01 0.  1.
       -5    1    3    3    0  502 -0.99351400885E+03  0.91103543617E+03  0.10053194699E+04  0.16815900149E+04  0.46999998093E+01 0. -1.
</event>
<event>
 5   0  0.4521737E-07  0.3411944E+04  0.7818609E-02  0.8134981E-01
       -2   -1    0    0    0  501  0.00000000000E+00  0.00000000000E+00  0.16108612306E+04  0.16108612306E+04  0.25500000920E-02 0. -1.
        2   -1    0    0  501    0  0.00000000000E+00  0.00000000000E+00 -0.18066984170E+04  0.18066984170E+04  0.25500000920E-02 0.  1.
    10030    2    1    2    0    0  0.00000000000E+00  0.00000000000E+00 -0.19583718642E+03  0.34175596475E+04  0.34119439827E+04 0.  0.
        4    1    3    3  502    0 -0.66945471380E+03  0.29512203480E+03 -0.16415820328E+04  0.17972367158E+04  0.12699999809E+01 0.  1.
       -4    1    3    3    0  502  0.66945471380E+03 -0.29512203480E+03  0.14457448464E+04  0.16203229317E+04  0.12699999809E+01 0. -1.
</event>
<event>
 5   0  0.4521737E-07  0.3402387E+04  0.7818609E-02  0.8137321E-01
       -2   -1    0    0    0  501  0.00000000000E+00  0.00000000000E+00  0.14061321739E+04  0.14061321739E+04  0.25500000920E-02 0. -1.
        2   -1    0    0  501    0  0.00000000000E+00  0.00000000000E+00 -0.20581697619E+04  0.20581697619E+04  0.25500000920E-02 0.  1.
    10030    2    1    2    0    0  0.00000000000E+00  0.00000000000E+00 -0.65203758800E+03  0.34643019359E+04  0.34023866457E+04 0.  0.
        4    1    3    3  502    0  0.90486190361E+03 -0.96312551956E+03 -0.14168079903E+04  0.19374551157E+04  0.12699999809E+01 0.  1.
       -4    1    3    3    0  502 -0.90486190361E+03  0.96312551956E+03  0.76477040233E+03  0.15268468202E+04  0.12699999809E+01 0. -1.
</event>
<event>
 5   0  0.4396257E-07  0.3405738E+04  0.7818609E-02  0.8136500E-01
        2   -1    0    0  501    0  0.00000000000E+00  0.00000000000E+00  0.99102168947E+03  0.99102168948E+03  0.25500000920E-02 0.  1.
       -2   -1    0    0    0  501  0.00000000000E+00  0.00000000000E+00 -0.29260331049E+04  0.29260331049E+04  0.25500000920E-02 0. -1.
    10030    2    1    2    0    0  0.00000000000E+00  0.00000000000E+00 -0.19350114155E+04  0.39170547944E+04  0.34057376711E+04 0.  0.
        2    1    3    3  502    0 -0.11642685453E+04  0.11148173641E+04 -0.33605879780E+03  0.16465948246E+04  0.25500000920E-02 0.  1.
       -2    1    3    3    0  502  0.11642685453E+04 -0.11148173641E+04 -0.15989526177E+04  0.22704599698E+04  0.25500000920E-02 0. -1.
</event>
<event>
 5   0  0.1421875E-07  0.3234579E+04  0.7818609E-02  0.8179744E-01
        1   -1    0    0  501    0  0.00000000000E+00  0.00000000000E+00  0.18300993050E+04  0.18300993050E+04  0.50400001928E-02 0. -1.
       -1   -1    0    0    0  501  0.00000000000E+00  0.00000000000E+00 -0.14292256221E+04  0.14292256221E+04  0.50400001928E-02 0.  1.
    10030    2    1    2    0    0  0.00000000000E+00  0.00000000000E+00  0.40087368290E+03  0.32593249271E+04  0.32345786852E+04 0.  0.
        5    1    3    3  502    0  0.57371354185E+03  0.12418487129E+04  0.10697462886E+04  0.17365813156E+04  0.46999998093E+01 0. -1.
       -5    1    3    3    0  502 -0.57371354185E+03 -0.12418487129E+04 -0.66887260567E+03  0.15227436115E+04  0.46999998093E+01 0.  1.
</event>
<event>
 5   0  0.4381939E-07  0.3428977E+04  0.7818609E-02  0.8130831E-01
       -2   -1    0    0    0  501  0.00000000000E+00  0.00000000000E+00  0.12262958733E+04  0.12262958733E+04  0.25500000920E-02 0. -1.
        2   -1    0    0  501    0  0.00000000000E+00  0.00000000000E+00 -0.23970317675E+04  0.23970317675E+04  0.25500000920E-02 0.  1.
    10030    2    1    2    0    0  0.00000000000E+00  0.00000000000E+00 -0.11707358942E+04  0.36233276408E+04  0.34289766198E+04 0.  0.
        3    1    3    3  502    0 -0.70271151875E+03  0.63754297856E+02  0.10657592268E+04  0.12781669800E+04  0.10100000352E+00 0. -1.
       -3    1    3    3    0  502  0.70271151875E+03 -0.63754297856E+02 -0.22364951209E+04  0.23451606609E+04  0.10100000352E+00 0.  1.
</event>
<event>
 5   0  0.1421875E-07  0.3400273E+04  0.7818609E-02  0.8137839E-01
        3   -1    0    0  501    0  0.00000000000E+00  0.00000000000E+00  0.19854109326E+04  0.19854109352E+04  0.10100000352E+00 0.  1.
       -3   -1    0    0    0  501  0.00000000000E+00  0.00000000000E+00 -0.14558519493E+04  0.14558519528E+04  0.10100000352E+00 0. -1.
    10030    2    1    2    0    0  0.00000000000E+00  0.00000000000E+00  0.52955898331E+03  0.34412628880E+04  0.34002731578E+04 0.  0.
        5    1    3    3  502    0  0.13737052159E+03  0.26123962619E+03 -0.14297175195E+04  0.14598736514E+04  0.46999998093E+01 0. -1.
       -5    1    3    3    0  502 -0.13737052159E+03 -0.26123962619E+03  0.19592765028E+04  0.19813892366E+04  0.46999998093E+01 0.  1.
</event>
<event>
 5   0  0.1435806E-07  0.3394229E+04  0.7818609E-02  0.8139324E-01
        1   -1    0    0  501    0  0.00000000000E+00  0.00000000000E+00  0.23391562860E+04  0.23391562860E+04  0.50400001928E-02 0.  1.
       -1   -1    0    0    0  501  0.00000000000E+00  0.00000000000E+00 -0.12312976324E+04  0.12312976324E+04  0.50400001928E-02 0. -1.
    10030    2    1    2    0    0  0.00000000000E+00  0.00000000000E+00  0.11078586535E+04  0.35704539184E+04  0.33942289828E+04 0.  0.
        3    1    3    3  502    0  0.90317010551E+03 -0.13057200718E+04 -0.76850665849E+02  0.15895053257E+04  0.10100000352E+00 0.  1.
       -3    1    3    3    0  502 -0.90317010551E+03  0.13057200718E+04  0.11847093194E+04  0.19809485927E+04  0.10100000352E+00 0. -1.
</event>
<event>
 5   0  0.4521737E-07  0.3407296E+04  0.7818609E-02  0.8136118E-01
       -2   -1    0    0    0  501  0.00000000000E+00  0.00000000000E+00  0.13495012472E+04  0.13495012472E+04  0.25500000920E-02 0.  1.
        2   -1    0    0  501    0  0.00000000000E+00  0.00000000000E+00 -0.21507331629E+04  0.21507331629E+04  0.25500000920E-02 0. -1.
    10030    2    1    2    0    0  0.00000000000E+00  0.00000000000E+00 -0.80123191576E+03  0.35002344101E+04  0.34072963392E+04 0.  0.
        4    1    3    3  502    0  0.57340606562E+03 -0.13138967548E+04  0.54497839899E+03  0.15336630225E+04  0.12699999809E+01 0.  1.
       -4    1    3    3    0  502 -0.57340606562E+03  0.13138967548E+04 -0.13462103147E+04  0.19665713876E+04  0.12699999809E+01 0. -1.
</event>
<event>
 5   0  0.1523259E-07  0.3411587E+04  0.7818609E-02  0.8135068E-01
       -1   -1    0    0    0  501  0.00000000000E+00  0.00000000000E+00  0.13762219545E+04  0.13762219545E+04  0.50400001928E-02 0.  1.
        1   -1    0    0  501    0  0.00000000000E+00  0.00000000000E+00 -0.21142891891E+04  0.21142891891E+04  0.50400001928E-02 0. -1.
    10030    2    1    2    0    0  0.00000000000E+00  0.00000000000E+00 -0.73806723459E+03  0.34905111437E+04  0.34115868451E+04 0.  0.
        4    1    3    3  502    0  0.27096487634E+03 -0.78877315710E+03  0.11533902397E+04  0.14233396347E+04  0.12699999809E+01 0.  1.
       -4    1    3    3    0  502 -0.27096487634E+03  0.78877315710E+03 -0.18914574743E+04  0.20671715090E+04  0.12699999809E+01 0. -1.
</event>
<event>
 5   0  0.1435806E-07  0.3359116E+04  0.7818609E-02  0.8148014E-01
       -1   -1    0    0    0  501  0.00000000000E+00  0.00000000000E+00  0.16182424334E+04  0.16182424334E+04  0.50400001928E-02 0.  1.
        1   -1    0    0  501    0  0.00000000000E+00  0.00000000000E+00 -0.17431965456E+04  0.17431965456E+04  0.50400001928E-02 0. -1.
    10030    2    1    2    0    0  0.00000000000E+00  0.00000000000E+00 -0.12495411218E+03  0.33614389789E+04  0.33591157287E+04 0.  0.
        3    1    3    3  502    0 -0.10822771123E+04  0.66402574333E+03 -0.11626284699E+04  0.17216152023E+04  0.10100000352E+00 0. -1.
       -3    1    3    3    0  502  0.10822771123E+04 -0.66402574333E+03  0.10376743577E+04  0.16398237766E+04  0.10100000352E+00 0.  1.
</event>
<event>
 5   0  0.4396257E-07  0.3403968E+04  0.7818609E-02  0.8136933E-01
        2   -1    0    0  501    0  0.00000000000E+00  0.00000000000E+00  0.22220338822E+04  0.22220338822E+04  0.25500000920E-02 0.  1.
       -2   -1    0    0    0  501  0.00000000000E+00  0.00000000000E+00 -0.13036480950E+04  0.13036480950E+04  0.25500000920E-02 0. -1.
    10030    2    1    2    0    0  0.00000000000E+00  0.00000000000E+00  0.91838578719E+03  0.35256819772E+04  0.34039684121E+04 0.  0.
        2    1    3    3  502    0  0.15392558026E+04  0.25679961211E+03  0.11628182427E+04  0.19461245418E+04  0.25500000920E-02 0.  1.
       -2    1    3    3    0  502 -0.15392558026E+04 -0.25679961211E+03 -0.24443245554E+03  0.15795574354E+04  0.25500000920E-02 0. -1.
</event>
<event>
 5   0  0.1435806E-07  0.3396255E+04  0.7818609E-02  0.8138826E-01
       -1   -1    0    0    0  501  0.00000000000E+00  0.00000000000E+00  0.14144005983E+04  0.14144005983E+04  0.50400001928E-02 0.  1.
        1   -1    0    0  501    0  0.00000000000E+00  0.00000000000E+00 -0.20387693183E+04  0.20387693183E+04  0.50400001928E-02 0. -1.
    10030    2    1    2    0    0  0.00000000000E+00  0.00000000000E+00 -0.62436872001E+03  0.34531699166E+04  0.33962547275E+04 0.  0.
        3    1    3    3  502    0  0.66946252169E+02 -0.11113100577E+03 -0.20337228679E+04  0.20378568680E+04  0.10100000352E+00 0. -1.
       -3    1    3    3    0  502 -0.66946252169E+02  0.11113100577E+03  0.14093541479E+04  0.14153130486E+04  0.10100000352E+00 0.  1.
</event>
<event>
 5   0  0.4521737E-07  0.3401496E+04  0.7818609E-02  0.8137539E-01
        2   -1    0    0  501    0  0.00000000000E+00  0.00000000000E+00  0.21086968857E+04  0.21086968857E+04  0.25500000920E-02 0.  1.
       -2   -1    0    0    0  501  0.00000000000E+00  0.00000000000E+00 -0.13717206997E+04  0.13717206997E+04  0.25500000920E-02 0. -1.
    10030    2    1    2    0    0  0.00000000000E+00  0.00000000000E+00  0.73697618595E+03  0.34804175854E+04  0.34014956520E+04 0.  0.
        4    1    3    3  502    0  0.20871254245E+02 -0.15813615910E+03 -0.13640499168E+04  0.13733449831E+04  0.12699999809E+01 0. -1.
       -4    1    3    3    0  502 -0.20871254245E+02  0.15813615910E+03  0.21010261028E+04  0.21070726023E+04  0.12699999809E+01 0.  1.
</event>
<event>
 5   0  0.4486226E-07  0.3404437E+04  0.7818609E-02  0.8136818E-01
       -2   -1    0    0    0  501  0.00000000000E+00  0.00000000000E+00  0.12679660450E+04  0.12679660450E+04  0.25500000920E-02 0.  1.
        2   -1    0    0  501    0  0.00000000000E+00  0.00000000000E+00 -0.22851939075E+04  0.22851939075E+04  0.25500000920E-02 0. -1.
    10030    2    1    2    0    0  0.00000000000E+00  0.00000000000E+00 -0.10172278624E+04  0.35531599525E+04  0.34044372698E+04 0.  0.
        1    1    3    3  502    0  0.10043662340E+04  0.10143568421E+04 -0.14764182925E+04  0.20536509708E+04  0.50400001928E-02 0. -1.
       -1    1    3    3    0  502 -0.10043662340E+04 -0.10143568421E+04  0.45919043008E+03  0.14995089817E+04  0.50400001928E-02 0.  1.
</event>
<event>
 5   0  0.4381939E-07  0.3397692E+04  0.7818609E-02  0.8138473E-01
       -2   -1    0    0    0  501  0.00000000000E+00  0.00000000000E+00  0.10751532470E+04  0.10751532470E+04  0.25500000920E-02 0.  1.
        2   -1    0    0  501    0  0.00000000000E+00  0.00000000000E+00 -0.26843405541E+04  0.26843405541E+04  0.25500000920E-02 0. -1.
    10030    2    1    2    0    0  0.00000000000E+00  0.00000000000E+00 -0.16091873071E+04  0.37594938011E+04  0.33976918417E+04 0.  0.
        3    1    3    3  502    0 -0.29695967625E+03 -0.75515166831E+03 -0.24560524010E+04  0.25866256973E+04  0.10100000352E+00 0. -1.
       -3    1    3    3    0  502  0.29695967625E+03  0.75515166831E+03  0.84686509388E+03  0.11728681038E+04  0.10100000352E+00 0.  1.
</event>
<event>
 5   0  0.4381939E-07  0.3431132E+04  0.7818609E-02  0.8130308E-01
       -2   -1    0    0    0  501  0.00000000000E+00  0.00000000000E+00  0.17279245325E+04  0.17279245325E+04  0.25500000920E-02 0.  1.
        2   -1    0    0  501    0  0.00000000000E+00  0.00000000000E+00 -0.17032954233E+04  0.17032954233E+04  0.25500000920E-02 0. -1.
    10030    2    1    2    0    0  0.00000000000E+00  0.00000000000E+00  0.24629109163E+02  0.34312199558E+04  0.34311315615E+04 0.  0.
        3    1    3    3  502    0  0.13223278943E+04 -0.19788172402E+03 -0.10626353217E+04  0.17078940465E+04  0.10100000352E+00 0. -1.
       -3    1    3    3    0  502 -0.13223278943E+04  0.19788172402E+03  0.10872644309E+04  0.17233259093E+04  0.10100000352E+00 0.  1.
</event>
<event>
 5   0  0.4447909E-07  0.3394184E+04  0.7818609E-02  0.8139335E-01
        2   -1    0    0  501    0  0.00000000000E+00  0.00000000000E+00  0.20069156976E+04  0.20069156976E+04  0.25500000920E-02 0. -1.
       -2   -1    0    0    0  501  0.00000000000E+00  0.00000000000E+00 -0.14350985094E+04  0.14350985094E+04  0.25500000920E-02 0.  1.
    10030    2    1    2    0    0  0.00000000000E+00  0.00000000000E+00  0.57181718820E+03  0.34420142069E+04  0.33941842767E+04 0.  0.
        5    1    3    3  502    0  0.12172577122E+04  0.87897648862E+03 -0.51630375014E+03  0.15877366463E+04  0.46999998093E+01 0.  1.
       -5    1    3    3    0  502 -0.12172577122E+04 -0.87897648862E+03  0.10881209383E+04  0.18542775607E+04  0.46999998093E+01 0. -1.
</event>
<event>
 5   0  0.1435806E-07  0.3381595E+04  0.7818609E-02  0.8142438E-01
       -1   -1    0    0    0  501  0.00000000000E+00  0.00000000000E+00  0.15191456491E+04  0.15191456491E+04  0.50400001928E-02 0.  1.
        1   -1    0    0  501    0  0.00000000000E+00  0.00000000000E+00 -0.18818448834E+04  0.18818448834E+04  0.50400001928E-02 0. -1.
    10030    2    1    2    0    0  0.00000000000E+00  0.00000000000E+00 -0.36269923436E+03  0.34009905325E+04  0.33815951661E+04 0.  0.
        3    1    3    3  502    0 -0.57227180519E+03 -0.10756966322E+04 -0.13603266237E+04  0.18262274768E+04  0.10100000352E+00 0. -1.
       -3    1    3    3    0  502  0.57227180519E+03  0.10756966322E+04  0.99762738938E+03  0.15747630557E+04  0.10100000352E+00 0.  1.
</event>
<event>
 5   0  0.1523259E-07  0.3406297E+04  0.7818609E-02  0.8136363E-01
        1   -1    0    0  501    0  0.00000000000E+00  0.00000000000E+00  0.19229124995E+04  0.19229124995E+04  0.50400001928E-02 0. -1.
       -1   -1    0    0    0  501  0.00000000000E+00  0.00000000000E+00 -0.15085002476E+04  0.15085002476E+04  0.50400001928E-02 0.  1.
    10030    2    1    2    0    0  0.00000000000E+00  0.00000000000E+00  0.41441225188E+03  0.34314127471E+04  0.34062965119E+04 0.  0.
        4    1    3    3  502    0  0.38220658067E+03  0.11930653091E+04  0.13695010781E+04  0.18560769160E+04  0.12699999809E+01 0. -1.
       -4    1    3    3    0  502 -0.38220658067E+03 -0.11930653091E+04 -0.95508882623E+03  0.15753358312E+04  0.12699999809E+01 0.  1.
</event>
<event>
 5   0  0.4521737E-07  0.3402879E+04  0.7818609E-02  0.8137200E-01
       -2   -1    0    0    0  501  0.00000000000E+00  0.00000000000E+00  0.12346106527E+04  0.12346106527E+04  0.25500000920E-02 0. -1.
        2   -1    0    0  501    0  0.00000000000E+00  0.00000000000E+00 -0.23447853970E+04  0.23447853970E+04  0.25500000920E-02 0.  1.
    10030    2    1    2    0    0  0.00000000000E+00  0.00000000000E+00 -0.11101747443E+04  0.35793960496E+04  0.34028793862E+04 0.  0.
        4    1    3    3  502    0  0.12473662205E+04  0.88186830748E+03  0.23296204630E+03  0.15452789805E+04  0.12699999809E+01 0. -1.
       -4    1    3    3    0  502 -0.12473662205E+04 -0.88186830748E+03 -0.13431367906E+04  0.20341170691E+04  0.12699999809E+01 0.  1.
</event>
<event>
 5   0  0.1435806E-07  0.3400644E+04  0.7818609E-02  0.8137748E-01
        1   -1    0    0  501    0  0.00000000000E+00  0.00000000000E+00  0.24454467338E+04  0.24454467338E+04  0.50400001928E-02 0. -1.
       -1   -1    0    0    0  501  0.00000000000E+00  0.00000000000E+00 -0.11822355910E+04  0.11822355910E+04  0.50400001928E-02 0.  1.
    10030    2    1    2    0    0  0.00000000000E+00  0.00000000000E+00  0.12632111428E+04  0.36276823249E+04  0.34006435654E+04 0.  0.
        3    1    3    3  502    0  0.63656464121E+03 -0.96712065992E+03  0.19599540924E+04  0.22763912159E+04  0.10100000352E+00 0. -1.
       -3    1    3    3    0  502 -0.63656464121E+03  0.96712065992E+03 -0.69674294957E+03  0.13512911090E+04  0.10100000352E+00 0.  1.
</event>
<event>
 5   0  0.1523259E-07  0.3402593E+04  0.7818609E-02  0.8137270E-01
       -1   -1    0    0    0  501  0.00000000000E+00  0.00000000000E+00  0.13581471476E+04  0.13581471476E+04  0.50400001928E-02 0.  1.
        1   -1    0    0  501    0  0.00000000000E+00  0.00000000000E+00 -0.21311459824E+04  0.21311459824E+04  0.50400001928E-02 0. -1.
    10030    2    1    2    0    0  0.00000000000E+00  0.00000000000E+00 -0.77299883481E+03  0.34892931300E+04  0.34025930330E+04 0.  0.
        4    1    3    3  502    0 -0.98537573367E+03 -0.12066581047E+04 -0.10876005636E+04  0.18999646621E+04  0.12699999809E+01 0.  1.
       -4    1    3    3    0  502  0.98537573367E+03  0.12066581047E+04  0.31460172881E+03  0.15893284679E+04  0.12699999809E+01 0. -1.
</event>
<event>
 5   0  0.1421875E-07  0.3393474E+04  0.7818609E-02  0.8139510E-01
        1   -1    0    0  501    0  0.00000000000E+00  0.00000000000E+00  0.20714275827E+04  0.20714275827E+04  0.50400001928E-02 0. -1.
       -1   -1    0    0    0  501  0.00000000000E+00  0.00000000000E+00 -0.13898223412E+04  0.13898223412E+04  0.50400001928E-02 0.  1.
    10030    2    1    2    0    0  0.00000000000E+00  0.00000000000E+00  0.68160524147E+03  0.34612499239E+04  0.33934739325E+04 0.  0.
        5    1    3    3  502    0  0.15837618511E+04  0.31656274298E+03  0.87116933853E+03  0.18350672134E+04  0.46999998093E+01 0. -1.
       -5    1    3    3    0  502 -0.15837618511E+04 -0.31656274298E+03 -0.18956409706E+03  0.16261827105E+04  0.46999998093E+01 0.  1.
</event>
<event>
 5   0  0.1435806E-07  0.3401074E+04  0.7818609E-02  0.8137643E-01
        1   -1    0    0  501    0  0.00000000000E+00  0.00000000000E+00  0.24206617857E+04  0.24206617857E+04  0.50400001928E-02 0. -1.
       -1   -1    0    0    0  501  0.00000000000E+00  0.00000000000E+00 -0.11946431034E+04  0.11946431035E+04  0.50400001928E-02 0.  1.
    10030    2    1    2    0    0  0.00000000000E+00  0.00000000000E+00  0.12260186822E+04  0.36153048891E+04  0.34010744820E+04 0.  0.
        3    1    3    3  502    0  0.15837172548E+04 -0.61931912699E+03  0.62417698639E+03  0.18114396056E+04  0.10100000352E+00 0.  1.
       -3    1    3    3    0  502 -0.15837172548E+04  0.61931912699E+03  0.60184169585E+03  0.18038652836E+04  0.10100000352E+00 0. -1.
</event>
<event>
 5   0  0.1421875E-07  0.3407151E+04  0.7818609E-02  0.8136154E-01
        1   -1    0    0  501    0  0.00000000000E+00  0.00000000000E+00  0.18214778375E+04  0.18214778375E+04  0.50400001928E-02 0.  1.
       -1   -1    0    0    0  501  0.00000000000E+00  0.00000000000E+00 -0.15933046070E+04  0.15933046070E+04  0.50400001928E-02 0. -1.
    10030    2    1    2    0    0  0.00000000000E+00  0.00000000000E+00  0.22817323048E+03  0.34147824445E+04  0.34071507334E+04 0.  0.
        5    1    3    3  502    0  0.16931464052E+04 -0.62109606102E+02  0.29209240118E+03  0.17192854368E+04  0.46999998093E+01 0. -1.
       -5    1    3    3    0  502 -0.16931464052E+04  0.62109606102E+02 -0.63919170702E+02  0.16954970076E+04  0.46999998093E+01 0.  1.
</event>
<event>
 5   0  0.1520084E-07  0.3402497E+04  0.7818609E-02  0.8137294E-01
       -1   -1    0    0    0  501  0.00000000000E+00  0.00000000000E+00  0.22250093702E+04  0.22250093702E+04  0.50400001928E-02 0.  1.
        1   -1    0    0  501    0  0.00000000000E+00  0.00000000000E+00 -0.13007791678E+04  0.13007791678E+04  0.50400001928E-02 0. -1.
    10030    2    1    2    0    0  0.00000000000E+00  0.00000000000E+00  0.92423020240E+03  0.35257885381E+04  0.34024966346E+04 0.  0.
        2    1    3    3  502    0  0.98354952609E+02  0.52182740117E+03  0.21369324376E+04  0.22019213829E+04  0.25500000920E-02 0.  1.
       -2    1    3    3    0  502 -0.98354952609E+02 -0.52182740117E+03 -0.12127022352E+04  0.13238671552E+04  0.25500000920E-02 0. -1.
</event>
<event>
 5   0  0.1520084E-07  0.3403555E+04  0.7818609E-02  0.8137034E-01
        1   -1    0    0  501    0  0.00000000000E+00  0.00000000000E+00  0.16609917918E+04  0.16609917918E+04  0.50400001928E-02 0.  1.
       -1   -1    0    0    0  501  0.00000000000E+00  0.00000000000E+00 -0.17435649882E+04  0.17435649883E+04  0.50400001928E-02 0. -1.
    10030    2    1    2    0    0  0.00000000000E+00  0.00000000000E+00 -0.82573196457E+02  0.34045567800E+04  0.34035552788E+04 0.  0.
        2    1    3    3  502    0 -0.10913422478E+04 -0.50219155775E+03  0.11643990938E+04  0.16730360164E+04  0.25500000920E-02 0.  1.
       -2    1    3    3    0  502  0.10913422478E+04  0.50219155775E+03 -0.12469722902E+04  0.17315207637E+04  0.25500000920E-02 0. -1.
</event>
<event>
 5   0  0.4447909E-07  0.3381884E+04  0.7818609E-02  0.8142367E-01
        2   -1    0    0  501    0  0.00000000000E+00  0.00000000000E+00  0.15719614379E+04  0.15719614379E+04  0.25500000920E-02 0.  1.
       -2   -1    0    0    0  501  0.00000000000E+00  0.00000000000E+00 -0.18189277177E+04  0.18189277177E+04  0.25500000920E-02 0. -1.
    10030    2    1    2    0    0  0.00000000000E+00  0.00000000000E+00 -0.24696627982E+03  0.33908891556E+04  0.33818836352E+04 0.  0.
        5    1    3    3  502    0  0.14665600381E+04  0.37975352176E+03  0.62968358442E+03  0.16405897078E+04  0.46999998093E+01 0.  1.
       -5    1    3    3    0  502 -0.14665600381E+04 -0.37975352176E+03 -0.87664986424E+03  0.17502994479E+04  0.46999998093E+01 0. -1.
</event>
<event>
 5   0  0.1435806E-07  0.3396760E+04  0.7818609E-02  0.8138702E-01
       -1   -1    0    0    0  501  0.00000000000E+00  0.00000000000E+00  0.12915106553E+04  0.12915106553E+04  0.50400001928E-02 0.  1.
        1   -1    0    0  501    0  0.00000000000E+00  0.00000000000E+00 -0.22334263278E+04  0.22334263278E+04  0.50400001928E-02 0. -1.
    10030    2    1    2    0    0  0.00000000000E+00  0.00000000000E+00 -0.94191567252E+03  0.35249369832E+04  0.33967595736E+04 0.  0.
        3    1    3    3  502    0 -0.11368985456E+04 -0.21026862745E+03  0.82007096265E+03  0.14174863642E+04  0.10100000352E+00 0.  1.
       -3    1    3    3    0  502  0.11368985456E+04  0.21026862745E+03 -0.17619866352E+04  0.21074506190E+04  0.10100000352E+00 0. -1.
</event>
<event>
 5   0  0.4447909E-07  0.3412037E+04  0.7818609E-02  0.8134958E-01
       -2   -1    0    0    0  501  0.00000000000E+00  0.00000000000E+00  0.10573885051E+04  0.10573885051E+04  0.25500000920E-02 0.  1.
        2   -1    0    0  501    0  0.00000000000E+00  0.00000000000E+00 -0.27525346343E+04  0.27525346343E+04  0.25500000920E-02 0. -1.
    10030    2    1    2    0    0  0.00000000000E+00  0.00000000000E+00 -0.16951461292E+04  0.38099231394E+04  0.34120366247E+04 0.  0.
        5    1    3    3  502    0 -0.85005514150E+03 -0.81249840611E+03 -0.22277211583E+04  0.25190297840E+04  0.46999998093E+01 0. -1.
       -5    1    3    3    0  502  0.85005514150E+03  0.81249840611E+03  0.53257502903E+03  0.12908933554E+04  0.46999998093E+01 0.  1.
</event>
<event>
 5   0  0.1435806E-07  0.3409888E+04  0.7818609E-02  0.8135484E-01
       -1   -1    0    0    0  501  0.00000000000E+00  0.00000000000E+00  0.15543614890E+04  0.15543614890E+04  0.50400001928E-02 0. -1.
        1   -1    0    0  501    0  0.00000000000E+00  0.00000000000E+00 -0.18701142356E+04  0.18701142356E+04  0.50400001928E-02 0.  1.
    10030    2    1    2    0    0  0.00000000000E+00  0.00000000000E+00 -0.31575274658E+03  0.34244757247E+04  0.34098877096E+04 0.  0.
        3    1    3    3  502    0 -0.10903839448E+04  0.81124681820E+03  0.87598151947E+03  0.16169113086E+04  0.10100000352E+00 0. -1.
       -3    1    3    3    0  502  0.10903839448E+04 -0.81124681820E+03 -0.11917342661E+04  0.18075644161E+04  0.10100000352E+00 0.  1.
</event>
<event>
 5   0  0.4521737E-07  0.3401240E+04  0.7818609E-02  0.8137602E-01
       -2   -1    0    0    0  501  0.00000000000E+00  0.00000000000E+00  0.13475525269E+04  0.13475525269E+04  0.25500000920E-02 0. -1.
        2   -1    0    0  501    0  0.00000000000E+00  0.00000000000E+00 -0.21461935580E+04  0.21461935580E+04  0.25500000920E-02 0.  1.
    10030    2    1    2    0    0  0.00000000000E+00  0.00000000000E+00 -0.79864103112E+03  0.34937460849E+04  0.34012400987E+04 0.  0.
        4    1    3    3  502    0 -0.34973854206E+03  0.11281048599E+04 -0.16561880463E+04  0.20341824108E+04  0.12699999809E+01 0. -1.
       -4    1    3    3    0  502  0.34973854206E+03 -0.11281048599E+04  0.85754701516E+03  0.14595636741E+04  0.12699999809E+01 0.  1.
</event>
<event>
 5   0  0.1523259E-07  0.3393269E+04  0.7818609E-02  0.8139560E-01
        1   -1    0    0  501    0  0.00000000000E+00  0.00000000000E+00  0.12870715871E+04  0.12870715871E+04  0.50400001928E-02 0.  1.
       -1   -1    0    0    0  501  0.00000000000E+00  0.00000000000E+00 -0.22365254014E+04  0.22365254014E+04  0.50400001928E-02 0. -1.
    10030    2    1    2    0    0  0.00000000000E+00  0.00000000000E+00 -0.94945381435E+03  0.35235969885E+04  0.33932688063E+04 0.  0.
        4    1    3    3  502    0 -0.45500550069E+03  0.26794822674E+03  0.11995718670E+04  0.13106488984E+04  0.12699999809E+01 0.  1.
       -4    1    3    3    0  502  0.45500550069E+03 -0.26794822674E+03 -0.21490256813E+04  0.22129480902E+04  0.12699999809E+01 0. -1.
</event>
<event>
 5   0  0.4521737E-07  0.3364204E+04  0.7818609E-02  0.8146748E-01
        2   -1    0    0  501    0  0.00000000000E+00  0.00000000000E+00  0.16335884084E+04  0.16335884084E+04  0.25500000920E-02 0.  1.
       -2   -1    0    0    0  501  0.00000000000E+00  0.00000000000E+00 -0.17320560094E+04  0.17320560094E+04  0.25500000920E-02 0. -1.
    10030    2    1    2    0    0  0.00000000000E+00  0.00000000000E+00 -0.98467600922E+02  0.33656444178E+04  0.33642036916E+04 0.  0.
        4    1    3    3  502    0 -0.11969630626E+04  0.88857561795E+03  0.73031604788E+03  0.16600151640E+04  0.12699999809E+01 0.  1.
       -4    1    3    3    0  502  0.11969630626E+04 -0.88857561795E+03 -0.82878364880E+03  0.17056292538E+04  0.12699999809E+01 0. -1.
</event>
<event>
 5   0  0.4396257E-07  0.3410958E+04  0.7818609E-02  0.8135222E-01
        2   -1    0    0  501    0  0.00000000000E+00  0.00000000000E+00  0.14788810354E+04  0.14788810354E+04  0.25500000920E-02 0.  1.
       -2   -1    0    0    0  501  0.00000000000E+00  0.00000000000E+00 -0.19667963769E+04  0.19667963769E+04  0.25500000920E-02 0. -1.
    10030    2    1    2    0    0  0.00000000000E+00  0.00000000000E+00 -0.48791534150E+03  0.34456774124E+04  0.34109575561E+04 0.  0.
        2    1    3    3  502    0 -0.93616040372E+02 -0.50223701627E+03 -0.18876810855E+04  0.19555934813E+04  0.25500000920E-02 0. -1.
       -2    1    3    3    0  502  0.93616040372E+02  0.50223701627E+03  0.13997657440E+04  0.14900839311E+04  0.25500000920E-02 0.  1.
</event>
<event>
 5   0  0.1473755E-07  0.3442851E+04  0.7818609E-02  0.8127469E-01
        1   -1    0    0  501    0  0.00000000000E+00  0.00000000000E+00  0.19814623230E+04  0.19814623230E+04  0.50400001928E-02 0. -1.
       -1   -1    0    0    0  501  0.00000000000E+00  0.00000000000E+00 -0.14955149515E+04  0.14955149515E+04  0.50400001928E-02 0.  1.
    10030    2    1    2    0    0  0.00000000000E+00  0.00000000000E+00  0.48594737150E+03  0.34769772745E+04  0.34428514519E+04 0.  0.
        1    1    3    3  502    0 -0.82225241345E+03  0.98838301314E+03 -0.91305874605E+03  0.15769198730E+04  0.50400001928E-02 0.  1.
       -1    1    3    3    0  502  0.82225241345E+03 -0.98838301314E+03  0.13990061176E+04  0.19000574015E+04  0.50400001928E-02 0. -1.
</event>
<event>
 5   0  0.1473755E-07  0.3390701E+04  0.7818609E-02  0.8140192E-01
        1   -1    0    0  501    0  0.00000000000E+00  0.00000000000E+00  0.16753043298E+04  0.16753043298E+04  0.50400001928E-02 0. -1.
       -1   -1    0    0    0  501  0.00000000000E+00  0.00000000000E+00 -0.17156364519E+04  0.17156364519E+04  0.50400001928E-02 0.  1.
    10030    2    1    2    0    0  0.00000000000E+00  0.00000000000E+00 -0.40332122130E+02  0.33909407817E+04  0.33907009165E+04 0.  0.
        1    1    3    3  502    0 -0.24556182757E+03 -0.16316064967E+04 -0.40977391416E+03  0.17001044180E+04  0.50400001928E-02 0.  1.
       -1    1    3    3    0  502  0.24556182757E+03  0.16316064967E+04  0.36944179203E+03  0.16908363637E+04  0.50400001928E-02 0. -1.
</event>
<event>
 5   0  0.4447909E-07  0.3395410E+04  0.7818609E-02  0.8139034E-01
       -2   -1    0    0    0  501  0.00000000000E+00  0.00000000000E+00  0.20880472098E+04  0.20880472098E+04  0.25500000920E-02 0.  1.
        2   -1    0    0  501    0  0.00000000000E+00  0.00000000000E+00 -0.13803340740E+04  0.13803340740E+04  0.25500000920E-02 0. -1.
    10030    2    1    2    0    0  0.00000000000E+00  0.00000000000E+00  0.70771313586E+03  0.34683812838E+04  0.33954102620E+04 0.  0.
        5    1    3    3  502    0  0.48789884130E+03 -0.12300873854E+04 -0.73249348499E+03  0.15125240662E+04  0.46999998093E+01 0. -1.
       -5    1    3    3    0  502 -0.48789884130E+03  0.12300873854E+04  0.14402066209E+04  0.19558572177E+04  0.46999998093E+01 0.  1.
</event>
<event>
 5   0  0.4381939E-07  0.3404615E+04  0.7818609E-02  0.8136775E-01
        2   -1    0    0  501    0  0.00000000000E+00  0.00000000000E+00  0.18477985481E+04  0.18477985481E+04  0.25500000920E-02 0.  1.
       -2   -1    0    0    0  501  0.00000000000E+00  0.00000000000E+00 -0.15682717273E+04  0.15682717273E+04  0.25500000920E-02 0. -1.
    10030    2    1    2    0    0  0.00000000000E+00  0.00000000000E+00  0.27952682084E+03  0.34160702755E+04  0.34046146453E+04 0.  0.
        3    1    3    3  502    0  0.74410680643E+03  0.13209643254E+04 -0.63692678740E+03  0.16444809002E+04  0.10100000352E+00 0. -1.
       -3    1    3    3    0  502 -0.74410680643E+03 -0.13209643254E+04  0.91645360824E+03  0.17715893753E+04  0.10100000352E+00 0.  1.
</event>
<event>
 5   0  0.4447909E-07  0.3390826E+04  0.7818609E-02  0.8140162E-01
        2   -1    0    0  501    0  0.00000000000E+00  0.00000000000E+00  0.19649619183E+04  0.19649619183E+04  0.25500000920E-02 0.  1.
       -2   -1    0    0    0  501  0.00000000000E+00  0.00000000000E+00 -0.14628401222E+04  0.14628401222E+04  0.25500000920E-02 0. -1.
    10030    2    1    2    0    0  0.00000000000E+00  0.00000000000E+00  0.50212179609E+03  0.34278020406E+04  0.33908259364E+04 0.  0.
        5    1    3    3  502    0  0.78442161400E+03  0.91746465878E+02 -0.12655214242E+04  0.14917443640E+04  0.46999998093E+01 0. -1.
       -5    1    3    3    0  502 -0.78442161400E+03 -0.91746465878E+02  0.17676432203E+04  0.19360576765E+04  0.46999998093E+01 0.  1.
</event>
<event>
 5   0  0.1520084E-07  0.3340162E+04  0.7818609E-02  0.8152751E-01
        1   -1    0    0  501    0  0.00000000000E+00  0.00000000000E+00  0.13629213544E+04  0.13629213544E+04  0.50400001928E-02 0.  1.
       -1   -1    0    0    0  501  0.00000000000E+00  0.00000000000E+00 -0.20464642702E+04  0.20464642702E+04  0.50400001928E-02 0. -1.
    10030    2    1    2    0    0  0.00000000000E+00  0.00000000000E+00 -0.68354291575E+03  0.34093856246E+04  0.33401615859E+04 0.  0.
        2    1    3    3  502    0  0.57603232559E+03  0.87515846508E+03  0.98574153302E+03  0.14385416049E+04  0.25500000920E-02 0.  1.
       -2    1    3    3    0  502 -0.57603232559E+03 -0.87515846508E+03 -0.16692844488E+04  0.19708440197E+04  0.25500000920E-02 0. -1.
</event>
<event>
 5   0  0.4521737E-07  0.3389267E+04  0.7818609E-02  0.8140546E-01
       -2   -1    0    0    0  501  0.00000000000E+00  0.00000000000E+00  0.15340150856E+04  0.15340150856E+04  0.25500000920E-02 0.  1.
        2   -1    0    0  501    0  0.00000000000E+00  0.00000000000E+00 -0.18720690673E+04  0.18720690673E+04  0.25500000920E-02 0. -1.
    10030    2    1    2    0    0  0.00000000000E+00  0.00000000000E+00 -0.33805398163E+03  0.34060841529E+04  0.33892666998E+04 0.  0.
        4    1    3    3  502    0  0.23723910764E+02  0.16656163398E+04  0.14386975934E+03  0.16719870621E+04  0.12699999809E+01 0.  1.
       -4    1    3    3    0  502 -0.23723910764E+02 -0.16656163398E+04 -0.48192374096E+03  0.17340970908E+04  0.12699999809E+01 0. -1.
</event>
<event>
 5   0  0.1435806E-07  0.3397892E+04  0.7818609E-02  0.8138424E-01
        1   -1    0    0  501    0  0.00000000000E+00  0.00000000000E+00  0.18906160184E+04  0.18906160184E+04  0.50400001928E-02 0.  1.
       -1   -1    0    0    0  501  0.00000000000E+00  0.00000000000E+00 -0.15267077281E+04  0.15267077281E+04  0.50400001928E-02 0. -1.
    10030    2    1    2    0    0  0.00000000000E+00  0.00000000000E+00  0.36390829035E+03  0.34173237465E+04  0.33978923386E+04 0.  0.
        3    1    3    3  502    0  0.73774279100E+03 -0.57068828392E+03 -0.12461906282E+04  0.15565797876E+04  0.10100000352E+00 0. -1.
       -3    1    3    3    0  502 -0.73774279100E+03  0.57068828392E+03  0.16100989185E+04  0.18607439590E+04  0.10100000352E+00 0.  1.
</event>
<event>
 5   0  0.4381939E-07  0.3431154E+04  0.7818609E-02  0.8130302E-01
        2   -1    0    0  501    0  0.00000000000E+00  0.00000000000E+00  0.19022449648E+04  0.19022449648E+04  0.25500000920E-02 0. -1.
       -2   -1    0    0    0  501  0.00000000000E+00  0.00000000000E+00 -0.15472270452E+04  0.15472270452E+04  0.25500000920E-02 0.  1.
    10030    2    1    2    0    0  0.00000000000E+00  0.00000000000E+00  0.35501791959E+03  0.34494720100E+04  0.34311542409E+04 0.  0.
        3    1    3    3  502    0 -0.11983499255E+04 -0.46031410038E+03 -0.96666768623E+03  0.16069779216E+04  0.10100000352E+00 0.  1.
       -3    1    3    3    0  502  0.11983499255E+04  0.46031410038E+03  0.13216856058E+04  0.18424940884E+04  0.10100000352E+00 0. -1.
</event>
<event>
 5   0  0.1473755E-07  0.3396239E+04  0.7818609E-02  0.8138830E-01
       -1   -1    0    0    0  501  0.00000000000E+00  0.00000000000E+00  0.18619081189E+04  0.18619081189E+04  0.50400001928E-02 0. -1.
        1   -1    0    0  501    0  0.00000000000E+00  0.00000000000E+00 -0.15487392276E+04  0.15487392276E+04  0.50400001928E-02 0.  1.
    10030    2    1    2    0    0  0.00000000000E+00  0.00000000000E+00  0.31316889133E+03  0.34106473465E+04  0.33962391800E+04 0.  0.
        1    1    3    3  502    0  0.34817107759E+03  0.11462017356E+04  0.13652720882E+04  0.18163065250E+04  0.50400001928E-02 0. -1.
       -1    1    3    3    0  502 -0.34817107759E+03 -0.11462017356E+04 -0.10521031969E+04  0.15943408214E+04  0.50400001928E-02 0.  1.
</event>
<event>
 5   0  0.4447909E-07  0.3355416E+04  0.7818609E-02  0.8148936E-01
       -2   -1    0    0    0  501  0.00000000000E+00  0.00000000000E+00  0.92471759903E+03  0.92471759903E+03  0.25500000920E-02 0.  1.
        2   -1    0    0  501    0  0.00000000000E+00  0.00000000000E+00 -0.30438534169E+04  0.30438534169E+04  0.25500000920E-02 0. -1.
    10030    2    1    2    0    0  0.00000000000E+00  0.00000000000E+00 -0.21191358179E+04  0.39685710159E+04  0.33554164114E+04 0.  0.
        5    1    3    3  502    0  0.10837178542E+04 -0.12106038095E+04 -0.15538846269E+04  0.22482405332E+04  0.46999998093E+01 0.  1.
       -5    1    3    3    0  502 -0.10837178542E+04  0.12106038095E+04 -0.56525119096E+03  0.17203304828E+04  0.46999998093E+01 0. -1.
</event>
<event>
 5   0  0.1523259E-07  0.3405793E+04  0.7818609E-02  0.8136486E-01
       -1   -1    0    0    0  501  0.00000000000E+00  0.00000000000E+00  0.15008011578E+04  0.15008011578E+04  0.50400001928E-02 0.  1.
        1   -1    0    0  501    0  0.00000000000E+00  0.00000000000E+00 -0.19322054202E+04  0.19322054202E+04  0.50400001928E-02 0. -1.
    10030    2    1    2    0    0  0.00000000000E+00  0.00000000000E+00 -0.43140426243E+03  0.34330065780E+04  0.34057927898E+04 0.  0.
        4    1    3    3  502    0  0.10428729044E+04 -0.65411115383E+03 -0.14017129639E+04  0.18655417825E+04  0.12699999809E+01 0. -1.
       -4    1    3    3    0  502 -0.10428729044E+04  0.65411115383E+03  0.97030870142E+03  0.15674647955E+04  0.12699999809E+01 0.  1.
</event>
<event>
 5   0  0.4396257E-07  0.3409745E+04  0.7818609E-02  0.8135519E-01
        2   -1    0    0  501    0  0.00000000000E+00  0.00000000000E+00  0.19637015121E+04  0.19637015121E+04  0.25500000920E-02 0. -1.
       -2   -1    0    0    0  501  0.00000000000E+00  0.00000000000E+00 -0.14801585064E+04  0.14801585064E+04  0.25500000920E-02 0.  1.
    10030    2    1    2    0    0  0.00000000000E+00  0.00000000000E+00  0.48354300564E+03  0.34438600185E+04  0.34097445636E+04 0.  0.
        2    1    3    3  502    0  0.90526289246E+03  0.14061169008E+04 -0.93093389744E+02  0.16749125417E+04  0.25500000920E-02 0.  1.
       -2    1    3    3    0  502 -0.90526289246E+03 -0.14061169008E+04  0.57663639538E+03  0.17689474768E+04  0.25500000920E-02 0. -1.
</event>
<event>
 5   0  0.4381939E-07  0.3393616E+04  0.7818609E-02  0.8139475E-01
       -2   -1    0    0    0  501  0.00000000000E+00  0.00000000000E+00  0.11470155287E+04  0.11470155287E+04  0.25500000920E-02 0.  1.
        2   -1    0    0  501    0  0.00000000000E+00  0.00000000000E+00 -0.25101287928E+04  0.25101287928E+04  0.25500000920E-02 0. -1.
    10030    2    1    2    0    0  0.00000000000E+00  0.00000000000E+00 -0.13631132640E+04  0.36571443215E+04  0.33936155966E+04 0.  0.
        3    1    3    3  502    0  0.40566607665E+03 -0.16459926040E+04 -0.60310165456E+03  0.17993299403E+04  0.10100000352E+00 0. -1.
       -3    1    3    3    0  502 -0.40566607665E+03  0.16459926040E+04 -0.76001160949E+03  0.18578143812E+04  0.10100000352E+00 0.  1.
</event>
<event>
 5   0  0.1421875E-07  0.3403680E+04  0.7818609E-02  0.8137004E-01
       -1   -1    0    0    0  501  0.00000000000E+00  0.00000000000E+00  0.15485583285E+04  0.15485583285E+04  0.50400001928E-02 0.  1.
        1   -1    0    0  501    0  0.00000000000E+00  0.00000000000E+00 -0.18702938143E+04  0.18702938143E+04  0.50400001928E-02 0. -1.
    10030    2    1    2    0    0  0.00000000000E+00  0.00000000000E+00 -0.32173548578E+03  0.34188521427E+04  0.34036798103E+04 0.  0.
        5    1    3    3  502    0  0.19606027184E+03 -0.94371705356E+03 -0.15696873192E+04  0.18420048527E+04  0.46999998093E+01 0. -1.
       -5    1    3    3    0  502 -0.19606027184E+03  0.94371705356E+03  0.12479518335E+04  0.15768472900E+04  0.46999998093E+01 0.  1.
</event>
<event>
 5   0  0.1520084E-07  0.3378994E+04  0.7818609E-02  0.8143081E-01
       -1   -1    0    0    0  501  0.00000000000E+00  0.00000000000E+00  0.13864932843E+04  0.13864932843E+04  0.50400001928E-02 0. -1.
        1   -1    0    0  501    0  0.00000000000E+00  0.00000000000E+00 -0.20587189472E+04  0.20587189472E+04  0.50400001928E-02 0.  1.
    10030    2    1    2    0    0  0.00000000000E+00  0.00000000000E+00 -0.67222566295E+03  0.34452122315E+04  0.33789939299E+04 0.  0.
        2    1    3    3  502    0  0.33141279015E+03 -0.98995576258E+03 -0.16905096980E+04  0.19868744018E+04  0.25500000920E-02 0.  1.
       -2    1    3    3    0  502 -0.33141279015E+03  0.98995576258E+03  0.10182840351E+04  0.14583378297E+04  0.25500000920E-02 0. -1.
</event>
<event>
 5   0  0.4521737E-07  0.3388320E+04  0.7818609E-02  0.8140779E-01
       -2   -1    0    0    0  501  0.00000000000E+00  0.00000000000E+00  0.12264566231E+04  0.12264566231E+04  0.25500000920E-02 0. -1.
        2   -1    0    0  501    0  0.00000000000E+00  0.00000000000E+00 -0.23402199200E+04  0.23402199200E+04  0.25500000920E-02 0.  1.
    10030    2    1    2    0    0  0.00000000000E+00  0.00000000000E+00 -0.11137632969E+04  0.35666765431E+04  0.33883200677E+04 0.  0.
        4    1    3    3  502    0 -0.14017503250E+04  0.63301977058E+03 -0.13045949484E+04  0.20168261194E+04  0.12699999809E+01 0.  1.
       -4    1    3    3    0  502  0.14017503250E+04 -0.63301977058E+03  0.19083165141E+03  0.15498504237E+04  0.12699999809E+01 0. -1.
</event>
<event>
 5   0  0.4396257E-07  0.3375955E+04  0.7818609E-02  0.8143833E-01
       -2   -1    0    0    0  501  0.00000000000E+00  0.00000000000E+00  0.14804685352E+04  0.14804685352E+04  0.25500000920E-02 0. -1.
        2   -1    0    0  501    0  0.00000000000E+00  0.00000000000E+00 -0.19245715369E+04  0.19245715369E+04  0.25500000920E-02 0.  1.
    10030    2    1    2    0    0  0.00000000000E+00  0.00000000000E+00 -0.44410300173E+03  0.34050400720E+04  0.33759547414E+04 0.  0.
        2    1    3    3  502    0  0.10397670697E+04 -0.11463331205E+04  0.45760296397E+03  0.16138759726E+04  0.25500000920E-02 0. -1.
       -2    1    3    3    0  502 -0.10397670697E+04  0.11463331205E+04 -0.90170596570E+03  0.17911640994E+04  0.25500000920E-02 0.  1.
</event>
<event>
 5   0  0.1520084E-07  0.3427996E+04  0.7818609E-02  0.8131069E-01
        1   -1    0    0  501    0  0.00000000000E+00  0.00000000000E+00  0.20771445011E+04  0.20771445011E+04  0.50400001928E-02 0. -1.
       -1   -1    0    0    0  501  0.00000000000E+00  0.00000000000E+00 -0.14143400135E+04  0.14143400135E+04  0.50400001928E-02 0.  1.
    10030    2    1    2    0    0  0.00000000000E+00  0.00000000000E+00  0.66280448756E+03  0.34914845146E+04  0.34279956720E+04 0.  0.
        2    1    3    3  502    0  0.12281967773E+04  0.81281781168E+03  0.12243658042E+04  0.19152576175E+04  0.25500000920E-02 0. -1.
       -2    1    3    3    0  502 -0.12281967773E+04 -0.81281781168E+03 -0.56156131668E+03  0.15762268971E+04  0.25500000920E-02 0.  1.
</event>
<event>
 5   0  0.4396257E-07  0.3408758E+04  0.7818609E-02  0.8135760E-01
        2   -1    0    0  501    0  0.00000000000E+00  0.00000000000E+00  0.20270358228E+04  0.20270358228E+04  0.25500000920E-02 0.  1.
       -2   -1    0    0    0  501  0.00000000000E+00  0.00000000000E+00 -0.14330814655E+04  0.14330814655E+04  0.25500000920E-02 0. -1.
    10030    2    1    2    0    0  0.00000000000E+00  0.00000000000E+00  0.59395435730E+03  0.34601172882E+04  0.34087578192E+04 0.  0.
        2    1    3    3  502    0 -0.16665557595E+04 -0.24917614470E+03  0.37368745926E+02  0.16854949641E+04  0.25500000920E-02 0.  1.
       -2    1    3    3    0  502  0.16665557595E+04  0.24917614470E+03  0.55658561138E+03  0.17746223242E+04  0.25500000920E-02 0. -1.
</event>
<event>
 5   0  0.4447909E-07  0.3384906E+04  0.7818609E-02  0.8141621E-01
        2   -1    0    0  501    0  0.00000000000E+00  0.00000000000E+00  0.27181941221E+04  0.27181941221E+04  0.25500000920E-02 0. -1.
       -2   -1    0    0    0  501  0.00000000000E+00  0.00000000000E+00 -0.10537868583E+04  0.10537868583E+04  0.25500000920E-02 0.  1.
    10030    2    1    2    0    0  0.00000000000E+00  0.00000000000E+00  0.16644072638E+04  0.37719809804E+04  0.33849060514E+04 0.  0.
        5    1    3    3  502    0 -0.13029509309E+03 -0.16806229908E+04  0.10008532006E+04  0.19604080359E+04  0.46999998093E+01 0. -1.
       -5    1    3    3    0  502  0.13029509309E+03  0.16806229908E+04  0.66355406326E+03  0.18115729445E+04  0.46999998093E+01 0.  1.
</event>
<event>
 5   0  0.4521737E-07  0.3407404E+04  0.7818609E-02  0.8136091E-01
       -2   -1    0    0    0  501  0.00000000000E+00  0.00000000000E+00  0.15407794550E+04  0.15407794550E+04  0.25500000920E-02 0.  1.
        2   -1    0    0  501    0  0.00000000000E+00  0.00000000000E+00 -0.18838522346E+04  0.18838522346E+04  0.25500000920E-02 0. -1.
    10030    2    1    2    0    0  0.00000000000E+00  0.00000000000E+00 -0.34307277954E+03  0.34246316896E+04  0.34074041846E+04 0.  0.
        4    1    3    3  502    0  0.16132911039E+04 -0.29014614569E+03  0.29525363593E+03  0.16655537501E+04  0.12699999809E+01 0.  1.
       -4    1    3    3    0  502 -0.16132911039E+04  0.29014614569E+03 -0.63832641547E+03  0.17590779396E+04  0.12699999809E+01 0. -1.
</event>
<event>
 5   0  0.4396257E-07  0.3431833E+04  0.7818609E-02  0.8130137E-01
       -2   -1    0    0    0  501  0.00000000000E+00  0.00000000000E+00  0.16193687235E+04  0.16193687235E+04  0.25500000920E-02 0.  1.
        2   -1    0    0  501    0  0.00000000000E+00  0.00000000000E+00 -0.18182208100E+04  0.18182208100E+04  0.25500000920E-02 0. -1.
    10030    2    1    2    0    0  0.00000000000E+00  0.00000000000E+00 -0.19885208648E+03  0.34375895336E+04  0.34318332782E+04 0.  0.
        2    1    3    3  502    0 -0.33348006017E+03 -0.10965529342E+04  0.11797173057E+04  0.16448009635E+04  0.25500000920E-02 0.  1.
       -2    1    3    3    0  502  0.33348006017E+03  0.10965529342E+04 -0.13785693922E+04  0.17927885701E+04  0.25500000920E-02 0. -1.
</event>
<event>
 5   0  0.4447909E-07  0.3406511E+04  0.7818609E-02  0.8136310E-01
        2   -1    0    0  501    0  0.00000000000E+00  0.00000000000E+00  0.89019562826E+03  0.89019562827E+03  0.25500000920E-02 0. -1.
       -2   -1    0    0    0  501  0.00000000000E+00  0.00000000000E+00 -0.32589232640E+04  0.32589232640E+04  0.25500000920E-02 0.  1.
    10030    2    1    2    0    0  0.00000000000E+00  0.00000000000E+00 -0.23687276357E+04  0.41491188922E+04  0.34065109672E+04 0.  0.
        5    1    3    3  502    0  0.11399512033E+04 -0.12232817924E+04 -0.15793217646E+04  0.23000405248E+04  0.46999998093E+01 0.  1.
       -5    1    3    3    0  502 -0.11399512033E+04  0.12232817924E+04 -0.78940587109E+03  0.18490783674E+04  0.46999998093E+01 0. -1.
</event>
<event>
 5   0  0.1473755E-07  0.3387796E+04  0.7818609E-02  0.8140908E-01
       -1   -1    0    0    0  501  0.00000000000E+00  0.00000000000E+00  0.18291330424E+04  0.18291330424E+04  0.50400001928E-02 0. -1.
        1   -1    0    0  501    0  0.00000000000E+00  0.00000000000E+00 -0.15686612315E+04  0.15686612316E+04  0.50400001928E-02 0.  1.
    10030    2    1    2    0    0  0.00000000000E+00  0.00000000000E+00  0.26047181088E+03  0.33977942740E+04  0.33877957973E+04 0.  0.
        1    1    3    3  502    0 -0.24735014272E+03 -0.26401550950E+03 -0.15294602970E+04  0.15716663395E+04  0.50400001928E-02 0.  1.
       -1    1    3    3    0  502  0.24735014272E+03  0.26401550950E+03  0.17899321079E+04  0.18261279345E+04  0.50400001928E-02 0. -1.
</event>
<event>
 5   0  0.4381939E-07  0.3395293E+04  0.7818609E-02  0.8139063E-01
       -2   -1    0    0    0  501  0.00000000000E+00  0.00000000000E+00  0.16497707897E+04  0.16497707897E+04  0.25500000920E-02 0.  1.
        2   -1    0    0  501    0  0.00000000000E+00  0.00000000000E+00 -0.17469114621E+04  0.17469114621E+04  0.25500000920E-02 0. -1.
    10030    2    1    2    0    0  0.00000000000E+00  0.00000000000E+00 -0.97140672322E+02  0.33966822518E+04  0.33952929195E+04 0.  0.
        3    1    3    3  502    0  0.93099849192E+03  0.63030141549E+02 -0.14673440454E+04  0.17389161994E+04  0.10100000352E+00 0. -1.
       -3    1    3    3    0  502 -0.93099849192E+03 -0.63030141549E+02  0.13702033731E+04  0.16577660524E+04  0.10100000352E+00 0.  1.
</event>
<event>
 5   0  0.1473755E-07  0.3426658E+04  0.7818609E-02  0.8131394E-01
       -1   -1    0    0    0  501  0.00000000000E+00  0.00000000000E+00  0.17108453734E+04  0.17108453734E+04  0.50400001928E-02 0. -1.
        1   -1    0    0  501    0  0.00000000000E+00  0.00000000000E+00 -0.17158159668E+04  0.17158159668E+04  0.50400001928E-02 0.  1.
    10030    2    1    2    0    0  0.00000000000E+00  0.00000000000E+00 -0.49705934611E+01  0.34266613402E+04  0.34266577351E+04 0.  0.
        1    1    3    3  502    0 -0.12918321661E+04  0.42407850002E+03  0.10400237802E+04  0.17118184434E+04  0.50400001928E-02 0. -1.
       -1    1    3    3    0  502  0.12918321661E+04 -0.42407850002E+03 -0.10449943737E+04  0.17148428968E+04  0.50400001928E-02 0.  1.
</event>
<event>
 5   0  0.4396257E-07  0.3407412E+04  0.7818609E-02  0.8136090E-01
        2   -1    0    0  501    0  0.00000000000E+00  0.00000000000E+00  0.91783893968E+03  0.91783893968E+03  0.25500000920E-02 0. -1.
       -2   -1    0    0    0  501  0.00000000000E+00  0.00000000000E+00 -0.31624431150E+04  0.31624431150E+04  0.25500000920E-02 0.  1.
    10030    2    1    2    0    0  0.00000000000E+00  0.00000000000E+00 -0.22446041753E+04  0.40802820547E+04  0.34074115897E+04 0.  0.
        2    1    3    3  502    0  0.41118625165E+03 -0.35301626883E+03 -0.30564775596E+04  0.31041503977E+04  0.25500000920E-02 0.  1.
       -2    1    3    3    0  502 -0.41118625165E+03  0.35301626883E+03  0.81187338426E+03  0.97613165694E+03  0.25500000920E-02 0. -1.
</event>
<event>
 5   0  0.4447909E-07  0.3382061E+04  0.7818609E-02  0.8142323E-01
       -2   -1    0    0    0  501  0.00000000000E+00  0.00000000000E+00  0.13120622896E+04  0.13120622896E+04  0.25500000920E-02 0.  1.
        2   -1    0    0  501    0  0.00000000000E+00  0.00000000000E+00 -0.21794574702E+04  0.21794574702E+04  0.25500000920E-02 0. -1.
    10030    2    1    2    0    0  0.00000000000E+00  0.00000000000E+00 -0.86739518065E+03  0.34915197598E+04  0.33820608856E+04 0.  0.
        5    1    3    3  502    0  0.30261231379E+03  0.14036348734E+04  0.48840496802E+03  0.15166827530E+04  0.46999998093E+01 0.  1.
       -5    1    3    3    0  502 -0.30261231379E+03 -0.14036348734E+04 -0.13558001487E+04  0.19748370068E+04  0.46999998093E+01 0. -1.
</event>
<event>
 5   0  0.1435806E-07  0.3387980E+04  0.7818609E-02  0.8140863E-01
       -1   -1    0    0    0  501  0.00000000000E+00  0.00000000000E+00  0.26105601294E+04  0.26105601294E+04  0.50400001928E-02 0. -1.
        1   -1    0    0  501    0  0.00000000000E+00  0.00000000000E+00 -0.10992282709E+04  0.10992282709E+04  0.50400001928E-02 0.  1.
    10030    2    1    2    0    0  0.00000000000E+00  0.00000000000E+00  0.15113318585E+04  0.37097884003E+04  0.33879796322E+04 0.  0.
        3    1    3    3  502    0 -0.27948355490E+03  0.16649840633E+04  0.60347280489E+03  0.17928921955E+04  0.10100000352E+00 0. -1.
       -3    1    3    3    0  502  0.27948355490E+03 -0.16649840633E+04  0.90785905358E+03  0.19168962047E+04  0.10100000352E+00 0.  1.
</event>
<event>
 5   0  0.1473755E-07  0.3402903E+04  0.7818609E-02  0.8137194E-01
        1   -1    0    0  501    0  0.00000000000E+00  0.00000000000E+00  0.19883278970E+04  0.19883278970E+04  0.50400001928E-02 0. -1.
       -1   -1    0    0    0  501  0.00000000000E+00  0.00000000000E+00 -0.14559659266E+04  0.14559659266E+04  0.50400001928E-02 0.  1.
    10030    2    1    2    0    0  0.00000000000E+00  0.00000000000E+00  0.53236197034E+03  0.34442938236E+04  0.34029032716E+04 0.  0.
        1    1    3    3  502    0  0.14752901212E+04 -0.82354086611E+03  0.46921289380E+03  0.17535282261E+04  0.50400001928E-02 0. -1.
       -1    1    3    3    0  502 -0.14752901212E+04  0.82354086611E+03  0.63149076536E+02  0.16907655975E+04  0.50400001928E-02 0.  1.
</event>
<event>
 5   0  0.1421875E-07  0.3408293E+04  0.7818609E-02  0.8135874E-01
       -1   -1    0    0    0  501  0.00000000000E+00  0.00000000000E+00  0.14488287433E+04  0.14488287433E+04  0.50400001928E-02 0. -1.
        1   -1    0    0  501    0  0.00000000000E+00  0.00000000000E+00 -0.20044575838E+04  0.20044575838E+04  0.50400001928E-02 0.  1.
    10030    2    1    2    0    0  0.00000000000E+00  0.00000000000E+00 -0.55562884047E+03  0.34532863271E+04  0.34082932750E+04 0.  0.
        5    1    3    3  502    0  0.42886839249E+03  0.20016785746E+03  0.13808976365E+04  0.14597587614E+04  0.46999998093E+01 0. -1.
       -5    1    3    3    0  502 -0.42886839249E+03 -0.20016785746E+03 -0.19365264769E+04  0.19935275657E+04  0.46999998093E+01 0.  1.
</event>
<event>
 5   0  0.1421875E-07  0.3398736E+04  0.7818609E-02  0.8138217E-01
       -3   -1    0    0    0  501  0.00000000000E+00  0.00000000000E+00  0.14196461058E+04  0.14196461094E+04  0.10100000352E+00 0.  1.
        3   -1    0    0  501    0  0.00000000000E+00  0.00000000000E+00 -0.20342053635E+04  0.20342053660E+04  0.10100000352E+00 0. -1.
    10030    2    1    2    0    0  0.00000000000E+00  0.00000000000E+00 -0.61455925773E+03  0.34538514754E+04  0.33987360788E+04 0.  0.
        5    1    3    3  502    0  0.52008410627E+03  0.10730867353E+04 -0.15376265256E+04  0.19458468700E+04  0.46999998093E+01 0. -1.
       -5    1    3    3    0  502 -0.52008410627E+03 -0.10730867353E+04  0.92306726791E+03  0.15080046055E+04  0.46999998093E+01 0.  1.
</event>
<event>
 5   0  0.1435806E-07  0.3433428E+04  0.7818609E-02  0.8129750E-01
       -1   -1    0    0    0  501  0.00000000000E+00  0.00000000000E+00  0.24429718316E+04  0.24429718316E+04  0.50400001928E-02 0. -1.
        1   -1    0    0  501    0  0.00000000000E+00  0.00000000000E+00 -0.12063614611E+04  0.12063614611E+04  0.50400001928E-02 0.  1.
    10030    2    1    2    0    0  0.00000000000E+00  0.00000000000E+00  0.12366103705E+04  0.36493332927E+04  0.34334280643E+04 0.  0.
        3    1    3    3  502    0  0.13527570144E+04  0.96898490408E+03  0.16959245194E+03  0.16726161826E+04  0.10100000352E+00 0.  1.
       -3    1    3    3    0  502 -0.13527570144E+04 -0.96898490408E+03  0.10670179185E+04  0.19767171100E+04  0.10100000352E+00 0. -1.
</event>
<event>
 5   0  0.4447909E-07  0.3450170E+04  0.7818609E-02  0.8125701E-01
        2   -1    0    0  501    0  0.00000000000E+00  0.00000000000E+00  0.23308260989E+04  0.23308260989E+04  0.25500000920E-02 0.  1.
       -2   -1    0    0    0  501  0.00000000000E+00  0.00000000000E+00 -0.12767657640E+04  0.12767657640E+04  0.25500000920E-02 0. -1.
    10030    2    1    2    0    0  0.00000000000E+00  0.00000000000E+00  0.10540603349E+04  0.36075918629E+04  0.34501704102E+04 0.  0.
        5    1    3    3  502    0  0.48968662321E+03 -0.26257878219E+03 -0.11806285653E+04  0.13048549747E+04  0.46999998093E+01 0. -1.
       -5    1    3    3    0  502 -0.48968662321E+03  0.26257878219E+03  0.22346889001E+04  0.23027368882E+04  0.46999998093E+01 0.  1.
</event>
<event>
 5   0  0.1421875E-07  0.3396445E+04  0.7818609E-02  0.8138779E-01
        3   -1    0    0  501    0  0.00000000000E+00  0.00000000000E+00  0.13691182372E+04  0.13691182409E+04  0.10100000352E+00 0.  1.
       -3   -1    0    0    0  501  0.00000000000E+00  0.00000000000E+00 -0.21064359041E+04  0.21064359065E+04  0.10100000352E+00 0. -1.
    10030    2    1    2    0    0  0.00000000000E+00  0.00000000000E+00 -0.73731766690E+03  0.34755541474E+04  0.33964450959E+04 0.  0.
        5    1    3    3  502    0 -0.63632958694E+02 -0.14811745961E+04  0.47889015264E+03  0.15579747129E+04  0.46999998093E+01 0.  1.
       -5    1    3    3    0  502  0.63632958694E+02  0.14811745961E+04 -0.12162078195E+04  0.19175794346E+04  0.46999998093E+01 0. -1.
</event>
<event>
 5   0  0.4447909E-07  0.3406348E+04  0.7818609E-02  0.8136350E-01
        2   -1    0    0  501    0  0.00000000000E+00  0.00000000000E+00  0.19717676058E+04  0.19717676058E+04  0.25500000920E-02 0. -1.
       -2   -1    0    0    0  501  0.00000000000E+00  0.00000000000E+00 -0.14711685156E+04  0.14711685156E+04  0.25500000920E-02 0.  1.
    10030    2    1    2    0    0  0.00000000000E+00  0.00000000000E+00  0.50059909024E+03  0.34429361214E+04  0.34063484389E+04 0.  0.
        5    1    3    3  502    0  0.81660928586E+03  0.47033777527E+03  0.16842386578E+04  0.19299612160E+04  0.46999998093E+01 0. -1.
       -5    1    3    3    0  502 -0.81660928586E+03 -0.47033777527E+03 -0.11836395676E+04  0.15129749055E+04  0.46999998093E+01 0.  1.
</event>
<event>
 5   0  0.1473755E-07  0.3442207E+04  0.7818609E-02  0.8127624E-01
        1   -1    0    0  501    0  0.00000000000E+00  0.00000000000E+00  0.26842241727E+04  0.26842241727E+04  0.50400001928E-02 0.  1.
       -1   -1    0    0    0  501  0.00000000000E+00  0.00000000000E+00 -0.11035581674E+04  0.11035581674E+04  0.50400001928E-02 0. -1.
    10030    2    1    2    0    0  0.00000000000E+00  0.00000000000E+00  0.15806660053E+04  0.37877823401E+04  0.34422071459E+04 0.  0.
        1    1    3    3  502    0  0.13926896331E+04  0.54815308087E+03 -0.14476924988E+03  0.15036669678E+04  0.50400001928E-02 0. -1.
       -1    1    3    3    0  502 -0.13926896331E+04 -0.54815308087E+03  0.17254352551E+04  0.22841153723E+04  0.50400001928E-02 0.  1.
</event>
<event>
 5   0  0.1421875E-07  0.3378415E+04  0.7818609E-02  0.8143224E-01
        1   -1    0    0  501    0  0.00000000000E+00  0.00000000000E+00  0.17851312958E+04  0.17851312958E+04  0.50400001928E-02 0.  1.
       -1   -1    0    0    0  501  0.00000000000E+00  0.00000000000E+00 -0.15984384135E+04  0.15984384135E+04  0.50400001928E-02 0. -1.
    10030    2    1    2    0    0  0.00000000000E+00  0.00000000000E+00  0.18669288230E+03  0.33835697092E+04  0.33784152712E+04 0.  0.
        5    1    3    3  502    0 -0.49984071215E+03  0.94873048352E+03  0.14005082528E+04  0.17639092165E+04  0.46999998093E+01 0.  1.
       -5    1    3    3    0  502  0.49984071215E+03 -0.94873048352E+03 -0.12138153705E+04  0.16196604927E+04  0.46999998093E+01 0. -1.
</event>
<event>
 5   0  0.4381939E-07  0.3407031E+04  0.7818609E-02  0.8136183E-01
        2   -1    0    0  501    0  0.00000000000E+00  0.00000000000E+00  0.14549424801E+04  0.14549424801E+04  0.25500000920E-02 0. -1.
       -2   -1    0    0    0  501  0.00000000000E+00  0.00000000000E+00 -0.19945559823E+04  0.19945559823E+04  0.25500000920E-02 0.  1.
    10030    2    1    2    0    0  0.00000000000E+00  0.00000000000E+00 -0.53961350219E+03  0.34494984624E+04  0.34070305121E+04 0.  0.
        3    1    3    3  502    0  0.81915074275E+03  0.15273281913E+03  0.12345227568E+04  0.14894232779E+04  0.10100000352E+00 0. -1.
       -3    1    3    3    0  502 -0.81915074275E+03 -0.15273281913E+03 -0.17741362590E+04  0.19600751845E+04  0.10100000352E+00 0.  1.
</event>
<event>
 5   0  0.4447909E-07  0.3366809E+04  0.7818609E-02  0.8146101E-01
        2   -1    0    0  501    0  0.00000000000E+00  0.00000000000E+00  0.15467138318E+04  0.15467138318E+04  0.25500000920E-02 0.  1.
       -2   -1    0    0    0  501  0.00000000000E+00  0.00000000000E+00 -0.18321756630E+04  0.18321756630E+04  0.25500000920E-02 0. -1.
    10030    2    1    2    0    0  0.00000000000E+00  0.00000000000E+00 -0.28546183127E+03  0.33788894948E+04  0.33668094334E+04 0.  0.
        5    1    3    3  502    0 -0.13083125082E+04  0.11818025002E+03  0.91374800057E+03  0.16001892667E+04  0.46999998093E+01 0.  1.
       -5    1    3    3    0  502  0.13083125082E+04 -0.11818025002E+03 -0.11992098318E+04  0.17787002281E+04  0.46999998093E+01 0. -1.
</event>
<event>
 5   0  0.4521737E-07  0.3494977E+04  0.7818609E-02  0.8114981E-01
        2   -1    0    0  501    0  0.00000000000E+00  0.00000000000E+00  0.23826759982E+04  0.23826759982E+04  0.25500000920E-02 0.  1.
       -2   -1    0    0    0  501  0.00000000000E+00  0.00000000000E+00 -0.12816329325E+04  0.12816329325E+04  0.25500000920E-02 0. -1.
    10030    2    1    2    0    0  0.00000000000E+00  0.00000000000E+00  0.11010430657E+04  0.36643089307E+04  0.34949769823E+04 0.  0.
        4    1    3    3  502    0  0.17869219180E+03  0.14130078914E+04  0.16120958687E+04  0.21511338645E+04  0.12699999809E+01 0.  1.
       -4    1    3    3    0  502 -0.17869219180E+03 -0.14130078914E+04 -0.51105280302E+03  0.15131750662E+04  0.12699999809E+01 0. -1.
</event>
<event>
 5   0  0.1435806E-07  0.3368666E+04  0.7818609E-02  0.8145640E-01
       -1   -1    0    0    0  501  0.00000000000E+00  0.00000000000E+00  0.13489197236E+04  0.13489197236E+04  0.50400001928E-02 0.  1.
        1   -1    0    0  501    0  0.00000000000E+00  0.00000000000E+00 -0.21031474646E+04  0.21031474646E+04  0.50400001928E-02 0. -1.
    10030    2    1    2    0    0  0.00000000000E+00  0.00000000000E+00 -0.75422774095E+03  0.34520671882E+04  0.33686656686E+04 0.  0.
        3    1    3    3  502    0 -0.74682851076E+03  0.24418656879E+03 -0.19038304142E+04  0.20595995148E+04  0.10100000352E+00 0. -1.
       -3    1    3    3    0  502  0.74682851076E+03 -0.24418656879E+03  0.11496026733E+04  0.13924676734E+04  0.10100000352E+00 0.  1.
</event>
<event>
 5   0  0.1523259E-07  0.3403582E+04  0.7818609E-02  0.8137028E-01
       -1   -1    0    0    0  501  0.00000000000E+00  0.00000000000E+00  0.11830709960E+04  0.11830709960E+04  0.50400001928E-02 0. -1.
        1   -1    0    0  501    0  0.00000000000E+00  0.00000000000E+00 -0.24479446797E+04  0.24479446797E+04  0.50400001928E-02 0.  1.
    10030    2    1    2    0    0  0.00000000000E+00  0.00000000000E+00 -0.12648736837E+04  0.36310156757E+04  0.34035818488E+04 0.  0.
        4    1    3    3  502    0  0.39887125239E+03 -0.15957323021E+04 -0.16664856590E+03  0.16532492895E+04  0.12699999809E+01 0. -1.
       -4    1    3    3    0  502 -0.39887125239E+03  0.15957323021E+04 -0.10982251178E+04  0.19777663861E+04  0.12699999809E+01 0.  1.
</event>
<event>
 5   0  0.1523259E-07  0.3329319E+04  0.7818609E-02  0.8155475E-01
        1   -1    0    0  501    0  0.00000000000E+00  0.00000000000E+00  0.20432862158E+04  0.20432862158E+04  0.50400001928E-02 0. -1.
       -1   -1    0    0    0  501  0.00000000000E+00  0.00000000000E+00 -0.13561935560E+04  0.13561935560E+04  0.50400001928E-02 0.  1.
    10030    2    1    2    0    0  0.00000000000E+00  0.00000000000E+00  0.68709265985E+03  0.33994797718E+04  0.33293192091E+04 0.  0.
        4    1    3    3  502    0 -0.65239161812E+03 -0.76853156255E+03 -0.10090714580E+04  0.14263528338E+04  0.12699999809E+01 0.  1.
       -4    1    3    3    0  502  0.65239161812E+03  0.76853156255E+03  0.16961641179E+04  0.19731269381E+04  0.12699999809E+01 0. -1.
</event>
<event>
 5   0  0.1523259E-07  0.3428051E+04  0.7818609E-02  0.8131056E-01
        1   -1    0    0  501    0  0.00000000000E+00  0.00000000000E+00  0.15179374716E+04  0.15179374716E+04  0.50400001928E-02 0.  1.
       -1   -1    0    0    0  501  0.00000000000E+00  0.00000000000E+00 -0.19354444913E+04  0.19354444913E+04  0.50400001928E-02 0. -1.
    10030    2    1    2    0    0  0.00000000000E+00  0.00000000000E+00 -0.41750701967E+03  0.34533819629E+04  0.34280511767E+04 0.  0.
        4    1    3    3  502    0 -0.58750707995E+03 -0.10223719594E+04 -0.14619202948E+04  0.18781963565E+04  0.12699999809E+01 0. -1.
       -4    1    3    3    0  502  0.58750707995E+03  0.10223719594E+04  0.10444132751E+04  0.15751856064E+04  0.12699999809E+01 0.  1.
</event>
<event>
 5   0  0.1473755E-07  0.3396205E+04  0.7818609E-02  0.8138838E-01
        1   -1    0    0  501    0  0.00000000000E+00  0.00000000000E+00  0.31159979318E+04  0.31159979318E+04  0.50400001928E-02 0. -1.
       -1   -1    0    0    0  501  0.00000000000E+00  0.00000000000E+00 -0.92540243297E+03  0.92540243298E+03  0.50400001928E-02 0.  1.
    10030    2    1    2    0    0  0.00000000000E+00  0.00000000000E+00  0.21905954989E+04  0.40414003648E+04  0.33962049804E+04 0.  0.
        1    1    3    3  502    0 -0.23307757980E+03  0.10455810580E+04 -0.47257653168E+03  0.11708516069E+04  0.50400001928E-02 0.  1.
       -1    1    3    3    0  502  0.23307757980E+03 -0.10455810580E+04  0.26631720305E+04  0.28705487579E+04  0.50400001928E-02 0. -1.
</event>
<event>
 5   0  0.1421875E-07  0.3409061E+04  0.7818609E-02  0.8135686E-01
       -1   -1    0    0    0  501  0.00000000000E+00  0.00000000000E+00  0.13831913373E+04  0.13831913373E+04  0.50400001928E-02 0.  1.
        1   -1    0    0  501    0  0.00000000000E+00  0.00000000000E+00 -0.21005227516E+04  0.21005227516E+04  0.50400001928E-02 0. -1.
    10030    2    1    2    0    0  0.00000000000E+00  0.00000000000E+00 -0.71733141430E+03  0.34837140889E+04  0.34090613804E+04 0.  0.
        5    1    3    3  502    0 -0.23355575178E+03 -0.99525829089E+03 -0.17524673694E+04  0.20288546832E+04  0.46999998093E+01 0. -1.
       -5    1    3    3    0  502  0.23355575178E+03  0.99525829089E+03  0.10351359551E+04  0.14548594057E+04  0.46999998093E+01 0.  1.
</event>
<event>
 5   0  0.4521737E-07  0.3421850E+04  0.7818609E-02  0.8132564E-01
        2   -1    0    0  501    0  0.00000000000E+00  0.00000000000E+00  0.18185657120E+04  0.18185657120E+04  0.25500000920E-02 0. -1.
       -2   -1    0    0    0  501  0.00000000000E+00  0.00000000000E+00 -0.16096553146E+04  0.16096553146E+04  0.25500000920E-02 0.  1.
    10030    2    1    2    0    0  0.00000000000E+00  0.00000000000E+00  0.20891039746E+03  0.34282210266E+04  0.34218497707E+04 0.  0.
        4    1    3    3  502    0 -0.12717456229E+04  0.11062551288E+04  0.39847225220E+03  0.17320274501E+04  0.12699999809E+01 0.  1.
       -4    1    3    3    0  502  0.12717456229E+04 -0.11062551288E+04 -0.18956185474E+03  0.16961935765E+04  0.12699999809E+01 0. -1.
</event>
<event>
 5   0  0.1421875E-07  0.3411123E+04  0.7818609E-02  0.8135182E-01
        1   -1    0    0  501    0  0.00000000000E+00  0.00000000000E+00  0.21413536045E+04  0.21413536045E+04  0.50400001928E-02 0.  1.
       -1   -1    0    0    0  501  0.00000000000E+00  0.00000000000E+00 -0.13584588966E+04  0.13584588967E+04  0.50400001928E-02 0. -1.
    10030    2    1    2    0    0  0.00000000000E+00  0.00000000000E+00  0.78289470784E+03  0.34998125012E+04  0.34111234835E+04 0.  0.
        5    1    3    3  502    0  0.92908066564E+02 -0.13330530917E+04  0.14788409487E+04  0.19931520503E+04  0.46999998093E+01 0.  1.
       -5    1    3    3    0  502 -0.92908066564E+02  0.13330530917E+04 -0.69594624085E+03  0.15066604509E+04  0.46999998093E+01 0. -1.
</event>
<event>
 5   0  0.4521737E-07  0.3405995E+04  0.7818609E-02  0.8136437E-01
       -2   -1    0    0    0  501  0.00000000000E+00  0.00000000000E+00  0.15940664875E+04  0.15940664875E+04  0.25500000920E-02 0.  1.
        2   -1    0    0  501    0  0.00000000000E+00  0.00000000000E+00 -0.18193722349E+04  0.18193722349E+04  0.25500000920E-02 0. -1.
    10030    2    1    2    0    0  0.00000000000E+00  0.00000000000E+00 -0.22530574744E+03  0.34134387225E+04  0.34059948961E+04 0.  0.
        4    1    3    3  502    0 -0.12085221123E+04  0.16547187555E+03 -0.13036490754E+04  0.17853316672E+04  0.12699999809E+01 0. -1.
       -4    1    3    3    0  502  0.12085221123E+04 -0.16547187555E+03  0.10783433279E+04  0.16281070552E+04  0.12699999809E+01 0.  1.
</event>
<event>
 5   0  0.1473755E-07  0.3391577E+04  0.7818609E-02  0.8139977E-01
        1   -1    0    0  501    0  0.00000000000E+00  0.00000000000E+00  0.22171646746E+04  0.22171646746E+04  0.50400001928E-02 0.  1.
       -1   -1    0    0    0  501  0.00000000000E+00  0.00000000000E+00 -0.12970164861E+04  0.12970164861E+04  0.50400001928E-02 0. -1.
    10030    2    1    2    0    0  0.00000000000E+00  0.00000000000E+00  0.92014818848E+03  0.35141811608E+04  0.33915772941E+04 0.  0.
        1    1    3    3  502    0 -0.31541100534E+03 -0.33162438799E+03  0.21519638905E+04  0.22000925942E+04  0.50400001928E-02 0.  1.
       -1    1    3    3    0  502  0.31541100534E+03  0.33162438799E+03 -0.12318157020E+04  0.13140885666E+04  0.50400001928E-02 0. -1.
</event>
<event>
 5   0  0.4486226E-07  0.3432662E+04  0.7818609E-02  0.8129936E-01
       -2   -1    0    0    0  501  0.00000000000E+00  0.00000000000E+00  0.13969573703E+04  0.13969573703E+04  0.25500000920E-02 0.  1.
        2   -1    0    0  501    0  0.00000000000E+00  0.00000000000E+00 -0.21087207189E+04  0.21087207189E+04  0.25500000920E-02 0. -1.
    10030    2    1    2    0    0  0.00000000000E+00  0.00000000000E+00 -0.71176334859E+03  0.35056780892E+04  0.34326624944E+04 0.  0.
        1    1    3    3  502    0  0.89885910950E+03  0.10042952876E+04  0.72937716161E+03  0.15324972324E+04  0.50400001928E-02 0.  1.
       -1    1    3    3    0  502 -0.89885910950E+03 -0.10042952876E+04 -0.14411405102E+04  0.19731808568E+04  0.50400001928E-02 0. -1.
</event>
<event>
 5   0  0.1435806E-07  0.3412548E+04  0.7818609E-02  0.8134833E-01
       -1   -1    0    0    0  501  0.00000000000E+00  0.00000000000E+00  0.13128405545E+04  0.13128405545E+04  0.50400001928E-02 0.  1.
        1   -1    0    0  501    0  0.00000000000E+00  0.00000000000E+00 -0.22176125988E+04  0.22176125988E+04  0.50400001928E-02 0. -1.
    10030    2    1    2    0    0  0.00000000000E+00  0.00000000000E+00 -0.90477204424E+03  0.35304531533E+04  0.34125484635E+04 0.  0.
        3    1    3    3  502    0 -0.23304382667E+03 -0.88739159490E+03  0.10359283420E+04  0.13838066367E+04  0.10100000352E+00 0.  1.
       -3    1    3    3    0  502  0.23304382667E+03  0.88739159490E+03 -0.19407003862E+04  0.21466465166E+04  0.10100000352E+00 0. -1.
</event>
<event>
 5   0  0.4396257E-07  0.3278044E+04  0.7818609E-02  0.8168505E-01
        2   -1    0    0  501    0  0.00000000000E+00  0.00000000000E+00  0.31169014852E+04  0.31169014852E+04  0.25500000920E-02 0.  1.
       -2   -1    0    0    0  501  0.00000000000E+00  0.00000000000E+00 -0.86187927437E+03  0.86187927438E+03  0.25500000920E-02 0. -1.
    10030    2    1    2    0    0  0.00000000000E+00  0.00000000000E+00  0.22550222108E+04  0.39787807596E+04  0.32780438010E+04 0.  0.
        2    1    3    3  502    0  0.14831796714E+04 -0.53600333195E+03  0.16693343256E+04  0.22964752557E+04  0.25500000920E-02 0.  1.
       -2    1    3    3    0  502 -0.14831796714E+04  0.53600333195E+03  0.58568788522E+03  0.16823055039E+04  0.25500000920E-02 0. -1.
</event>
<event>
 5   0  0.1473755E-07  0.3401278E+04  0.7818609E-02  0.8137593E-01
        1   -1    0    0  501    0  0.00000000000E+00  0.00000000000E+00  0.16175231223E+04  0.16175231224E+04  0.50400001928E-02 0.  1.
       -1   -1    0    0    0  501  0.00000000000E+00  0.00000000000E+00 -0.17880261870E+04  0.17880261871E+04  0.50400001928E-02 0. -1.
    10030    2    1    2    0    0  0.00000000000E+00  0.00000000000E+00 -0.17050306470E+03  0.34055493094E+04  0.34012784073E+04 0.  0.
        1    1    3    3  502    0 -0.54327249584E+03 -0.10423103766E+04 -0.13158667640E+04  0.17643869379E+04  0.50400001928E-02 0. -1.
       -1    1    3    3    0  502  0.54327249584E+03  0.10423103766E+04  0.11453636993E+04  0.16411623715E+04  0.50400001928E-02 0.  1.
</event>
<event>
 5   0  0.1421875E-07  0.3388102E+04  0.7818609E-02  0.8140833E-01
       -1   -1    0    0    0  501  0.00000000000E+00  0.00000000000E+00  0.19725682082E+04  0.19725682082E+04  0.50400001928E-02 0. -1.
        1   -1    0    0  501    0  0.00000000000E+00  0.00000000000E+00 -0.14548590890E+04  0.14548590890E+04  0.50400001928E-02 0.  1.
    10030    2    1    2    0    0  0.00000000000E+00  0.00000000000E+00  0.51770911916E+03  0.34274272972E+04  0.33881019975E+04 0.  0.
        5    1    3    3  502    0  0.71811098951E+03 -0.97964639172E+03  0.14534060604E+04  0.18941493374E+04  0.46999998093E+01 0. -1.
       -5    1    3    3    0  502 -0.71811098951E+03  0.97964639172E+03 -0.93569694123E+03  0.15332779598E+04  0.46999998093E+01 0.  1.
</event>
<event>
 5   0  0.1473755E-07  0.3391128E+04  0.7818609E-02  0.8140087E-01
        1   -1    0    0  501    0  0.00000000000E+00  0.00000000000E+00  0.20120990189E+04  0.20120990189E+04  0.50400001928E-02 0.  1.
       -1   -1    0    0    0  501  0.00000000000E+00  0.00000000000E+00 -0.14288249985E+04  0.14288249985E+04  0.50400001928E-02 0. -1.
    10030    2    1    2    0    0  0.00000000000E+00  0.00000000000E+00  0.58327402042E+03  0.34409240175E+04  0.33911280588E+04 0.  0.
        1    1    3    3  502    0 -0.88773383192E+02 -0.52994398407E+03 -0.13401493274E+04  0.14438564886E+04  0.50400001928E-02 0. -1.
       -1    1    3    3    0  502  0.88773383192E+02  0.52994398407E+03  0.19234233478E+04  0.19970675289E+04  0.50400001928E-02 0.  1.
</event>
<event>
 5   0  0.4447909E-07  0.3407145E+04  0.7818609E-02  0.8136155E-01
       -2   -1    0    0    0  501  0.00000000000E+00  0.00000000000E+00  0.11163441844E+04  0.11163441844E+04  0.25500000920E-02 0.  1.
        2   -1    0    0  501    0  0.00000000000E+00  0.00000000000E+00 -0.25996994528E+04  0.25996994528E+04  0.25500000920E-02 0. -1.
    10030    2    1    2    0    0  0.00000000000E+00  0.00000000000E+00 -0.14833552684E+04  0.37160436372E+04  0.34071450602E+04 0.  0.
        5    1    3    3  502    0  0.13706220341E+04 -0.61722844990E+03  0.13259633967E+03  0.15090326700E+04  0.46999998093E+01 0.  1.
       -5    1    3    3    0  502 -0.13706220341E+04  0.61722844990E+03 -0.16159516081E+04  0.22070109672E+04  0.46999998093E+01 0. -1.
</event>
<event>
 5   0  0.4381939E-07  0.3375414E+04  0.7818609E-02  0.8143967E-01
       -2   -1    0    0    0  501  0.00000000000E+00  0.00000000000E+00  0.13481639708E+04  0.13481639708E+04  0.25500000920E-02 0. -1.
        2   -1    0    0  501    0  0.00000000000E+00  0.00000000000E+00 -0.21127658066E+04  0.21127658066E+04  0.25500000920E-02 0.  1.
    10030    2    1    2    0    0  0.00000000000E+00  0.00000000000E+00 -0.76460183580E+03  0.34609297773E+04  0.33754138941E+04 0.  0.
        3    1    3    3  502    0  0.98899665136E+03 -0.12874703302E+04  0.90533596815E+02  0.16260044803E+04  0.10100000352E+00 0. -1.
       -3    1    3    3    0  502 -0.98899665136E+03  0.12874703302E+04 -0.85513543261E+03  0.18349252971E+04  0.10100000352E+00 0.  1.
</event>
<event>
 5   0  0.4486226E-07  0.3398439E+04  0.7818609E-02  0.8138290E-01
        2   -1    0    0  501    0  0.00000000000E+00  0.00000000000E+00  0.24824634357E+04  0.24824634357E+04  0.25500000920E-02 0.  1.
       -2   -1    0    0    0  501  0.00000000000E+00  0.00000000000E+00 -0.11630971248E+04  0.11630971248E+04  0.25500000920E-02 0. -1.
    10030    2    1    2    0    0  0.00000000000E+00  0.00000000000E+00  0.13193663108E+04  0.36455605605E+04  0.33984385147E+04 0.  0.
        1    1    3    3  502    0 -0.13688653356E+04  0.10059376795E+04  0.61619959093E+03  0.18070431257E+04  0.50400001928E-02 0. -1.
       -1    1    3    3    0  502  0.13688653356E+04 -0.10059376795E+04  0.70316671991E+03  0.18385174348E+04  0.50400001928E-02 0.  1.
</event>
<event>
 5   0  0.1520084E-07  0.3446916E+04  0.7818609E-02  0.8126487E-01
        1   -1    0    0  501    0  0.00000000000E+00  0.00000000000E+00  0.24166004643E+04  0.24166004643E+04  0.50400001928E-02 0.  1.
       -1   -1    0    0    0  501  0.00000000000E+00  0.00000000000E+00 -0.12291265419E+04  0.12291265419E+04  0.50400001928E-02 0. -1.
    10030    2    1    2    0    0  0.00000000000E+00  0.00000000000E+00  0.11874739223E+04  0.36457270062E+04  0.34469161707E+04 0.  0.
        2    1    3    3  502    0  0.54927194976E+03  0.35143785174E+03  0.22810894234E+04  0.23724622644E+04  0.25500000920E-02 0.  1.
       -2    1    3    3    0  502 -0.54927194976E+03 -0.35143785174E+03 -0.10936155011E+04  0.12732647418E+04  0.25500000920E-02 0. -1.
</event>
<event>
 5   0  0.1473755E-07  0.3405630E+04  0.7818609E-02  0.8136526E-01
        1   -1    0    0  501    0  0.00000000000E+00  0.00000000000E+00  0.19518279678E+04  0.19518279679E+04  0.50400001928E-02 0.  1.
       -1   -1    0    0    0  501  0.00000000000E+00  0.00000000000E+00 -0.14855706418E+04  0.14855706418E+04  0.50400001928E-02 0. -1.
    10030    2    1    2    0    0  0.00000000000E+00  0.00000000000E+00  0.46625732603E+03  0.34373986097E+04  0.34056296492E+04 0.  0.
        1    1    3    3  502    0  0.12021999561E+04  0.73849933902E+02 -0.98177728872E+03  0.15539064295E+04  0.50400001928E-02 0. -1.
       -1    1    3    3    0  502 -0.12021999561E+04 -0.73849933902E+02  0.14480346147E+04  0.18834921801E+04  0.50400001928E-02 0.  1.
</event>
<event>
 5   0  0.4447909E-07  0.3405857E+04  0.7818609E-02  0.8136470E-01
       -2   -1    0    0    0  501  0.00000000000E+00  0.00000000000E+00  0.14392805496E+04  0.14392805496E+04  0.25500000920E-02 0.  1.
        2   -1    0    0  501    0  0.00000000000E+00  0.00000000000E+00 -0.20148721515E+04  0.20148721515E+04  0.25500000920E-02 0. -1.
    10030    2    1    2    0    0  0.00000000000E+00  0.00000000000E+00 -0.57559160197E+03  0.34541527011E+04  0.34058574824E+04 0.  0.
        5    1    3    3  502    0  0.68180651316E+03  0.15306384014E+04  0.20204802233E+02  0.16757518794E+04  0.46999998093E+01 0. -1.
       -5    1    3    3    0  502 -0.68180651316E+03 -0.15306384014E+04 -0.59579640420E+03  0.17784008217E+04  0.46999998093E+01 0.  1.
</event>
<event>
 5   0  0.1421875E-07  0.3403862E+04  0.7818609E-02  0.8136959E-01
        1   -1    0    0  501    0  0.00000000000E+00  0.00000000000E+00  0.22768553609E+04  0.22768553609E+04  0.50400001928E-02 0. -1.
       -1   -1    0    0    0  501  0.00000000000E+00  0.00000000000E+00 -0.12721793882E+04  0.12721793882E+04  0.50400001928E-02 0.  1.
    10030    2    1    2    0    0  0.00000000000E+00  0.00000000000E+00  0.10046759728E+04  0.35490347491E+04  0.34038616071E+04 0.  0.
        5    1    3    3  502    0 -0.93282033380E+03 -0.50276004748E+03 -0.88623671795E+03  0.13814336939E+04  0.46999998093E+01 0.  1.
       -5    1    3    3    0  502  0.93282033380E+03  0.50276004748E+03  0.18909126907E+04  0.21676010552E+04  0.46999998093E+01 0. -1.
</event>
<event>
 5   0  0.1523259E-07  0.3396844E+04  0.7818609E-02  0.8138681E-01
        1   -1    0    0  501    0  0.00000000000E+00  0.00000000000E+00  0.29279717448E+04  0.29279717448E+04  0.50400001928E-02 0. -1.
       -1   -1    0    0    0  501  0.00000000000E+00  0.00000000000E+00 -0.98520003959E+03  0.98520003960E+03  0.50400001928E-02 0.  1.
    10030    2    1    2    0    0  0.00000000000E+00  0.00000000000E+00  0.19427717052E+04  0.39131717844E+04  0.33968443467E+04 0.  0.
        4    1    3    3  502    0 -0.10321503279E+04  0.13237801818E+04  0.67340230888E+03  0.18086460548E+04  0.12699999809E+01 0.  1.
       -4    1    3    3    0  502  0.10321503279E+04 -0.13237801818E+04  0.12693693963E+04  0.21045257296E+04  0.12699999809E+01 0. -1.
</event>
<event>
 5   0  0.4447909E-07  0.3403643E+04  0.7818609E-02  0.8137013E-01
       -2   -1    0    0    0  501  0.00000000000E+00  0.00000000000E+00  0.10501783232E+04  0.10501783232E+04  0.25500000920E-02 0.  1.
        2   -1    0    0  501    0  0.00000000000E+00  0.00000000000E+00 -0.27578140823E+04  0.27578140823E+04  0.25500000920E-02 0. -1.
    10030    2    1    2    0    0  0.00000000000E+00  0.00000000000E+00 -0.17076357591E+04  0.38079924054E+04  0.34036430885E+04 0.  0.
        5    1    3    3  502    0  0.13583906191E+02 -0.17224378173E+03 -0.27479686798E+04  0.27533990626E+04  0.46999998093E+01 0. -1.
       -5    1    3    3    0  502 -0.13583906191E+02  0.17224378173E+03  0.10403329207E+04  0.10545933428E+04  0.46999998093E+01 0.  1.
</event>
<event>
 5   0  0.1421875E-07  0.3396680E+04  0.7818609E-02  0.8138722E-01
        3   -1    0    0  501    0  0.00000000000E+00  0.00000000000E+00  0.17657257350E+04  0.17657257379E+04  0.10100000352E+00 0. -1.
       -3   -1    0    0    0  501  0.00000000000E+00  0.00000000000E+00 -0.16335263892E+04  0.16335263924E+04  0.10100000352E+00 0.  1.
    10030    2    1    2    0    0  0.00000000000E+00  0.00000000000E+00  0.13219934577E+03  0.33992521303E+04  0.33966804940E+04 0.  0.
        1    1    3    3  502    0 -0.26083008066E+03 -0.92451197760E+01 -0.16133370704E+04  0.16343115694E+04  0.50400001928E-02 0.  1.
       -1    1    3    3    0  502  0.26083008066E+03  0.92451197760E+01  0.17455364161E+04  0.17649405609E+04  0.50400001928E-02 0. -1.
</event>
<event>
 5   0  0.4447909E-07  0.3349687E+04  0.7818609E-02  0.8150366E-01
       -2   -1    0    0    0  501  0.00000000000E+00  0.00000000000E+00  0.13073872515E+04  0.13073872515E+04  0.25500000920E-02 0. -1.
        2   -1    0    0  501    0  0.00000000000E+00  0.00000000000E+00 -0.21455770388E+04  0.21455770388E+04  0.25500000920E-02 0.  1.
    10030    2    1    2    0    0  0.00000000000E+00  0.00000000000E+00 -0.83818978728E+03  0.34529642903E+04  0.33496865929E+04 0.  0.
        5    1    3    3  502    0 -0.11920042932E+04 -0.34298915490E+03  0.74102044854E+03  0.14448699563E+04  0.46999998093E+01 0. -1.
       -5    1    3    3    0  502  0.11920042932E+04  0.34298915490E+03 -0.15792102358E+04  0.20080943340E+04  0.46999998093E+01 0.  1.
</event>
<event>
 5   0  0.4521737E-07  0.3389742E+04  0.7818609E-02  0.8140429E-01
       -2   -1    0    0    0  501  0.00000000000E+00  0.00000000000E+00  0.16212274249E+04  0.16212274249E+04  0.25500000920E-02 0.  1.
        2   -1    0    0  501    0  0.00000000000E+00  0.00000000000E+00 -0.17718597020E+04  0.17718597020E+04  0.25500000920E-02 0. -1.
    10030    2    1    2    0    0  0.00000000000E+00  0.00000000000E+00 -0.15063227718E+03  0.33930871269E+04  0.33897419028E+04 0.  0.
        4    1    3    3  502    0  0.13725489248E+04 -0.11850586898E+03 -0.10635349349E+04  0.17404144227E+04  0.12699999809E+01 0. -1.
       -4    1    3    3    0  502 -0.13725489248E+04  0.11850586898E+03  0.91290265769E+03  0.16526727042E+04  0.12699999809E+01 0.  1.
</event>
<event>
 5   0  0.4486226E-07  0.3382573E+04  0.7818609E-02  0.8142197E-01
       -2   -1    0    0    0  501  0.00000000000E+00  0.00000000000E+00  0.24629124261E+04  0.24629124261E+04  0.25500000920E-02 0.  1.
        2   -1    0    0  501    0  0.00000000000E+00  0.00000000000E+00 -0.11614093975E+04  0.11614093975E+04  0.25500000920E-02 0. -1.
    10030    2    1    2    0    0  0.00000000000E+00  0.00000000000E+00  0.13015030286E+04  0.36243218236E+04  0.33825727705E+04 0.  0.
        1    1    3    3  502    0 -0.76362050992E+03  0.15764725632E+02 -0.96609654747E+03  0.12315467303E+04  0.50400001928E-02 0. -1.
       -1    1    3    3    0  502  0.76362050992E+03 -0.15764725632E+02  0.22675995761E+04  0.23927750934E+04  0.50400001928E-02 0.  1.
</event>
<event>
 5   0  0.4486226E-07  0.3407483E+04  0.7818609E-02  0.8136072E-01
        2   -1    0    0  501    0  0.00000000000E+00  0.00000000000E+00  0.21176818087E+04  0.21176818087E+04  0.25500000920E-02 0.  1.
       -2   -1    0    0    0  501  0.00000000000E+00  0.00000000000E+00 -0.13707133669E+04  0.13707133669E+04  0.25500000920E-02 0. -1.
    10030    2    1    2    0    0  0.00000000000E+00  0.00000000000E+00  0.74696844179E+03  0.34883951757E+04  0.34074828024E+04 0.  0.
        1    1    3    3  502    0 -0.11431654008E+04  0.11093159636E+04 -0.24528988307E+03  0.16116997758E+04  0.50400001928E-02 0. -1.
       -1    1    3    3    0  502  0.11431654008E+04 -0.11093159636E+04  0.99225832485E+03  0.18766953999E+04  0.50400001928E-02 0.  1.
</event>
<event>
 5   0  0.1520084E-07  0.3389984E+04  0.7818609E-02  0.8140369E-01
       -1   -1    0    0    0  501  0.00000000000E+00  0.00000000000E+00  0.15460115742E+04  0.15460115743E+04  0.50400001928E-02 0. -1.
        1   -1    0    0  501    0  0.00000000000E+00  0.00000000000E+00 -0.18583291563E+04  0.18583291563E+04  0.50400001928E-02 0.  1.
    10030    2    1    2    0    0  0.00000000000E+00  0.00000000000E+00 -0.31231758208E+03  0.34043407306E+04  0.33899842976E+04 0.  0.
        2    1    3    3  502    0 -0.85686379973E+03  0.54244712395E+03 -0.15200466350E+04  0.18272947836E+04  0.25500000920E-02 0.  1.
       -2    1    3    3    0  502  0.85686379973E+03 -0.54244712395E+03  0.12077290529E+04  0.15770459470E+04  0.25500000920E-02 0. -1.
</event>
<event>
 5   0  0.4486226E-07  0.3401628E+04  0.7818609E-02  0.8137507E-01
       -2   -1    0    0    0  501  0.00000000000E+00  0.00000000000E+00  0.91685611803E+03  0.91685611804E+03  0.25500000920E-02 0.  1.
        2   -1    0    0  501    0  0.00000000000E+00  0.00000000000E+00 -0.31550950550E+04  0.31550950550E+04  0.25500000920E-02 0. -1.
    10030    2    1    2    0    0  0.00000000000E+00  0.00000000000E+00 -0.22382389369E+04  0.40719511730E+04  0.34016279656E+04 0.  0.
        1    1    3    3  502    0  0.14347720995E+04  0.43807054324E+03 -0.15975901821E+03  0.15086416812E+04  0.50400001928E-02 0.  1.
       -1    1    3    3    0  502 -0.14347720995E+04 -0.43807054324E+03 -0.20784799187E+04  0.25633094918E+04  0.50400001928E-02 0. -1.
</event>
<event>
 5   0  0.1421875E-07  0.3396837E+04  0.7818609E-02  0.8138683E-01
        1   -1    0    0  501    0  0.00000000000E+00  0.00000000000E+00  0.14751404490E+04  0.14751404490E+04  0.50400001928E-02 0. -1.
       -1   -1    0    0    0  501  0.00000000000E+00  0.00000000000E+00 -0.19554920401E+04  0.19554920401E+04  0.50400001928E-02 0.  1.
    10030    2    1    2    0    0  0.00000000000E+00  0.00000000000E+00 -0.48035159110E+03  0.34306324891E+04  0.33968370029E+04 0.  0.
        5    1    3    3  502    0  0.11912689867E+04 -0.16008914130E+03 -0.14520528533E+04  0.18850013026E+04  0.46999998093E+01 0.  1.
       -5    1    3    3    0  502 -0.11912689867E+04  0.16008914130E+03  0.97170126217E+03  0.15456311865E+04  0.46999998093E+01 0. -1.
</event>
<event>
 5   0  0.1435806E-07  0.3403423E+04  0.7818609E-02  0.8137067E-01
       -1   -1    0    0    0  501  0.00000000000E+00  0.00000000000E+00  0.20063376582E+04  0.20063376582E+04  0.50400001928E-02 0. -1.
        1   -1    0    0  501    0  0.00000000000E+00  0.00000000000E+00 -0.14433375387E+04  0.14433375387E+04  0.50400001928E-02 0.  1.
    10030    2    1    2    0    0  0.00000000000E+00  0.00000000000E+00  0.56300011948E+03  0.34496751969E+04  0.34034232516E+04 0.  0.
        3    1    3    3  502    0  0.12608552079E+04  0.10300868615E+04  0.78318878403E+03  0.18067151074E+04  0.10100000352E+00 0.  1.
       -3    1    3    3    0  502 -0.12608552079E+04 -0.10300868615E+04 -0.22018866455E+03  0.16429600895E+04  0.10100000352E+00 0. -1.
</event>
<event>
 5   0  0.4521737E-07  0.3402979E+04  0.7818609E-02  0.8137176E-01
       -2   -1    0    0    0  501  0.00000000000E+00  0.00000000000E+00  0.19890728958E+04  0.19890728958E+04  0.25500000920E-02 0.  1.
        2   -1    0    0  501    0  0.00000000000E+00  0.00000000000E+00 -0.14554853095E+04  0.14554853095E+04  0.25500000920E-02 0. -1.
    10030    2    1    2    0    0  0.00000000000E+00  0.00000000000E+00  0.53358758628E+03  0.34445582053E+04  0.34029789182E+04 0.  0.
        4    1    3    3  502    0  0.89285392769E+03 -0.57622443043E+03  0.16118802336E+04  0.19306429578E+04  0.12699999809E+01 0.  1.
       -4    1    3    3    0  502 -0.89285392769E+03  0.57622443043E+03 -0.10782926473E+04  0.15139152475E+04  0.12699999809E+01 0. -1.
</event>
<event>
 5   0  0.1473755E-07  0.3403749E+04  0.7818609E-02  0.8136987E-01
       -1   -1    0    0    0  501  0.00000000000E+00  0.00000000000E+00  0.17319251893E+04  0.17319251893E+04  0.50400001928E-02 0. -1.
        1   -1    0    0  501    0  0.00000000000E+00  0.00000000000E+00 -0.16723454910E+04  0.16723454910E+04  0.50400001928E-02 0.  1.
    10030    2    1    2    0    0  0.00000000000E+00  0.00000000000E+00  0.59579698361E+02  0.34042706803E+04  0.34037492746E+04 0.  0.
        1    1    3    3  502    0 -0.35306376583E+03  0.46774807000E+03 -0.15682455721E+04  0.16741673913E+04  0.50400001928E-02 0.  1.
       -1    1    3    3    0  502  0.35306376583E+03 -0.46774807000E+03  0.16278252704E+04  0.17301032890E+04  0.50400001928E-02 0. -1.
</event>
<event>
 5   0  0.4381939E-07  0.3422684E+04  0.7818609E-02  0.8132361E-01
        2   -1    0    0  501    0  0.00000000000E+00  0.00000000000E+00  0.24160572373E+04  0.24160572373E+04  0.25500000920E-02 0.  1.
       -2   -1    0    0    0  501  0.00000000000E+00  0.00000000000E+00 -0.12121778338E+04  0.12121778338E+04  0.25500000920E-02 0. -1.
    10030    2    1    2    0    0  0.00000000000E+00  0.00000000000E+00  0.12038794035E+04  0.36282350711E+04  0.34226837589E+04 0.  0.
        3    1    3    3  502    0  0.31458978696E+03  0.11459489915E+04  0.19073693068E+04  0.22472702347E+04  0.10100000352E+00 0.  1.
       -3    1    3    3    0  502 -0.31458978696E+03 -0.11459489915E+04 -0.70348990335E+03  0.13809648364E+04  0.10100000352E+00 0. -1.
</event>
<event>
 5   0  0.4381939E-07  0.3376341E+04  0.7818609E-02  0.8143737E-01
       -2   -1    0    0    0  501  0.00000000000E+00  0.00000000000E+00  0.13699950440E+04  0.13699950440E+04  0.25500000920E-02 0.  1.
        2   -1    0    0  501    0  0.00000000000E+00  0.00000000000E+00 -0.20802412422E+04  0.20802412422E+04  0.25500000920E-02 0. -1.
    10030    2    1    2    0    0  0.00000000000E+00  0.00000000000E+00 -0.71024619825E+03  0.34502362862E+04  0.33763413288E+04 0.  0.
        3    1    3    3  502    0  0.43780136040E+03 -0.15228537936E+04 -0.95024913700E+03  0.18476274355E+04  0.10100000352E+00 0.  1.
       -3    1    3    3    0  502 -0.43780136040E+03  0.15228537936E+04  0.24000293875E+03  0.16026088508E+04  0.10100000352E+00 0. -1.
</event>
<event>
 5   0  0.4381939E-07  0.3449001E+04  0.7818609E-02  0.8125984E-01
       -2   -1    0    0    0  501  0.00000000000E+00  0.00000000000E+00  0.18965644762E+04  0.18965644763E+04  0.25500000920E-02 0.  1.
        2   -1    0    0  501    0  0.00000000000E+00  0.00000000000E+00 -0.15680467420E+04  0.15680467420E+04  0.25500000920E-02 0. -1.
    10030    2    1    2    0    0  0.00000000000E+00  0.00000000000E+00  0.32851773421E+03  0.34646112183E+04  0.34490008687E+04 0.  0.
        3    1    3    3  502    0  0.64443946053E+03  0.44495094014E+03  0.17076431643E+04  0.18786507776E+04  0.10100000352E+00 0.  1.
       -3    1    3    3    0  502 -0.64443946053E+03 -0.44495094014E+03 -0.13791254301E+04  0.15859604407E+04  0.10100000352E+00 0. -1.
</event>
<event>
 5   0  0.1520084E-07  0.3418671E+04  0.7818609E-02  0.8133339E-01
       -1   -1    0    0    0  501  0.00000000000E+00  0.00000000000E+00  0.11772326949E+04  0.11772326949E+04  0.50400001928E-02 0. -1.
        1   -1    0    0  501    0  0.00000000000E+00  0.00000000000E+00 -0.24819464472E+04  0.24819464472E+04  0.50400001928E-02 0.  1.
    10030    2    1    2    0    0  0.00000000000E+00  0.00000000000E+00 -0.13047137523E+04  0.36591791421E+04  0.34186713821E+04 0.  0.
        2    1    3    3  502    0 -0.62229426738E+03  0.47278351877E+03  0.97480728691E+03  0.12494093234E+04  0.25500000920E-02 0. -1.
       -2    1    3    3    0  502  0.62229426738E+03 -0.47278351877E+03 -0.22795210392E+04  0.24097698187E+04  0.25500000920E-02 0.  1.
</event>
<event>
 5   0  0.4447909E-07  0.3412266E+04  0.7818609E-02  0.8134902E-01
        2   -1    0    0  501    0  0.00000000000E+00  0.00000000000E+00  0.13237776092E+04  0.13237776092E+04  0.25500000920E-02 0. -1.
       -2   -1    0    0    0  501  0.00000000000E+00  0.00000000000E+00 -0.21989263931E+04  0.21989263931E+04  0.25500000920E-02 0.  1.
    10030    2    1    2    0    0  0.00000000000E+00  0.00000000000E+00 -0.87514878391E+03  0.35227040024E+04  0.34122658300E+04 0.  0.
        5    1    3    3  502    0  0.64556777430E+03  0.13546713424E+04  0.40047157982E+03  0.15531554248E+04  0.46999998093E+01 0. -1.
       -5    1    3    3    0  502 -0.64556777430E+03 -0.13546713424E+04 -0.12756203637E+04  0.19695485776E+04  0.46999998093E+01 0.  1.
</event>
<event>
 5   0  0.4447909E-07  0.3401814E+04  0.7818609E-02  0.8137461E-01
       -2   -1    0    0    0  501  0.00000000000E+00  0.00000000000E+00  0.12117909936E+04  0.12117909936E+04  0.25500000920E-02 0. -1.
        2   -1    0    0  501    0  0.00000000000E+00  0.00000000000E+00 -0.23874452593E+04  0.23874452593E+04  0.25500000920E-02 0.  1.
    10030    2    1    2    0    0  0.00000000000E+00  0.00000000000E+00 -0.11756542657E+04  0.35992362529E+04  0.34018140237E+04 0.  0.
        5    1    3    3  502    0 -0.81068115909E+03  0.86368278493E+03 -0.18792839937E+04  0.22214595008E+04  0.46999998093E+01 0.  1.
       -5    1    3    3    0  502  0.81068115909E+03 -0.86368278493E+03  0.70362972799E+03  0.13777767522E+04  0.46999998093E+01 0. -1.
</event>
<event>
 5   0  0.4521737E-07  0.3407402E+04  0.7818609E-02  0.8136092E-01
        2   -1    0    0  501    0  0.00000000000E+00  0.00000000000E+00  0.19695355502E+04  0.19695355502E+04  0.25500000920E-02 0.  1.
       -2   -1    0    0    0  501  0.00000000000E+00  0.00000000000E+00 -0.14737468351E+04  0.14737468351E+04  0.25500000920E-02 0. -1.
    10030    2    1    2    0    0  0.00000000000E+00  0.00000000000E+00  0.49578871512E+03  0.34432823853E+04  0.34074018159E+04 0.  0.
        4    1    3    3  502    0  0.12671306267E+04  0.68465062837E+03 -0.67175954576E+03  0.15892227686E+04  0.12699999809E+01 0. -1.
       -4    1    3    3    0  502 -0.12671306267E+04 -0.68465062837E+03  0.11675482609E+04  0.18540596167E+04  0.12699999809E+01 0.  1.
</event>
<event>
 5   0  0.4521737E-07  0.3405270E+04  0.7818609E-02  0.8136614E-01
       -2   -1    0    0    0  501  0.00000000000E+00  0.00000000000E+00  0.10834237205E+04  0.10834237205E+04  0.25500000920E-02 0.  1.
        2   -1    0    0  501    0  0.00000000000E+00  0.00000000000E+00 -0.26757454795E+04  0.26757454795E+04  0.25500000920E-02 0. -1.
    10030    2    1    2    0    0  0.00000000000E+00  0.00000000000E+00 -0.15923217590E+04  0.37591692001E+04  0.34052701054E+04 0.  0.
        4    1    3    3  502    0  0.16783373870E+04  0.16075793734E+03 -0.10581081220E+04  0.19905411098E+04  0.12699999809E+01 0. -1.
       -4    1    3    3    0  502 -0.16783373870E+04 -0.16075793734E+03 -0.53421363701E+03  0.17686280903E+04  0.12699999809E+01 0.  1.
</event>
<event>
 5   0  0.1523259E-07  0.3400451E+04  0.7818609E-02  0.8137796E-01
        1   -1    0    0  501    0  0.00000000000E+00  0.00000000000E+00  0.15398474331E+04  0.15398474331E+04  0.50400001928E-02 0. -1.
       -1   -1    0    0    0  501  0.00000000000E+00  0.00000000000E+00 -0.18773070640E+04  0.18773070640E+04  0.50400001928E-02 0.  1.
    10030    2    1    2    0    0  0.00000000000E+00  0.00000000000E+00 -0.33745963092E+03  0.34171544972E+04  0.34004508311E+04 0.  0.
        4    1    3    3  502    0 -0.78800861807E+03  0.11827348151E+04 -0.11065587685E+04  0.18011921457E+04  0.12699999809E+01 0.  1.
       -4    1    3    3    0  502  0.78800861807E+03 -0.11827348151E+04  0.76909913753E+03  0.16159623514E+04  0.12699999809E+01 0. -1.
</event>
<event>
 5   0  0.4381939E-07  0.3387363E+04  0.7818609E-02  0.8141015E-01
       -2   -1    0    0    0  501  0.00000000000E+00  0.00000000000E+00  0.16206851221E+04  0.16206851221E+04  0.25500000920E-02 0. -1.
        2   -1    0    0  501    0  0.00000000000E+00  0.00000000000E+00 -0.17699655783E+04  0.17699655783E+04  0.25500000920E-02 0.  1.
    10030    2    1    2    0    0  0.00000000000E+00  0.00000000000E+00 -0.14928045629E+03  0.33906507004E+04  0.33873629149E+04 0.  0.
        3    1    3    3  502    0 -0.13553417050E+03 -0.14628091066E+04  0.76901641577E+03  0.16581816100E+04  0.10100000352E+00 0. -1.
       -3    1    3    3    0  502  0.13553417050E+03  0.14628091066E+04 -0.91829687206E+03  0.17324690904E+04  0.10100000352E+00 0.  1.
</event>
<event>
 5   0  0.1523259E-07  0.3401349E+04  0.7818609E-02  0.8137575E-01
       -1   -1    0    0    0  501  0.00000000000E+00  0.00000000000E+00  0.13691059504E+04  0.13691059504E+04  0.50400001928E-02 0. -1.
        1   -1    0    0  501    0  0.00000000000E+00  0.00000000000E+00 -0.21125417118E+04  0.21125417118E+04  0.50400001928E-02 0.  1.
    10030    2    1    2    0    0  0.00000000000E+00  0.00000000000E+00 -0.74343576138E+03  0.34816476622E+04  0.34013488078E+04 0.  0.
        4    1    3    3  502    0  0.68652499891E+03 -0.65111727388E+03 -0.18182398109E+04  0.20496994661E+04  0.12699999809E+01 0.  1.
       -4    1    3    3    0  502 -0.68652499891E+03  0.65111727388E+03  0.10748040495E+04  0.14319481961E+04  0.12699999809E+01 0. -1.
</event>
<event>
 5   0  0.4486226E-07  0.3397845E+04  0.7818609E-02  0.8138435E-01
       -2   -1    0    0    0  501  0.00000000000E+00  0.00000000000E+00  0.23005549353E+04  0.23005549353E+04  0.25500000920E-02 0.  1.
        2   -1    0    0  501    0  0.00000000000E+00  0.00000000000E+00 -0.12546270443E+04  0.12546270443E+04  0.25500000920E-02 0. -1.
    10030    2    1    2    0    0  0.00000000000E+00  0.00000000000E+00  0.10459278910E+04  0.35551819796E+04  0.33978454578E+04 0.  0.
        1    1    3    3  502    0 -0.80464278622E+03  0.33375566005E+03  0.20490975222E+04  0.22265766345E+04  0.50400001928E-02 0.  1.
       -1    1    3    3    0  502  0.80464278622E+03 -0.33375566005E+03 -0.10031696312E+04  0.13286053451E+04  0.50400001928E-02 0. -1.
</event>
<event>
 5   0  0.4396257E-07  0.3403426E+04  0.7818609E-02  0.8137066E-01
        2   -1    0    0  501    0  0.00000000000E+00  0.00000000000E+00  0.15720325942E+04  0.15720325942E+04  0.25500000920E-02 0. -1.
       -2   -1    0    0    0  501  0.00000000000E+00  0.00000000000E+00 -0.18420909214E+04  0.18420909214E+04  0.25500000920E-02 0.  1.
    10030    2    1    2    0    0  0.00000000000E+00  0.00000000000E+00 -0.27005832722E+03  0.34141235156E+04  0.34034259033E+04 0.  0.
        2    1    3    3  502    0 -0.67153030549E+03 -0.22885709334E+03 -0.16866612843E+04  0.18297963844E+04  0.25500000920E-02 0.  1.
       -2    1    3    3    0  502  0.67153030549E+03  0.22885709334E+03  0.14166029571E+04  0.15843271311E+04  0.25500000920E-02 0. -1.
</event>
<event>
 5   0  0.1473755E-07  0.3453553E+04  0.7818609E-02  0.8124886E-01
       -1   -1    0    0    0  501  0.00000000000E+00  0.00000000000E+00  0.17418842735E+04  0.17418842735E+04  0.50400001928E-02 0.  1.
        1   -1    0    0  501    0  0.00000000000E+00  0.00000000000E+00 -0.17118000662E+04  0.17118000662E+04  0.50400001928E-02 0. -1.
    10030    2    1    2    0    0  0.00000000000E+00  0.00000000000E+00  0.30084207299E+02  0.34536843398E+04  0.34535533092E+04 0.  0.
        1    1    3    3  502    0  0.14686354184E+03 -0.10151222329E+04 -0.13741526271E+04  0.17147412313E+04  0.50400001928E-02 0. -1.
       -1    1    3    3    0  502 -0.14686354184E+03  0.10151222329E+04  0.14042368344E+04  0.17389431085E+04  0.50400001928E-02 0.  1.
</event>
<event>
 5   0  0.1520084E-07  0.3302640E+04  0.7818609E-02  0.8162224E-01
       -1   -1    0    0    0  501  0.00000000000E+00  0.00000000000E+00  0.12078876038E+04  0.12078876038E+04  0.50400001928E-02 0. -1.
        1   -1    0    0  501    0  0.00000000000E+00  0.00000000000E+00 -0.22575429384E+04  0.22575429384E+04  0.50400001928E-02 0.  1.
    10030    2    1    2    0    0  0.00000000000E+00  0.00000000000E+00 -0.10496553346E+04  0.34654305422E+04  0.33026402350E+04 0.  0.
        2    1    3    3  502    0 -0.38161609421E+03  0.13362464465E+04 -0.14608003330E+04  0.20162150238E+04  0.25500000920E-02 0.  1.
       -2    1    3    3    0  502  0.38161609421E+03 -0.13362464465E+04  0.41114499843E+03  0.14492155184E+04  0.25500000920E-02 0. -1.
</event>
<event>
 5   0  0.4521737E-07  0.3451696E+04  0.7818609E-02  0.8125334E-01
       -2   -1    0    0    0  501  0.00000000000E+00  0.00000000000E+00  0.12306130291E+04  0.12306130291E+04  0.25500000920E-02 0. -1.
        2   -1    0    0  501    0  0.00000000000E+00  0.00000000000E+00 -0.24203798878E+04  0.24203798878E+04  0.25500000920E-02 0.  1.
    10030    2    1    2    0    0  0.00000000000E+00  0.00000000000E+00 -0.11897668586E+04  0.36509929169E+04  0.34516958298E+04 0.  0.
        4    1    3    3  502    0 -0.13516894393E+04 -0.39405088086E+03 -0.16506154588E+04  0.21695330011E+04  0.12699999809E+01 0. -1.
       -4    1    3    3    0  502  0.13516894393E+04  0.39405088086E+03  0.46084860015E+03  0.14814599158E+04  0.12699999809E+01 0.  1.
</event>
<event>
 5   0  0.4521737E-07  0.3361190E+04  0.7818609E-02  0.8147498E-01
       -2   -1    0    0    0  501  0.00000000000E+00  0.00000000000E+00  0.10432078866E+04  0.10432078866E+04  0.25500000920E-02 0. -1.
        2   -1    0    0  501    0  0.00000000000E+00  0.00000000000E+00 -0.27074178401E+04  0.27074178401E+04  0.25500000920E-02 0.  1.
    10030    2    1    2    0    0  0.00000000000E+00  0.00000000000E+00 -0.16642099536E+04  0.37506257267E+04  0.33611900529E+04 0.  0.
        4    1    3    3  502    0  0.46206021179E+03 -0.45299157644E+03  0.89863220557E+03  0.11073583257E+04  0.12699999809E+01 0. -1.
       -4    1    3    3    0  502 -0.46206021179E+03  0.45299157644E+03 -0.25628421591E+04  0.26432674010E+04  0.12699999809E+01 0.  1.
</event>
<event>
 5   0  0.1523259E-07  0.3386749E+04  0.7818609E-02  0.8141166E-01
       -1   -1    0    0    0  501  0.00000000000E+00  0.00000000000E+00  0.22321012460E+04  0.22321012460E+04  0.50400001928E-02 0. -1.
        1   -1    0    0  501    0  0.00000000000E+00  0.00000000000E+00 -0.12846716749E+04  0.12846716749E+04  0.50400001928E-02 0.  1.
    10030    2    1    2    0    0  0.00000000000E+00  0.00000000000E+00  0.94742957110E+03  0.35167729210E+04  0.33867490290E+04 0.  0.
        4    1    3    3  502    0  0.10525806385E+04  0.12697277832E+04  0.75073710221E+02  0.16509913140E+04  0.12699999809E+01 0.  1.
       -4    1    3    3    0  502 -0.10525806385E+04 -0.12697277832E+04  0.87235586088E+03  0.18657816070E+04  0.12699999809E+01 0. -1.
</event>
<event>
 5   0  0.1520084E-07  0.3409144E+04  0.7818609E-02  0.8135666E-01
        1   -1    0    0  501    0  0.00000000000E+00  0.00000000000E+00  0.21078711206E+04  0.21078711206E+04  0.50400001928E-02 0. -1.
       -1   -1    0    0    0  501  0.00000000000E+00  0.00000000000E+00 -0.13784360170E+04  0.13784360170E+04  0.50400001928E-02 0.  1.
    10030    2    1    2    0    0  0.00000000000E+00  0.00000000000E+00  0.72943510363E+03  0.34863071376E+04  0.34091438643E+04 0.  0.
        2    1    3    3  502    0  0.11680220523E+04  0.99853245529E+03 -0.38969467720E+03  0.15853089668E+04  0.25500000920E-02 0.  1.
       -2    1    3    3    0  502 -0.11680220523E+04 -0.99853245529E+03  0.11191297808E+04  0.19009981708E+04  0.25500000920E-02 0. -1.
</event>
<event>
 5   0  0.4447909E-07  0.3425866E+04  0.7818609E-02  0.8131587E-01
       -2   -1    0    0    0  501  0.00000000000E+00  0.00000000000E+00  0.23547621187E+04  0.23547621187E+04  0.25500000920E-02 0.  1.
        2   -1    0    0  501    0  0.00000000000E+00  0.00000000000E+00 -0.12460448733E+04  0.12460448733E+04  0.25500000920E-02 0. -1.
    10030    2    1    2    0    0  0.00000000000E+00  0.00000000000E+00  0.11087172454E+04  0.36008069919E+04  0.34258658851E+04 0.  0.
        5    1    3    3  502    0  0.12227100698E+04  0.11838625207E+04  0.35063961759E+03  0.17376767865E+04  0.46999998093E+01 0. -1.
       -5    1    3    3    0  502 -0.12227100698E+04 -0.11838625207E+04  0.75807762783E+03  0.18631302055E+04  0.46999998093E+01 0.  1.
</event>
<event>
 5   0  0.4447909E-07  0.3330680E+04  0.7818609E-02  0.8155133E-01
        2   -1    0    0  501    0  0.00000000000E+00  0.00000000000E+00  0.16339526405E+04  0.16339526405E+04  0.25500000920E-02 0.  1.
       -2   -1    0    0    0  501  0.00000000000E+00  0.00000000000E+00 -0.16973298883E+04  0.16973298883E+04  0.25500000920E-02 0. -1.
    10030    2    1    2    0    0  0.00000000000E+00  0.00000000000E+00 -0.63377247820E+02  0.33312825288E+04  0.33306796020E+04 0.  0.
        5    1    3    3  502    0  0.50503040388E+03  0.15602600945E+04  0.25796230050E+03  0.16601306905E+04  0.46999998093E+01 0. -1.
       -5    1    3    3    0  502 -0.50503040388E+03 -0.15602600945E+04 -0.32133954832E+03  0.16711518383E+04  0.46999998093E+01 0.  1.
</event>
<event>
 5   0  0.1421875E-07  0.3404523E+04  0.7818609E-02  0.8136797E-01
       -1   -1    0    0    0  501  0.00000000000E+00  0.00000000000E+00  0.86538462441E+03  0.86538462443E+03  0.50400001928E-02 0.  1.
        1   -1    0    0  501    0  0.00000000000E+00  0.00000000000E+00 -0.33484474503E+04  0.33484474503E+04  0.50400001928E-02 0. -1.
    10030    2    1    2    0    0  0.00000000000E+00  0.00000000000E+00 -0.24830628259E+04  0.42138320748E+04  0.34045234258E+04 0.  0.
        5    1    3    3  502    0  0.16189724131E+03  0.12940683786E+04 -0.25955998289E+04  0.29048208631E+04  0.46999998093E+01 0. -1.
       -5    1    3    3    0  502 -0.16189724131E+03 -0.12940683786E+04  0.11253700294E+03  0.13090112117E+04  0.46999998093E+01 0.  1.
</event>
<event>
 5   0  0.4396257E-07  0.3343890E+04  0.7818609E-02  0.8151817E-01
        2   -1    0    0  501    0  0.00000000000E+00  0.00000000000E+00  0.20328927723E+04  0.20328927723E+04  0.25500000920E-02 0.  1.
       -2   -1    0    0    0  501  0.00000000000E+00  0.00000000000E+00 -0.13750847054E+04  0.13750847054E+04  0.25500000920E-02 0. -1.
    10030    2    1    2    0    0  0.00000000000E+00  0.00000000000E+00  0.65780806692E+03  0.34079774777E+04  0.33438898062E+04 0.  0.
        2    1    3    3  502    0 -0.11211381527E+04  0.97597716279E+03  0.11090269268E+04  0.18545681179E+04  0.25500000920E-02 0.  1.
       -2    1    3    3    0  502  0.11211381527E+04 -0.97597716279E+03 -0.45121885987E+03  0.15534093598E+04  0.25500000920E-02 0. -1.
</event>
<event>
 5   0  0.1523259E-07  0.3352315E+04  0.7818609E-02  0.8149710E-01
        1   -1    0    0  501    0  0.00000000000E+00  0.00000000000E+00  0.14933067934E+04  0.14933067934E+04  0.50400001928E-02 0. -1.
       -1   -1    0    0    0  501  0.00000000000E+00  0.00000000000E+00 -0.18813979281E+04  0.18813979281E+04  0.50400001928E-02 0.  1.
    10030    2    1    2    0    0  0.00000000000E+00  0.00000000000E+00 -0.38809113474E+03  0.33747047215E+04  0.33523152042E+04 0.  0.
        4    1    3    3  502    0 -0.28756062243E+02 -0.49565765098E+03  0.14175838056E+04  0.15020149390E+04  0.12699999809E+01 0. -1.
       -4    1    3    3    0  502  0.28756062243E+02  0.49565765098E+03 -0.18056749404E+04  0.18726897825E+04  0.12699999809E+01 0.  1.
</event>
<event>
 5   0  0.4381939E-07  0.3247570E+04  0.7818609E-02  0.8176366E-01
        2   -1    0    0  501    0  0.00000000000E+00  0.00000000000E+00  0.18007309626E+04  0.18007309626E+04  0.25500000920E-02 0.  1.
       -2   -1    0    0    0  501  0.00000000000E+00  0.00000000000E+00 -0.14642265243E+04  0.14642265243E+04  0.25500000920E-02 0. -1.
    10030    2    1    2    0    0  0.00000000000E+00  0.00000000000E+00  0.33650443835E+03  0.32649574869E+04  0.32475701924E+04 0.  0.
        3    1    3    3  502    0  0.11375066821E+04  0.10130988245E+04 -0.39724248008E+03  0.15741957560E+04  0.10100000352E+00 0. -1.
       -3    1    3    3    0  502 -0.11375066821E+04 -0.10130988245E+04  0.73374691843E+03  0.16907617309E+04  0.10100000352E+00 0.  1.
</event>
<event>
 5   0  0.1421875E-07  0.3401709E+04  0.7818609E-02  0.8137487E-01
       -4   -1    0    0    0  501  0.00000000000E+00  0.00000000000E+00  0.17033753621E+04  0.17033758355E+04  0.12699999809E+01 0. -1.
        4   -1    0    0  501    0  0.00000000000E+00  0.00000000000E+00 -0.16983359498E+04  0.16983364247E+04  0.12699999809E+01 0.  1.
    10030    2    1    2    0    0  0.00000000000E+00  0.00000000000E+00  0.50394122296E+01  0.34017122602E+04  0.34017085274E+04 0.  0.
        3    1    3    3  502    0 -0.30319617003E+03 -0.15317218304E+04  0.67691316025E+03  0.17018551995E+04  0.10100000352E+00 0. -1.
       -3    1    3    3    0  502  0.30319617003E+03  0.15317218304E+04 -0.67187374802E+03  0.16998570607E+04  0.10100000352E+00 0.  1.
</event>
<event>
 5   0  0.4396257E-07  0.3413857E+04  0.7818609E-02  0.8134514E-01
       -2   -1    0    0    0  501  0.00000000000E+00  0.00000000000E+00  0.31761283571E+04  0.31761283571E+04  0.25500000920E-02 0. -1.
        2   -1    0    0  501    0  0.00000000000E+00  0.00000000000E+00 -0.91734480267E+03  0.91734480267E+03  0.25500000920E-02 0.  1.
    10030    2    1    2    0    0  0.00000000000E+00  0.00000000000E+00  0.22587835545E+04  0.40934731598E+04  0.34138569630E+04 0.  0.
        2    1    3    3  502    0  0.16913086187E+04 -0.82314685270E+02  0.87136947803E+03  0.19043595559E+04  0.25500000920E-02 0.  1.
       -2    1    3    3    0  502 -0.16913086187E+04  0.82314685270E+02  0.13874140764E+04  0.21891136039E+04  0.25500000920E-02 0. -1.
</event>
<event>
 5   0  0.1435806E-07  0.3403182E+04  0.7818609E-02  0.8137126E-01
       -1   -1    0    0    0  501  0.00000000000E+00  0.00000000000E+00  0.16910234178E+04  0.16910234178E+04  0.50400001928E-02 0.  1.
        1   -1    0    0  501    0  0.00000000000E+00  0.00000000000E+00 -0.17122245803E+04  0.17122245803E+04  0.50400001928E-02 0. -1.
    10030    2    1    2    0    0  0.00000000000E+00  0.00000000000E+00 -0.21201162511E+02  0.34032479982E+04  0.34031819593E+04 0.  0.
        3    1    3    3  502    0 -0.81931635818E+03  0.12787051855E+04 -0.77810853990E+03  0.17064053318E+04  0.10100000352E+00 0.  1.
       -3    1    3    3    0  502  0.81931635818E+03 -0.12787051855E+04  0.75690737739E+03  0.16968426664E+04  0.10100000352E+00 0. -1.
</event>
<event>
 5   0  0.4396257E-07  0.3384002E+04  0.7818609E-02  0.8141844E-01
        2   -1    0    0  501    0  0.00000000000E+00  0.00000000000E+00  0.29831694152E+04  0.29831694152E+04  0.25500000920E-02 0. -1.
       -2   -1    0    0    0  501  0.00000000000E+00  0.00000000000E+00 -0.95967282472E+03  0.95967282473E+03  0.25500000920E-02 0.  1.
    10030    2    1    2    0    0  0.00000000000E+00  0.00000000000E+00  0.20234965905E+04  0.39428422400E+04  0.33840015481E+04 0.  0.
        2    1    3    3  502    0  0.76153108450E+03  0.31910806128E+03 -0.70899997015E+03  0.10883200380E+04  0.25500000920E-02 0.  1.
       -2    1    3    3    0  502 -0.76153108450E+03 -0.31910806128E+03  0.27324965607E+04  0.28545222020E+04  0.25500000920E-02 0. -1.
</event>
<event>
 5   0  0.1421875E-07  0.3387285E+04  0.7818609E-02  0.8141034E-01
       -1   -1    0    0    0  501  0.00000000000E+00  0.00000000000E+00  0.20616876500E+04  0.20616876500E+04  0.50400001928E-02 0. -1.
        1   -1    0    0  501    0  0.00000000000E+00  0.00000000000E+00 -0.13912990634E+04  0.13912990634E+04  0.50400001928E-02 0.  1.
    10030    2    1    2    0    0  0.00000000000E+00  0.00000000000E+00  0.67038858662E+03  0.34529867134E+04  0.33872845150E+04 0.  0.
        5    1    3    3  502    0  0.22852517608E+03 -0.68681570161E+03  0.18960575972E+04  0.20295309966E+04  0.46999998093E+01 0. -1.
       -5    1    3    3    0  502 -0.22852517608E+03  0.68681570161E+03 -0.12256690106E+04  0.14234557168E+04  0.46999998093E+01 0.  1.
</event>
<event>
 5   0  0.1523259E-07  0.3391488E+04  0.7818609E-02  0.8139999E-01
        1   -1    0    0  501    0  0.00000000000E+00  0.00000000000E+00  0.13025779795E+04  0.13025779795E+04  0.50400001928E-02 0. -1.
       -1   -1    0    0    0  501  0.00000000000E+00  0.00000000000E+00 -0.22075822671E+04  0.22075822671E+04  0.50400001928E-02 0.  1.
    10030    2    1    2    0    0  0.00000000000E+00  0.00000000000E+00 -0.90500428759E+03  0.35101602466E+04  0.33914881979E+04 0.  0.
        4    1    3    3  502    0  0.13456736725E+04  0.88135736317E+02 -0.15165520171E+04  0.20294179398E+04  0.12699999809E+01 0.  1.
       -4    1    3    3    0  502 -0.13456736725E+04 -0.88135736317E+02  0.61154772948E+03  0.14807423068E+04  0.12699999809E+01 0. -1.
</event>
<event>
 5   0  0.4381939E-07  0.3392610E+04  0.7818609E-02  0.8139722E-01
       -2   -1    0    0    0  501  0.00000000000E+00  0.00000000000E+00  0.15079771969E+04  0.15079771969E+04  0.25500000920E-02 0.  1.
        2   -1    0    0  501    0  0.00000000000E+00  0.00000000000E+00 -0.19081527511E+04  0.19081527511E+04  0.25500000920E-02 0. -1.
    10030    2    1    2    0    0  0.00000000000E+00  0.00000000000E+00 -0.40017555420E+03  0.34161299479E+04  0.33926101083E+04 0.  0.
        3    1    3    3  502    0  0.31550764711E+03  0.14594966515E+04  0.61033682177E+03  0.16131294423E+04  0.10100000352E+00 0.  1.
       -3    1    3    3    0  502 -0.31550764711E+03 -0.14594966515E+04 -0.10105123760E+04  0.18030005057E+04  0.10100000352E+00 0. -1.
</event>
<event>
 5   0  0.1435806E-07  0.3398948E+04  0.7818609E-02  0.8138165E-01
       -1   -1    0    0    0  501  0.00000000000E+00  0.00000000000E+00  0.24043264422E+04  0.24043264422E+04  0.50400001928E-02 0.  1.
        1   -1    0    0  501    0  0.00000000000E+00  0.00000000000E+00 -0.12012558101E+04  0.12012558101E+04  0.50400001928E-02 0. -1.
    10030    2    1    2    0    0  0.00000000000E+00  0.00000000000E+00  0.12030706321E+04  0.36055822522E+04  0.33989475477E+04 0.  0.
        3    1    3    3  502    0  0.13154608660E+03 -0.56926063255E+03 -0.10913695293E+04  0.12379214435E+04  0.10100000352E+00 0. -1.
       -3    1    3    3    0  502 -0.13154608660E+03  0.56926063255E+03  0.22944401614E+04  0.23676608087E+04  0.10100000352E+00 0.  1.
</event>
<event>
 5   0  0.1520084E-07  0.3396394E+04  0.7818609E-02  0.8138792E-01
       -1   -1    0    0    0  501  0.00000000000E+00  0.00000000000E+00  0.15626579418E+04  0.15626579418E+04  0.50400001928E-02 0. -1.
        1   -1    0    0  501    0  0.00000000000E+00  0.00000000000E+00 -0.18454926189E+04  0.18454926189E+04  0.50400001928E-02 0.  1.
    10030    2    1    2    0    0  0.00000000000E+00  0.00000000000E+00 -0.28283467710E+03  0.34081505607E+04  0.33963943808E+04 0.  0.
        2    1    3    3  502    0 -0.70907954667E+03  0.41614447393E+03 -0.16324622305E+04  0.18278137106E+04  0.25500000920E-02 0.  1.
       -2    1    3    3    0  502  0.70907954667E+03 -0.41614447393E+03  0.13496275534E+04  0.15803368500E+04  0.25500000920E-02 0. -1.
</event>
<event>
 5   0  0.1520084E-07  0.3394354E+04  0.7818609E-02  0.8139294E-01
        1   -1    0    0  501    0  0.00000000000E+00  0.00000000000E+00  0.20819064666E+04  0.20819064666E+04  0.50400001928E-02 0. -1.
       -1   -1    0    0    0  501  0.00000000000E+00  0.00000000000E+00 -0.13835439223E+04  0.13835439223E+04  0.50400001928E-02 0.  1.
    10030    2    1    2    0    0  0.00000000000E+00  0.00000000000E+00  0.69836254432E+03  0.34654503890E+04  0.33943535695E+04 0.  0.
        2    1    3    3  502    0  0.97933017658E+03 -0.30533058790E+03 -0.10312091893E+04  0.14545469242E+04  0.25500000920E-02 0.  1.
       -2    1    3    3    0  502 -0.97933017658E+03  0.30533058790E+03  0.17295717336E+04  0.20109034647E+04  0.25500000920E-02 0. -1.
</event>
<event>
 5   0  0.4521737E-07  0.3402246E+04  0.7818609E-02  0.8137355E-01
       -2   -1    0    0    0  501  0.00000000000E+00  0.00000000000E+00  0.13668566939E+04  0.13668566939E+04  0.25500000920E-02 0.  1.
        2   -1    0    0  501    0  0.00000000000E+00  0.00000000000E+00 -0.21171349280E+04  0.21171349280E+04  0.25500000920E-02 0. -1.
    10030    2    1    2    0    0  0.00000000000E+00  0.00000000000E+00 -0.75027823411E+03  0.34839916219E+04  0.34022463451E+04 0.  0.
        4    1    3    3  502    0  0.24165905412E+02 -0.72373498899E+03 -0.19514228620E+04  0.20814488042E+04  0.12699999809E+01 0. -1.
       -4    1    3    3    0  502 -0.24165905412E+02  0.72373498899E+03  0.12011446279E+04  0.14025428177E+04  0.12699999809E+01 0.  1.
</event>
<event>
 5   0  0.1473755E-07  0.3443635E+04  0.7818609E-02  0.8127279E-01
       -1   -1    0    0    0  501  0.00000000000E+00  0.00000000000E+00  0.16254744942E+04  0.16254744942E+04  0.50400001928E-02 0. -1.
        1   -1    0    0  501    0  0.00000000000E+00  0.00000000000E+00 -0.18238710012E+04  0.18238710012E+04  0.50400001928E-02 0.  1.
    10030    2    1    2    0    0  0.00000000000E+00  0.00000000000E+00 -0.19839650699E+03  0.34493454954E+04  0.34436351684E+04 0.  0.
        1    1    3    3  502    0  0.29394974010E+03 -0.10101633115E+03  0.15971403528E+04  0.16271041932E+04  0.50400001928E-02 0. -1.
       -1    1    3    3    0  502 -0.29394974010E+03  0.10101633115E+03 -0.17955368598E+04  0.18222413023E+04  0.50400001928E-02 0.  1.
</event>
<event>
 5   0  0.1473755E-07  0.3398793E+04  0.7818609E-02  0.8138203E-01
        1   -1    0    0  501    0  0.00000000000E+00  0.00000000000E+00  0.26038333439E+04  0.26038333439E+04  0.50400001928E-02 0. -1.
       -1   -1    0    0    0  501  0.00000000000E+00  0.00000000000E+00 -0.11091142237E+04  0.11091142237E+04  0.50400001928E-02 0.  1.
    10030    2    1    2    0    0  0.00000000000E+00  0.00000000000E+00  0.14947191202E+04  0.37129475676E+04  0.33987930787E+04 0.  0.
        1    1    3    3  502    0 -0.38548261362E+03  0.11259908320E+04  0.20725359602E+04  0.23899492684E+04  0.50400001928E-02 0. -1.
       -1    1    3    3    0  502  0.38548261362E+03 -0.11259908320E+04 -0.57781684007E+03  0.13229982992E+04  0.50400001928E-02 0.  1.
</event>
<event>
 5   0  0.4447909E-07  0.3410883E+04  0.7818609E-02  0.8135241E-01
        2   -1    0    0  501    0  0.00000000000E+00  0.00000000000E+00  0.20501661185E+04  0.20501661185E+04  0.25500000920E-02 0. -1.
       -2   -1    0    0    0  501  0.00000000000E+00  0.00000000000E+00 -0.14186801202E+04  0.14186801202E+04  0.25500000920E-02 0.  1.
    10030    2    1    2    0    0  0.00000000000E+00  0.00000000000E+00  0.63148599836E+03  0.34688462387E+04  0.34108825342E+04 0.  0.
        5    1    3    3  502    0  0.68063136659E+03  0.10466331864E+04  0.14972988190E+04  0.19495194094E+04  0.46999998093E+01 0. -1.
       -5    1    3    3    0  502 -0.68063136659E+03 -0.10466331864E+04 -0.86581282067E+03  0.15193268294E+04  0.46999998093E+01 0.  1.
</event>
<event>
 5   0  0.4486226E-07  0.3411980E+04  0.7818609E-02  0.8134972E-01
       -2   -1    0    0    0  501  0.00000000000E+00  0.00000000000E+00  0.25516974498E+04  0.25516974498E+04  0.25500000920E-02 0. -1.
        2   -1    0    0  501    0  0.00000000000E+00  0.00000000000E+00 -0.11405749624E+04  0.11405749624E+04  0.25500000920E-02 0.  1.
    10030    2    1    2    0    0  0.00000000000E+00  0.00000000000E+00  0.14111224874E+04  0.36922724122E+04  0.34119802009E+04 0.  0.
        1    1    3    3  502    0 -0.17817663067E+03 -0.98355109162E+03  0.22016235524E+04  0.24179052769E+04  0.50400001928E-02 0. -1.
       -1    1    3    3    0  502  0.17817663067E+03  0.98355109162E+03 -0.79050106505E+03  0.12743671353E+04  0.50400001928E-02 0.  1.
</event>
<event>
 5   0  0.4486226E-07  0.3423775E+04  0.7818609E-02  0.8132096E-01
        2   -1    0    0  501    0  0.00000000000E+00  0.00000000000E+00  0.23512798146E+04  0.23512798146E+04  0.25500000920E-02 0.  1.
       -2   -1    0    0    0  501  0.00000000000E+00  0.00000000000E+00 -0.12463678749E+04  0.12463678749E+04  0.25500000920E-02 0. -1.
    10030    2    1    2    0    0  0.00000000000E+00  0.00000000000E+00  0.11049119397E+04  0.35976476895E+04  0.34237754750E+04 0.  0.
        1    1    3    3  502    0 -0.15227290749E+04  0.77853597655E+03  0.63204910025E+03  0.18232685396E+04  0.50400001928E-02 0. -1.
       -1    1    3    3    0  502  0.15227290749E+04 -0.77853597655E+03  0.47286283949E+03  0.17743791499E+04  0.50400001928E-02 0.  1.
</event>
<event>
 5   0  0.1435806E-07  0.3389924E+04  0.7818609E-02  0.8140384E-01
        1   -1    0    0  501    0  0.00000000000E+00  0.00000000000E+00  0.26986136554E+04  0.26986136554E+04  0.50400001928E-02 0. -1.
       -1   -1    0    0    0  501  0.00000000000E+00  0.00000000000E+00 -0.10645824873E+04  0.10645824873E+04  0.50400001928E-02 0.  1.
    10030    2    1    2    0    0  0.00000000000E+00  0.00000000000E+00  0.16340311681E+04  0.37631961427E+04  0.33899243870E+04 0.  0.
        3    1    3    3  502    0 -0.13091150564E+04 -0.52031144927E+03  0.18633459251E+04  0.23359289976E+04  0.10100000352E+00 0. -1.
       -3    1    3    3    0  502  0.13091150564E+04  0.52031144927E+03 -0.22931475700E+03  0.14272671450E+04  0.10100000352E+00 0.  1.
</event>
<event>
 5   0  0.4447909E-07  0.3393073E+04  0.7818609E-02  0.8139608E-01
        2   -1    0    0  501    0  0.00000000000E+00  0.00000000000E+00  0.22691112872E+04  0.22691112872E+04  0.25500000920E-02 0. -1.
       -2   -1    0    0    0  501  0.00000000000E+00  0.00000000000E+00 -0.12684422340E+04  0.12684422340E+04  0.25500000920E-02 0.  1.
    10030    2    1    2    0    0  0.00000000000E+00  0.00000000000E+00  0.10006690532E+04  0.35375535212E+04  0.33930732915E+04 0.  0.
        5    1    3    3  502    0 -0.10355326671E+04 -0.78486994253E+03 -0.63692285365E+03  0.14470803512E+04  0.46999998093E+01 0.  1.
       -5    1    3    3    0  502  0.10355326671E+04  0.78486994253E+03  0.16375919068E+04  0.20904731700E+04  0.46999998093E+01 0. -1.
</event>
<event>
 5   0  0.4396257E-07  0.3392616E+04  0.7818609E-02  0.8139721E-01
        2   -1    0    0  501    0  0.00000000000E+00  0.00000000000E+00  0.20242573812E+04  0.20242573812E+04  0.25500000920E-02 0.  1.
       -2   -1    0    0    0  501  0.00000000000E+00  0.00000000000E+00 -0.14214894794E+04  0.14214894794E+04  0.25500000920E-02 0. -1.
    10030    2    1    2    0    0  0.00000000000E+00  0.00000000000E+00  0.60276790178E+03  0.34457468607E+04  0.33926158469E+04 0.  0.
        2    1    3    3  502    0  0.70270811662E+03  0.86750654322E+03 -0.99576011746E+03  0.14959627372E+04  0.25500000920E-02 0. -1.
       -2    1    3    3    0  502 -0.70270811662E+03 -0.86750654322E+03  0.15985280192E+04  0.19497841234E+04  0.25500000920E-02 0.  1.
</event>
<event>
 5   0  0.1421875E-07  0.3409833E+04  0.7818609E-02  0.8135497E-01
       -1   -1    0    0    0  501  0.00000000000E+00  0.00000000000E+00  0.12649921859E+04  0.12649921859E+04  0.50400001928E-02 0.  1.
        1   -1    0    0  501    0  0.00000000000E+00  0.00000000000E+00 -0.22978332573E+04  0.22978332573E+04  0.50400001928E-02 0. -1.
    10030    2    1    2    0    0  0.00000000000E+00  0.00000000000E+00 -0.10328410714E+04  0.35628254432E+04  0.34098334945E+04 0.  0.
        5    1    3    3  502    0  0.79730948799E+03 -0.10361891941E+04 -0.16597411749E+04  0.21128543072E+04  0.46999998093E+01 0. -1.
       -5    1    3    3    0  502 -0.79730948799E+03  0.10361891941E+04  0.62690010350E+03  0.14499711361E+04  0.46999998093E+01 0.  1.
</event>
<event>
 5   0  0.4486226E-07  0.3414962E+04  0.7818609E-02  0.8134244E-01
        2   -1    0    0  501    0  0.00000000000E+00  0.00000000000E+00  0.14220736375E+04  0.14220736375E+04  0.25500000920E-02 0.  1.
       -2   -1    0    0    0  501  0.00000000000E+00  0.00000000000E+00 -0.20501695466E+04  0.20501695466E+04  0.25500000920E-02 0. -1.
    10030    2    1    2    0    0  0.00000000000E+00  0.00000000000E+00 -0.62809590909E+03  0.34722431841E+04  0.34149624096E+04 0.  0.
        1    1    3    3  502    0  0.10157297920E+04  0.13575274562E+04 -0.51968837140E+03  0.17733199960E+04  0.50400001928E-02 0. -1.
       -1    1    3    3    0  502 -0.10157297920E+04 -0.13575274562E+04 -0.10840753769E+03  0.16989231881E+04  0.50400001928E-02 0.  1.
</event>
<event>
 5   0  0.4521737E-07  0.3398651E+04  0.7818609E-02  0.8138237E-01
       -2   -1    0    0    0  501  0.00000000000E+00  0.00000000000E+00  0.13051255414E+04  0.13051255414E+04  0.25500000920E-02 0.  1.
        2   -1    0    0  501    0  0.00000000000E+00  0.00000000000E+00 -0.22125899847E+04  0.22125899847E+04  0.25500000920E-02 0. -1.
    10030    2    1    2    0    0  0.00000000000E+00  0.00000000000E+00 -0.90746444331E+03  0.35177155261E+04  0.33986513217E+04 0.  0.
        4    1    3    3  502    0 -0.90934933075E+03 -0.88060557588E+03 -0.16271708015E+04  0.20615695030E+04  0.12699999809E+01 0. -1.
       -4    1    3    3    0  502  0.90934933075E+03  0.88060557588E+03  0.71970635819E+03  0.14561460231E+04  0.12699999809E+01 0.  1.
</event>
<event>
 5   0  0.4486226E-07  0.3399053E+04  0.7818609E-02  0.8138139E-01
        2   -1    0    0  501    0  0.00000000000E+00  0.00000000000E+00  0.18151923824E+04  0.18151923824E+04  0.25500000920E-02 0. -1.
       -2   -1    0    0    0  501  0.00000000000E+00  0.00000000000E+00 -0.15912306951E+04  0.15912306952E+04  0.25500000920E-02 0.  1.
    10030    2    1    2    0    0  0.00000000000E+00  0.00000000000E+00  0.22396168726E+03  0.34064230776E+04  0.33990527130E+04 0.  0.
        1    1    3    3  502    0  0.12834969791E+04 -0.81306442698E+03  0.87517766698E+03  0.17533893483E+04  0.50400001928E-02 0. -1.
       -1    1    3    3    0  502 -0.12834969791E+04  0.81306442698E+03 -0.65121597972E+03  0.16530337293E+04  0.50400001928E-02 0.  1.
</event>
<event>
 5   0  0.4396257E-07  0.3371942E+04  0.7818609E-02  0.8144827E-01
        2   -1    0    0  501    0  0.00000000000E+00  0.00000000000E+00  0.26849950309E+04  0.26849950309E+04  0.25500000920E-02 0. -1.
       -2   -1    0    0    0  501  0.00000000000E+00  0.00000000000E+00 -0.10586602099E+04  0.10586602099E+04  0.25500000920E-02 0.  1.
    10030    2    1    2    0    0  0.00000000000E+00  0.00000000000E+00  0.16263348210E+04  0.37436552408E+04  0.33719415196E+04 0.  0.
        2    1    3    3  502    0  0.13772051284E+04 -0.97116279267E+03  0.87028010699E+03  0.18966387638E+04  0.25500000920E-02 0.  1.
       -2    1    3    3    0  502 -0.13772051284E+04  0.97116279267E+03  0.75605471404E+03  0.18470164770E+04  0.25500000920E-02 0. -1.
</event>
<event>
 5   0  0.1520084E-07  0.3398162E+04  0.7818609E-02  0.8138358E-01
        1   -1    0    0  501    0  0.00000000000E+00  0.00000000000E+00  0.20372642343E+04  0.20372642343E+04  0.50400001928E-02 0. -1.
       -1   -1    0    0    0  501  0.00000000000E+00  0.00000000000E+00 -0.14170356638E+04  0.14170356638E+04  0.50400001928E-02 0.  1.
    10030    2    1    2    0    0  0.00000000000E+00  0.00000000000E+00  0.62022857045E+03  0.34542998981E+04  0.33981619012E+04 0.  0.
        2    1    3    3  502    0  0.34086160237E+03 -0.13076127927E+04 -0.73687094282E+03  0.15391610163E+04  0.25500000920E-02 0.  1.
       -2    1    3    3    0  502 -0.34086160237E+03  0.13076127927E+04  0.13570995133E+04  0.19151388818E+04  0.25500000920E-02 0. -1.
</event>
<event>
 5   0  0.1520084E-07  0.3338091E+04  0.7818609E-02  0.8153270E-01
        1   -1    0    0  501    0  0.00000000000E+00  0.00000000000E+00  0.18527028854E+04  0.18527028854E+04  0.50400001928E-02 0.  1.
       -1   -1    0    0    0  501  0.00000000000E+00  0.00000000000E+00 -0.15035941840E+04  0.15035941840E+04  0.50400001928E-02 0. -1.
    10030    2    1    2    0    0  0.00000000000E+00  0.00000000000E+00  0.34910870134E+03  0.33562970694E+04  0.33380912409E+04 0.  0.
        2    1    3    3  502    0 -0.12032547793E+03 -0.24116065199E+03 -0.14815710515E+04  0.15058849429E+04  0.25500000920E-02 0. -1.
       -2    1    3    3    0  502  0.12032547793E+03  0.24116065199E+03  0.18306797528E+04  0.18504121265E+04  0.25500000920E-02 0.  1.
</event>
<event>
 5   0  0.4486226E-07  0.3414713E+04  0.7818609E-02  0.8134305E-01
       -2   -1    0    0    0  501  0.00000000000E+00  0.00000000000E+00  0.10770534690E+04  0.10770534690E+04  0.25500000920E-02 0.  1.
        2   -1    0    0  501    0  0.00000000000E+00  0.00000000000E+00 -0.27065202238E+04  0.27065202238E+04  0.25500000920E-02 0. -1.
    10030    2    1    2    0    0  0.00000000000E+00  0.00000000000E+00 -0.16294667548E+04  0.37835736928E+04  0.34147134556E+04 0.  0.
        1    1    3    3  502    0 -0.11631502604E+04 -0.11332625610E+04 -0.23066403171E+03  0.16402464620E+04  0.50400001928E-02 0.  1.
       -1    1    3    3    0  502  0.11631502604E+04  0.11332625610E+04 -0.13988027231E+04  0.21433272309E+04  0.50400001928E-02 0. -1.
</event>
<event>
 5   0  0.1435806E-07  0.3398730E+04  0.7818609E-02  0.8138218E-01
        1   -1    0    0  501    0  0.00000000000E+00  0.00000000000E+00  0.28003732970E+04  0.28003732970E+04  0.50400001928E-02 0.  1.
       -1   -1    0    0    0  501  0.00000000000E+00  0.00000000000E+00 -0.10312342764E+04  0.10312342765E+04  0.50400001928E-02 0. -1.
    10030    2    1    2    0    0  0.00000000000E+00  0.00000000000E+00  0.17691390206E+04  0.38316075735E+04  0.33987297220E+04 0.  0.
        3    1    3    3  502    0 -0.18427993013E+03  0.10198459194E+04  0.24028731350E+04  0.26168385707E+04  0.10100000352E+00 0.  1.
       -3    1    3    3    0  502  0.18427993013E+03 -0.10198459194E+04 -0.63373411447E+03  0.12147690027E+04  0.10100000352E+00 0. -1.
</event>
<event>
 5   0  0.1421875E-07  0.3398660E+04  0.7818609E-02  0.8138235E-01
       -1   -1    0    0    0  501  0.00000000000E+00  0.00000000000E+00  0.17858833881E+04  0.17858833881E+04  0.50400001928E-02 0. -1.
        1   -1    0    0  501    0  0.00000000000E+00  0.00000000000E+00 -0.16169716741E+04  0.16169716741E+04  0.50400001928E-02 0.  1.
    10030    2    1    2    0    0  0.00000000000E+00  0.00000000000E+00  0.16891171404E+03  0.34028550622E+04  0.33986602371E+04 0.  0.
        5    1    3    3  502    0  0.48218862500E+03 -0.95009131663E+03  0.14099181086E+04  0.17672211358E+04  0.46999998093E+01 0. -1.
       -5    1    3    3    0  502 -0.48218862500E+03  0.95009131663E+03 -0.12410063945E+04  0.16356339264E+04  0.46999998093E+01 0.  1.
</event>
<event>
 5   0  0.4486226E-07  0.3403805E+04  0.7818609E-02  0.8136973E-01
        2   -1    0    0  501    0  0.00000000000E+00  0.00000000000E+00  0.22531026653E+04  0.22531026653E+04  0.25500000920E-02 0. -1.
       -2   -1    0    0    0  501  0.00000000000E+00  0.00000000000E+00 -0.12855478957E+04  0.12855478957E+04  0.25500000920E-02 0.  1.
    10030    2    1    2    0    0  0.00000000000E+00  0.00000000000E+00  0.96755476958E+03  0.35386505610E+04  0.34038045715E+04 0.  0.
        1    1    3    3  502    0  0.97794305696E+03 -0.79430809643E+03  0.16732971157E+04  0.20945694574E+04  0.50400001928E-02 0. -1.
       -1    1    3    3    0  502 -0.97794305696E+03  0.79430809643E+03 -0.70574234607E+03  0.14440811036E+04  0.50400001928E-02 0.  1.
</event>
<event>
 5   0  0.1523259E-07  0.3388817E+04  0.7818609E-02  0.8140656E-01
       -1   -1    0    0    0  501  0.00000000000E+00  0.00000000000E+00  0.16309138205E+04  0.16309138205E+04  0.50400001928E-02 0.  1.
        1   -1    0    0  501    0  0.00000000000E+00  0.00000000000E+00 -0.17603749662E+04  0.17603749662E+04  0.50400001928E-02 0. -1.
    10030    2    1    2    0    0  0.00000000000E+00  0.00000000000E+00 -0.12946114573E+03  0.33912887867E+04  0.33888168210E+04 0.  0.
        4    1    3    3  502    0  0.16826957318E+04  0.14843406323E+03  0.67731579415E+02  0.16905877016E+04  0.12699999809E+01 0.  1.
       -4    1    3    3    0  502 -0.16826957318E+04 -0.14843406323E+03 -0.19719272514E+03  0.17007010851E+04  0.12699999809E+01 0. -1.
</event>
<event>
 5   0  0.4396257E-07  0.3354987E+04  0.7818609E-02  0.8149043E-01
        2   -1    0    0  501    0  0.00000000000E+00  0.00000000000E+00  0.24762445543E+04  0.24762445543E+04  0.25500000920E-02 0. -1.
       -2   -1    0    0    0  501  0.00000000000E+00  0.00000000000E+00 -0.11363921925E+04  0.11363921925E+04  0.25500000920E-02 0.  1.
    10030    2    1    2    0    0  0.00000000000E+00  0.00000000000E+00  0.13398523619E+04  0.36126367468E+04  0.33549873193E+04 0.  0.
        2    1    3    3  502    0 -0.10275305132E+04  0.39354932388E+03 -0.69352241915E+03  0.13006434453E+04  0.25500000920E-02 0.  1.
       -2    1    3    3    0  502  0.10275305132E+04 -0.39354932388E+03  0.20333747810E+04  0.23119933015E+04  0.25500000920E-02 0. -1.
</event>
<event>
 5   0  0.1473755E-07  0.3369247E+04  0.7818609E-02  0.8145496E-01
       -1   -1    0    0    0  501  0.00000000000E+00  0.00000000000E+00  0.11937588353E+04  0.11937588353E+04  0.50400001928E-02 0. -1.
        1   -1    0    0  501    0  0.00000000000E+00  0.00000000000E+00 -0.23773274518E+04  0.23773274518E+04  0.50400001928E-02 0.  1.
    10030    2    1    2    0    0  0.00000000000E+00  0.00000000000E+00 -0.11835686165E+04  0.35710862871E+04  0.33692465923E+04 0.  0.
        1    1    3    3  502    0 -0.16684736390E+03 -0.74158047242E+03 -0.21852351748E+04  0.23136621208E+04  0.50400001928E-02 0.  1.
       -1    1    3    3    0  502  0.16684736390E+03  0.74158047242E+03  0.10016665583E+04  0.12574241663E+04  0.50400001928E-02 0. -1.
</event>
<event>
 5   0  0.1473755E-07  0.3322883E+04  0.7818609E-02  0.8157097E-01
        1   -1    0    0  501    0  0.00000000000E+00  0.00000000000E+00  0.26948623408E+04  0.26948623408E+04  0.50400001928E-02 0. -1.
       -1   -1    0    0    0  501  0.00000000000E+00  0.00000000000E+00 -0.10243147192E+04  0.10243147192E+04  0.50400001928E-02 0.  1.
    10030    2    1    2    0    0  0.00000000000E+00  0.00000000000E+00  0.16705476216E+04  0.37191770600E+04  0.33228825811E+04 0.  0.
        1    1    3    3  502    0  0.15498150616E+04  0.17386160239E+03  0.19403071458E+03  0.15715605303E+04  0.50400001928E-02 0.  1.
       -1    1    3    3    0  502 -0.15498150616E+04 -0.17386160239E+03  0.14765169071E+04  0.21476165298E+04  0.50400001928E-02 0. -1.
</event>
<event>
 5   0  0.4447909E-07  0.3406278E+04  0.7818609E-02  0.8136367E-01
        2   -1    0    0  501    0  0.00000000000E+00  0.00000000000E+00  0.11049247179E+04  0.11049247179E+04  0.25500000920E-02 0. -1.
       -2   -1    0    0    0  501  0.00000000000E+00  0.00000000000E+00 -0.26252303492E+04  0.26252303492E+04  0.25500000920E-02 0.  1.
    10030    2    1    2    0    0  0.00000000000E+00  0.00000000000E+00 -0.15203056313E+04  0.37301550672E+04  0.34062776770E+04 0.  0.
        5    1    3    3  502    0  0.18352720009E+03  0.20895562835E+03 -0.26001896433E+04  0.26150244662E+04  0.46999998093E+01 0.  1.
       -5    1    3    3    0  502 -0.18352720009E+03 -0.20895562835E+03  0.10798840120E+04  0.11151306010E+04  0.46999998093E+01 0. -1.
</event>
<event>
 5   0  0.1435806E-07  0.3407229E+04  0.7818609E-02  0.8136134E-01
       -1   -1    0    0    0  501  0.00000000000E+00  0.00000000000E+00  0.13308491979E+04  0.13308491979E+04  0.50400001928E-02 0. -1.
        1   -1    0    0  501    0  0.00000000000E+00  0.00000000000E+00 -0.21807894987E+04  0.21807894987E+04  0.50400001928E-02 0.  1.
    10030    2    1    2    0    0  0.00000000000E+00  0.00000000000E+00 -0.84994030084E+03  0.35116386966E+04  0.34072287597E+04 0.  0.
        3    1    3    3  502    0  0.13059296625E+04 -0.73986438667E+03 -0.12555502304E+04  0.19568489940E+04  0.10100000352E+00 0.  1.
       -3    1    3    3    0  502 -0.13059296625E+04  0.73986438667E+03  0.40560992953E+03  0.15547897026E+04  0.10100000352E+00 0. -1.
</event>
<event>
 5   0  0.1421875E-07  0.3363906E+04  0.7818609E-02  0.8146822E-01
        1   -1    0    0  501    0  0.00000000000E+00  0.00000000000E+00  0.27564767651E+04  0.27564767651E+04  0.50400001928E-02 0. -1.
       -1   -1    0    0    0  501  0.00000000000E+00  0.00000000000E+00 -0.10262975503E+04  0.10262975504E+04  0.50400001928E-02 0.  1.
    10030    2    1    2    0    0  0.00000000000E+00  0.00000000000E+00  0.17301792147E+04  0.37827743154E+04  0.33639056774E+04 0.  0.
        5    1    3    3  502    0  0.15005474192E+04  0.65890846912E+03  0.43964048288E+03  0.16967936740E+04  0.46999998093E+01 0. -1.
       -5    1    3    3    0  502 -0.15005474192E+04 -0.65890846912E+03  0.12905387318E+04  0.20859806414E+04  0.46999998093E+01 0.  1.
</event>
<event>
 5   0  0.4396257E-07  0.3393666E+04  0.7818609E-02  0.8139463E-01
        2   -1    0    0  501    0  0.00000000000E+00  0.00000000000E+00  0.22084248240E+04  0.22084248240E+04  0.25500000920E-02 0.  1.
       -2   -1    0    0    0  501  0.00000000000E+00  0.00000000000E+00 -0.13037540162E+04  0.13037540162E+04  0.25500000920E-02 0. -1.
    10030    2    1    2    0    0  0.00000000000E+00  0.00000000000E+00  0.90467080775E+03  0.35121788402E+04  0.33936662970E+04 0.  0.
        2    1    3    3  502    0  0.90213432778E+03 -0.78126246732E+03 -0.79603299354E+03  0.14345333440E+04  0.25500000920E-02 0. -1.
       -2    1    3    3    0  502 -0.90213432778E+03  0.78126246732E+03  0.17007038013E+04  0.20776454962E+04  0.25500000920E-02 0.  1.
</event>
<event>
 5   0  0.4521737E-07  0.3350675E+04  0.7818609E-02  0.8150119E-01
       -2   -1    0    0    0  501  0.00000000000E+00  0.00000000000E+00  0.13800638494E+04  0.13800638494E+04  0.25500000920E-02 0. -1.
        2   -1    0    0  501    0  0.00000000000E+00  0.00000000000E+00 -0.20337873211E+04  0.20337873211E+04  0.25500000920E-02 0.  1.
    10030    2    1    2    0    0  0.00000000000E+00  0.00000000000E+00 -0.65372347165E+03  0.34138511705E+04  0.33506753703E+04 0.  0.
        4    1    3    3  502    0 -0.15755297643E+04  0.21099869034E+03  0.21220795192E+03  0.16036983237E+04  0.12699999809E+01 0.  1.
       -4    1    3    3    0  502  0.15755297643E+04 -0.21099869034E+03 -0.86593142358E+03  0.18101528468E+04  0.12699999809E+01 0. -1.
</event>
<event>
 5   0  0.1435806E-07  0.3401652E+04  0.7818609E-02  0.8137501E-01
       -1   -1    0    0    0  501  0.00000000000E+00  0.00000000000E+00  0.18490333778E+04  0.18490333778E+04  0.50400001928E-02 0.  1.
        1   -1    0    0  501    0  0.00000000000E+00  0.00000000000E+00 -0.15644982219E+04  0.15644982219E+04  0.50400001928E-02 0. -1.
    10030    2    1    2    0    0  0.00000000000E+00  0.00000000000E+00  0.28453515587E+03  0.34135315997E+04  0.34016522056E+04 0.  0.
        3    1    3    3  502    0 -0.99118177566E+03  0.10843297248E+04  0.10023471666E+04  0.17784577918E+04  0.10100000352E+00 0.  1.
       -3    1    3    3    0  502  0.99118177566E+03 -0.10843297248E+04 -0.71781201072E+03  0.16350738080E+04  0.10100000352E+00 0. -1.
</event>
<event>
 5   0  0.4396257E-07  0.3409769E+04  0.7818609E-02  0.8135513E-01
       -2   -1    0    0    0  501  0.00000000000E+00  0.00000000000E+00  0.21065580442E+04  0.21065580442E+04  0.25500000920E-02 0. -1.
        2   -1    0    0  501    0  0.00000000000E+00  0.00000000000E+00 -0.13798007387E+04  0.13798007387E+04  0.25500000920E-02 0.  1.
    10030    2    1    2    0    0  0.00000000000E+00  0.00000000000E+00  0.72675730554E+03  0.34863587829E+04  0.34097685233E+04 0.  0.
        2    1    3    3  502    0 -0.29901720753E+03 -0.88438812685E+03  0.18219832291E+04  0.20472363167E+04  0.25500000920E-02 0. -1.
       -2    1    3    3    0  502  0.29901720753E+03  0.88438812685E+03 -0.10952259235E+04  0.14391224663E+04  0.25500000920E-02 0.  1.
</event>
<event>
 5   0  0.4521737E-07  0.3358974E+04  0.7818609E-02  0.8148050E-01
        2   -1    0    0  501    0  0.00000000000E+00  0.00000000000E+00  0.20841888083E+04  0.20841888083E+04  0.25500000920E-02 0.  1.
       -2   -1    0    0    0  501  0.00000000000E+00  0.00000000000E+00 -0.13533686955E+04  0.13533686955E+04  0.25500000920E-02 0. -1.
    10030    2    1    2    0    0  0.00000000000E+00  0.00000000000E+00  0.73082011276E+03  0.34375575038E+04  0.33589735865E+04 0.  0.
        4    1    3    3  502    0  0.54559083908E+03  0.24000890428E+03 -0.12414835956E+04  0.13771553177E+04  0.12699999809E+01 0. -1.
       -4    1    3    3    0  502 -0.54559083908E+03 -0.24000890428E+03  0.19723037084E+04  0.20604021862E+04  0.12699999809E+01 0.  1.
</event>
<event>
 5   0  0.4381939E-07  0.3397625E+04  0.7818609E-02  0.8138489E-01
       -2   -1    0    0    0  501  0.00000000000E+00  0.00000000000E+00  0.11203073029E+04  0.11203073029E+04  0.25500000920E-02 0.  1.
        2   -1    0    0  501    0  0.00000000000E+00  0.00000000000E+00 -0.25760470470E+04  0.25760470470E+04  0.25500000920E-02 0. -1.
    10030    2    1    2    0    0  0.00000000000E+00  0.00000000000E+00 -0.14557397441E+04  0.36963543500E+04  0.33976252410E+04 0.  0.
        3    1    3    3  502    0  0.21044457530E+02  0.13555423553E+03  0.11142719610E+04  0.11226842090E+04  0.10100000352E+00 0.  1.
       -3    1    3    3    0  502 -0.21044457530E+02 -0.13555423553E+03 -0.25700117051E+04  0.25736701409E+04  0.10100000352E+00 0. -1.
</event>
<event>
 5   0  0.1421875E-07  0.3410260E+04  0.7818609E-02  0.8135393E-01
        1   -1    0    0  501    0  0.00000000000E+00  0.00000000000E+00  0.16040843101E+04  0.16040843101E+04  0.50400001928E-02 0. -1.
       -1   -1    0    0    0  501  0.00000000000E+00  0.00000000000E+00 -0.18125405649E+04  0.18125405649E+04  0.50400001928E-02 0.  1.
    10030    2    1    2    0    0  0.00000000000E+00  0.00000000000E+00 -0.20845625487E+03  0.34166248750E+04  0.34102597447E+04 0.  0.
        5    1    3    3  502    0  0.95752464948E+03  0.59186245685E+03 -0.13873571060E+04  0.17865991301E+04  0.46999998093E+01 0.  1.
       -5    1    3    3    0  502 -0.95752464948E+03 -0.59186245685E+03  0.11789008511E+04  0.16300257449E+04  0.46999998093E+01 0. -1.
</event>
<event>
 5   0  0.4396257E-07  0.3398696E+04  0.7818609E-02  0.8138226E-01
        2   -1    0    0  501    0  0.00000000000E+00  0.00000000000E+00  0.11067336263E+04  0.11067336263E+04  0.25500000920E-02 0.  1.
       -2   -1    0    0    0  501  0.00000000000E+00  0.00000000000E+00 -0.26092856421E+04  0.26092856421E+04  0.25500000920E-02 0. -1.
    10030    2    1    2    0    0  0.00000000000E+00  0.00000000000E+00 -0.15025520158E+04  0.37160192683E+04  0.33986963151E+04 0.  0.
        2    1    3    3  502    0  0.12750024969E+04  0.67818291476E+03  0.22801673480E+03  0.14620379832E+04  0.25500000920E-02 0. -1.
       -2    1    3    3    0  502 -0.12750024969E+04 -0.67818291476E+03 -0.17305687506E+04  0.22539812851E+04  0.25500000920E-02 0.  1.
</event>
<event>
 5   0  0.1421875E-07  0.3398715E+04  0.7818609E-02  0.8138222E-01
       -3   -1    0    0    0  501  0.00000000000E+00  0.00000000000E+00  0.27013362771E+04  0.27013362790E+04  0.10100000352E+00 0.  1.
        3   -1    0    0  501    0  0.00000000000E+00  0.00000000000E+00 -0.10690325238E+04  0.10690325285E+04  0.10100000352E+00 0. -1.
    10030    2    1    2    0    0  0.00000000000E+00  0.00000000000E+00  0.16323037533E+04  0.37703688075E+04  0.33987152575E+04 0.  0.
        3    1    3    3  502    0 -0.14257182994E+04 -0.88345263558E+03  0.11192608736E+04  0.20164092198E+04  0.10100000352E+00 0. -1.
       -3    1    3    3    0  502  0.14257182994E+04  0.88345263558E+03  0.51304287972E+03  0.17539595877E+04  0.10100000352E+00 0.  1.
</event>
<event>
 5   0  0.1523259E-07  0.3404656E+04  0.7818609E-02  0.8136765E-01
       -1   -1    0    0    0  501  0.00000000000E+00  0.00000000000E+00  0.13273397742E+04  0.13273397742E+04  0.50400001928E-02 0. -1.
        1   -1    0    0  501    0  0.00000000000E+00  0.00000000000E+00 -0.21832542321E+04  0.21832542321E+04  0.50400001928E-02 0.  1.
    10030    2    1    2    0    0  0.00000000000E+00  0.00000000000E+00 -0.85591445791E+03  0.35105940063E+04  0.34046557415E+04 0.  0.
        4    1    3    3  502    0 -0.36171471643E+03  0.14982083833E+04 -0.11732568126E+04  0.19370077586E+04  0.12699999809E+01 0.  1.
       -4    1    3    3    0  502  0.36171471643E+03 -0.14982083833E+04  0.31734235465E+03  0.15735862477E+04  0.12699999809E+01 0. -1.
</event>
<event>
 5   0  0.4396257E-07  0.3398685E+04  0.7818609E-02  0.8138229E-01
        2   -1    0    0  501    0  0.00000000000E+00  0.00000000000E+00  0.19527563747E+04  0.19527563747E+04  0.25500000920E-02 0.  1.
       -2   -1    0    0    0  501  0.00000000000E+00  0.00000000000E+00 -0.14788143761E+04  0.14788143761E+04  0.25500000920E-02 0. -1.
    10030    2    1    2    0    0  0.00000000000E+00  0.00000000000E+00  0.47394199860E+03  0.34315707508E+04  0.33986845691E+04 0.  0.
        2    1    3    3  502    0  0.11260154848E+04  0.75729451583E+03  0.12697854808E+04  0.18584297197E+04  0.25500000920E-02 0.  1.
       -2    1    3    3    0  502 -0.11260154848E+04 -0.75729451583E+03 -0.79584348223E+03  0.15731410311E+04  0.25500000920E-02 0. -1.
</event>
<event>
 5   0  0.1421875E-07  0.3394098E+04  0.7818609E-02  0.8139356E-01
        1   -1    0    0  501    0  0.00000000000E+00  0.00000000000E+00  0.18345165706E+04  0.18345165706E+04  0.50400001928E-02 0.  1.
       -1   -1    0    0    0  501  0.00000000000E+00  0.00000000000E+00 -0.15698819780E+04  0.15698819780E+04  0.50400001928E-02 0. -1.
    10030    2    1    2    0    0  0.00000000000E+00  0.00000000000E+00  0.26463459262E+03  0.34043985486E+04  0.33940975251E+04 0.  0.
        5    1    3    3  502    0  0.53392677755E+02  0.12111826900E+04 -0.10587790900E+04  0.16096116109E+04  0.46999998093E+01 0. -1.
       -5    1    3    3    0  502 -0.53392677755E+02 -0.12111826900E+04  0.13234136826E+04  0.17947869377E+04  0.46999998093E+01 0.  1.
</event>
<event>
 5   0  0.1421875E-07  0.3398460E+04  0.7818609E-02  0.8138284E-01
        1   -1    0    0  501    0  0.00000000000E+00  0.00000000000E+00  0.22365982624E+04  0.22365982624E+04  0.50400001928E-02 0. -1.
       -1   -1    0    0    0  501  0.00000000000E+00  0.00000000000E+00 -0.12909705218E+04  0.12909705218E+04  0.50400001928E-02 0.  1.
    10030    2    1    2    0    0  0.00000000000E+00  0.00000000000E+00  0.94562774055E+03  0.35275687842E+04  0.33984599017E+04 0.  0.
        5    1    3    3  502    0 -0.58682728013E+03  0.58252761965E+03  0.20136810561E+04  0.21768413286E+04  0.46999998093E+01 0. -1.
       -5    1    3    3    0  502  0.58682728013E+03 -0.58252761965E+03 -0.10680533155E+04  0.13507274555E+04  0.46999998093E+01 0.  1.
</event>
<event>
 5   0  0.1435806E-07  0.3409759E+04  0.7818609E-02  0.8135515E-01
       -1   -1    0    0    0  501  0.00000000000E+00  0.00000000000E+00  0.12298088325E+04  0.12298088326E+04  0.50400001928E-02 0.  1.
        1   -1    0    0  501    0  0.00000000000E+00  0.00000000000E+00 -0.23634682644E+04  0.23634682644E+04  0.50400001928E-02 0. -1.
    10030    2    1    2    0    0  0.00000000000E+00  0.00000000000E+00 -0.11336594319E+04  0.35932770970E+04  0.34097590220E+04 0.  0.
        3    1    3    3  502    0 -0.15132699950E+03  0.68084943306E+03  0.10725853099E+04  0.12794120011E+04  0.10100000352E+00 0.  1.
       -3    1    3    3    0  502  0.15132699950E+03 -0.68084943306E+03 -0.22062447418E+04  0.23138650959E+04  0.10100000352E+00 0. -1.
</event>
<event>
 5   0  0.1520084E-07  0.3352627E+04  0.7818609E-02  0.8149632E-01
        1   -1    0    0  501    0  0.00000000000E+00  0.00000000000E+00  0.13809283482E+04  0.13809283482E+04  0.50400001928E-02 0. -1.
       -1   -1    0    0    0  501  0.00000000000E+00  0.00000000000E+00 -0.20348826427E+04  0.20348826427E+04  0.50400001928E-02 0.  1.
    10030    2    1    2    0    0  0.00000000000E+00  0.00000000000E+00 -0.65395429455E+03  0.34158109909E+04  0.33526271051E+04 0.  0.
        2    1    3    3  502    0 -0.12931981187E+04 -0.62936684168E+03 -0.12043468725E+04  0.18758772308E+04  0.25500000920E-02 0.  1.
       -2    1    3    3    0  502  0.12931981187E+04  0.62936684168E+03  0.55039257795E+03  0.15399337601E+04  0.25500000920E-02 0. -1.
</event>
<event>
 5   0  0.4447909E-07  0.3412604E+04  0.7818609E-02  0.8134820E-01
        2   -1    0    0  501    0  0.00000000000E+00  0.00000000000E+00  0.16132416172E+04  0.16132416172E+04  0.25500000920E-02 0. -1.
       -2   -1    0    0    0  501  0.00000000000E+00  0.00000000000E+00 -0.18047307620E+04  0.18047307620E+04  0.25500000920E-02 0.  1.
    10030    2    1    2    0    0  0.00000000000E+00  0.00000000000E+00 -0.19148914481E+03  0.34179723793E+04  0.34126041512E+04 0.  0.
        5    1    3    3  502    0  0.63869215712E+03  0.66793016207E+03  0.13408709579E+04  0.16285009637E+04  0.46999998093E+01 0.  1.
       -5    1    3    3    0  502 -0.63869215712E+03 -0.66793016207E+03 -0.15323601027E+04  0.17894714156E+04  0.46999998093E+01 0. -1.
</event>
<event>
 5   0  0.1523259E-07  0.3395966E+04  0.7818609E-02  0.8138897E-01
        1   -1    0    0  501    0  0.00000000000E+00  0.00000000000E+00  0.29697599736E+04  0.29697599736E+04  0.50400001928E-02 0.  1.
       -1   -1    0    0    0  501  0.00000000000E+00  0.00000000000E+00 -0.97083467296E+03  0.97083467297E+03  0.50400001928E-02 0. -1.
    10030    2    1    2    0    0  0.00000000000E+00  0.00000000000E+00  0.19989253007E+04  0.39405946466E+04  0.33959658142E+04 0.  0.
        4    1    3    3  502    0 -0.96251533934E+03 -0.79564166642E+03  0.23344807433E+04  0.26475051262E+04  0.12699999809E+01 0.  1.
       -4    1    3    3    0  502  0.96251533934E+03  0.79564166642E+03 -0.33555544258E+03  0.12930895204E+04  0.12699999809E+01 0. -1.
</event>
<event>
 5   0  0.1421875E-07  0.3387802E+04  0.7818609E-02  0.8140907E-01
        1   -1    0    0  501    0  0.00000000000E+00  0.00000000000E+00  0.26829930359E+04  0.26829930359E+04  0.50400001928E-02 0.  1.
       -1   -1    0    0    0  501  0.00000000000E+00  0.00000000000E+00 -0.10694401092E+04  0.10694401092E+04  0.50400001928E-02 0. -1.
    10030    2    1    2    0    0  0.00000000000E+00  0.00000000000E+00  0.16135529267E+04  0.37524331451E+04  0.33878018627E+04 0.  0.
        5    1    3    3  502    0  0.90613461873E+03  0.34930704392E+03  0.23440237119E+04  0.25372356237E+04  0.46999998093E+01 0.  1.
       -5    1    3    3    0  502 -0.90613461873E+03 -0.34930704392E+03 -0.73047078515E+03  0.12151975215E+04  0.46999998093E+01 0. -1.
</event>
<event>
 5   0  0.4396257E-07  0.3410703E+04  0.7818609E-02  0.8135285E-01
        2   -1    0    0  501    0  0.00000000000E+00  0.00000000000E+00  0.17461134637E+04  0.17461134637E+04  0.25500000920E-02 0. -1.
       -2   -1    0    0    0  501  0.00000000000E+00  0.00000000000E+00 -0.16655407194E+04  0.16655407194E+04  0.25500000920E-02 0.  1.
    10030    2    1    2    0    0  0.00000000000E+00  0.00000000000E+00  0.80572744255E+02  0.34116541831E+04  0.34107026106E+04 0.  0.
        2    1    3    3  502    0 -0.10184648808E+04 -0.10694343061E+04  0.89332124213E+03  0.17259731429E+04  0.25500000920E-02 0.  1.
       -2    1    3    3    0  502  0.10184648808E+04  0.10694343061E+04 -0.81274849787E+03  0.16856810402E+04  0.25500000920E-02 0. -1.
</event>
<event>
 5   0  0.1520084E-07  0.3341707E+04  0.7818609E-02  0.8152363E-01
        1   -1    0    0  501    0  0.00000000000E+00  0.00000000000E+00  0.22032330319E+04  0.22032330319E+04  0.50400001928E-02 0.  1.
       -1   -1    0    0    0  501  0.00000000000E+00  0.00000000000E+00 -0.12671155713E+04  0.12671155713E+04  0.50400001928E-02 0. -1.
    10030    2    1    2    0    0  0.00000000000E+00  0.00000000000E+00  0.93611746058E+03  0.34703486031E+04  0.33417066788E+04 0.  0.
        2    1    3    3  502    0 -0.96204017899E+03 -0.12465342565E+04 -0.11236842574E+03  0.15786055941E+04  0.25500000920E-02 0. -1.
       -2    1    3    3    0  502  0.96204017899E+03  0.12465342565E+04  0.10484858863E+04  0.18917430091E+04  0.25500000920E-02 0.  1.
</event>
<event>
 5   0  0.4447909E-07  0.3399306E+04  0.7818609E-02  0.8138077E-01
       -2   -1    0    0    0  501  0.00000000000E+00  0.00000000000E+00  0.18415985539E+04  0.18415985539E+04  0.25500000920E-02 0.  1.
        2   -1    0    0  501    0  0.00000000000E+00  0.00000000000E+00 -0.15686481815E+04  0.15686481815E+04  0.25500000920E-02 0. -1.
    10030    2    1    2    0    0  0.00000000000E+00  0.00000000000E+00  0.27295037244E+03  0.34102467354E+04  0.33993059425E+04 0.  0.
        5    1    3    3  502    0  0.11187810403E+04  0.73081377503E+02 -0.11450501011E+04  0.16025522543E+04  0.46999998093E+01 0. -1.
       -5    1    3    3    0  502 -0.11187810403E+04 -0.73081377503E+02  0.14180004736E+04  0.18076944811E+04  0.46999998093E+01 0.  1.
</event>
<event>
 5   0  0.1473755E-07  0.3411134E+04  0.7818609E-02  0.8135179E-01
       -1   -1    0    0    0  501  0.00000000000E+00  0.00000000000E+00  0.11149892383E+04  0.11149892383E+04  0.50400001928E-02 0. -1.
        1   -1    0    0  501    0  0.00000000000E+00  0.00000000000E+00 -0.26089570557E+04  0.26089570557E+04  0.50400001928E-02 0.  1.
    10030    2    1    2    0    0  0.00000000000E+00  0.00000000000E+00 -0.14939678174E+04  0.37239462941E+04  0.34111341459E+04 0.  0.
        1    1    3    3  502    0 -0.13142759641E+04  0.80605778632E+03 -0.15431856195E+04  0.21813922896E+04  0.50400001928E-02 0.  1.
       -1    1    3    3    0  502  0.13142759641E+04 -0.80605778632E+03  0.49217802076E+02  0.15425540045E+04  0.50400001928E-02 0. -1.
</event>
<event>
 5   0  0.4381939E-07  0.3396288E+04  0.7818609E-02  0.8138818E-01
       -2   -1    0    0    0  501  0.00000000000E+00  0.00000000000E+00  0.14908923034E+04  0.14908923034E+04  0.25500000920E-02 0. -1.
        2   -1    0    0  501    0  0.00000000000E+00  0.00000000000E+00 -0.19342060870E+04  0.19342060870E+04  0.25500000920E-02 0.  1.
    10030    2    1    2    0    0  0.00000000000E+00  0.00000000000E+00 -0.44331378358E+03  0.34250983904E+04  0.33962879549E+04 0.  0.
        3    1    3    3  502    0 -0.71428283848E+03  0.88407589338E+03  0.10507523653E+04  0.15478600395E+04  0.10100000352E+00 0. -1.
       -3    1    3    3    0  502  0.71428283848E+03 -0.88407589338E+03 -0.14940661488E+04  0.18772383508E+04  0.10100000352E+00 0.  1.
</event>
<event>
 5   0  0.4447909E-07  0.3409392E+04  0.7818609E-02  0.8135605E-01
       -2   -1    0    0    0  501  0.00000000000E+00  0.00000000000E+00  0.13326284533E+04  0.13326284533E+04  0.25500000920E-02 0. -1.
        2   -1    0    0  501    0  0.00000000000E+00  0.00000000000E+00 -0.21806444018E+04  0.21806444018E+04  0.25500000920E-02 0.  1.
    10030    2    1    2    0    0  0.00000000000E+00  0.00000000000E+00 -0.84801594853E+03  0.35132728551E+04  0.34093921900E+04 0.  0.
        5    1    3    3  502    0  0.16326760387E+04 -0.20414623417E+02 -0.92874728785E+03  0.18784678381E+04  0.46999998093E+01 0.  1.
       -5    1    3    3    0  502 -0.16326760387E+04  0.20414623417E+02  0.80731339324E+02  0.16348050169E+04  0.46999998093E+01 0. -1.
</event>
<event>
 5   0  0.1473755E-07  0.3405966E+04  0.7818609E-02  0.8136444E-01
       -1   -1    0    0    0  501  0.00000000000E+00  0.00000000000E+00  0.19825487599E+04  0.19825487599E+04  0.50400001928E-02 0. -1.
        1   -1    0    0  501    0  0.00000000000E+00  0.00000000000E+00 -0.14628400892E+04  0.14628400892E+04  0.50400001928E-02 0.  1.
    10030    2    1    2    0    0  0.00000000000E+00  0.00000000000E+00  0.51970867067E+03  0.34453888491E+04  0.34059664148E+04 0.  0.
        1    1    3    3  502    0  0.61128307596E+03 -0.24972551990E+03  0.18477756675E+04  0.19622193434E+04  0.50400001928E-02 0. -1.
       -1    1    3    3    0  502 -0.61128307596E+03  0.24972551990E+03 -0.13280669968E+04  0.14831695056E+04  0.50400001928E-02 0.  1.
</event>
<event>
 5   0  0.4396257E-07  0.3398797E+04  0.7818609E-02  0.8138202E-01
        2   -1    0    0  501    0  0.00000000000E+00  0.00000000000E+00  0.15572075869E+04  0.15572075869E+04  0.25500000920E-02 0. -1.
       -2   -1    0    0    0  501  0.00000000000E+00  0.00000000000E+00 -0.18545735866E+04  0.18545735866E+04  0.25500000920E-02 0.  1.
    10030    2    1    2    0    0  0.00000000000E+00  0.00000000000E+00 -0.29736599979E+03  0.34117811735E+04  0.33987974694E+04 0.  0.
        2    1    3    3  502    0 -0.15018140392E+04 -0.55759722824E+03 -0.71794368265E+03  0.17555065391E+04  0.25500000920E-02 0.  1.
       -2    1    3    3    0  502  0.15018140392E+04  0.55759722824E+03  0.42057768286E+03  0.16562746344E+04  0.25500000920E-02 0. -1.
</event>
<event>
 5   0  0.4447909E-07  0.3414290E+04  0.7818609E-02  0.8134408E-01
       -2   -1    0    0    0  501  0.00000000000E+00  0.00000000000E+00  0.10988705378E+04  0.10988705378E+04  0.25500000920E-02 0. -1.
        2   -1    0    0  501    0  0.00000000000E+00  0.00000000000E+00 -0.26521276143E+04  0.26521276143E+04  0.25500000920E-02 0.  1.
    10030    2    1    2    0    0  0.00000000000E+00  0.00000000000E+00 -0.15532570765E+04  0.37509981521E+04  0.34142904960E+04 0.  0.
        5    1    3    3  502    0 -0.28037180187E+02  0.72491381498E+03 -0.24743517172E+04  0.25785120968E+04  0.46999998093E+01 0.  1.
       -5    1    3    3    0  502  0.28037180187E+02 -0.72491381498E+03  0.92109464076E+03  0.11724860553E+04  0.46999998093E+01 0. -1.
</event>
<event>
 5   0  0.1523259E-07  0.3398016E+04  0.7818609E-02  0.8138393E-01
       -1   -1    0    0    0  501  0.00000000000E+00  0.00000000000E+00  0.14864974876E+04  0.14864974876E+04  0.50400001928E-02 0. -1.
        1   -1    0    0  501    0  0.00000000000E+00  0.00000000000E+00 -0.19418994305E+04  0.19418994305E+04  0.50400001928E-02 0.  1.
    10030    2    1    2    0    0  0.00000000000E+00  0.00000000000E+00 -0.45540194288E+03  0.34283969181E+04  0.33980162593E+04 0.  0.
        4    1    3    3  502    0  0.16569503399E+04 -0.36562872648E+03 -0.31483406971E+03  0.17257725513E+04  0.12699999809E+01 0. -1.
       -4    1    3    3    0  502 -0.16569503399E+04  0.36562872648E+03 -0.14056787317E+03  0.17026243668E+04  0.12699999809E+01 0.  1.
</event>
<event>
 5   0  0.4447909E-07  0.3401648E+04  0.7818609E-02  0.8137502E-01
        2   -1    0    0  501    0  0.00000000000E+00  0.00000000000E+00  0.22482917921E+04  0.22482917921E+04  0.25500000920E-02 0.  1.
       -2   -1    0    0    0  501  0.00000000000E+00  0.00000000000E+00 -0.12866665347E+04  0.12866665347E+04  0.25500000920E-02 0. -1.
    10030    2    1    2    0    0  0.00000000000E+00  0.00000000000E+00  0.96162525734E+03  0.35349583268E+04  0.34016477238E+04 0.  0.
        5    1    3    3  502    0 -0.33566284227E+03 -0.13891806129E+04  0.14390604362E+04  0.20281541726E+04  0.46999998093E+01 0.  1.
       -5    1    3    3    0  502  0.33566284227E+03  0.13891806129E+04 -0.47743517884E+03  0.15068041542E+04  0.46999998093E+01 0. -1.
</event>
<event>
 5   0  0.1523259E-07  0.3422455E+04  0.7818609E-02  0.8132417E-01
        1   -1    0    0  501    0  0.00000000000E+00  0.00000000000E+00  0.18609133065E+04  0.18609133065E+04  0.50400001928E-02 0.  1.
       -1   -1    0    0    0  501  0.00000000000E+00  0.00000000000E+00 -0.15735822181E+04  0.15735822181E+04  0.50400001928E-02 0. -1.
    10030    2    1    2    0    0  0.00000000000E+00  0.00000000000E+00  0.28733108841E+03  0.34344955246E+04  0.34224553108E+04 0.  0.
        4    1    3    3  502    0 -0.99448906225E+03  0.12590606642E+04 -0.45345399959E+03  0.16672925339E+04  0.12699999809E+01 0. -1.
       -4    1    3    3    0  502  0.99448906225E+03 -0.12590606642E+04  0.74078508801E+03  0.17672029907E+04  0.12699999809E+01 0.  1.
</event>
<event>
 5   0  0.1421875E-07  0.3272367E+04  0.7818609E-02  0.8169962E-01
        1   -1    0    0  501    0  0.00000000000E+00  0.00000000000E+00  0.22824392134E+04  0.22824392134E+04  0.50400001928E-02 0. -1.
       -1   -1    0    0    0  501  0.00000000000E+00  0.00000000000E+00 -0.11729102448E+04  0.11729102448E+04  0.50400001928E-02 0.  1.
    10030    2    1    2    0    0  0.00000000000E+00  0.00000000000E+00  0.11095289685E+04  0.34553494582E+04  0.32723669333E+04 0.  0.
        5    1    3    3  502    0  0.88871549007E+03 -0.76393354692E+03 -0.65086236376E+03  0.13405422757E+04  0.46999998093E+01 0.  1.
       -5    1    3    3    0  502 -0.88871549007E+03  0.76393354692E+03  0.17603913323E+04  0.21148071825E+04  0.46999998093E+01 0. -1.
</event>
<event>
 5   0  0.1421875E-07  0.3371679E+04  0.7818609E-02  0.8144892E-01
        1   -1    0    0  501    0  0.00000000000E+00  0.00000000000E+00  0.13232576602E+04  0.13232576602E+04  0.50400001928E-02 0.  1.
       -1   -1    0    0    0  501  0.00000000000E+00  0.00000000000E+00 -0.21477712825E+04  0.21477712825E+04  0.50400001928E-02 0. -1.
    10030    2    1    2    0    0  0.00000000000E+00  0.00000000000E+00 -0.82451362223E+03  0.34710289427E+04  0.33716789894E+04 0.  0.
        5    1    3    3  502    0  0.51967850913E+03 -0.13809594295E+04  0.42719556860E+03  0.15361096454E+04  0.46999998093E+01 0.  1.
       -5    1    3    3    0  502 -0.51967850913E+03  0.13809594295E+04 -0.12517091908E+04  0.19349192973E+04  0.46999998093E+01 0. -1.
</event>
<event>
 5   0  0.1421875E-07  0.3394038E+04  0.7818609E-02  0.8139371E-01
        3   -1    0    0  501    0  0.00000000000E+00  0.00000000000E+00  0.12448521637E+04  0.12448521678E+04  0.10100000352E+00 0. -1.
       -3   -1    0    0    0  501  0.00000000000E+00  0.00000000000E+00 -0.23134257399E+04  0.23134257421E+04  0.10100000352E+00 0.  1.
    10030    2    1    2    0    0  0.00000000000E+00  0.00000000000E+00 -0.10685735761E+04  0.35582779099E+04  0.33940377423E+04 0.  0.
        5    1    3    3  502    0 -0.11737527374E+04  0.88989984746E+03  0.34924838774E+03  0.15138077002E+04  0.46999998093E+01 0. -1.
       -5    1    3    3    0  502  0.11737527374E+04 -0.88989984746E+03 -0.14178219639E+04  0.20444702097E+04  0.46999998093E+01 0.  1.
</event>
<event>
 5   0  0.4381939E-07  0.3378205E+04  0.7818609E-02  0.8143276E-01
       -2   -1    0    0    0  501  0.00000000000E+00  0.00000000000E+00  0.12221511125E+04  0.12221511125E+04  0.25500000920E-02 0. -1.
        2   -1    0    0  501    0  0.00000000000E+00  0.00000000000E+00 -0.23344629568E+04  0.23344629568E+04  0.25500000920E-02 0.  1.
    10030    2    1    2    0    0  0.00000000000E+00  0.00000000000E+00 -0.11123118442E+04  0.35566140693E+04  0.33782045526E+04 0.  0.
        3    1    3    3  502    0  0.14421953085E+04  0.68797854946E+03 -0.11326362626E+04  0.19585981481E+04  0.10100000352E+00 0.  1.
       -3    1    3    3    0  502 -0.14421953085E+04 -0.68797854946E+03  0.20324418350E+02  0.15980159212E+04  0.10100000352E+00 0. -1.
</event>
<event>
 5   0  0.1421875E-07  0.3413045E+04  0.7818609E-02  0.8134712E-01
        1   -1    0    0  501    0  0.00000000000E+00  0.00000000000E+00  0.15293536033E+04  0.15293536034E+04  0.50400001928E-02 0. -1.
       -1   -1    0    0    0  501  0.00000000000E+00  0.00000000000E+00 -0.19042156890E+04  0.19042156890E+04  0.50400001928E-02 0.  1.
    10030    2    1    2    0    0  0.00000000000E+00  0.00000000000E+00 -0.37486208565E+03  0.34335692924E+04  0.34130450484E+04 0.  0.
        5    1    3    3  502    0  0.95975212865E+03  0.13711712453E+04 -0.52254423653E+03  0.17533708397E+04  0.46999998093E+01 0. -1.
       -5    1    3    3    0  502 -0.95975212865E+03 -0.13711712453E+04  0.14768215087E+03  0.16801984526E+04  0.46999998093E+01 0.  1.
</event>
<event>
 5   0  0.1421875E-07  0.3401769E+04  0.7818609E-02  0.8137472E-01
       -1   -1    0    0    0  501  0.00000000000E+00  0.00000000000E+00  0.13782764595E+04  0.13782764595E+04  0.50400001928E-02 0.  1.
        1   -1    0    0  501    0  0.00000000000E+00  0.00000000000E+00 -0.20990046565E+04  0.20990046566E+04  0.50400001928E-02 0. -1.
    10030    2    1    2    0    0  0.00000000000E+00  0.00000000000E+00 -0.72072819709E+03  0.34772811160E+04  0.34017693669E+04 0.  0.
        5    1    3    3  502    0  0.64666251112E+03 -0.12295618480E+04  0.64274056044E+03  0.15307293227E+04  0.46999998093E+01 0.  1.
       -5    1    3    3    0  502 -0.64666251112E+03  0.12295618480E+04 -0.13634687575E+04  0.19465517933E+04  0.46999998093E+01 0. -1.
</event>
<event>
 5   0  0.4381939E-07  0.3406205E+04  0.7818609E-02  0.8136385E-01
       -2   -1    0    0    0  501  0.00000000000E+00  0.00000000000E+00  0.11068643906E+04  0.11068643906E+04  0.25500000920E-02 0. -1.
        2   -1    0    0  501    0  0.00000000000E+00  0.00000000000E+00 -0.26205185120E+04  0.26205185120E+04  0.25500000920E-02 0.  1.
    10030    2    1    2    0    0  0.00000000000E+00  0.00000000000E+00 -0.15136541214E+04  0.37273829026E+04  0.34062052938E+04 0.  0.
        3    1    3    3  502    0 -0.13586348197E+04 -0.97315161290E+03 -0.39779593689E+03  0.17178923868E+04  0.10100000352E+00 0.  1.
       -3    1    3    3    0  502  0.13586348197E+04  0.97315161290E+03 -0.11158581845E+04  0.20094905158E+04  0.10100000352E+00 0. -1.
</event>
<event>
 5   0  0.4486226E-07  0.3392956E+04  0.7818609E-02  0.8139637E-01
       -2   -1    0    0    0  501  0.00000000000E+00  0.00000000000E+00  0.15288477711E+04  0.15288477711E+04  0.25500000920E-02 0.  1.
        2   -1    0    0  501    0  0.00000000000E+00  0.00000000000E+00 -0.18824878486E+04  0.18824878486E+04  0.25500000920E-02 0. -1.
    10030    2    1    2    0    0  0.00000000000E+00  0.00000000000E+00 -0.35364007753E+03  0.34113356197E+04  0.33929558509E+04 0.  0.
        1    1    3    3  502    0  0.34364658043E+03  0.71492963669E+03 -0.16845500769E+04  0.18619683991E+04  0.50400001928E-02 0. -1.
       -1    1    3    3    0  502 -0.34364658043E+03 -0.71492963669E+03  0.13309099994E+04  0.15493672206E+04  0.50400001928E-02 0.  1.
</event>
<event>
 5   0  0.4521737E-07  0.3395275E+04  0.7818609E-02  0.8139067E-01
       -2   -1    0    0    0  501  0.00000000000E+00  0.00000000000E+00  0.13486493954E+04  0.13486493954E+04  0.25500000920E-02 0.  1.
        2   -1    0    0  501    0  0.00000000000E+00  0.00000000000E+00 -0.21369330182E+04  0.21369330182E+04  0.25500000920E-02 0. -1.
    10030    2    1    2    0    0  0.00000000000E+00  0.00000000000E+00 -0.78828362280E+03  0.34855824135E+04  0.33952752012E+04 0.  0.
        4    1    3    3  502    0 -0.86082323562E+03  0.58633905102E+03 -0.17703810932E+04  0.20540352854E+04  0.12699999809E+01 0. -1.
       -4    1    3    3    0  502  0.86082323562E+03 -0.58633905102E+03  0.98209747040E+03  0.14315471281E+04  0.12699999809E+01 0.  1.
</event>
<event>
 5   0  0.1520084E-07  0.3425619E+04  0.7818609E-02  0.8131647E-01
        1   -1    0    0  501    0  0.00000000000E+00  0.00000000000E+00  0.26659863646E+04  0.26659863646E+04  0.50400001928E-02 0. -1.
       -1   -1    0    0    0  501  0.00000000000E+00  0.00000000000E+00 -0.11004242151E+04  0.11004242151E+04  0.50400001928E-02 0.  1.
    10030    2    1    2    0    0  0.00000000000E+00  0.00000000000E+00  0.15655621495E+04  0.37664105797E+04  0.34256187487E+04 0.  0.
        2    1    3    3  502    0  0.11335232584E+03  0.52872371731E+03 -0.10041138502E+04  0.11404569887E+04  0.25500000920E-02 0.  1.
       -2    1    3    3    0  502 -0.11335232584E+03 -0.52872371731E+03  0.25696759996E+04  0.26259535910E+04  0.25500000920E-02 0. -1.
</event>
<event>
 5   0  0.4447909E-07  0.3620662E+04  0.7818609E-02  0.8085775E-01
        2   -1    0    0  501    0  0.00000000000E+00  0.00000000000E+00  0.28894339005E+04  0.28894339005E+04  0.25500000920E-02 0.  1.
       -2   -1    0    0    0  501  0.00000000000E+00  0.00000000000E+00 -0.11342351900E+04  0.11342351900E+04  0.25500000920E-02 0. -1.
    10030    2    1    2    0    0  0.00000000000E+00  0.00000000000E+00  0.17551987104E+04  0.40236690905E+04  0.36206616021E+04 0.  0.
        5    1    3    3  502    0 -0.17335542965E+04 -0.52053356086E+03  0.91462161934E+03  0.20279843401E+04  0.46999998093E+01 0. -1.
       -5    1    3    3    0  502  0.17335542965E+04  0.52053356086E+03  0.84057709109E+03  0.19956847504E+04  0.46999998093E+01 0.  1.
</event>
<event>
 5   0  0.1523259E-07  0.3364197E+04  0.7818609E-02  0.8146750E-01
       -1   -1    0    0    0  501  0.00000000000E+00  0.00000000000E+00  0.17981570299E+04  0.17981570299E+04  0.50400001928E-02 0. -1.
        1   -1    0    0  501    0  0.00000000000E+00  0.00000000000E+00 -0.15735305456E+04  0.15735305456E+04  0.50400001928E-02 0.  1.
    10030    2    1    2    0    0  0.00000000000E+00  0.00000000000E+00  0.22462648437E+03  0.33716875755E+04  0.33641967911E+04 0.  0.
        4    1    3    3  502    0  0.12614477103E+04  0.60774842958E+03  0.10465072267E+04  0.17480810816E+04  0.12699999809E+01 0. -1.
       -4    1    3    3    0  502 -0.12614477103E+04 -0.60774842958E+03 -0.82188074238E+03  0.16236064939E+04  0.12699999809E+01 0.  1.
</event>
<event>
 5   0  0.4486226E-07  0.3441717E+04  0.7818609E-02  0.8127743E-01
       -2   -1    0    0    0  501  0.00000000000E+00  0.00000000000E+00  0.27286064029E+04  0.27286064029E+04  0.25500000920E-02 0. -1.
        2   -1    0    0  501    0  0.00000000000E+00  0.00000000000E+00 -0.10852990755E+04  0.10852990755E+04  0.25500000920E-02 0.  1.
    10030    2    1    2    0    0  0.00000000000E+00  0.00000000000E+00  0.16433073273E+04  0.38139054784E+04  0.34417170171E+04 0.  0.
        1    1    3    3  502    0 -0.15130846892E+04 -0.69958390850E+03  0.12950658024E+04  0.21109330530E+04  0.50400001928E-02 0. -1.
       -1    1    3    3    0  502  0.15130846892E+04  0.69958390850E+03  0.34824152492E+03  0.17029724253E+04  0.50400001928E-02 0.  1.
</event>
<event>
 5   0  0.4447909E-07  0.3402728E+04  0.7818609E-02  0.8137237E-01
       -2   -1    0    0    0  501  0.00000000000E+00  0.00000000000E+00  0.21362900813E+04  0.21362900813E+04  0.25500000920E-02 0.  1.
        2   -1    0    0  501    0  0.00000000000E+00  0.00000000000E+00 -0.13549841249E+04  0.13549841249E+04  0.25500000920E-02 0. -1.
    10030    2    1    2    0    0  0.00000000000E+00  0.00000000000E+00  0.78130595643E+03  0.34912742062E+04  0.34027278153E+04 0.  0.
        5    1    3    3  502    0  0.54225468693E+03  0.16029066326E+04  0.57207980682E+03  0.17862382858E+04  0.46999998093E+01 0.  1.
       -5    1    3    3    0  502 -0.54225468693E+03 -0.16029066326E+04  0.20922614961E+03  0.17050359204E+04  0.46999998093E+01 0. -1.
</event>
<event>
 5   0  0.4396257E-07  0.3399345E+04  0.7818609E-02  0.8138067E-01
        2   -1    0    0  501    0  0.00000000000E+00  0.00000000000E+00  0.21596873726E+04  0.21596873726E+04  0.25500000920E-02 0.  1.
       -2   -1    0    0    0  501  0.00000000000E+00  0.00000000000E+00 -0.13376407896E+04  0.13376407896E+04  0.25500000920E-02 0. -1.
    10030    2    1    2    0    0  0.00000000000E+00  0.00000000000E+00  0.82204658302E+03  0.34973281622E+04  0.33993445970E+04 0.  0.
        2    1    3    3  502    0 -0.72912184857E+03 -0.12731913517E+04 -0.47176009636E+03  0.15411659471E+04  0.25500000920E-02 0. -1.
       -2    1    3    3    0  502  0.72912184857E+03  0.12731913517E+04  0.12938066794E+04  0.19561622151E+04  0.25500000920E-02 0.  1.
</event>
<event>
 5   0  0.1473755E-07  0.3400587E+04  0.7818609E-02  0.8137762E-01
       -1   -1    0    0    0  501  0.00000000000E+00  0.00000000000E+00  0.93918114224E+03  0.93918114226E+03  0.50400001928E-02 0.  1.
        1   -1    0    0  501    0  0.00000000000E+00  0.00000000000E+00 -0.30782119767E+04  0.30782119767E+04  0.50400001928E-02 0. -1.
    10030    2    1    2    0    0  0.00000000000E+00  0.00000000000E+00 -0.21390308345E+04  0.40173931190E+04  0.34005873848E+04 0.  0.
        1    1    3    3  502    0  0.24959894433E+03 -0.11862427443E+04  0.33902065216E+03  0.12587320938E+04  0.50400001928E-02 0.  1.
       -1    1    3    3    0  502 -0.24959894433E+03  0.11862427443E+04 -0.24780514866E+04  0.27586610251E+04  0.50400001928E-02 0. -1.
</event>
<event>
 5   0  0.1523259E-07  0.3405771E+04  0.7818609E-02  0.8136491E-01
        1   -1    0    0  501    0  0.00000000000E+00  0.00000000000E+00  0.25813756159E+04  0.25813756159E+04  0.50400001928E-02 0.  1.
       -1   -1    0    0    0  501  0.00000000000E+00  0.00000000000E+00 -0.11233620003E+04  0.11233620003E+04  0.50400001928E-02 0. -1.
    10030    2    1    2    0    0  0.00000000000E+00  0.00000000000E+00  0.14580136156E+04  0.37047376162E+04  0.34057711464E+04 0.  0.
        4    1    3    3  502    0 -0.10927658781E+04  0.10930312548E+04 -0.48558277296E+02  0.15463551039E+04  0.12699999809E+01 0. -1.
       -4    1    3    3    0  502  0.10927658781E+04 -0.10930312548E+04  0.15065718929E+04  0.21583825123E+04  0.12699999809E+01 0.  1.
</event>
<event>
 5   0  0.4396257E-07  0.3389718E+04  0.7818609E-02  0.8140435E-01
        2   -1    0    0  501    0  0.00000000000E+00  0.00000000000E+00  0.26864104682E+04  0.26864104682E+04  0.25500000920E-02 0.  1.
       -2   -1    0    0    0  501  0.00000000000E+00  0.00000000000E+00 -0.10692879167E+04  0.10692879167E+04  0.25500000920E-02 0. -1.
    10030    2    1    2    0    0  0.00000000000E+00  0.00000000000E+00  0.16171225515E+04  0.37556983850E+04  0.33897175417E+04 0.  0.
        2    1    3    3  502    0  0.11197786687E+03  0.12331896413E+04 -0.47364562008E+03  0.13257586159E+04  0.25500000920E-02 0. -1.
       -2    1    3    3    0  502 -0.11197786687E+03 -0.12331896413E+04  0.20907681715E+04  0.24299397691E+04  0.25500000920E-02 0.  1.
</event>
<event>
 5   0  0.4447909E-07  0.3417306E+04  0.7818609E-02  0.8133672E-01
       -2   -1    0    0    0  501  0.00000000000E+00  0.00000000000E+00  0.13262455611E+04  0.13262455611E+04  0.25500000920E-02 0. -1.
        2   -1    0    0  501    0  0.00000000000E+00  0.00000000000E+00 -0.22013227561E+04  0.22013227561E+04  0.25500000920E-02 0.  1.
    10030    2    1    2    0    0  0.00000000000E+00  0.00000000000E+00 -0.87507719495E+03  0.35275683172E+04  0.34173056837E+04 0.  0.
        5    1    3    3  502    0  0.50797514238E+03 -0.14983187257E+04  0.22863269539E+03  0.15985283070E+04  0.46999998093E+01 0. -1.
       -5    1    3    3    0  502 -0.50797514238E+03  0.14983187257E+04 -0.11037098903E+04  0.19290400102E+04  0.46999998093E+01 0.  1.
</event>
<event>
 5   0  0.1473755E-07  0.3387958E+04  0.7818609E-02  0.8140868E-01
        1   -1    0    0  501    0  0.00000000000E+00  0.00000000000E+00  0.26109413759E+04  0.26109413759E+04  0.50400001928E-02 0. -1.
       -1   -1    0    0    0  501  0.00000000000E+00  0.00000000000E+00 -0.10990535977E+04  0.10990535977E+04  0.50400001928E-02 0.  1.
    10030    2    1    2    0    0  0.00000000000E+00  0.00000000000E+00  0.15118877782E+04  0.37099949736E+04  0.33879577994E+04 0.  0.
        1    1    3    3  502    0 -0.98212173671E+03 -0.94997057340E+03 -0.34050889467E+03  0.14081738186E+04  0.50400001928E-02 0.  1.
       -1    1    3    3    0  502  0.98212173671E+03  0.94997057340E+03  0.18523966729E+04  0.23018211550E+04  0.50400001928E-02 0. -1.
</event>
<event>
 5   0  0.1520084E-07  0.3396299E+04  0.7818609E-02  0.8138815E-01
       -1   -1    0    0    0  501  0.00000000000E+00  0.00000000000E+00  0.10153940304E+04  0.10153940304E+04  0.50400001928E-02 0. -1.
        1   -1    0    0  501    0  0.00000000000E+00  0.00000000000E+00 -0.28399919805E+04  0.28399919805E+04  0.50400001928E-02 0.  1.
    10030    2    1    2    0    0  0.00000000000E+00  0.00000000000E+00 -0.18245979501E+04  0.38553860109E+04  0.33962985165E+04 0.  0.
        2    1    3    3  502    0 -0.74479548527E+02 -0.25958859361E+03  0.99086076995E+03  0.10270046283E+04  0.25500000920E-02 0. -1.
       -2    1    3    3    0  502  0.74479548527E+02  0.25958859361E+03 -0.28154587200E+04  0.28283813826E+04  0.25500000920E-02 0.  1.
</event>
<event>
 5   0  0.4521737E-07  0.3389462E+04  0.7818609E-02  0.8140497E-01
        2   -1    0    0  501    0  0.00000000000E+00  0.00000000000E+00  0.17817695430E+04  0.17817695430E+04  0.25500000920E-02 0.  1.
       -2   -1    0    0    0  501  0.00000000000E+00  0.00000000000E+00 -0.16119445902E+04  0.16119445902E+04  0.25500000920E-02 0. -1.
    10030    2    1    2    0    0  0.00000000000E+00  0.00000000000E+00  0.16982495285E+03  0.33937141332E+04  0.33894623619E+04 0.  0.
        4    1    3    3  502    0 -0.10530486394E+04  0.14410377020E+03  0.14065815054E+04  0.17629947469E+04  0.12699999809E+01 0.  1.
       -4    1    3    3    0  502  0.10530486394E+04 -0.14410377020E+03 -0.12367565525E+04  0.16307193862E+04  0.12699999809E+01 0. -1.
</event>
<event>
 5   0  0.1421875E-07  0.3399646E+04  0.7818609E-02  0.8137993E-01
        3   -1    0    0  501    0  0.00000000000E+00  0.00000000000E+00  0.13227120106E+04  0.13227120145E+04  0.10100000352E+00 0.  1.
       -3   -1    0    0    0  501  0.00000000000E+00  0.00000000000E+00 -0.21844500649E+04  0.21844500673E+04  0.10100000352E+00 0. -1.
    10030    2    1    2    0    0  0.00000000000E+00  0.00000000000E+00 -0.86173805432E+03  0.35071620817E+04  0.33996460688E+04 0.  0.
        1    1    3    3  502    0 -0.10164935049E+04  0.77641645998E+03 -0.15857907738E+04  0.20373546435E+04  0.50400001928E-02 0. -1.
       -1    1    3    3    0  502  0.10164935049E+04 -0.77641645998E+03  0.72405271950E+03  0.14698074383E+04  0.50400001928E-02 0.  1.
</event>
<event>
 5   0  0.4521737E-07  0.3402956E+04  0.7818609E-02  0.8137181E-01
        2   -1    0    0  501    0  0.00000000000E+00  0.00000000000E+00  0.19051315681E+04  0.19051315681E+04  0.25500000920E-02 0. -1.
       -2   -1    0    0    0  501  0.00000000000E+00  0.00000000000E+00 -0.15195947236E+04  0.15195947236E+04  0.25500000920E-02 0.  1.
    10030    2    1    2    0    0  0.00000000000E+00  0.00000000000E+00  0.38553684446E+03  0.34247262918E+04  0.34029562905E+04 0.  0.
        4    1    3    3  502    0 -0.82529363077E+03  0.10238720485E+04 -0.89376920985E+03  0.15900467170E+04  0.12699999809E+01 0.  1.
       -4    1    3    3    0  502  0.82529363077E+03 -0.10238720485E+04  0.12793060543E+04  0.18346795748E+04  0.12699999809E+01 0. -1.
</event>
<event>
 5   0  0.4521737E-07  0.3395608E+04  0.7818609E-02  0.8138985E-01
        2   -1    0    0  501    0  0.00000000000E+00  0.00000000000E+00  0.19800106436E+04  0.19800106436E+04  0.25500000920E-02 0. -1.
       -2   -1    0    0    0  501  0.00000000000E+00  0.00000000000E+00 -0.14558194236E+04  0.14558194236E+04  0.25500000920E-02 0.  1.
    10030    2    1    2    0    0  0.00000000000E+00  0.00000000000E+00  0.52419121994E+03  0.34358300672E+04  0.33956077241E+04 0.  0.
        4    1    3    3  502    0  0.63747266750E+03  0.16746761180E+03 -0.13210850397E+04  0.14763753242E+04  0.12699999809E+01 0.  1.
       -4    1    3    3    0  502 -0.63747266750E+03 -0.16746761180E+03  0.18452762596E+04  0.19594547431E+04  0.12699999809E+01 0. -1.
</event>
<event>
 5   0  0.4381939E-07  0.3430369E+04  0.7818609E-02  0.8130493E-01
        2   -1    0    0  501    0  0.00000000000E+00  0.00000000000E+00  0.12302773002E+04  0.12302773002E+04  0.25500000920E-02 0.  1.
       -2   -1    0    0    0  501  0.00000000000E+00  0.00000000000E+00 -0.23912156039E+04  0.23912156039E+04  0.25500000920E-02 0. -1.
    10030    2    1    2    0    0  0.00000000000E+00  0.00000000000E+00 -0.11609383038E+04  0.36214929041E+04  0.34303692380E+04 0.  0.
        3    1    3    3  502    0 -0.11688860483E+04  0.30747470923E+02 -0.19052206277E+04  0.22354206878E+04  0.10100000352E+00 0. -1.
       -3    1    3    3    0  502  0.11688860483E+04 -0.30747470923E+02  0.74428232396E+03  0.13860722163E+04  0.10100000352E+00 0.  1.
</event>
<event>
 5   0  0.1520084E-07  0.3369757E+04  0.7818609E-02  0.8145369E-01
       -1   -1    0    0    0  501  0.00000000000E+00  0.00000000000E+00  0.16100182938E+04  0.16100182938E+04  0.50400001928E-02 0.  1.
        1   -1    0    0  501    0  0.00000000000E+00  0.00000000000E+00 -0.17632198601E+04  0.17632198601E+04  0.50400001928E-02 0. -1.
    10030    2    1    2    0    0  0.00000000000E+00  0.00000000000E+00 -0.15320156634E+03  0.33732381540E+04  0.33697573983E+04 0.  0.
        2    1    3    3  502    0  0.12641785607E+04  0.11133517075E+04 -0.11005345481E+03  0.16881383891E+04  0.25500000920E-02 0. -1.
       -2    1    3    3    0  502 -0.12641785607E+04 -0.11133517075E+04 -0.43148111536E+02  0.16850997648E+04  0.25500000920E-02 0.  1.
</event>
<event>
 5   0  0.1473755E-07  0.3393366E+04  0.7818609E-02  0.8139537E-01
       -1   -1    0    0    0  501  0.00000000000E+00  0.00000000000E+00  0.13223100137E+04  0.13223100138E+04  0.50400001928E-02 0.  1.
        1   -1    0    0  501    0  0.00000000000E+00  0.00000000000E+00 -0.21770481805E+04  0.21770481805E+04  0.50400001928E-02 0. -1.
    10030    2    1    2    0    0  0.00000000000E+00  0.00000000000E+00 -0.85473816675E+03  0.34993581943E+04  0.33933656505E+04 0.  0.
        1    1    3    3  502    0 -0.10554662342E+04  0.68879684814E+03  0.74401724245E+03  0.14635613163E+04  0.50400001928E-02 0.  1.
       -1    1    3    3    0  502  0.10554662342E+04 -0.68879684814E+03 -0.15987554092E+04  0.20357968779E+04  0.50400001928E-02 0. -1.
</event>
<event>
 5   0  0.1421875E-07  0.3410035E+04  0.7818609E-02  0.8135448E-01
       -3   -1    0    0    0  501  0.00000000000E+00  0.00000000000E+00  0.18133812687E+04  0.18133812715E+04  0.10100000352E+00 0. -1.
        3   -1    0    0  501    0  0.00000000000E+00  0.00000000000E+00 -0.16031289721E+04  0.16031289752E+04  0.10100000352E+00 0.  1.
    10030    2    1    2    0    0  0.00000000000E+00  0.00000000000E+00  0.21025229663E+03  0.34165102467E+04  0.34100346388E+04 0.  0.
        2    1    3    3  502    0 -0.44101025610E+03 -0.52624271809E+03 -0.14584984795E+04  0.16120295466E+04  0.25500000920E-02 0.  1.
       -2    1    3    3    0  502  0.44101025610E+03  0.52624271809E+03  0.16687507762E+04  0.18044807002E+04  0.25500000920E-02 0. -1.
</event>
<event>
 5   0  0.4486226E-07  0.3404252E+04  0.7818609E-02  0.8136864E-01
       -2   -1    0    0    0  501  0.00000000000E+00  0.00000000000E+00  0.10007232799E+04  0.10007232799E+04  0.25500000920E-02 0. -1.
        2   -1    0    0  501    0  0.00000000000E+00  0.00000000000E+00 -0.28951384786E+04  0.28951384786E+04  0.25500000920E-02 0.  1.
    10030    2    1    2    0    0  0.00000000000E+00  0.00000000000E+00 -0.18944151986E+04  0.38958617585E+04  0.34042517381E+04 0.  0.
        1    1    3    3  502    0  0.43212476185E+03 -0.25501269364E+03  0.91416460364E+03  0.10428136009E+04  0.50400001928E-02 0. -1.
       -1    1    3    3    0  502 -0.43212476185E+03  0.25501269364E+03 -0.28085798023E+04  0.28530481576E+04  0.50400001928E-02 0.  1.
</event>
<event>
 5   0  0.4447909E-07  0.3380863E+04  0.7818609E-02  0.8142619E-01
       -2   -1    0    0    0  501  0.00000000000E+00  0.00000000000E+00  0.13831430966E+04  0.13831430966E+04  0.25500000920E-02 0.  1.
        2   -1    0    0  501    0  0.00000000000E+00  0.00000000000E+00 -0.20659887651E+04  0.20659887651E+04  0.25500000920E-02 0. -1.
    10030    2    1    2    0    0  0.00000000000E+00  0.00000000000E+00 -0.68284566850E+03  0.34491318617E+04  0.33808626699E+04 0.  0.
        5    1    3    3  502    0  0.65755007637E+03  0.96701491944E+03 -0.15867461324E+04  0.19711101785E+04  0.46999998093E+01 0. -1.
       -5    1    3    3    0  502 -0.65755007637E+03 -0.96701491944E+03  0.90390046387E+03  0.14780216832E+04  0.46999998093E+01 0.  1.
</event>
<event>
 5   0  0.4521737E-07  0.3437478E+04  0.7818609E-02  0.8128769E-01
       -2   -1    0    0    0  501  0.00000000000E+00  0.00000000000E+00  0.13111758267E+04  0.13111758267E+04  0.25500000920E-02 0. -1.
        2   -1    0    0  501    0  0.00000000000E+00  0.00000000000E+00 -0.22529888740E+04  0.22529888740E+04  0.25500000920E-02 0.  1.
    10030    2    1    2    0    0  0.00000000000E+00  0.00000000000E+00 -0.94181304728E+03  0.35641647007E+04  0.34374784650E+04 0.  0.
        4    1    3    3  502    0 -0.44972902320E+03  0.13941012370E+04  0.46127603718E+03  0.15357576791E+04  0.12699999809E+01 0. -1.
       -4    1    3    3    0  502  0.44972902320E+03 -0.13941012370E+04 -0.14030890845E+04  0.20284070216E+04  0.12699999809E+01 0.  1.
</event>
<event>
 5   0  0.1421875E-07  0.3404810E+04  0.7818609E-02  0.8136727E-01
        1   -1    0    0  501    0  0.00000000000E+00  0.00000000000E+00  0.24230186438E+04  0.24230186438E+04  0.50400001928E-02 0.  1.
       -1   -1    0    0    0  501  0.00000000000E+00  0.00000000000E+00 -0.11961039358E+04  0.11961039358E+04  0.50400001928E-02 0. -1.
    10030    2    1    2    0    0  0.00000000000E+00  0.00000000000E+00  0.12269147080E+04  0.36191225797E+04  0.34048096197E+04 0.  0.
        5    1    3    3  502    0  0.10985646248E+04  0.12187603515E+04  0.10958267848E+04  0.19730888124E+04  0.46999998093E+01 0.  1.
       -5    1    3    3    0  502 -0.10985646248E+04 -0.12187603515E+04  0.13108792320E+03  0.16460337673E+04  0.46999998093E+01 0. -1.
</event>
<event>
 5   0  0.1435806E-07  0.3404975E+04  0.7818609E-02  0.8136686E-01
        1   -1    0    0  501    0  0.00000000000E+00  0.00000000000E+00  0.20777706913E+04  0.20777706913E+04  0.50400001928E-02 0. -1.
       -1   -1    0    0    0  501  0.00000000000E+00  0.00000000000E+00 -0.13949869578E+04  0.13949869578E+04  0.50400001928E-02 0.  1.
    10030    2    1    2    0    0  0.00000000000E+00  0.00000000000E+00  0.68278373352E+03  0.34727576490E+04  0.34049746052E+04 0.  0.
        3    1    3    3  502    0  0.46863124019E+03 -0.95710635442E+03 -0.10127417759E+04  0.14701407170E+04  0.10100000352E+00 0.  1.
       -3    1    3    3    0  502 -0.46863124019E+03  0.95710635442E+03  0.16955255095E+04  0.20026169320E+04  0.10100000352E+00 0. -1.
</event>
<event>
 5   0  0.1520084E-07  0.3380481E+04  0.7818609E-02  0.8142714E-01
       -1   -1    0    0    0  501  0.00000000000E+00  0.00000000000E+00  0.16107414559E+04  0.16107414559E+04  0.50400001928E-02 0. -1.
        1   -1    0    0  501    0  0.00000000000E+00  0.00000000000E+00 -0.17736629892E+04  0.17736629892E+04  0.50400001928E-02 0.  1.
    10030    2    1    2    0    0  0.00000000000E+00  0.00000000000E+00 -0.16292153327E+03  0.33844044451E+04  0.33804807383E+04 0.  0.
        2    1    3    3  502    0  0.13337080894E+03 -0.20003845969E+03  0.15935350371E+04  0.16115697541E+04  0.25500000920E-02 0. -1.
       -2    1    3    3    0  502 -0.13337080894E+03  0.20003845969E+03 -0.17564565704E+04  0.17728346910E+04  0.25500000920E-02 0.  1.
</event>
<event>
 5   0  0.1520084E-07  0.3407645E+04  0.7818609E-02  0.8136033E-01
        1   -1    0    0  501    0  0.00000000000E+00  0.00000000000E+00  0.23069889431E+04  0.23069889431E+04  0.50400001928E-02 0. -1.
       -1   -1    0    0    0  501  0.00000000000E+00  0.00000000000E+00 -0.12583549215E+04  0.12583549215E+04  0.50400001928E-02 0.  1.
    10030    2    1    2    0    0  0.00000000000E+00  0.00000000000E+00  0.10486340216E+04  0.35653438646E+04  0.34076448703E+04 0.  0.
        2    1    3    3  502    0 -0.12379290279E+04  0.95209178447E+03 -0.18843091450E+03  0.15730394953E+04  0.25500000920E-02 0. -1.
       -2    1    3    3    0  502  0.12379290279E+04 -0.95209178447E+03  0.12370649361E+04  0.19923043694E+04  0.25500000920E-02 0.  1.
</event>
<event>
 5   0  0.1421875E-07  0.3417842E+04  0.7818609E-02  0.8133541E-01
       -1   -1    0    0    0  501  0.00000000000E+00  0.00000000000E+00  0.90813241211E+03  0.90813241213E+03  0.50400001928E-02 0. -1.
        1   -1    0    0  501    0  0.00000000000E+00  0.00000000000E+00 -0.32158425861E+04  0.32158425861E+04  0.50400001928E-02 0.  1.
    10030    2    1    2    0    0  0.00000000000E+00  0.00000000000E+00 -0.23077101740E+04  0.41239749982E+04  0.34178419418E+04 0.  0.
        5    1    3    3  502    0 -0.12075290230E+04 -0.61541454268E+03 -0.24098387680E+04  0.27648157947E+04  0.46999998093E+01 0.  1.
       -5    1    3    3    0  502  0.12075290230E+04  0.61541454268E+03  0.10212859403E+03  0.13591592035E+04  0.46999998093E+01 0. -1.
</event>
<event>
 5   0  0.4486226E-07  0.3363281E+04  0.7818609E-02  0.8146978E-01
       -2   -1    0    0    0  501  0.00000000000E+00  0.00000000000E+00  0.12761363234E+04  0.12761363234E+04  0.25500000920E-02 0. -1.
        2   -1    0    0  501    0  0.00000000000E+00  0.00000000000E+00 -0.22159971358E+04  0.22159971358E+04  0.25500000920E-02 0.  1.
    10030    2    1    2    0    0  0.00000000000E+00  0.00000000000E+00 -0.93986081243E+03  0.34921334592E+04  0.33632808016E+04 0.  0.
        1    1    3    3  502    0 -0.11598698475E+04  0.12895294025E+02 -0.17341361069E+04  0.20863107125E+04  0.50400001928E-02 0.  1.
       -1    1    3    3    0  502  0.11598698475E+04 -0.12895294025E+02  0.79427529444E+03  0.14058227467E+04  0.50400001928E-02 0. -1.
</event>
<event>
 5   0  0.1523259E-07  0.3398459E+04  0.7818609E-02  0.8138285E-01
        1   -1    0    0  501    0  0.00000000000E+00  0.00000000000E+00  0.16766521050E+04  0.16766521050E+04  0.50400001928E-02 0.  1.
       -1   -1    0    0    0  501  0.00000000000E+00  0.00000000000E+00 -0.17221108744E+04  0.17221108745E+04  0.50400001928E-02 0. -1.
    10030    2    1    2    0    0  0.00000000000E+00  0.00000000000E+00 -0.45458769454E+02  0.33987629795E+04  0.33984589582E+04 0.  0.
        4    1    3    3  502    0 -0.11116855350E+04  0.82291111158E+03 -0.10099102798E+04  0.17125851256E+04  0.12699999809E+01 0. -1.
       -4    1    3    3    0  502  0.11116855350E+04 -0.82291111158E+03  0.96445151035E+03  0.16861778539E+04  0.12699999809E+01 0.  1.
</event>
<event>
 5   0  0.1473755E-07  0.3410312E+04  0.7818609E-02  0.8135380E-01
       -1   -1    0    0    0  501  0.00000000000E+00  0.00000000000E+00  0.14045822136E+04  0.14045822136E+04  0.50400001928E-02 0. -1.
        1   -1    0    0  501    0  0.00000000000E+00  0.00000000000E+00 -0.20700516787E+04  0.20700516787E+04  0.50400001928E-02 0.  1.
    10030    2    1    2    0    0  0.00000000000E+00  0.00000000000E+00 -0.66546946517E+03  0.34746338923E+04  0.34103124602E+04 0.  0.
        1    1    3    3  502    0  0.10554089694E+04  0.92654781152E+03 -0.13180205083E+04  0.19260210279E+04  0.50400001928E-02 0.  1.
       -1    1    3    3    0  502 -0.10554089694E+04 -0.92654781152E+03  0.65255104315E+03  0.15486128644E+04  0.50400001928E-02 0. -1.
</event>
<event>
 5   0  0.4521737E-07  0.3399903E+04  0.7818609E-02  0.8137930E-01
        2   -1    0    0  501    0  0.00000000000E+00  0.00000000000E+00  0.17331480145E+04  0.17331480145E+04  0.25500000920E-02 0. -1.
       -2   -1    0    0    0  501  0.00000000000E+00  0.00000000000E+00 -0.16673903564E+04  0.16673903564E+04  0.25500000920E-02 0.  1.
    10030    2    1    2    0    0  0.00000000000E+00  0.00000000000E+00  0.65757658104E+02  0.34005383710E+04  0.33999025196E+04 0.  0.
        4    1    3    3  502    0  0.29754229935E+03 -0.13467711307E+04  0.10267994383E+04  0.17194890514E+04  0.12699999809E+01 0. -1.
       -4    1    3    3    0  502 -0.29754229935E+03  0.13467711307E+04 -0.96104178024E+03  0.16810493195E+04  0.12699999809E+01 0.  1.
</event>
<event>
 5   0  0.1421875E-07  0.3449568E+04  0.7818609E-02  0.8125847E-01
        1   -1    0    0  501    0  0.00000000000E+00  0.00000000000E+00  0.26877968705E+04  0.26877968705E+04  0.50400001928E-02 0. -1.
       -1   -1    0    0    0  501  0.00000000000E+00  0.00000000000E+00 -0.11068099886E+04  0.11068099886E+04  0.50400001928E-02 0.  1.
    10030    2    1    2    0    0  0.00000000000E+00  0.00000000000E+00  0.15809868819E+04  0.37946068590E+04  0.34495683344E+04 0.  0.
        5    1    3    3  502    0 -0.77452660787E+03  0.14918321944E+04  0.12156829338E+04  0.20744545905E+04  0.46999998093E+01 0. -1.
       -5    1    3    3    0  502  0.77452660787E+03 -0.14918321944E+04  0.36530394812E+03  0.17201522686E+04  0.46999998093E+01 0.  1.
</event>
<event>
 5   0  0.1421875E-07  0.3390959E+04  0.7818609E-02  0.8140129E-01
        1   -1    0    0  501    0  0.00000000000E+00  0.00000000000E+00  0.17801900520E+04  0.17801900520E+04  0.50400001928E-02 0. -1.
       -1   -1    0    0    0  501  0.00000000000E+00  0.00000000000E+00 -0.16147995797E+04  0.16147995798E+04  0.50400001928E-02 0.  1.
    10030    2    1    2    0    0  0.00000000000E+00  0.00000000000E+00  0.16539047229E+03  0.33949896318E+04  0.33909586538E+04 0.  0.
        5    1    3    3  502    0 -0.89462950179E+01  0.90988884793E+03 -0.13496172578E+04  0.16277182140E+04  0.46999998093E+01 0.  1.
       -5    1    3    3    0  502  0.89462950179E+01 -0.90988884793E+03  0.15150077301E+04  0.17672714178E+04  0.46999998093E+01 0. -1.
</event>
<event>
 5   0  0.1523259E-07  0.3407269E+04  0.7818609E-02  0.8136125E-01
       -1   -1    0    0    0  501  0.00000000000E+00  0.00000000000E+00  0.99187925469E+03  0.99187925470E+03  0.50400001928E-02 0. -1.
        1   -1    0    0  501    0  0.00000000000E+00  0.00000000000E+00 -0.29261322476E+04  0.29261322476E+04  0.50400001928E-02 0.  1.
    10030    2    1    2    0    0  0.00000000000E+00  0.00000000000E+00 -0.19342529929E+04  0.39180115023E+04  0.34072686263E+04 0.  0.
        4    1    3    3  502    0  0.16604017133E+04  0.34434861090E+03 -0.77867492547E+03  0.18659705431E+04  0.12699999809E+01 0.  1.
       -4    1    3    3    0  502 -0.16604017133E+04 -0.34434861090E+03 -0.11555780674E+04  0.20520409592E+04  0.12699999809E+01 0. -1.
</event>
<event>
 5   0  0.4486226E-07  0.3406076E+04  0.7818609E-02  0.8136417E-01
        2   -1    0    0  501    0  0.00000000000E+00  0.00000000000E+00  0.17980318620E+04  0.17980318620E+04  0.25500000920E-02 0. -1.
       -2   -1    0    0    0  501  0.00000000000E+00  0.00000000000E+00 -0.16130630287E+04  0.16130630287E+04  0.25500000920E-02 0.  1.
    10030    2    1    2    0    0  0.00000000000E+00  0.00000000000E+00  0.18496883321E+03  0.34110948907E+04  0.34060761712E+04 0.  0.
        1    1    3    3  502    0 -0.87734639624E+03  0.71024339844E+03 -0.11846029032E+04  0.16362965570E+04  0.50400001928E-02 0.  1.
       -1    1    3    3    0  502  0.87734639624E+03 -0.71024339844E+03  0.13695717365E+04  0.17747983337E+04  0.50400001928E-02 0. -1.
</event>
<event>
 5   0  0.1523259E-07  0.3395798E+04  0.7818609E-02  0.8138938E-01
       -1   -1    0    0    0  501  0.00000000000E+00  0.00000000000E+00  0.12350780995E+04  0.12350780995E+04  0.50400001928E-02 0.  1.
        1   -1    0    0  501    0  0.00000000000E+00  0.00000000000E+00 -0.23341530367E+04  0.23341530367E+04  0.50400001928E-02 0. -1.
    10030    2    1    2    0    0  0.00000000000E+00  0.00000000000E+00 -0.10990749372E+04  0.35692311362E+04  0.33957981663E+04 0.  0.
        4    1    3    3  502    0  0.19547787141E+03  0.57761466003E+03  0.11160098354E+04  0.12717428432E+04  0.12699999809E+01 0.  1.
       -4    1    3    3    0  502 -0.19547787141E+03 -0.57761466003E+03 -0.22150847726E+04  0.22974882930E+04  0.12699999809E+01 0. -1.
</event>
<event>
 5   0  0.4486226E-07  0.3401833E+04  0.7818609E-02  0.8137457E-01
        2   -1    0    0  501    0  0.00000000000E+00  0.00000000000E+00  0.29187935635E+04  0.29187935635E+04  0.25500000920E-02 0. -1.
       -2   -1    0    0    0  501  0.00000000000E+00  0.00000000000E+00 -0.99120312446E+03  0.99120312446E+03  0.25500000920E-02 0.  1.
    10030    2    1    2    0    0  0.00000000000E+00  0.00000000000E+00  0.19275904391E+04  0.39099966880E+04  0.34018332116E+04 0.  0.
        1    1    3    3  502    0 -0.23733034253E+03  0.41844619158E+03  0.28389730834E+04  0.28794428411E+04  0.50400001928E-02 0. -1.
       -1    1    3    3    0  502  0.23733034253E+03 -0.41844619158E+03 -0.91138264439E+03  0.10305538469E+04  0.50400001928E-02 0.  1.
</event>
<event>
 5   0  0.4381939E-07  0.3394781E+04  0.7818609E-02  0.8139188E-01
       -2   -1    0    0    0  501  0.00000000000E+00  0.00000000000E+00  0.88055883332E+03  0.88055883332E+03  0.25500000920E-02 0.  1.
        2   -1    0    0  501    0  0.00000000000E+00  0.00000000000E+00 -0.32719394015E+04  0.32719394015E+04  0.25500000920E-02 0. -1.
    10030    2    1    2    0    0  0.00000000000E+00  0.00000000000E+00 -0.23913805682E+04  0.41524982348E+04  0.33947813727E+04 0.  0.
        3    1    3    3  502    0  0.71372024551E+03 -0.15385339110E+04 -0.11122616644E+04  0.20282034426E+04  0.10100000352E+00 0. -1.
       -3    1    3    3    0  502 -0.71372024551E+03  0.15385339110E+04 -0.12791189038E+04  0.21242947923E+04  0.10100000352E+00 0.  1.
</event>
<event>
 5   0  0.4381939E-07  0.3398715E+04  0.7818609E-02  0.8138222E-01
        2   -1    0    0  501    0  0.00000000000E+00  0.00000000000E+00  0.25808649512E+04  0.25808649512E+04  0.25500000920E-02 0. -1.
       -2   -1    0    0    0  501  0.00000000000E+00  0.00000000000E+00 -0.11189330717E+04  0.11189330717E+04  0.25500000920E-02 0.  1.
    10030    2    1    2    0    0  0.00000000000E+00  0.00000000000E+00  0.14619318794E+04  0.36997980229E+04  0.33987145497E+04 0.  0.
        3    1    3    3  502    0  0.15078790954E+04 -0.73578771247E+03  0.43738576329E+03  0.17338942413E+04  0.10100000352E+00 0.  1.
       -3    1    3    3    0  502 -0.15078790954E+04  0.73578771247E+03  0.10245461162E+04  0.19659037816E+04  0.10100000352E+00 0. -1.
</event>
<event>
 5   0  0.1473755E-07  0.3472950E+04  0.7818609E-02  0.8120231E-01
        1   -1    0    0  501    0  0.00000000000E+00  0.00000000000E+00  0.95708140475E+03  0.95708140476E+03  0.50400001928E-02 0. -1.
       -1   -1    0    0    0  501  0.00000000000E+00  0.00000000000E+00 -0.31505627184E+04  0.31505627184E+04  0.50400001928E-02 0.  1.
    10030    2    1    2    0    0  0.00000000000E+00  0.00000000000E+00 -0.21934813136E+04  0.41076441232E+04  0.34729497505E+04 0.  0.
        1    1    3    3  502    0 -0.76143273292E+03  0.12152622515E+04  0.61333363304E+02  0.14354107176E+04  0.50400001928E-02 0. -1.
       -1    1    3    3    0  502  0.76143273292E+03 -0.12152622515E+04 -0.22548146769E+04  0.26722334056E+04  0.50400001928E-02 0.  1.
</event>
<event>
 5   0  0.1421875E-07  0.3415735E+04  0.7818609E-02  0.8134055E-01
        1   -1    0    0  501    0  0.00000000000E+00  0.00000000000E+00  0.20398266422E+04  0.20398266422E+04  0.50400001928E-02 0.  1.
       -1   -1    0    0    0  501  0.00000000000E+00  0.00000000000E+00 -0.14299308728E+04  0.14299308729E+04  0.50400001928E-02 0. -1.
    10030    2    1    2    0    0  0.00000000000E+00  0.00000000000E+00  0.60989576932E+03  0.34697575150E+04  0.34157348205E+04 0.  0.
        5    1    3    3  502    0  0.14886961663E+04 -0.16185787577E+03 -0.52924336453E+03  0.15882489969E+04  0.46999998093E+01 0. -1.
       -5    1    3    3    0  502 -0.14886961663E+04  0.16185787577E+03  0.11391391339E+04  0.18815085181E+04  0.46999998093E+01 0.  1.
</event>
<event>
 5   0  0.4381939E-07  0.3384134E+04  0.7818609E-02  0.8141811E-01
       -2   -1    0    0    0  501  0.00000000000E+00  0.00000000000E+00  0.16225944159E+04  0.16225944159E+04  0.25500000920E-02 0. -1.
        2   -1    0    0  501    0  0.00000000000E+00  0.00000000000E+00 -0.17645139028E+04  0.17645139028E+04  0.25500000920E-02 0.  1.
    10030    2    1    2    0    0  0.00000000000E+00  0.00000000000E+00 -0.14191948690E+03  0.33871083187E+04  0.33841338067E+04 0.  0.
        3    1    3    3  502    0 -0.95604981174E+03  0.13849102744E+04  0.10549803993E+03  0.16861605965E+04  0.10100000352E+00 0. -1.
       -3    1    3    3    0  502  0.95604981174E+03 -0.13849102744E+04 -0.24741752683E+03  0.17009477221E+04  0.10100000352E+00 0.  1.
</event>
<event>
 5   0  0.1421875E-07  0.3393534E+04  0.7818609E-02  0.8139495E-01
       -1   -1    0    0    0  501  0.00000000000E+00  0.00000000000E+00  0.14050990760E+04  0.14050990760E+04  0.50400001928E-02 0.  1.
        1   -1    0    0  501    0  0.00000000000E+00  0.00000000000E+00 -0.20489783452E+04  0.20489783452E+04  0.50400001928E-02 0. -1.
    10030    2    1    2    0    0  0.00000000000E+00  0.00000000000E+00 -0.64387926921E+03  0.34540774212E+04  0.33935336036E+04 0.  0.
        5    1    3    3  502    0 -0.12338463110E+04  0.60873930317E+03 -0.13326588782E+04  0.19154482593E+04  0.46999998093E+01 0. -1.
       -5    1    3    3    0  502  0.12338463110E+04 -0.60873930317E+03  0.68877960897E+03  0.15386291620E+04  0.46999998093E+01 0.  1.
</event>
<event>
 5   0  0.4396257E-07  0.3399529E+04  0.7818609E-02  0.8138022E-01
        2   -1    0    0  501    0  0.00000000000E+00  0.00000000000E+00  0.20819247097E+04  0.20819247097E+04  0.25500000920E-02 0. -1.
       -2   -1    0    0    0  501  0.00000000000E+00  0.00000000000E+00 -0.13877541040E+04  0.13877541040E+04  0.25500000920E-02 0.  1.
    10030    2    1    2    0    0  0.00000000000E+00  0.00000000000E+00  0.69417060566E+03  0.34696788137E+04  0.33995291204E+04 0.  0.
        2    1    3    3  502    0 -0.82944433114E+02 -0.10550841935E+04 -0.10104427156E+04  0.14632419198E+04  0.25500000920E-02 0.  1.
       -2    1    3    3    0  502  0.82944433114E+02  0.10550841935E+04  0.17046133212E+04  0.20064368939E+04  0.25500000920E-02 0. -1.
</event>
<event>
 5   0  0.1435806E-07  0.3403986E+04  0.7818609E-02  0.8136929E-01
        1   -1    0    0  501    0  0.00000000000E+00  0.00000000000E+00  0.11376450412E+04  0.11376450412E+04  0.50400001928E-02 0.  1.
       -1   -1    0    0    0  501  0.00000000000E+00  0.00000000000E+00 -0.25462949315E+04  0.25462949315E+04  0.50400001928E-02 0. -1.
    10030    2    1    2    0    0  0.00000000000E+00  0.00000000000E+00 -0.14086498903E+04  0.36839399727E+04  0.34039857828E+04 0.  0.
        3    1    3    3  502    0  0.14966275253E+04 -0.15792165946E+03  0.15600491319E+03  0.15130005760E+04  0.10100000352E+00 0.  1.
       -3    1    3    3    0  502 -0.14966275253E+04  0.15792165946E+03 -0.15646548035E+04  0.21709393967E+04  0.10100000352E+00 0. -1.
</event>
<event>
 5   0  0.1435806E-07  0.3398620E+04  0.7818609E-02  0.8138245E-01
        1   -1    0    0  501    0  0.00000000000E+00  0.00000000000E+00  0.19973209806E+04  0.19973209806E+04  0.50400001928E-02 0.  1.
       -1   -1    0    0    0  501  0.00000000000E+00  0.00000000000E+00 -0.14457636688E+04  0.14457636688E+04  0.50400001928E-02 0. -1.
    10030    2    1    2    0    0  0.00000000000E+00  0.00000000000E+00  0.55155731181E+03  0.34430846495E+04  0.33986197838E+04 0.  0.
        3    1    3    3  502    0  0.44478239739E+03 -0.75478448266E+03 -0.11993355932E+04  0.14852396680E+04  0.10100000352E+00 0. -1.
       -3    1    3    3    0  502 -0.44478239739E+03  0.75478448266E+03  0.17508929050E+04  0.19578449814E+04  0.10100000352E+00 0.  1.
</event>
<event>
 5   0  0.1523259E-07  0.3410855E+04  0.7818609E-02  0.8135247E-01
       -1   -1    0    0    0  501  0.00000000000E+00  0.00000000000E+00  0.23841931087E+04  0.23841931087E+04  0.50400001928E-02 0. -1.
        1   -1    0    0  501    0  0.00000000000E+00  0.00000000000E+00 -0.12199021696E+04  0.12199021696E+04  0.50400001928E-02 0.  1.
    10030    2    1    2    0    0  0.00000000000E+00  0.00000000000E+00  0.11642909391E+04  0.36040952783E+04  0.34108546413E+04 0.  0.
        4    1    3    3  502    0  0.24618244906E+03  0.16443180976E+04  0.98324706206E+03  0.19316221686E+04  0.12699999809E+01 0. -1.
       -4    1    3    3    0  502 -0.24618244906E+03 -0.16443180976E+04  0.18104387703E+03  0.16724731097E+04  0.12699999809E+01 0.  1.
</event>
<event>
 5   0  0.4521737E-07  0.3422381E+04  0.7818609E-02  0.8132435E-01
        2   -1    0    0  501    0  0.00000000000E+00  0.00000000000E+00  0.19215187201E+04  0.19215187202E+04  0.25500000920E-02 0.  1.
       -2   -1    0    0    0  501  0.00000000000E+00  0.00000000000E+00 -0.15238847197E+04  0.15238847197E+04  0.25500000920E-02 0. -1.
    10030    2    1    2    0    0  0.00000000000E+00  0.00000000000E+00  0.39763400041E+03  0.34454034399E+04  0.34223810520E+04 0.  0.
        4    1    3    3  502    0 -0.11558271389E+04 -0.12481281482E+04  0.12066686678E+02  0.17011488668E+04  0.12699999809E+01 0. -1.
       -4    1    3    3    0  502  0.11558271389E+04  0.12481281482E+04  0.38556731374E+03  0.17442545731E+04  0.12699999809E+01 0.  1.
</event>
<event>
 5   0  0.1435806E-07  0.3532777E+04  0.7818609E-02  0.8106066E-01
       -1   -1    0    0    0  501  0.00000000000E+00  0.00000000000E+00  0.27555458849E+04  0.27555458849E+04  0.50400001928E-02 0.  1.
        1   -1    0    0  501    0  0.00000000000E+00  0.00000000000E+00 -0.11323083907E+04  0.11323083908E+04  0.50400001928E-02 0. -1.
    10030    2    1    2    0    0  0.00000000000E+00  0.00000000000E+00  0.16232374941E+04  0.38878542756E+04  0.35327766567E+04 0.  0.
        3    1    3    3  502    0  0.72631154210E+02  0.16548861063E+04  0.14866217976E+04  0.22257510393E+04  0.10100000352E+00 0.  1.
       -3    1    3    3    0  502 -0.72631154210E+02 -0.16548861063E+04  0.13661569652E+03  0.16621032363E+04  0.10100000352E+00 0. -1.
</event>
<event>
 5   0  0.1421875E-07  0.3388193E+04  0.7818609E-02  0.8140810E-01
        1   -1    0    0  501    0  0.00000000000E+00  0.00000000000E+00  0.24311653596E+04  0.24311653596E+04  0.50400001928E-02 0.  1.
       -1   -1    0    0    0  501  0.00000000000E+00  0.00000000000E+00 -0.11804882853E+04  0.11804882853E+04  0.50400001928E-02 0. -1.
    10030    2    1    2    0    0  0.00000000000E+00  0.00000000000E+00  0.12506770743E+04  0.36116536448E+04  0.33881925722E+04 0.  0.
        5    1    3    3  502    0 -0.10705362943E+04 -0.39724126558E+03  0.19593101353E+04  0.22677669362E+04  0.46999998093E+01 0.  1.
       -5    1    3    3    0  502  0.10705362943E+04  0.39724126558E+03 -0.70863306099E+03  0.13438867087E+04  0.46999998093E+01 0. -1.
</event>
<event>
 5   0  0.1523259E-07  0.3394425E+04  0.7818609E-02  0.8139276E-01
       -1   -1    0    0    0  501  0.00000000000E+00  0.00000000000E+00  0.13980797879E+04  0.13980797879E+04  0.50400001928E-02 0. -1.
        1   -1    0    0  501    0  0.00000000000E+00  0.00000000000E+00 -0.20603479304E+04  0.20603479304E+04  0.50400001928E-02 0.  1.
    10030    2    1    2    0    0  0.00000000000E+00  0.00000000000E+00 -0.66226814257E+03  0.34584277183E+04  0.33944253107E+04 0.  0.
        4    1    3    3  502    0  0.70496146446E+03 -0.50359779978E+03  0.11558178404E+04  0.14444714962E+04  0.12699999809E+01 0. -1.
       -4    1    3    3    0  502 -0.70496146446E+03  0.50359779978E+03 -0.18180859829E+04  0.20139562221E+04  0.12699999809E+01 0.  1.
</event>
<event>
 5   0  0.4396257E-07  0.3395148E+04  0.7818609E-02  0.8139098E-01
       -2   -1    0    0    0  501  0.00000000000E+00  0.00000000000E+00  0.14936959991E+04  0.14936959991E+04  0.25500000920E-02 0. -1.
        2   -1    0    0  501    0  0.00000000000E+00  0.00000000000E+00 -0.19292796484E+04  0.19292796484E+04  0.25500000920E-02 0.  1.
    10030    2    1    2    0    0  0.00000000000E+00  0.00000000000E+00 -0.43558364933E+03  0.34229756475E+04  0.33951478860E+04 0.  0.
        2    1    3    3  502    0  0.14866170748E+04 -0.81099307786E+03 -0.98427201020E+02  0.16962983267E+04  0.25500000920E-02 0. -1.
       -2    1    3    3    0  502 -0.14866170748E+04  0.81099307786E+03 -0.33715644831E+03  0.17266773207E+04  0.25500000920E-02 0.  1.
</event>
<event>
 5   0  0.4521737E-07  0.3381834E+04  0.7818609E-02  0.8142379E-01
       -2   -1    0    0    0  501  0.00000000000E+00  0.00000000000E+00  0.88817944510E+03  0.88817944510E+03  0.25500000920E-02 0. -1.
        2   -1    0    0  501    0  0.00000000000E+00  0.00000000000E+00 -0.32191693917E+04  0.32191693917E+04  0.25500000920E-02 0.  1.
    10030    2    1    2    0    0  0.00000000000E+00  0.00000000000E+00 -0.23309899466E+04  0.41073488368E+04  0.33818338717E+04 0.  0.
        4    1    3    3  502    0  0.52127452150E+03 -0.16074525654E+04 -0.12380382310E+04  0.20948439443E+04  0.12699999809E+01 0. -1.
       -4    1    3    3    0  502 -0.52127452150E+03  0.16074525654E+04 -0.10929517157E+04  0.20125048925E+04  0.12699999809E+01 0.  1.
</event>
<event>
 5   0  0.4521737E-07  0.3375497E+04  0.7818609E-02  0.8143946E-01
        2   -1    0    0  501    0  0.00000000000E+00  0.00000000000E+00  0.13914721502E+04  0.13914721502E+04  0.25500000920E-02 0.  1.
       -2   -1    0    0    0  501  0.00000000000E+00  0.00000000000E+00 -0.20471092805E+04  0.20471092805E+04  0.25500000920E-02 0. -1.
    10030    2    1    2    0    0  0.00000000000E+00  0.00000000000E+00 -0.65563713032E+03  0.34385814308E+04  0.33754973277E+04 0.  0.
        4    1    3    3  502    0  0.58204484758E+03  0.89806537170E+03 -0.16572743572E+04  0.19727791373E+04  0.12699999809E+01 0. -1.
       -4    1    3    3    0  502 -0.58204484758E+03 -0.89806537170E+03  0.10016372269E+04  0.14658022935E+04  0.12699999809E+01 0.  1.
</event>
<event>
 5   0  0.1523259E-07  0.3412488E+04  0.7818609E-02  0.8134848E-01
       -1   -1    0    0    0  501  0.00000000000E+00  0.00000000000E+00  0.20834693811E+04  0.20834693811E+04  0.50400001928E-02 0.  1.
        1   -1    0    0  501    0  0.00000000000E+00  0.00000000000E+00 -0.13973179585E+04  0.13973179586E+04  0.50400001928E-02 0. -1.
    10030    2    1    2    0    0  0.00000000000E+00  0.00000000000E+00  0.68615142258E+03  0.34807873397E+04  0.34124883486E+04 0.  0.
        4    1    3    3  502    0 -0.56807940922E+03  0.61491683271E+03 -0.11734324775E+04  0.14414514624E+04  0.12699999809E+01 0. -1.
       -4    1    3    3    0  502  0.56807940922E+03 -0.61491683271E+03  0.18595839000E+04  0.20393358773E+04  0.12699999809E+01 0.  1.
</event>
<event>
 5   0  0.4396257E-07  0.3405744E+04  0.7818609E-02  0.8136498E-01
        2   -1    0    0  501    0  0.00000000000E+00  0.00000000000E+00  0.21961904383E+04  0.21961904383E+04  0.25500000920E-02 0.  1.
       -2   -1    0    0    0  501  0.00000000000E+00  0.00000000000E+00 -0.13203649290E+04  0.13203649290E+04  0.25500000920E-02 0. -1.
    10030    2    1    2    0    0  0.00000000000E+00  0.00000000000E+00  0.87582550934E+03  0.35165553673E+04  0.34057438730E+04 0.  0.
        2    1    3    3  502    0 -0.64554094047E+03 -0.21545822982E+03 -0.11738460241E+04  0.13568566037E+04  0.25500000920E-02 0. -1.
       -2    1    3    3    0  502  0.64554094047E+03  0.21545822982E+03  0.20496715334E+04  0.21596987636E+04  0.25500000920E-02 0.  1.
</event>
<event>
 5   0  0.4521737E-07  0.3401747E+04  0.7818609E-02  0.8137478E-01
       -2   -1    0    0    0  501  0.00000000000E+00  0.00000000000E+00  0.19935583731E+04  0.19935583731E+04  0.25500000920E-02 0.  1.
        2   -1    0    0  501    0  0.00000000000E+00  0.00000000000E+00 -0.14511595358E+04  0.14511595358E+04  0.25500000920E-02 0. -1.
    10030    2    1    2    0    0  0.00000000000E+00  0.00000000000E+00  0.54239883733E+03  0.34447179089E+04  0.34017473412E+04 0.  0.
        4    1    3    3  502    0 -0.25830937308E+03 -0.76444072965E+03 -0.12450038510E+04  0.14836204242E+04  0.12699999809E+01 0. -1.
       -4    1    3    3    0  502  0.25830937308E+03  0.76444072965E+03  0.17874026883E+04  0.19610974847E+04  0.12699999809E+01 0.  1.
</event>
<event>
 5   0  0.4447909E-07  0.3404936E+04  0.7818609E-02  0.8136696E-01
       -2   -1    0    0    0  501  0.00000000000E+00  0.00000000000E+00  0.26074283023E+04  0.26074283023E+04  0.25500000920E-02 0.  1.
        2   -1    0    0  501    0  0.00000000000E+00  0.00000000000E+00 -0.11115925293E+04  0.11115925293E+04  0.25500000920E-02 0. -1.
    10030    2    1    2    0    0  0.00000000000E+00  0.00000000000E+00  0.14958357731E+04  0.37190208316E+04  0.34049363116E+04 0.  0.
        5    1    3    3  502    0 -0.15983423756E+04  0.31034423352E+03  0.20468291097E+03  0.16410146487E+04  0.46999998093E+01 0. -1.
       -5    1    3    3    0  502  0.15983423756E+04 -0.31034423352E+03  0.12911528621E+04  0.20780061829E+04  0.46999998093E+01 0.  1.
</event>
<event>
 5   0  0.1520084E-07  0.3403903E+04  0.7818609E-02  0.8136949E-01
       -1   -1    0    0    0  501  0.00000000000E+00  0.00000000000E+00  0.11525449916E+04  0.11525449916E+04  0.50400001928E-02 0.  1.
        1   -1    0    0  501    0  0.00000000000E+00  0.00000000000E+00 -0.25132547497E+04  0.25132547497E+04  0.50400001928E-02 0. -1.
    10030    2    1    2    0    0  0.00000000000E+00  0.00000000000E+00 -0.13607097581E+04  0.36657997412E+04  0.34039031562E+04 0.  0.
        2    1    3    3  502    0 -0.52113869591E+03 -0.14198888479E+04  0.16005130193E+03  0.15209491445E+04  0.25500000920E-02 0.  1.
       -2    1    3    3    0  502  0.52113869591E+03  0.14198888479E+04 -0.15207610600E+04  0.21448505968E+04  0.25500000920E-02 0. -1.
</event>
<event>
 5   0  0.4447909E-07  0.3416035E+04  0.7818609E-02  0.8133982E-01
        2   -1    0    0  501    0  0.00000000000E+00  0.00000000000E+00  0.28410048518E+04  0.28410048518E+04  0.25500000920E-02 0.  1.
       -2   -1    0    0    0  501  0.00000000000E+00  0.00000000000E+00 -0.10268632860E+04  0.10268632860E+04  0.25500000920E-02 0. -1.
    10030    2    1    2    0    0  0.00000000000E+00  0.00000000000E+00  0.18141415659E+04  0.38678681378E+04  0.34160348813E+04 0.  0.
        5    1    3    3  502    0 -0.11749522911E+04 -0.14061758658E+03 -0.48751214053E+03  0.12798345085E+04  0.46999998093E+01 0. -1.
       -5    1    3    3    0  502  0.11749522911E+04  0.14061758658E+03  0.23016537064E+04  0.25880336293E+04  0.46999998093E+01 0.  1.
</event>
<event>
 5   0  0.1421875E-07  0.3396267E+04  0.7818609E-02  0.8138823E-01
       -3   -1    0    0    0  501  0.00000000000E+00  0.00000000000E+00  0.27632910429E+04  0.27632910447E+04  0.10100000352E+00 0. -1.
        3   -1    0    0  501    0  0.00000000000E+00  0.00000000000E+00 -0.10435589474E+04  0.10435589523E+04  0.10100000352E+00 0.  1.
    10030    2    1    2    0    0  0.00000000000E+00  0.00000000000E+00  0.17197320955E+04  0.38068499970E+04  0.33962668358E+04 0.  0.
        4    1    3    3  502    0  0.87249437446E+03  0.14423291780E+04  0.62989015305E+03  0.17995341366E+04  0.12699999809E+01 0. -1.
       -4    1    3    3    0  502 -0.87249437446E+03 -0.14423291780E+04  0.10898419424E+04  0.20073158604E+04  0.12699999809E+01 0.  1.
</event>
<event>
 5   0  0.1520084E-07  0.3330423E+04  0.7818609E-02  0.8155197E-01
        1   -1    0    0  501    0  0.00000000000E+00  0.00000000000E+00  0.16705793932E+04  0.16705793932E+04  0.50400001928E-02 0.  1.
       -1   -1    0    0    0  501  0.00000000000E+00  0.00000000000E+00 -0.16598609404E+04  0.16598609404E+04  0.50400001928E-02 0. -1.
    10030    2    1    2    0    0  0.00000000000E+00  0.00000000000E+00  0.10718452807E+02  0.33304403335E+04  0.33304230857E+04 0.  0.
        2    1    3    3  502    0  0.12302763300E+03  0.16125708361E+04 -0.39139083708E+03  0.16639432945E+04  0.25500000920E-02 0. -1.
       -2    1    3    3    0  502 -0.12302763300E+03 -0.16125708361E+04  0.40210928989E+03  0.16664970390E+04  0.25500000920E-02 0.  1.
</event>
<event>
 5   0  0.4486226E-07  0.3395013E+04  0.7818609E-02  0.8139131E-01
        2   -1    0    0  501    0  0.00000000000E+00  0.00000000000E+00  0.11970045193E+04  0.11970045193E+04  0.25500000920E-02 0. -1.
       -2   -1    0    0    0  501  0.00000000000E+00  0.00000000000E+00 -0.24072821776E+04  0.24072821776E+04  0.25500000920E-02 0.  1.
    10030    2    1    2    0    0  0.00000000000E+00  0.00000000000E+00 -0.12102776584E+04  0.36042866969E+04  0.33950126043E+04 0.  0.
        1    1    3    3  502    0 -0.94129027465E+03  0.13550095190E+04 -0.18121339341E+03  0.16597941052E+04  0.50400001928E-02 0.  1.
       -1    1    3    3    0  502  0.94129027465E+03 -0.13550095190E+04 -0.10290642650E+04  0.19444925917E+04  0.50400001928E-02 0. -1.
</event>
<event>
 5   0  0.1523259E-07  0.3430965E+04  0.7818609E-02  0.8130348E-01
        1   -1    0    0  501    0  0.00000000000E+00  0.00000000000E+00  0.10221819712E+04  0.10221819712E+04  0.50400001928E-02 0.  1.
       -1   -1    0    0    0  501  0.00000000000E+00  0.00000000000E+00 -0.28790176249E+04  0.28790176249E+04  0.50400001928E-02 0. -1.
    10030    2    1    2    0    0  0.00000000000E+00  0.00000000000E+00 -0.18568356537E+04  0.39011995961E+04  0.34309648270E+04 0.  0.
        4    1    3    3  502    0 -0.60022193307E+03  0.83850435183E+03  0.63043694068E+03  0.12086390140E+04  0.12699999809E+01 0.  1.
       -4    1    3    3    0  502  0.60022193307E+03 -0.83850435183E+03 -0.24872725944E+04  0.26925605822E+04  0.12699999809E+01 0. -1.
</event>
<event>
 5   0  0.4381939E-07  0.3395348E+04  0.7818609E-02  0.8139049E-01
       -2   -1    0    0    0  501  0.00000000000E+00  0.00000000000E+00  0.93319601932E+03  0.93319601933E+03  0.25500000920E-02 0. -1.
        2   -1    0    0  501    0  0.00000000000E+00  0.00000000000E+00 -0.30884157225E+04  0.30884157225E+04  0.25500000920E-02 0.  1.
    10030    2    1    2    0    0  0.00000000000E+00  0.00000000000E+00 -0.21552197032E+04  0.40216117419E+04  0.33953481461E+04 0.  0.
        3    1    3    3  502    0 -0.31321315608E+03  0.13006467217E+04  0.16030095496E+03  0.13473977817E+04  0.10100000352E+00 0. -1.
       -3    1    3    3    0  502  0.31321315608E+03 -0.13006467217E+04 -0.23155206582E+04  0.26742139601E+04  0.10100000352E+00 0.  1.
</event>
<event>
 5   0  0.1421875E-07  0.3398621E+04  0.7818609E-02  0.8138245E-01
        1   -1    0    0  501    0  0.00000000000E+00  0.00000000000E+00  0.26932458831E+04  0.26932458831E+04  0.50400001928E-02 0.  1.
       -1   -1    0    0    0  501  0.00000000000E+00  0.00000000000E+00 -0.10721846775E+04  0.10721846775E+04  0.50400001928E-02 0. -1.
    10030    2    1    2    0    0  0.00000000000E+00  0.00000000000E+00  0.16210612056E+04  0.37654305606E+04  0.33986214668E+04 0.  0.
        5    1    3    3  502    0  0.11562100368E+04 -0.12273074177E+04  0.57673470531E+03  0.17820634549E+04  0.46999998093E+01 0. -1.
       -5    1    3    3    0  502 -0.11562100368E+04  0.12273074177E+04  0.10443265003E+04  0.19833671057E+04  0.46999998093E+01 0.  1.
</event>
<event>
 5   0  0.1435806E-07  0.3391145E+04  0.7818609E-02  0.8140083E-01
       -1   -1    0    0    0  501  0.00000000000E+00  0.00000000000E+00  0.10549136036E+04  0.10549136036E+04  0.50400001928E-02 0.  1.
        1   -1    0    0  501    0  0.00000000000E+00  0.00000000000E+00 -0.27253101096E+04  0.27253101096E+04  0.50400001928E-02 0. -1.
    10030    2    1    2    0    0  0.00000000000E+00  0.00000000000E+00 -0.16703965060E+04  0.37802237131E+04  0.33911453573E+04 0.  0.
        3    1    3    3  502    0  0.57238516695E+03 -0.87208977078E+02  0.94130263046E+03  0.11051157574E+04  0.10100000352E+00 0.  1.
       -3    1    3    3    0  502 -0.57238516695E+03  0.87208977078E+02 -0.26116991365E+04  0.26751079557E+04  0.10100000352E+00 0. -1.
</event>
<event>
 5   0  0.4396257E-07  0.3398173E+04  0.7818609E-02  0.8138355E-01
       -2   -1    0    0    0  501  0.00000000000E+00  0.00000000000E+00  0.11469200083E+04  0.11469200083E+04  0.25500000920E-02 0. -1.
        2   -1    0    0  501    0  0.00000000000E+00  0.00000000000E+00 -0.25170850671E+04  0.25170850671E+04  0.25500000920E-02 0.  1.
    10030    2    1    2    0    0  0.00000000000E+00  0.00000000000E+00 -0.13701650588E+04  0.36640050754E+04  0.33981731716E+04 0.  0.
        2    1    3    3  502    0  0.40959927269E+03 -0.62137152471E+03  0.96182756746E+03  0.12161358499E+04  0.25500000920E-02 0. -1.
       -2    1    3    3    0  502 -0.40959927269E+03  0.62137152471E+03 -0.23319926263E+04  0.24478692254E+04  0.25500000920E-02 0.  1.
</event>
<event>
 5   0  0.4447909E-07  0.3413336E+04  0.7818609E-02  0.8134641E-01
        2   -1    0    0  501    0  0.00000000000E+00  0.00000000000E+00  0.16779869655E+04  0.16779869655E+04  0.25500000920E-02 0. -1.
       -2   -1    0    0    0  501  0.00000000000E+00  0.00000000000E+00 -0.17358388336E+04  0.17358388336E+04  0.25500000920E-02 0.  1.
    10030    2    1    2    0    0  0.00000000000E+00  0.00000000000E+00 -0.57851868164E+02  0.34138257991E+04  0.34133355751E+04 0.  0.
        5    1    3    3  502    0 -0.18865948743E+03  0.12681186681E+04 -0.11555758423E+04  0.17260054971E+04  0.46999998093E+01 0.  1.
       -5    1    3    3    0  502  0.18865948743E+03 -0.12681186681E+04  0.10977239742E+04  0.16878203020E+04  0.46999998093E+01 0. -1.
</event>
<event>
 5   0  0.1523259E-07  0.3429530E+04  0.7818609E-02  0.8130697E-01
        1   -1    0    0  501    0  0.00000000000E+00  0.00000000000E+00  0.17816293962E+04  0.17816293962E+04  0.50400001928E-02 0. -1.
       -1   -1    0    0    0  501  0.00000000000E+00  0.00000000000E+00 -0.16504097197E+04  0.16504097197E+04  0.50400001928E-02 0.  1.
    10030    2    1    2    0    0  0.00000000000E+00  0.00000000000E+00  0.13121967643E+03  0.34320391159E+04  0.34295296893E+04 0.  0.
        4    1    3    3  502    0 -0.69816963693E+03 -0.37423229666E+03 -0.14563337330E+04  0.16578299697E+04  0.12699999809E+01 0.  1.
       -4    1    3    3    0  502  0.69816963693E+03  0.37423229666E+03  0.15875534094E+04  0.17742091462E+04  0.12699999809E+01 0. -1.
</event>
<event>
 5   0  0.4521737E-07  0.3398504E+04  0.7818609E-02  0.8138274E-01
        2   -1    0    0  501    0  0.00000000000E+00  0.00000000000E+00  0.21302535127E+04  0.21302535127E+04  0.25500000920E-02 0.  1.
       -2   -1    0    0    0  501  0.00000000000E+00  0.00000000000E+00 -0.13554521719E+04  0.13554521719E+04  0.25500000920E-02 0. -1.
    10030    2    1    2    0    0  0.00000000000E+00  0.00000000000E+00  0.77480134083E+03  0.34857056845E+04  0.33985036415E+04 0.  0.
        4    1    3    3  502    0 -0.11856625089E+04 -0.82836392300E+03 -0.52737716264E+03  0.15395163716E+04  0.12699999809E+01 0. -1.
       -4    1    3    3    0  502  0.11856625089E+04  0.82836392300E+03  0.13021785035E+04  0.19461893129E+04  0.12699999809E+01 0.  1.
</event>
<event>
 5   0  0.1421875E-07  0.3400400E+04  0.7818609E-02  0.8137808E-01
       -1   -1    0    0    0  501  0.00000000000E+00  0.00000000000E+00  0.16392847482E+04  0.16392847482E+04  0.50400001928E-02 0.  1.
        1   -1    0    0  501    0  0.00000000000E+00  0.00000000000E+00 -0.17633787527E+04  0.17633787527E+04  0.50400001928E-02 0. -1.
    10030    2    1    2    0    0  0.00000000000E+00  0.00000000000E+00 -0.12409400455E+03  0.34026635009E+04  0.34003999145E+04 0.  0.
        5    1    3    3  502    0 -0.16378955789E+04  0.10604122550E+03  0.38176953337E+03  0.16851459092E+04  0.46999998093E+01 0.  1.
       -5    1    3    3    0  502  0.16378955789E+04 -0.10604122550E+03 -0.50586353792E+03  0.17175175917E+04  0.46999998093E+01 0. -1.
</event>
<event>
 5   0  0.4396257E-07  0.3410766E+04  0.7818609E-02  0.8135269E-01
       -2   -1    0    0    0  501  0.00000000000E+00  0.00000000000E+00  0.17000098106E+04  0.17000098106E+04  0.25500000920E-02 0.  1.
        2   -1    0    0  501    0  0.00000000000E+00  0.00000000000E+00 -0.17107735399E+04  0.17107735399E+04  0.25500000920E-02 0. -1.
    10030    2    1    2    0    0  0.00000000000E+00  0.00000000000E+00 -0.10763729325E+02  0.34107833505E+04  0.34107663664E+04 0.  0.
        2    1    3    3  502    0 -0.61649197543E+03  0.15291115043E+04  0.43061050490E+03  0.17040157732E+04  0.25500000920E-02 0.  1.
       -2    1    3    3    0  502  0.61649197543E+03 -0.15291115043E+04 -0.44137423423E+03  0.17067675773E+04  0.25500000920E-02 0. -1.
</event>
<event>
 5   0  0.4381939E-07  0.3391639E+04  0.7818609E-02  0.8139961E-01
        2   -1    0    0  501    0  0.00000000000E+00  0.00000000000E+00  0.23373731239E+04  0.23373731239E+04  0.25500000920E-02 0.  1.
       -2   -1    0    0    0  501  0.00000000000E+00  0.00000000000E+00 -0.12303572917E+04  0.12303572917E+04  0.25500000920E-02 0. -1.
    10030    2    1    2    0    0  0.00000000000E+00  0.00000000000E+00  0.11070158322E+04  0.35677304156E+04  0.33916391709E+04 0.  0.
        3    1    3    3  502    0 -0.10482890459E+04  0.86010888257E+03 -0.51775023203E+03  0.14514690925E+04  0.10100000352E+00 0. -1.
       -3    1    3    3    0  502  0.10482890459E+04 -0.86010888257E+03  0.16247660643E+04  0.21162613230E+04  0.10100000352E+00 0.  1.
</event>
<event>
 5   0  0.1523259E-07  0.3392983E+04  0.7818609E-02  0.8139631E-01
       -1   -1    0    0    0  501  0.00000000000E+00  0.00000000000E+00  0.19699438606E+04  0.19699438606E+04  0.50400001928E-02 0.  1.
        1   -1    0    0  501    0  0.00000000000E+00  0.00000000000E+00 -0.14609975427E+04  0.14609975427E+04  0.50400001928E-02 0. -1.
    10030    2    1    2    0    0  0.00000000000E+00  0.00000000000E+00  0.50894631795E+03  0.34309414033E+04  0.33929828408E+04 0.  0.
        4    1    3    3  502    0 -0.10714273808E+03 -0.25446940658E+03  0.19470713306E+04  0.19665509464E+04  0.12699999809E+01 0.  1.
       -4    1    3    3    0  502  0.10714273808E+03  0.25446940658E+03 -0.14381250127E+04  0.14643904569E+04  0.12699999809E+01 0. -1.
</event>
<event>
 5   0  0.1421875E-07  0.3391211E+04  0.7818609E-02  0.8140067E-01
       -1   -1    0    0    0  501  0.00000000000E+00  0.00000000000E+00  0.18472305017E+04  0.18472305017E+04  0.50400001928E-02 0. -1.
        1   -1    0    0  501    0  0.00000000000E+00  0.00000000000E+00 -0.15564263770E+04  0.15564263770E+04  0.50400001928E-02 0.  1.
    10030    2    1    2    0    0  0.00000000000E+00  0.00000000000E+00  0.29080412467E+03  0.34036568787E+04  0.33912111566E+04 0.  0.
        5    1    3    3  502    0  0.16295480466E+04 -0.37980450879E+03 -0.13015586982E+03  0.16782851193E+04  0.46999998093E+01 0. -1.
       -5    1    3    3    0  502 -0.16295480466E+04  0.37980450879E+03  0.42095999449E+03  0.17253717594E+04  0.46999998093E+01 0.  1.
</event>
<event>
 5   0  0.4381939E-07  0.3403180E+04  0.7818609E-02  0.8137126E-01
        2   -1    0    0  501    0  0.00000000000E+00  0.00000000000E+00  0.18130625799E+04  0.18130625799E+04  0.25500000920E-02 0.  1.
       -2   -1    0    0    0  501  0.00000000000E+00  0.00000000000E+00 -0.15969707951E+04  0.15969707951E+04  0.25500000920E-02 0. -1.
    10030    2    1    2    0    0  0.00000000000E+00  0.00000000000E+00  0.21609178477E+03  0.34100333751E+04  0.34031796837E+04 0.  0.
        3    1    3    3  502    0  0.10560307432E+03 -0.16324257293E+04 -0.36134410714E+03  0.16752717227E+04  0.10100000352E+00 0.  1.
       -3    1    3    3    0  502 -0.10560307432E+03  0.16324257293E+04  0.57743589192E+03  0.17347616523E+04  0.10100000352E+00 0. -1.
</event>
<event>
 5   0  0.4381939E-07  0.3426769E+04  0.7818609E-02  0.8131367E-01
        2   -1    0    0  501    0  0.00000000000E+00  0.00000000000E+00  0.11138146758E+04  0.11138146758E+04  0.25500000920E-02 0. -1.
       -2   -1    0    0    0  501  0.00000000000E+00  0.00000000000E+00 -0.26357048038E+04  0.26357048038E+04  0.25500000920E-02 0.  1.
    10030    2    1    2    0    0  0.00000000000E+00  0.00000000000E+00 -0.15218901280E+04  0.37495194796E+04  0.34267691440E+04 0.  0.
        3    1    3    3  502    0  0.16831991092E+04 -0.27018653676E+02 -0.41183756408E+03  0.17330607139E+04  0.10100000352E+00 0. -1.
       -3    1    3    3    0  502 -0.16831991092E+04  0.27018653676E+02 -0.11100525639E+04  0.20164587657E+04  0.10100000352E+00 0.  1.
</event>
<event>
 5   0  0.4396257E-07  0.3395941E+04  0.7818609E-02  0.8138903E-01
        2   -1    0    0  501    0  0.00000000000E+00  0.00000000000E+00  0.20227889558E+04  0.20227889558E+04  0.25500000920E-02 0.  1.
       -2   -1    0    0    0  501  0.00000000000E+00  0.00000000000E+00 -0.14253114819E+04  0.14253114819E+04  0.25500000920E-02 0. -1.
    10030    2    1    2    0    0  0.00000000000E+00  0.00000000000E+00  0.59747747392E+03  0.34481004378E+04  0.33959412977E+04 0.  0.
        2    1    3    3  502    0  0.51255682639E+03 -0.12836510172E+04  0.13001063456E+04  0.18975644770E+04  0.25500000920E-02 0.  1.
       -2    1    3    3    0  502 -0.51255682639E+03  0.12836510172E+04 -0.70262887173E+03  0.15505359608E+04  0.25500000920E-02 0. -1.
</event>
<event>
 5   0  0.1473755E-07  0.3414794E+04  0.7818609E-02  0.8134285E-01
       -1   -1    0    0    0  501  0.00000000000E+00  0.00000000000E+00  0.12918382223E+04  0.12918382224E+04  0.50400001928E-02 0. -1.
        1   -1    0    0  501    0  0.00000000000E+00  0.00000000000E+00 -0.22566324598E+04  0.22566324598E+04  0.50400001928E-02 0.  1.
    10030    2    1    2    0    0  0.00000000000E+00  0.00000000000E+00 -0.96479423744E+03  0.35484706822E+04  0.34147937363E+04 0.  0.
        1    1    3    3  502    0  0.39246796522E+03 -0.16357035299E+04 -0.78650846905E+03  0.18569202227E+04  0.50400001928E-02 0. -1.
       -1    1    3    3    0  502 -0.39246796522E+03  0.16357035299E+04 -0.17828576839E+03  0.16915504594E+04  0.50400001928E-02 0.  1.
</event>
<event>
 5   0  0.4521737E-07  0.3402826E+04  0.7818609E-02  0.8137213E-01
        2   -1    0    0  501    0  0.00000000000E+00  0.00000000000E+00  0.25408420961E+04  0.25408420961E+04  0.25500000920E-02 0. -1.
       -2   -1    0    0    0  501  0.00000000000E+00  0.00000000000E+00 -0.11393095840E+04  0.11393095840E+04  0.25500000920E-02 0.  1.
    10030    2    1    2    0    0  0.00000000000E+00  0.00000000000E+00  0.14015325121E+04  0.36801516801E+04  0.34028257384E+04 0.  0.
        4    1    3    3  502    0  0.50698665905E+03 -0.76911526238E+03  0.22478124218E+04  0.24292459851E+04  0.12699999809E+01 0. -1.
       -4    1    3    3    0  502 -0.50698665905E+03  0.76911526238E+03 -0.84627990978E+03  0.12509056950E+04  0.12699999809E+01 0.  1.
</event>
<event>
 5   0  0.4381939E-07  0.3400886E+04  0.7818609E-02  0.8137689E-01
        2   -1    0    0  501    0  0.00000000000E+00  0.00000000000E+00  0.20391896086E+04  0.20391896086E+04  0.25500000920E-02 0.  1.
       -2   -1    0    0    0  501  0.00000000000E+00  0.00000000000E+00 -0.14179682770E+04  0.14179682770E+04  0.25500000920E-02 0. -1.
    10030    2    1    2    0    0  0.00000000000E+00  0.00000000000E+00  0.62122133161E+03  0.34571578857E+04  0.34008858704E+04 0.  0.
        3    1    3    3  502    0 -0.87491649187E+03 -0.51358851874E+03 -0.10766134476E+04  0.14793067836E+04  0.10100000352E+00 0. -1.
       -3    1    3    3    0  502  0.87491649187E+03  0.51358851874E+03  0.16978347792E+04  0.19778511021E+04  0.10100000352E+00 0.  1.
</event>
<event>
 5   0  0.1520084E-07  0.3398862E+04  0.7818609E-02  0.8138186E-01
       -1   -1    0    0    0  501  0.00000000000E+00  0.00000000000E+00  0.14282942411E+04  0.14282942411E+04  0.50400001928E-02 0. -1.
        1   -1    0    0  501    0  0.00000000000E+00  0.00000000000E+00 -0.20220380355E+04  0.20220380355E+04  0.50400001928E-02 0.  1.
    10030    2    1    2    0    0  0.00000000000E+00  0.00000000000E+00 -0.59374379447E+03  0.34503322766E+04  0.33988617397E+04 0.  0.
        2    1    3    3  502    0  0.11590565550E+04  0.12055944063E+04 -0.60343061932E+03  0.17779197064E+04  0.25500000920E-02 0.  1.
       -2    1    3    3    0  502 -0.11590565550E+04 -0.12055944063E+04  0.96868248490E+01  0.16724125702E+04  0.25500000920E-02 0. -1.
</event>
<event>
 5   0  0.1473755E-07  0.3416664E+04  0.7818609E-02  0.8133828E-01
       -1   -1    0    0    0  501  0.00000000000E+00  0.00000000000E+00  0.12992572230E+04  0.12992572230E+04  0.50400001928E-02 0. -1.
        1   -1    0    0  501    0  0.00000000000E+00  0.00000000000E+00 -0.22462055690E+04  0.22462055690E+04  0.50400001928E-02 0.  1.
    10030    2    1    2    0    0  0.00000000000E+00  0.00000000000E+00 -0.94694834602E+03  0.35454627920E+04  0.34166643440E+04 0.  0.
        1    1    3    3  502    0 -0.13443996674E+04  0.10423037989E+04 -0.63620127974E+03  0.18161937516E+04  0.50400001928E-02 0. -1.
       -1    1    3    3    0  502  0.13443996674E+04 -0.10423037989E+04 -0.31074706628E+03  0.17292690404E+04  0.50400001928E-02 0.  1.
</event>
<event>
 5   0  0.4486226E-07  0.3392176E+04  0.7818609E-02  0.8139829E-01
        2   -1    0    0  501    0  0.00000000000E+00  0.00000000000E+00  0.26876608325E+04  0.26876608325E+04  0.25500000920E-02 0. -1.
       -2   -1    0    0    0  501  0.00000000000E+00  0.00000000000E+00 -0.10703414842E+04  0.10703414842E+04  0.25500000920E-02 0.  1.
    10030    2    1    2    0    0  0.00000000000E+00  0.00000000000E+00  0.16173193483E+04  0.37580023166E+04  0.33921762244E+04 0.  0.
        1    1    3    3  502    0 -0.69523729304E+03  0.33514864835E+03  0.24818473143E+04  0.25990855318E+04  0.50400001928E-02 0. -1.
       -1    1    3    3    0  502  0.69523729304E+03 -0.33514864835E+03 -0.86452796600E+03  0.11589167848E+04  0.50400001928E-02 0.  1.
</event>
<event>
 5   0  0.1421875E-07  0.3412674E+04  0.7818609E-02  0.8134803E-01
        1   -1    0    0  501    0  0.00000000000E+00  0.00000000000E+00  0.17616671859E+04  0.17616671859E+04  0.50400001928E-02 0.  1.
       -1   -1    0    0    0  501  0.00000000000E+00  0.00000000000E+00 -0.16527445918E+04  0.16527445918E+04  0.50400001928E-02 0. -1.
    10030    2    1    2    0    0  0.00000000000E+00  0.00000000000E+00  0.10892259414E+03  0.34144117777E+04  0.34126739745E+04 0.  0.
        5    1    3    3  502    0 -0.42114370481E+02 -0.85809303702E+03  0.15294801628E+04  0.17542602255E+04  0.46999998093E+01 0.  1.
       -5    1    3    3    0  502  0.42114370481E+02  0.85809303702E+03 -0.14205575687E+04  0.16601515522E+04  0.46999998093E+01 0. -1.
</event>
<event>
 5   0  0.1473755E-07  0.3345950E+04  0.7818609E-02  0.8151301E-01
       -1   -1    0    0    0  501  0.00000000000E+00  0.00000000000E+00  0.11090326372E+04  0.11090326372E+04  0.50400001928E-02 0.  1.
        1   -1    0    0  501    0  0.00000000000E+00  0.00000000000E+00 -0.25236809604E+04  0.25236809604E+04  0.50400001928E-02 0. -1.
    10030    2    1    2    0    0  0.00000000000E+00  0.00000000000E+00 -0.14146483232E+04  0.36327135976E+04  0.33459495220E+04 0.  0.
        1    1    3    3  502    0 -0.73785279569E+03 -0.13265550902E+04 -0.14709300976E+04  0.21137195905E+04  0.50400001928E-02 0. -1.
       -1    1    3    3    0  502  0.73785279569E+03  0.13265550902E+04  0.56281774341E+02  0.15189940071E+04  0.50400001928E-02 0.  1.
</event>
<event>
 5   0  0.4381939E-07  0.3400029E+04  0.7818609E-02  0.8137899E-01
       -2   -1    0    0    0  501  0.00000000000E+00  0.00000000000E+00  0.15284167488E+04  0.15284167488E+04  0.25500000920E-02 0.  1.
        2   -1    0    0  501    0  0.00000000000E+00  0.00000000000E+00 -0.18908777598E+04  0.18908777598E+04  0.25500000920E-02 0. -1.
    10030    2    1    2    0    0  0.00000000000E+00  0.00000000000E+00 -0.36246101100E+03  0.34192945087E+04  0.34000289635E+04 0.  0.
        3    1    3    3  502    0  0.11232319410E+04 -0.12746188635E+04 -0.11967922964E+03  0.17031225348E+04  0.10100000352E+00 0. -1.
       -3    1    3    3    0  502 -0.11232319410E+04  0.12746188635E+04 -0.24278178136E+03  0.17161719739E+04  0.10100000352E+00 0.  1.
</event>
<event>
 5   0  0.1473755E-07  0.3250949E+04  0.7818609E-02  0.8175490E-01
       -1   -1    0    0    0  501  0.00000000000E+00  0.00000000000E+00  0.11985519773E+04  0.11985519774E+04  0.50400001928E-02 0. -1.
        1   -1    0    0  501    0  0.00000000000E+00  0.00000000000E+00 -0.22044665464E+04  0.22044665465E+04  0.50400001928E-02 0.  1.
    10030    2    1    2    0    0  0.00000000000E+00  0.00000000000E+00 -0.10059145691E+04  0.34030185238E+04  0.32509492388E+04 0.  0.
        1    1    3    3  502    0 -0.65044758709E+03 -0.12846448661E+04 -0.12924056019E+04  0.19348660769E+04  0.50400001928E-02 0.  1.
       -1    1    3    3    0  502  0.65044758709E+03  0.12846448661E+04  0.28649103277E+03  0.14681524469E+04  0.50400001928E-02 0. -1.
</event>
<event>
 5   0  0.1473755E-07  0.3404754E+04  0.7818609E-02  0.8136741E-01
        1   -1    0    0  501    0  0.00000000000E+00  0.00000000000E+00  0.15957965120E+04  0.15957965120E+04  0.50400001928E-02 0. -1.
       -1   -1    0    0    0  501  0.00000000000E+00  0.00000000000E+00 -0.18160757336E+04  0.18160757336E+04  0.50400001928E-02 0.  1.
    10030    2    1    2    0    0  0.00000000000E+00  0.00000000000E+00 -0.22027922154E+03  0.34118722456E+04  0.34047539243E+04 0.  0.
        1    1    3    3  502    0  0.40330447663E+03  0.92031258726E+03 -0.14872242907E+04  0.17948442411E+04  0.50400001928E-02 0.  1.
       -1    1    3    3    0  502 -0.40330447663E+03 -0.92031258726E+03  0.12669450691E+04  0.16170280045E+04  0.50400001928E-02 0. -1.
</event>
<event>
 5   0  0.1520084E-07  0.3401727E+04  0.7818609E-02  0.8137483E-01
       -1   -1    0    0    0  501  0.00000000000E+00  0.00000000000E+00  0.24325236728E+04  0.24325236728E+04  0.50400001928E-02 0.  1.
        1   -1    0    0  501    0  0.00000000000E+00  0.00000000000E+00 -0.11892739755E+04  0.11892739755E+04  0.50400001928E-02 0. -1.
    10030    2    1    2    0    0  0.00000000000E+00  0.00000000000E+00  0.12432496973E+04  0.36217976483E+04  0.34017272665E+04 0.  0.
        2    1    3    3  502    0  0.94760848573E+03  0.25651648318E+03  0.21004282927E+04  0.23185257301E+04  0.25500000920E-02 0.  1.
       -2    1    3    3    0  502 -0.94760848573E+03 -0.25651648318E+03 -0.85717859539E+03  0.13032719182E+04  0.25500000920E-02 0. -1.
</event>
<event>
 5   0  0.4486226E-07  0.3428795E+04  0.7818609E-02  0.8130875E-01
        2   -1    0    0  501    0  0.00000000000E+00  0.00000000000E+00  0.17922392933E+04  0.17922392933E+04  0.25500000920E-02 0.  1.
       -2   -1    0    0    0  501  0.00000000000E+00  0.00000000000E+00 -0.16399365974E+04  0.16399365974E+04  0.25500000920E-02 0. -1.
    10030    2    1    2    0    0  0.00000000000E+00  0.00000000000E+00  0.15230269591E+03  0.34321758907E+04  0.34287950119E+04 0.  0.
        1    1    3    3  502    0 -0.10677308988E+04 -0.45590373598E+02  0.14180070174E+04  0.17756327480E+04  0.50400001928E-02 0.  1.
       -1    1    3    3    0  502  0.10677308988E+04  0.45590373598E+02 -0.12657043215E+04  0.16565431427E+04  0.50400001928E-02 0. -1.
</event>
<event>
 5   0  0.4381939E-07  0.3404632E+04  0.7818609E-02  0.8136770E-01
       -2   -1    0    0    0  501  0.00000000000E+00  0.00000000000E+00  0.16961706640E+04  0.16961706640E+04  0.25500000920E-02 0.  1.
        2   -1    0    0  501    0  0.00000000000E+00  0.00000000000E+00 -0.17084833979E+04  0.17084833979E+04  0.25500000920E-02 0. -1.
    10030    2    1    2    0    0  0.00000000000E+00  0.00000000000E+00 -0.12312733849E+02  0.34046540619E+04  0.34046317977E+04 0.  0.
        3    1    3    3  502    0  0.94909502619E+03 -0.20820795130E+03 -0.14039306843E+04  0.17073820007E+04  0.10100000352E+00 0. -1.
       -3    1    3    3    0  502 -0.94909502619E+03  0.20820795130E+03  0.13916179504E+04  0.16972720613E+04  0.10100000352E+00 0.  1.
</event>
<event>
 5   0  0.4396257E-07  0.3376599E+04  0.7818609E-02  0.8143674E-01
       -2   -1    0    0    0  501  0.00000000000E+00  0.00000000000E+00  0.10858854956E+04  0.10858854956E+04  0.25500000920E-02 0. -1.
        2   -1    0    0  501    0  0.00000000000E+00  0.00000000000E+00 -0.26249139600E+04  0.26249139600E+04  0.25500000920E-02 0.  1.
    10030    2    1    2    0    0  0.00000000000E+00  0.00000000000E+00 -0.15390284644E+04  0.37107994556E+04  0.33765994707E+04 0.  0.
        2    1    3    3  502    0 -0.10975818111E+03 -0.51300482368E+03  0.99403648106E+03  0.11239792405E+04  0.25500000920E-02 0. -1.
       -2    1    3    3    0  502  0.10975818111E+03  0.51300482368E+03 -0.25330649455E+04  0.25868202151E+04  0.25500000920E-02 0.  1.
</event>
<event>
 5   0  0.4521737E-07  0.3407235E+04  0.7818609E-02  0.8136133E-01
       -2   -1    0    0    0  501  0.00000000000E+00  0.00000000000E+00  0.14608026571E+04  0.14608026571E+04  0.25500000920E-02 0.  1.
        2   -1    0    0  501    0  0.00000000000E+00  0.00000000000E+00 -0.19867925358E+04  0.19867925358E+04  0.25500000920E-02 0. -1.
    10030    2    1    2    0    0  0.00000000000E+00  0.00000000000E+00 -0.52598987871E+03  0.34475951930E+04  0.34072345475E+04 0.  0.
        4    1    3    3  502    0 -0.18381511500E+03  0.22583156405E+02  0.14505864376E+04  0.14623613169E+04  0.12699999809E+01 0.  1.
       -4    1    3    3    0  502  0.18381511500E+03 -0.22583156405E+02 -0.19765763163E+04  0.19852338760E+04  0.12699999809E+01 0. -1.
</event>
<event>
 5   0  0.4381939E-07  0.3396772E+04  0.7818609E-02  0.8138699E-01
        2   -1    0    0  501    0  0.00000000000E+00  0.00000000000E+00  0.12889904965E+04  0.12889904965E+04  0.25500000920E-02 0. -1.
       -2   -1    0    0    0  501  0.00000000000E+00  0.00000000000E+00 -0.22378087316E+04  0.22378087316E+04  0.25500000920E-02 0.  1.
    10030    2    1    2    0    0  0.00000000000E+00  0.00000000000E+00 -0.94881823501E+03  0.35267992281E+04  0.33967715190E+04 0.  0.
        3    1    3    3  502    0  0.69751867226E+03  0.17567843817E+03  0.11230304751E+04  0.13336388829E+04  0.10100000352E+00 0. -1.
       -3    1    3    3    0  502 -0.69751867226E+03 -0.17567843817E+03 -0.20718487101E+04  0.21931603452E+04  0.10100000352E+00 0.  1.
</event>
<event>
 5   0  0.1435806E-07  0.3257740E+04  0.7818609E-02  0.8173733E-01
       -1   -1    0    0    0  501  0.00000000000E+00  0.00000000000E+00  0.18556812854E+04  0.18556812854E+04  0.50400001928E-02 0.  1.
        1   -1    0    0  501    0  0.00000000000E+00  0.00000000000E+00 -0.14297806192E+04  0.14297806192E+04  0.50400001928E-02 0. -1.
    10030    2    1    2    0    0  0.00000000000E+00  0.00000000000E+00  0.42590066614E+03  0.32854619046E+04  0.32577397915E+04 0.  0.
        3    1    3    3  502    0  0.12635995261E+04 -0.77143173444E+03  0.89801454940E+03  0.17315371277E+04  0.10100000352E+00 0.  1.
       -3    1    3    3    0  502 -0.12635995261E+04  0.77143173444E+03 -0.47211388327E+03  0.15539247769E+04  0.10100000352E+00 0. -1.
</event>
<event>
 5   0  0.1421875E-07  0.3398623E+04  0.7818609E-02  0.8138244E-01
        3   -1    0    0  501    0  0.00000000000E+00  0.00000000000E+00  0.15173901378E+04  0.15173901411E+04  0.10100000352E+00 0.  1.
       -3   -1    0    0    0  501  0.00000000000E+00  0.00000000000E+00 -0.19030439080E+04  0.19030439107E+04  0.10100000352E+00 0. -1.
    10030    2    1    2    0    0  0.00000000000E+00  0.00000000000E+00 -0.38565377023E+03  0.34204340518E+04  0.33986232908E+04 0.  0.
        5    1    3    3  502    0  0.14300576531E+04  0.31465193204E+03 -0.10606641970E+04  0.18080656399E+04  0.46999998093E+01 0. -1.
       -5    1    3    3    0  502 -0.14300576531E+04 -0.31465193204E+03  0.67501042681E+03  0.16123684119E+04  0.46999998093E+01 0.  1.
</event>
<event>
 5   0  0.4521737E-07  0.3399580E+04  0.7818609E-02  0.8138010E-01
       -2   -1    0    0    0  501  0.00000000000E+00  0.00000000000E+00  0.10056858122E+04  0.10056858122E+04  0.25500000920E-02 0.  1.
        2   -1    0    0  501    0  0.00000000000E+00  0.00000000000E+00 -0.28729503184E+04  0.28729503184E+04  0.25500000920E-02 0. -1.
    10030    2    1    2    0    0  0.00000000000E+00  0.00000000000E+00 -0.18672645062E+04  0.38786361305E+04  0.33995796059E+04 0.  0.
        4    1    3    3  502    0  0.61928141824E+03 -0.71012891308E+03  0.68046860126E+03  0.11622528461E+04  0.12699999809E+01 0.  1.
       -4    1    3    3    0  502 -0.61928141824E+03  0.71012891308E+03 -0.25477331074E+04  0.27163832844E+04  0.12699999809E+01 0. -1.
</event>
<event>
 5   0  0.4396257E-07  0.3402138E+04  0.7818609E-02  0.8137382E-01
       -2   -1    0    0    0  501  0.00000000000E+00  0.00000000000E+00  0.93437545396E+03  0.93437545397E+03  0.25500000920E-02 0. -1.
        2   -1    0    0  501    0  0.00000000000E+00  0.00000000000E+00 -0.30968656787E+04  0.30968656787E+04  0.25500000920E-02 0.  1.
    10030    2    1    2    0    0  0.00000000000E+00  0.00000000000E+00 -0.21624902248E+04  0.40312411327E+04  0.34021377247E+04 0.  0.
        2    1    3    3  502    0 -0.60538467093E+02 -0.13364851115E+04  0.16363559410E+03  0.13478256441E+04  0.25500000920E-02 0. -1.
       -2    1    3    3    0  502  0.60538467093E+02  0.13364851115E+04 -0.23261258189E+04  0.26834154886E+04  0.25500000920E-02 0.  1.
</event>
<event>
 5   0  0.1520084E-07  0.3334808E+04  0.7818609E-02  0.8154094E-01
       -1   -1    0    0    0  501  0.00000000000E+00  0.00000000000E+00  0.12568584927E+04  0.12568584927E+04  0.50400001928E-02 0. -1.
        1   -1    0    0  501    0  0.00000000000E+00  0.00000000000E+00 -0.22120521634E+04  0.22120521634E+04  0.50400001928E-02 0.  1.
    10030    2    1    2    0    0  0.00000000000E+00  0.00000000000E+00 -0.95519367064E+03  0.34689106561E+04  0.33348082691E+04 0.  0.
        2    1    3    3  502    0 -0.16669294016E+04 -0.39706280527E+02 -0.47497982606E+03  0.17337347126E+04  0.25500000920E-02 0.  1.
       -2    1    3    3    0  502  0.16669294016E+04  0.39706280527E+02 -0.48021384458E+03  0.17351759435E+04  0.25500000920E-02 0. -1.
</event>
<event>
 5   0  0.1520084E-07  0.3395807E+04  0.7818609E-02  0.8138936E-01
       -1   -1    0    0    0  501  0.00000000000E+00  0.00000000000E+00  0.13139388354E+04  0.13139388354E+04  0.50400001928E-02 0.  1.
        1   -1    0    0  501    0  0.00000000000E+00  0.00000000000E+00 -0.21940718877E+04  0.21940718877E+04  0.50400001928E-02 0. -1.
    10030    2    1    2    0    0  0.00000000000E+00  0.00000000000E+00 -0.88013305233E+03  0.35080107231E+04  0.33958069798E+04 0.  0.
        2    1    3    3  502    0 -0.77466465666E+03 -0.77228246378E+03 -0.17815702040E+04  0.20905783711E+04  0.25500000920E-02 0. -1.
       -2    1    3    3    0  502  0.77466465666E+03  0.77228246378E+03  0.90143715163E+03  0.14174323520E+04  0.25500000920E-02 0.  1.
</event>
<event>
 5   0  0.4486226E-07  0.3428605E+04  0.7818609E-02  0.8130921E-01
        2   -1    0    0  501    0  0.00000000000E+00  0.00000000000E+00  0.26078726211E+04  0.26078726211E+04  0.25500000920E-02 0.  1.
       -2   -1    0    0    0  501  0.00000000000E+00  0.00000000000E+00 -0.11269084561E+04  0.11269084561E+04  0.25500000920E-02 0. -1.
    10030    2    1    2    0    0  0.00000000000E+00  0.00000000000E+00  0.14809641650E+04  0.37347810772E+04  0.34286053777E+04 0.  0.
        1    1    3    3  502    0 -0.40156458984E+03  0.11971333824E+04  0.20035310205E+04  0.23682311975E+04  0.50400001928E-02 0.  1.
       -1    1    3    3    0  502  0.40156458984E+03 -0.11971333824E+04 -0.52256685543E+03  0.13665498796E+04  0.50400001928E-02 0. -1.
</event>
<event>
 5   0  0.1473755E-07  0.3372171E+04  0.7818609E-02  0.8144770E-01
       -1   -1    0    0    0  501  0.00000000000E+00  0.00000000000E+00  0.10102103296E+04  0.10102103296E+04  0.50400001928E-02 0. -1.
        1   -1    0    0  501    0  0.00000000000E+00  0.00000000000E+00 -0.28141511565E+04  0.28141511565E+04  0.50400001928E-02 0.  1.
    10030    2    1    2    0    0  0.00000000000E+00  0.00000000000E+00 -0.18039408269E+04  0.38243614860E+04  0.33721711506E+04 0.  0.
        1    1    3    3  502    0  0.13312069474E+04  0.46263365760E+03  0.14775217108E+03  0.14170294782E+04  0.50400001928E-02 0. -1.
       -1    1    3    3    0  502 -0.13312069474E+04 -0.46263365760E+03 -0.19516929979E+04  0.24073320079E+04  0.50400001928E-02 0.  1.
</event>
<event>
 5   0  0.1421875E-07  0.3393812E+04  0.7818609E-02  0.8139427E-01
        1   -1    0    0  501    0  0.00000000000E+00  0.00000000000E+00  0.18276048154E+04  0.18276048154E+04  0.50400001928E-02 0.  1.
       -1   -1    0    0    0  501  0.00000000000E+00  0.00000000000E+00 -0.15755541756E+04  0.15755541756E+04  0.50400001928E-02 0. -1.
    10030    2    1    2    0    0  0.00000000000E+00  0.00000000000E+00  0.25205063987E+03  0.34031589910E+04  0.33938122507E+04 0.  0.
        5    1    3    3  502    0  0.29895146641E+03 -0.11022808150E+04 -0.11324503266E+04  0.16083720983E+04  0.46999998093E+01 0. -1.
       -5    1    3    3    0  502 -0.29895146641E+03  0.11022808150E+04  0.13845009664E+04  0.17947868928E+04  0.46999998093E+01 0.  1.
</event>
<event>
 5   0  0.1473755E-07  0.3394431E+04  0.7818609E-02  0.8139274E-01
        1   -1    0    0  501    0  0.00000000000E+00  0.00000000000E+00  0.22257312258E+04  0.22257312259E+04  0.50400001928E-02 0. -1.
       -1   -1    0    0    0  501  0.00000000000E+00  0.00000000000E+00 -0.12941995549E+04  0.12941995549E+04  0.50400001928E-02 0.  1.
    10030    2    1    2    0    0  0.00000000000E+00  0.00000000000E+00  0.93153167093E+03  0.35199307808E+04  0.33944309461E+04 0.  0.
        1    1    3    3  502    0  0.31447871378E+03  0.15820269084E+04 -0.81804977540E+02  0.16150535764E+04  0.50400001928E-02 0. -1.
       -1    1    3    3    0  502 -0.31447871378E+03 -0.15820269084E+04  0.10133366485E+04  0.19048772043E+04  0.50400001928E-02 0.  1.
</event>
<event>
 5   0  0.1435806E-07  0.3425911E+04  0.7818609E-02  0.8131576E-01
        1   -1    0    0  501    0  0.00000000000E+00  0.00000000000E+00  0.16150679572E+04  0.16150679572E+04  0.50400001928E-02 0. -1.
       -1   -1    0    0    0  501  0.00000000000E+00  0.00000000000E+00 -0.18167757371E+04  0.18167757371E+04  0.50400001928E-02 0.  1.
    10030    2    1    2    0    0  0.00000000000E+00  0.00000000000E+00 -0.20170777990E+03  0.34318436942E+04  0.34259108443E+04 0.  0.
        3    1    3    3  502    0  0.71769609851E+03 -0.36471587753E+03 -0.16154613462E+04  0.18049434153E+04  0.10100000352E+00 0.  1.
       -3    1    3    3    0  502 -0.71769609851E+03  0.36471587753E+03  0.14137535663E+04  0.16269002789E+04  0.10100000352E+00 0. -1.
</event>
<event>
 5   0  0.4381939E-07  0.3394419E+04  0.7818609E-02  0.8139277E-01
       -2   -1    0    0    0  501  0.00000000000E+00  0.00000000000E+00  0.15550536581E+04  0.15550536581E+04  0.25500000920E-02 0.  1.
        2   -1    0    0  501    0  0.00000000000E+00  0.00000000000E+00 -0.18523607280E+04  0.18523607280E+04  0.25500000920E-02 0. -1.
    10030    2    1    2    0    0  0.00000000000E+00  0.00000000000E+00 -0.29730706993E+03  0.34074143862E+04  0.33944191411E+04 0.  0.
        3    1    3    3  502    0 -0.59365779022E+03 -0.14896747953E+04  0.40931593467E+03  0.16550226924E+04  0.10100000352E+00 0.  1.
       -3    1    3    3    0  502  0.59365779022E+03  0.14896747953E+04 -0.70662300460E+03  0.17523916938E+04  0.10100000352E+00 0. -1.
</event>
<event>
 5   0  0.4486226E-07  0.3403886E+04  0.7818609E-02  0.8136953E-01
       -2   -1    0    0    0  501  0.00000000000E+00  0.00000000000E+00  0.13274367765E+04  0.13274367765E+04  0.25500000920E-02 0. -1.
        2   -1    0    0  501    0  0.00000000000E+00  0.00000000000E+00 -0.21821074231E+04  0.21821074231E+04  0.25500000920E-02 0.  1.
    10030    2    1    2    0    0  0.00000000000E+00  0.00000000000E+00 -0.85467064665E+03  0.35095441996E+04  0.34038858051E+04 0.  0.
        1    1    3    3  502    0 -0.15880810354E+04 -0.36178810453E+03  0.81666353476E+02  0.16308161763E+04  0.50400001928E-02 0. -1.
       -1    1    3    3    0  502  0.15880810354E+04  0.36178810453E+03 -0.93633700012E+03  0.18787280233E+04  0.50400001928E-02 0.  1.
</event>
<event>
 5   0  0.4521737E-07  0.3398574E+04  0.7818609E-02  0.8138256E-01
        2   -1    0    0  501    0  0.00000000000E+00  0.00000000000E+00  0.17980976618E+04  0.17980976618E+04  0.25500000920E-02 0. -1.
       -2   -1    0    0    0  501  0.00000000000E+00  0.00000000000E+00 -0.16059059217E+04  0.16059059217E+04  0.25500000920E-02 0.  1.
    10030    2    1    2    0    0  0.00000000000E+00  0.00000000000E+00  0.19219174006E+03  0.34040035835E+04  0.33985736319E+04 0.  0.
        4    1    3    3  502    0  0.52563847615E+03 -0.88328229135E+02 -0.15200112607E+04  0.16107555771E+04  0.12699999809E+01 0.  1.
       -4    1    3    3    0  502 -0.52563847615E+03  0.88328229135E+02  0.17122030008E+04  0.17932480064E+04  0.12699999809E+01 0. -1.
</event>
<event>
 5   0  0.1520084E-07  0.3398419E+04  0.7818609E-02  0.8138295E-01
       -1   -1    0    0    0  501  0.00000000000E+00  0.00000000000E+00  0.20594531983E+04  0.20594531983E+04  0.50400001928E-02 0.  1.
        1   -1    0    0  501    0  0.00000000000E+00  0.00000000000E+00 -0.14019801350E+04  0.14019801350E+04  0.50400001928E-02 0. -1.
    10030    2    1    2    0    0  0.00000000000E+00  0.00000000000E+00  0.65747306334E+03  0.34614333333E+04  0.33984187340E+04 0.  0.
        2    1    3    3  502    0 -0.84294074457E+03  0.57598336158E+03 -0.10547598815E+04  0.14679319941E+04  0.25500000920E-02 0. -1.
       -2    1    3    3    0  502  0.84294074457E+03 -0.57598336158E+03  0.17122329449E+04  0.19935013392E+04  0.25500000920E-02 0.  1.
</event>
<event>
 5   0  0.4447909E-07  0.3404291E+04  0.7818609E-02  0.8136854E-01
        2   -1    0    0  501    0  0.00000000000E+00  0.00000000000E+00  0.11851690499E+04  0.11851690499E+04  0.25500000920E-02 0. -1.
       -2   -1    0    0    0  501  0.00000000000E+00  0.00000000000E+00 -0.24446302362E+04  0.24446302362E+04  0.25500000920E-02 0.  1.
    10030    2    1    2    0    0  0.00000000000E+00  0.00000000000E+00 -0.12594611863E+04  0.36297992861E+04  0.34042914648E+04 0.  0.
        5    1    3    3  502    0 -0.39195531218E+02  0.16535360489E+04 -0.10583019409E+04  0.19636045536E+04  0.46999998093E+01 0. -1.
       -5    1    3    3    0  502  0.39195531218E+02 -0.16535360489E+04 -0.20115924534E+03  0.16661947325E+04  0.46999998093E+01 0.  1.
</event>
<event>
 5   0  0.4447909E-07  0.3396494E+04  0.7818609E-02  0.8138767E-01
        2   -1    0    0  501    0  0.00000000000E+00  0.00000000000E+00  0.29719682104E+04  0.29719682104E+04  0.25500000920E-02 0.  1.
       -2   -1    0    0    0  501  0.00000000000E+00  0.00000000000E+00 -0.97041523215E+03  0.97041523216E+03  0.25500000920E-02 0. -1.
    10030    2    1    2    0    0  0.00000000000E+00  0.00000000000E+00  0.20015529783E+04  0.39423834426E+04  0.33964942048E+04 0.  0.
        5    1    3    3  502    0  0.98218673423E+03  0.94624241150E+03  0.21753185058E+04  0.25675081643E+04  0.46999998093E+01 0.  1.
       -5    1    3    3    0  502 -0.98218673423E+03 -0.94624241150E+03 -0.17376552751E+03  0.13748752783E+04  0.46999998093E+01 0. -1.
</event>
<event>
 5   0  0.4381939E-07  0.3390731E+04  0.7818609E-02  0.8140185E-01
        2   -1    0    0  501    0  0.00000000000E+00  0.00000000000E+00  0.25574951463E+04  0.25574951463E+04  0.25500000920E-02 0.  1.
       -2   -1    0    0    0  501  0.00000000000E+00  0.00000000000E+00 -0.11238592383E+04  0.11238592383E+04  0.25500000920E-02 0. -1.
    10030    2    1    2    0    0  0.00000000000E+00  0.00000000000E+00  0.14336359080E+04  0.36813543846E+04  0.33907312174E+04 0.  0.
        3    1    3    3  502    0 -0.12315999351E+04  0.10951846055E+04  0.28526069061E+03  0.16726151357E+04  0.10100000352E+00 0. -1.
       -3    1    3    3    0  502  0.12315999351E+04 -0.10951846055E+04  0.11483752174E+04  0.20087392490E+04  0.10100000352E+00 0.  1.
</event>
<event>
 5   0  0.4447909E-07  0.3400025E+04  0.7818609E-02  0.8137900E-01
        2   -1    0    0  501    0  0.00000000000E+00  0.00000000000E+00  0.18787178228E+04  0.18787178228E+04  0.25500000920E-02 0. -1.
       -2   -1    0    0    0  501  0.00000000000E+00  0.00000000000E+00 -0.15383054398E+04  0.15383054398E+04  0.25500000920E-02 0.  1.
    10030    2    1    2    0    0  0.00000000000E+00  0.00000000000E+00  0.34041238300E+03  0.34170232627E+04  0.34000246157E+04 0.  0.
        5    1    3    3  502    0 -0.22319901110E+03 -0.11537855545E+04  0.14047535048E+04  0.18315003149E+04  0.46999998093E+01 0. -1.
       -5    1    3    3    0  502  0.22319901110E+03  0.11537855545E+04 -0.10643411218E+04  0.15855229478E+04  0.46999998093E+01 0.  1.
</event>
<event>
 5   0  0.4396257E-07  0.3395895E+04  0.7818609E-02  0.8138915E-01
       -2   -1    0    0    0  501  0.00000000000E+00  0.00000000000E+00  0.15133770693E+04  0.15133770693E+04  0.25500000920E-02 0. -1.
        2   -1    0    0  501    0  0.00000000000E+00  0.00000000000E+00 -0.19050277989E+04  0.19050277989E+04  0.25500000920E-02 0.  1.
    10030    2    1    2    0    0  0.00000000000E+00  0.00000000000E+00 -0.39165072959E+03  0.34184048682E+04  0.33958948083E+04 0.  0.
        2    1    3    3  502    0  0.17499394489E+03 -0.12763198692E+04 -0.13092358317E+04  0.18367672015E+04  0.25500000920E-02 0.  1.
       -2    1    3    3    0  502 -0.17499394489E+03  0.12763198692E+04  0.91758510209E+03  0.15816376668E+04  0.25500000920E-02 0. -1.
</event>
<event>
 5   0  0.4447909E-07  0.3406007E+04  0.7818609E-02  0.8136433E-01
       -2   -1    0    0    0  501  0.00000000000E+00  0.00000000000E+00  0.15288183224E+04  0.15288183224E+04  0.25500000920E-02 0.  1.
        2   -1    0    0  501    0  0.00000000000E+00  0.00000000000E+00 -0.18970348068E+04  0.18970348068E+04  0.25500000920E-02 0. -1.
    10030    2    1    2    0    0  0.00000000000E+00  0.00000000000E+00 -0.36821648437E+03  0.34258531292E+04  0.34060073816E+04 0.  0.
        5    1    3    3  502    0 -0.53931265800E+03 -0.13661208101E+04  0.68292093942E+03  0.16197368028E+04  0.46999998093E+01 0.  1.
       -5    1    3    3    0  502  0.53931265800E+03  0.13661208101E+04 -0.10511374238E+04  0.18061163264E+04  0.46999998093E+01 0. -1.
</event>
<event>
 5   0  0.4396257E-07  0.3393091E+04  0.7818609E-02  0.8139604E-01
        2   -1    0    0  501    0  0.00000000000E+00  0.00000000000E+00  0.21178325172E+04  0.21178325172E+04  0.25500000920E-02 0.  1.
       -2   -1    0    0    0  501  0.00000000000E+00  0.00000000000E+00 -0.13590626614E+04  0.13590626614E+04  0.25500000920E-02 0. -1.
    10030    2    1    2    0    0  0.00000000000E+00  0.00000000000E+00  0.75876985585E+03  0.34768951786E+04  0.33930912733E+04 0.  0.
        2    1    3    3  502    0  0.21213401089E+03 -0.12418110175E+04  0.15437469921E+04  0.19925486738E+04  0.25500000920E-02 0.  1.
       -2    1    3    3    0  502 -0.21213401089E+03  0.12418110175E+04 -0.78497713628E+03  0.14843465048E+04  0.25500000920E-02 0. -1.
</event>
<event>
 5   0  0.4521737E-07  0.3396650E+04  0.7818609E-02  0.8138729E-01
       -2   -1    0    0    0  501  0.00000000000E+00  0.00000000000E+00  0.13029660930E+04  0.13029660930E+04  0.25500000920E-02 0. -1.
        2   -1    0    0  501    0  0.00000000000E+00  0.00000000000E+00 -0.22136477391E+04  0.22136477391E+04  0.25500000920E-02 0.  1.
    10030    2    1    2    0    0  0.00000000000E+00  0.00000000000E+00 -0.91068164611E+03  0.35166138320E+04  0.33966500825E+04 0.  0.
        4    1    3    3  502    0  0.97491201138E+03 -0.11779249934E+04 -0.12205983345E+04  0.19564822072E+04  0.12699999809E+01 0.  1.
       -4    1    3    3    0  502 -0.97491201138E+03  0.11779249934E+04  0.30991668843E+03  0.15601316248E+04  0.12699999809E+01 0. -1.
</event>
<event>
 5   0  0.4486226E-07  0.3392299E+04  0.7818609E-02  0.8139799E-01
        2   -1    0    0  501    0  0.00000000000E+00  0.00000000000E+00  0.19291202647E+04  0.19291202647E+04  0.25500000920E-02 0. -1.
       -2   -1    0    0    0  501  0.00000000000E+00  0.00000000000E+00 -0.14913130796E+04  0.14913130796E+04  0.25500000920E-02 0.  1.
    10030    2    1    2    0    0  0.00000000000E+00  0.00000000000E+00  0.43780718507E+03  0.34204333443E+04  0.33922985027E+04 0.  0.
        1    1    3    3  502    0 -0.93527931199E+03  0.11776974388E+04 -0.57195077411E+03  0.16089892283E+04  0.50400001928E-02 0.  1.
       -1    1    3    3    0  502  0.93527931199E+03 -0.11776974388E+04  0.10097579592E+04  0.18114441159E+04  0.50400001928E-02 0. -1.
</event>
<event>
 5   0  0.1473755E-07  0.3419956E+04  0.7818609E-02  0.8133026E-01
        1   -1    0    0  501    0  0.00000000000E+00  0.00000000000E+00  0.22435037924E+04  0.22435037924E+04  0.50400001928E-02 0.  1.
       -1   -1    0    0    0  501  0.00000000000E+00  0.00000000000E+00 -0.13033297490E+04  0.13033297490E+04  0.50400001928E-02 0. -1.
    10030    2    1    2    0    0  0.00000000000E+00  0.00000000000E+00  0.94017404343E+03  0.35468335414E+04  0.34199562772E+04 0.  0.
        1    1    3    3  502    0 -0.54699711332E+03  0.12256669357E+03  0.21455066535E+04  0.22175272798E+04  0.50400001928E-02 0.  1.
       -1    1    3    3    0  502  0.54699711332E+03 -0.12256669357E+03 -0.12053326100E+04  0.13293062616E+04  0.50400001928E-02 0. -1.
</event>
<event>
 5   0  0.1421875E-07  0.3420781E+04  0.7818609E-02  0.8132825E-01
       -1   -1    0    0    0  501  0.00000000000E+00  0.00000000000E+00  0.12151626532E+04  0.12151626533E+04  0.50400001928E-02 0.  1.
        1   -1    0    0  501    0  0.00000000000E+00  0.00000000000E+00 -0.24074442312E+04  0.24074442312E+04  0.50400001928E-02 0. -1.
    10030    2    1    2    0    0  0.00000000000E+00  0.00000000000E+00 -0.11922815780E+04  0.36226068845E+04  0.34207813842E+04 0.  0.
        5    1    3    3  502    0  0.29353813599E+03  0.29552893201E+03  0.11606222198E+04  0.12331131392E+04  0.46999998093E+01 0.  1.
       -5    1    3    3    0  502 -0.29353813599E+03 -0.29552893201E+03 -0.23529037978E+04  0.23894937452E+04  0.46999998093E+01 0. -1.
</event>
<event>
 5   0  0.1520084E-07  0.3487180E+04  0.7818609E-02  0.8116835E-01
        1   -1    0    0  501    0  0.00000000000E+00  0.00000000000E+00  0.16833047047E+04  0.16833047047E+04  0.50400001928E-02 0.  1.
       -1   -1    0    0    0  501  0.00000000000E+00  0.00000000000E+00 -0.18060348048E+04  0.18060348048E+04  0.50400001928E-02 0. -1.
    10030    2    1    2    0    0  0.00000000000E+00  0.00000000000E+00 -0.12273010011E+03  0.34893395095E+04  0.34871804563E+04 0.  0.
        2    1    3    3  502    0 -0.54494633949E+03  0.11715098794E+04  0.11101309232E+04  0.17034648741E+04  0.25500000920E-02 0.  1.
       -2    1    3    3    0  502  0.54494633949E+03 -0.11715098794E+04 -0.12328610233E+04  0.17858746354E+04  0.25500000920E-02 0. -1.
</event>
<event>
 5   0  0.1421875E-07  0.3429705E+04  0.7818609E-02  0.8130654E-01
        1   -1    0    0  501    0  0.00000000000E+00  0.00000000000E+00  0.15389281235E+04  0.15389281235E+04  0.50400001928E-02 0. -1.
       -1   -1    0    0    0  501  0.00000000000E+00  0.00000000000E+00 -0.19108884203E+04  0.19108884203E+04  0.50400001928E-02 0.  1.
    10030    2    1    2    0    0  0.00000000000E+00  0.00000000000E+00 -0.37196029680E+03  0.34498165437E+04  0.34297054863E+04 0.  0.
        5    1    3    3  502    0  0.65921060533E+03  0.57751043452E+03  0.12966442768E+04  0.15650512435E+04  0.46999998093E+01 0. -1.
       -5    1    3    3    0  502 -0.65921060533E+03 -0.57751043452E+03 -0.16686045736E+04  0.18847653003E+04  0.46999998093E+01 0.  1.
</event>
<event>
 5   0  0.4486226E-07  0.3393888E+04  0.7818609E-02  0.8139408E-01
       -2   -1    0    0    0  501  0.00000000000E+00  0.00000000000E+00  0.14458429777E+04  0.14458429777E+04  0.25500000920E-02 0. -1.
        2   -1    0    0  501    0  0.00000000000E+00  0.00000000000E+00 -0.19916536542E+04  0.19916536542E+04  0.25500000920E-02 0.  1.
    10030    2    1    2    0    0  0.00000000000E+00  0.00000000000E+00 -0.54581067648E+03  0.34374966319E+04  0.33938877117E+04 0.  0.
        1    1    3    3  502    0 -0.90661155736E+03 -0.23253993001E+03  0.11607680617E+04  0.14911075843E+04  0.50400001928E-02 0. -1.
       -1    1    3    3    0  502  0.90661155736E+03  0.23253993001E+03 -0.17065787381E+04  0.19463890476E+04  0.50400001928E-02 0.  1.
</event>
<event>
 5   0  0.4521737E-07  0.3403598E+04  0.7818609E-02  0.8137024E-01
       -2   -1    0    0    0  501  0.00000000000E+00  0.00000000000E+00  0.13467515853E+04  0.13467515853E+04  0.25500000920E-02 0.  1.
        2   -1    0    0  501    0  0.00000000000E+00  0.00000000000E+00 -0.21504484467E+04  0.21504484467E+04  0.25500000920E-02 0. -1.
    10030    2    1    2    0    0  0.00000000000E+00  0.00000000000E+00 -0.80369686137E+03  0.34972000320E+04  0.34035980107E+04 0.  0.
        4    1    3    3  502    0  0.44151412948E+02 -0.11514788664E+04 -0.16885919250E+04  0.20443084966E+04  0.12699999809E+01 0. -1.
       -4    1    3    3    0  502 -0.44151412948E+02  0.11514788664E+04  0.88489506361E+03  0.14528915354E+04  0.12699999809E+01 0.  1.
</event>
<event>
 5   0  0.1523259E-07  0.3407596E+04  0.7818609E-02  0.8136045E-01
       -1   -1    0    0    0  501  0.00000000000E+00  0.00000000000E+00  0.33534606492E+04  0.33534606492E+04  0.50400001928E-02 0. -1.
        1   -1    0    0  501    0  0.00000000000E+00  0.00000000000E+00 -0.86565135323E+03  0.86565135324E+03  0.50400001928E-02 0.  1.
    10030    2    1    2    0    0  0.00000000000E+00  0.00000000000E+00  0.24878092960E+04  0.42191120024E+04  0.34075960729E+04 0.  0.
        4    1    3    3  502    0  0.58551983706E+03  0.70260813892E+02  0.32230680973E+04  0.32765743749E+04  0.12699999809E+01 0. -1.
       -4    1    3    3    0  502 -0.58551983706E+03 -0.70260813892E+02 -0.73525880131E+03  0.94253762756E+03  0.12699999809E+01 0.  1.
</event>
<event>
 5   0  0.1520084E-07  0.3404571E+04  0.7818609E-02  0.8136785E-01
        1   -1    0    0  501    0  0.00000000000E+00  0.00000000000E+00  0.17439849664E+04  0.17439849664E+04  0.50400001928E-02 0. -1.
       -1   -1    0    0    0  501  0.00000000000E+00  0.00000000000E+00 -0.16615832814E+04  0.16615832814E+04  0.50400001928E-02 0.  1.
    10030    2    1    2    0    0  0.00000000000E+00  0.00000000000E+00  0.82401685019E+02  0.34055682478E+04  0.34045711995E+04 0.  0.
        2    1    3    3  502    0 -0.26857830357E+03 -0.15275402954E+04 -0.66061891353E+03  0.16858027785E+04  0.25500000920E-02 0.  1.
       -2    1    3    3    0  502  0.26857830357E+03  0.15275402954E+04  0.74302059855E+03  0.17197654692E+04  0.25500000920E-02 0. -1.
</event>
<event>
 5   0  0.1520084E-07  0.3396583E+04  0.7818609E-02  0.8138745E-01
        1   -1    0    0  501    0  0.00000000000E+00  0.00000000000E+00  0.15443622292E+04  0.15443622292E+04  0.50400001928E-02 0.  1.
       -1   -1    0    0    0  501  0.00000000000E+00  0.00000000000E+00 -0.18675633758E+04  0.18675633758E+04  0.50400001928E-02 0. -1.
    10030    2    1    2    0    0  0.00000000000E+00  0.00000000000E+00 -0.32320114654E+03  0.34119256050E+04  0.33965831880E+04 0.  0.
        2    1    3    3  502    0  0.77967189327E+02 -0.13845917597E+04 -0.11463455231E+04  0.17992446421E+04  0.25500000920E-02 0. -1.
       -2    1    3    3    0  502 -0.77967189327E+02  0.13845917597E+04  0.82314437657E+03  0.16126809630E+04  0.25500000920E-02 0.  1.
</event>
<event>
 5   0  0.4396257E-07  0.3392287E+04  0.7818609E-02  0.8139802E-01
       -2   -1    0    0    0  501  0.00000000000E+00  0.00000000000E+00  0.17283457325E+04  0.17283457325E+04  0.25500000920E-02 0. -1.
        2   -1    0    0  501    0  0.00000000000E+00  0.00000000000E+00 -0.16645415488E+04  0.16645415488E+04  0.25500000920E-02 0.  1.
    10030    2    1    2    0    0  0.00000000000E+00  0.00000000000E+00  0.63804183754E+02  0.33928872813E+04  0.33922873006E+04 0.  0.
        2    1    3    3  502    0 -0.14240984895E+04 -0.21421930412E+03  0.92813918168E+03  0.17132976270E+04  0.25500000920E-02 0. -1.
       -2    1    3    3    0  502  0.14240984895E+04  0.21421930412E+03 -0.86433499793E+03  0.16795896543E+04  0.25500000920E-02 0.  1.
</event>
<event>
 5   0  0.1473755E-07  0.3407005E+04  0.7818609E-02  0.8136189E-01
        1   -1    0    0  501    0  0.00000000000E+00  0.00000000000E+00  0.16321615006E+04  0.16321615006E+04  0.50400001928E-02 0.  1.
       -1   -1    0    0    0  501  0.00000000000E+00  0.00000000000E+00 -0.17779617121E+04  0.17779617121E+04  0.50400001928E-02 0. -1.
    10030    2    1    2    0    0  0.00000000000E+00  0.00000000000E+00 -0.14580021149E+03  0.34101232128E+04  0.34070049346E+04 0.  0.
        1    1    3    3  502    0 -0.83994859298E+02  0.17003084964E+04 -0.11065437704E+02  0.17024178580E+04  0.50400001928E-02 0. -1.
       -1    1    3    3    0  502  0.83994859298E+02 -0.17003084964E+04 -0.13473477378E+03  0.17077053547E+04  0.50400001928E-02 0.  1.
</event>
<event>
 5   0  0.1523259E-07  0.3388967E+04  0.7818609E-02  0.8140619E-01
       -1   -1    0    0    0  501  0.00000000000E+00  0.00000000000E+00  0.14564354221E+04  0.14564354221E+04  0.50400001928E-02 0.  1.
        1   -1    0    0  501    0  0.00000000000E+00  0.00000000000E+00 -0.19714394867E+04  0.19714394867E+04  0.50400001928E-02 0. -1.
    10030    2    1    2    0    0  0.00000000000E+00  0.00000000000E+00 -0.51500406460E+03  0.34278749088E+04  0.33889669818E+04 0.  0.
        4    1    3    3  502    0  0.15093734508E+04 -0.16162002589E+03  0.50409894953E+03  0.15995144922E+04  0.12699999809E+01 0.  1.
       -4    1    3    3    0  502 -0.15093734508E+04  0.16162002589E+03 -0.10191030141E+04  0.18283604166E+04  0.12699999809E+01 0. -1.
</event>
<event>
 5   0  0.1435806E-07  0.3400668E+04  0.7818609E-02  0.8137742E-01
        1   -1    0    0  501    0  0.00000000000E+00  0.00000000000E+00  0.18540243929E+04  0.18540243929E+04  0.50400001928E-02 0. -1.
       -1   -1    0    0    0  501  0.00000000000E+00  0.00000000000E+00 -0.15593838415E+04  0.15593838415E+04  0.50400001928E-02 0.  1.
    10030    2    1    2    0    0  0.00000000000E+00  0.00000000000E+00  0.29464055135E+03  0.34134082344E+04  0.34006679814E+04 0.  0.
        3    1    3    3  502    0  0.69543806686E+03  0.15078482874E+04  0.51460794900E+03  0.17384078676E+04  0.10100000352E+00 0.  1.
       -3    1    3    3    0  502 -0.69543806686E+03 -0.15078482874E+04 -0.21996739765E+03  0.16750003668E+04  0.10100000352E+00 0. -1.
</event>
<event>
 5   0  0.1523259E-07  0.3404095E+04  0.7818609E-02  0.8136902E-01
       -1   -1    0    0    0  501  0.00000000000E+00  0.00000000000E+00  0.92633674133E+03  0.92633674134E+03  0.50400001928E-02 0. -1.
        1   -1    0    0  501    0  0.00000000000E+00  0.00000000000E+00 -0.31273351845E+04  0.31273351845E+04  0.50400001928E-02 0.  1.
    10030    2    1    2    0    0  0.00000000000E+00  0.00000000000E+00 -0.22009984432E+04  0.40536719258E+04  0.34040948776E+04 0.  0.
        4    1    3    3  502    0 -0.15820140304E+04 -0.25923195197E+03 -0.17814520292E+04  0.23965689105E+04  0.12699999809E+01 0.  1.
       -4    1    3    3    0  502  0.15820140304E+04  0.25923195197E+03 -0.41954641392E+03  0.16571030154E+04  0.12699999809E+01 0. -1.
</event>
<event>
 5   0  0.4521737E-07  0.3397845E+04  0.7818609E-02  0.8138436E-01
        2   -1    0    0  501    0  0.00000000000E+00  0.00000000000E+00  0.15285372828E+04  0.15285372828E+04  0.25500000920E-02 0. -1.
       -2   -1    0    0    0  501  0.00000000000E+00  0.00000000000E+00 -0.18882999669E+04  0.18882999669E+04  0.25500000920E-02 0.  1.
    10030    2    1    2    0    0  0.00000000000E+00  0.00000000000E+00 -0.35976268408E+03  0.34168372497E+04  0.33978445523E+04 0.  0.
        4    1    3    3  502    0  0.52784352665E+03 -0.99433977756E+03  0.10996321475E+04  0.15736971928E+04  0.12699999809E+01 0. -1.
       -4    1    3    3    0  502 -0.52784352665E+03  0.99433977756E+03 -0.14593948316E+04  0.18431400569E+04  0.12699999809E+01 0.  1.
</event>
<event>
 5   0  0.4396257E-07  0.3406080E+04  0.7818609E-02  0.8136416E-01
       -2   -1    0    0    0  501  0.00000000000E+00  0.00000000000E+00  0.89587326254E+03  0.89587326254E+03  0.25500000920E-02 0. -1.
        2   -1    0    0  501    0  0.00000000000E+00  0.00000000000E+00 -0.32374503965E+04  0.32374503965E+04  0.25500000920E-02 0.  1.
    10030    2    1    2    0    0  0.00000000000E+00  0.00000000000E+00 -0.23415771340E+04  0.41333236591E+04  0.34060800044E+04 0.  0.
        2    1    3    3  502    0 -0.51501028315E+03 -0.16821603174E+03  0.78850498965E+03  0.95669866927E+03  0.25500000920E-02 0. -1.
       -2    1    3    3    0  502  0.51501028315E+03  0.16821603174E+03 -0.31300821236E+04  0.31766249898E+04  0.25500000920E-02 0.  1.
</event>
<event>
 5   0  0.4447909E-07  0.3373099E+04  0.7818609E-02  0.8144541E-01
        2   -1    0    0  501    0  0.00000000000E+00  0.00000000000E+00  0.14212762778E+04  0.14212762778E+04  0.25500000920E-02 0.  1.
       -2   -1    0    0    0  501  0.00000000000E+00  0.00000000000E+00 -0.20013340526E+04  0.20013340526E+04  0.25500000920E-02 0. -1.
    10030    2    1    2    0    0  0.00000000000E+00  0.00000000000E+00 -0.58005777485E+03  0.34226103304E+04  0.33730986425E+04 0.  0.
        5    1    3    3  502    0 -0.10190512749E+04  0.52079543606E+03 -0.15470565933E+04  0.19243439349E+04  0.46999998093E+01 0. -1.
       -5    1    3    3    0  502  0.10190512749E+04 -0.52079543606E+03  0.96699881845E+03  0.14982663955E+04  0.46999998093E+01 0.  1.
</event>
<event>
 5   0  0.4381939E-07  0.3400873E+04  0.7818609E-02  0.8137692E-01
       -2   -1    0    0    0  501  0.00000000000E+00  0.00000000000E+00  0.13508742587E+04  0.13508742588E+04  0.25500000920E-02 0.  1.
        2   -1    0    0  501    0  0.00000000000E+00  0.00000000000E+00 -0.21404544688E+04  0.21404544688E+04  0.25500000920E-02 0. -1.
    10030    2    1    2    0    0  0.00000000000E+00  0.00000000000E+00 -0.78958021004E+03  0.34913287275E+04  0.34008733254E+04 0.  0.
        3    1    3    3  502    0 -0.10320140074E+03 -0.90718813456E+03  0.10778835234E+04  0.14126123817E+04  0.10100000352E+00 0.  1.
       -3    1    3    3    0  502  0.10320140074E+03  0.90718813456E+03 -0.18674637335E+04  0.20787163459E+04  0.10100000352E+00 0. -1.
</event>
<event>
 5   0  0.4486226E-07  0.3396893E+04  0.7818609E-02  0.8138669E-01
       -2   -1    0    0    0  501  0.00000000000E+00  0.00000000000E+00  0.14179551255E+04  0.14179551255E+04  0.25500000920E-02 0. -1.
        2   -1    0    0  501    0  0.00000000000E+00  0.00000000000E+00 -0.20344228861E+04  0.20344228861E+04  0.25500000920E-02 0.  1.
    10030    2    1    2    0    0  0.00000000000E+00  0.00000000000E+00 -0.61646776058E+03  0.34523780116E+04  0.33968929089E+04 0.  0.
        1    1    3    3  502    0  0.64511173874E+03 -0.10389578204E+04 -0.15060937968E+04  0.19400827387E+04  0.50400001928E-02 0.  1.
       -1    1    3    3    0  502 -0.64511173874E+03  0.10389578204E+04  0.88962603621E+03  0.15122952729E+04  0.50400001928E-02 0. -1.
</event>
<event>
 5   0  0.1435806E-07  0.3399758E+04  0.7818609E-02  0.8137966E-01
       -1   -1    0    0    0  501  0.00000000000E+00  0.00000000000E+00  0.15466470143E+04  0.15466470143E+04  0.50400001928E-02 0.  1.
        1   -1    0    0  501    0  0.00000000000E+00  0.00000000000E+00 -0.18682926850E+04  0.18682926850E+04  0.50400001928E-02 0. -1.
    10030    2    1    2    0    0  0.00000000000E+00  0.00000000000E+00 -0.32164567067E+03  0.34149396993E+04  0.33997584050E+04 0.  0.
        3    1    3    3  502    0  0.16143864687E+04 -0.53226683875E+03 -0.15466071439E+03  0.17068894530E+04  0.10100000352E+00 0.  1.
       -3    1    3    3    0  502 -0.16143864687E+04  0.53226683875E+03 -0.16698495628E+03  0.17080502463E+04  0.10100000352E+00 0. -1.
</event>
<event>
 5   0  0.1435806E-07  0.3402499E+04  0.7818609E-02  0.8137293E-01
       -1   -1    0    0    0  501  0.00000000000E+00  0.00000000000E+00  0.15611622583E+04  0.15611622583E+04  0.50400001928E-02 0. -1.
        1   -1    0    0  501    0  0.00000000000E+00  0.00000000000E+00 -0.18539069773E+04  0.18539069774E+04  0.50400001928E-02 0.  1.
    10030    2    1    2    0    0  0.00000000000E+00  0.00000000000E+00 -0.29274471903E+03  0.34150692357E+04  0.34024988485E+04 0.  0.
        3    1    3    3  502    0 -0.13701636723E+04 -0.10634534452E+03  0.86012440122E+03  0.16212562466E+04  0.10100000352E+00 0. -1.
       -3    1    3    3    0  502  0.13701636723E+04  0.10634534452E+03 -0.11528691202E+04  0.17938129891E+04  0.10100000352E+00 0.  1.
</event>
<event>
 5   0  0.4447909E-07  0.3401477E+04  0.7818609E-02  0.8137544E-01
       -2   -1    0    0    0  501  0.00000000000E+00  0.00000000000E+00  0.13515037718E+04  0.13515037719E+04  0.25500000920E-02 0.  1.
        2   -1    0    0  501    0  0.00000000000E+00  0.00000000000E+00 -0.21402173366E+04  0.21402173366E+04  0.25500000920E-02 0. -1.
    10030    2    1    2    0    0  0.00000000000E+00  0.00000000000E+00 -0.78871356476E+03  0.34917211085E+04  0.34014772103E+04 0.  0.
        5    1    3    3  502    0 -0.13479526324E+03 -0.93814487952E+03 -0.18439855170E+04  0.20733041877E+04  0.46999998093E+01 0. -1.
       -5    1    3    3    0  502  0.13479526324E+03  0.93814487952E+03  0.10552719522E+04  0.14184169208E+04  0.46999998093E+01 0.  1.
</event>
<event>
 5   0  0.1523259E-07  0.3416743E+04  0.7818609E-02  0.8133809E-01
       -1   -1    0    0    0  501  0.00000000000E+00  0.00000000000E+00  0.26226626387E+04  0.26226626387E+04  0.50400001928E-02 0.  1.
        1   -1    0    0  501    0  0.00000000000E+00  0.00000000000E+00 -0.11128133275E+04  0.11128133275E+04  0.50400001928E-02 0. -1.
    10030    2    1    2    0    0  0.00000000000E+00  0.00000000000E+00  0.15098493112E+04  0.37354759662E+04  0.34167434424E+04 0.  0.
        4    1    3    3  502    0 -0.28456388232E+03 -0.16341205026E+04  0.12019780348E+04  0.20484333597E+04  0.12699999809E+01 0.  1.
       -4    1    3    3    0  502  0.28456388232E+03  0.16341205026E+04  0.30787127639E+03  0.16870426064E+04  0.12699999809E+01 0. -1.
</event>
<event>
 5   0  0.4486226E-07  0.3416593E+04  0.7818609E-02  0.8133846E-01
       -2   -1    0    0    0  501  0.00000000000E+00  0.00000000000E+00  0.12875799585E+04  0.12875799585E+04  0.25500000920E-02 0.  1.
        2   -1    0    0  501    0  0.00000000000E+00  0.00000000000E+00 -0.22664824694E+04  0.22664824694E+04  0.25500000920E-02 0. -1.
    10030    2    1    2    0    0  0.00000000000E+00  0.00000000000E+00 -0.97890251088E+03  0.35540624279E+04  0.34165932762E+04 0.  0.
        1    1    3    3  502    0 -0.47469418923E+03  0.94293493174E+03 -0.18865527369E+04  0.21618376645E+04  0.50400001928E-02 0. -1.
       -1    1    3    3    0  502  0.47469418923E+03 -0.94293493174E+03  0.90765022600E+03  0.13922247633E+04  0.50400001928E-02 0.  1.
</event>
<event>
 5   0  0.4381939E-07  0.3388282E+04  0.7818609E-02  0.8140788E-01
        2   -1    0    0  501    0  0.00000000000E+00  0.00000000000E+00  0.13432688625E+04  0.13432688625E+04  0.25500000920E-02 0.  1.
       -2   -1    0    0    0  501  0.00000000000E+00  0.00000000000E+00 -0.21366638699E+04  0.21366638699E+04  0.25500000920E-02 0. -1.
    10030    2    1    2    0    0  0.00000000000E+00  0.00000000000E+00 -0.79339500737E+03  0.34799327323E+04  0.33882821878E+04 0.  0.
        3    1    3    3  502    0  0.38850516424E+03  0.10814489265E+04  0.88182249326E+03  0.14484747023E+04  0.10100000352E+00 0.  1.
       -3    1    3    3    0  502 -0.38850516424E+03 -0.10814489265E+04 -0.16752175006E+04  0.20314580301E+04  0.10100000352E+00 0. -1.
</event>
<event>
 5   0  0.1435806E-07  0.3410614E+04  0.7818609E-02  0.8135306E-01
        1   -1    0    0  501    0  0.00000000000E+00  0.00000000000E+00  0.25288071771E+04  0.25288071771E+04  0.50400001928E-02 0. -1.
       -1   -1    0    0    0  501  0.00000000000E+00  0.00000000000E+00 -0.11499780276E+04  0.11499780276E+04  0.50400001928E-02 0.  1.
    10030    2    1    2    0    0  0.00000000000E+00  0.00000000000E+00  0.13788291495E+04  0.36787852047E+04  0.34106144254E+04 0.  0.
        3    1    3    3  502    0  0.25476715804E+03 -0.14598277718E+04  0.15996063835E+04  0.21805375531E+04  0.10100000352E+00 0. -1.
       -3    1    3    3    0  502 -0.25476715804E+03  0.14598277718E+04 -0.22077723405E+03  0.14982476516E+04  0.10100000352E+00 0.  1.
</event>
<event>
 5   0  0.4381939E-07  0.3428397E+04  0.7818609E-02  0.8130972E-01
        2   -1    0    0  501    0  0.00000000000E+00  0.00000000000E+00  0.23934498761E+04  0.23934498761E+04  0.25500000920E-02 0. -1.
       -2   -1    0    0    0  501  0.00000000000E+00  0.00000000000E+00 -0.12277160087E+04  0.12277160087E+04  0.25500000920E-02 0.  1.
    10030    2    1    2    0    0  0.00000000000E+00  0.00000000000E+00  0.11657338674E+04  0.36211658849E+04  0.34283971351E+04 0.  0.
        3    1    3    3  502    0 -0.65552845565E+03  0.11025875110E+04 -0.61819838247E+03  0.14239332941E+04  0.10100000352E+00 0.  1.
       -3    1    3    3    0  502  0.65552845565E+03 -0.11025875110E+04  0.17839322499E+04  0.21972325908E+04  0.10100000352E+00 0. -1.
</event>
<event>
 5   0  0.4486226E-07  0.3444990E+04  0.7818609E-02  0.8126952E-01
       -2   -1    0    0    0  501  0.00000000000E+00  0.00000000000E+00  0.16678334959E+04  0.16678334959E+04  0.25500000920E-02 0.  1.
        2   -1    0    0  501    0  0.00000000000E+00  0.00000000000E+00 -0.17789482102E+04  0.17789482102E+04  0.25500000920E-02 0. -1.
    10030    2    1    2    0    0  0.00000000000E+00  0.00000000000E+00 -0.11111471422E+03  0.34467817061E+04  0.34449902249E+04 0.  0.
        1    1    3    3  502    0 -0.13006940184E+02  0.13117252876E+04  0.10613551042E+04  0.16873846828E+04  0.50400001928E-02 0.  1.
       -1    1    3    3    0  502  0.13006940184E+02 -0.13117252876E+04 -0.11724698184E+04  0.17593970233E+04  0.50400001928E-02 0. -1.
</event>
<event>
 5   0  0.1523259E-07  0.3415685E+04  0.7818609E-02  0.8134067E-01
       -1   -1    0    0    0  501  0.00000000000E+00  0.00000000000E+00  0.17538286605E+04  0.17538286605E+04  0.50400001928E-02 0. -1.
        1   -1    0    0  501    0  0.00000000000E+00  0.00000000000E+00 -0.16630622158E+04  0.16630622158E+04  0.50400001928E-02 0.  1.
    10030    2    1    2    0    0  0.00000000000E+00  0.00000000000E+00  0.90766444661E+02  0.34168908763E+04  0.34156851016E+04 0.  0.
        4    1    3    3  502    0 -0.25989913874E+03 -0.18652140782E+03 -0.16328224080E+04  0.16638655075E+04  0.12699999809E+01 0.  1.
       -4    1    3    3    0  502  0.25989913874E+03  0.18652140782E+03  0.17235888527E+04  0.17530253689E+04  0.12699999809E+01 0. -1.
</event>
<event>
 5   0  0.4521737E-07  0.3391661E+04  0.7818609E-02  0.8139956E-01
       -2   -1    0    0    0  501  0.00000000000E+00  0.00000000000E+00  0.12496730746E+04  0.12496730746E+04  0.25500000920E-02 0. -1.
        2   -1    0    0  501    0  0.00000000000E+00  0.00000000000E+00 -0.23012748764E+04  0.23012748764E+04  0.25500000920E-02 0.  1.
    10030    2    1    2    0    0  0.00000000000E+00  0.00000000000E+00 -0.10516018018E+04  0.35509479510E+04  0.33916610976E+04 0.  0.
        4    1    3    3  502    0  0.15015533962E+04  0.42868953128E+03 -0.12182253566E+04  0.19805332485E+04  0.12699999809E+01 0. -1.
       -4    1    3    3    0  502 -0.15015533962E+04 -0.42868953128E+03  0.16662355480E+03  0.15704147025E+04  0.12699999809E+01 0.  1.
</event>
<event>
 5   0  0.4396257E-07  0.3400963E+04  0.7818609E-02  0.8137670E-01
       -2   -1    0    0    0  501  0.00000000000E+00  0.00000000000E+00  0.21514872339E+04  0.21514872339E+04  0.25500000920E-02 0.  1.
        2   -1    0    0  501    0  0.00000000000E+00  0.00000000000E+00 -0.13440178652E+04  0.13440178652E+04  0.25500000920E-02 0. -1.
    10030    2    1    2    0    0  0.00000000000E+00  0.00000000000E+00  0.80746936875E+03  0.34955050991E+04  0.34009629690E+04 0.  0.
        2    1    3    3  502    0 -0.98553607003E+03  0.95944423547E+03 -0.62397282908E+03  0.15103498528E+04  0.25500000920E-02 0. -1.
       -2    1    3    3    0  502  0.98553607003E+03 -0.95944423547E+03  0.14314421978E+04  0.19851552463E+04  0.25500000920E-02 0.  1.
</event>
<event>
 5   0  0.1435806E-07  0.3338475E+04  0.7818609E-02  0.8153174E-01
        1   -1    0    0  501    0  0.00000000000E+00  0.00000000000E+00  0.13334274369E+04  0.13334274369E+04  0.50400001928E-02 0.  1.
       -1   -1    0    0    0  501  0.00000000000E+00  0.00000000000E+00 -0.20896177547E+04  0.20896177547E+04  0.50400001928E-02 0. -1.
    10030    2    1    2    0    0  0.00000000000E+00  0.00000000000E+00 -0.75619031778E+03  0.34230451915E+04  0.33384748893E+04 0.  0.
        3    1    3    3  502    0 -0.64077462679E+03 -0.80935725573E+03 -0.17230800146E+04  0.20086453238E+04  0.10100000352E+00 0. -1.
       -3    1    3    3    0  502  0.64077462679E+03  0.80935725573E+03  0.96688969687E+03  0.14143998677E+04  0.10100000352E+00 0.  1.
</event>
<event>
 5   0  0.1523259E-07  0.3420403E+04  0.7818609E-02  0.8132917E-01
       -1   -1    0    0    0  501  0.00000000000E+00  0.00000000000E+00  0.16202120652E+04  0.16202120652E+04  0.50400001928E-02 0.  1.
        1   -1    0    0  501    0  0.00000000000E+00  0.00000000000E+00 -0.18051892081E+04  0.18051892081E+04  0.50400001928E-02 0. -1.
    10030    2    1    2    0    0  0.00000000000E+00  0.00000000000E+00 -0.18497714293E+03  0.34254012733E+04  0.34204030960E+04 0.  0.
        4    1    3    3  502    0  0.86787188878E+03 -0.97302018336E+03 -0.12008206769E+04  0.17725523416E+04  0.12699999809E+01 0. -1.
       -4    1    3    3    0  502 -0.86787188878E+03  0.97302018336E+03  0.10158435340E+04  0.16528489317E+04  0.12699999809E+01 0.  1.
</event>
<event>
 5   0  0.1421875E-07  0.3400584E+04  0.7818609E-02  0.8137763E-01
       -1   -1    0    0    0  501  0.00000000000E+00  0.00000000000E+00  0.16078044208E+04  0.16078044208E+04  0.50400001928E-02 0. -1.
        1   -1    0    0  501    0  0.00000000000E+00  0.00000000000E+00 -0.17981000592E+04  0.17981000592E+04  0.50400001928E-02 0.  1.
    10030    2    1    2    0    0  0.00000000000E+00  0.00000000000E+00 -0.19029563842E+03  0.34059044800E+04  0.34005841993E+04 0.  0.
        5    1    3    3  502    0 -0.27653495704E+03 -0.35446713331E+02 -0.17750444577E+04  0.17968118902E+04  0.46999998093E+01 0.  1.
       -5    1    3    3    0  502  0.27653495704E+03  0.35446713331E+02  0.15847488193E+04  0.16090925897E+04  0.46999998093E+01 0. -1.
</event>
<event>
 5   0  0.1523259E-07  0.3389447E+04  0.7818609E-02  0.8140501E-01
       -1   -1    0    0    0  501  0.00000000000E+00  0.00000000000E+00  0.13703359881E+04  0.13703359881E+04  0.50400001928E-02 0. -1.
        1   -1    0    0  501    0  0.00000000000E+00  0.00000000000E+00 -0.20959009873E+04  0.20959009873E+04  0.50400001928E-02 0.  1.
    10030    2    1    2    0    0  0.00000000000E+00  0.00000000000E+00 -0.72556499920E+03  0.34662369754E+04  0.33894474773E+04 0.  0.
        4    1    3    3  502    0  0.26700845984E+03  0.16503074134E+04 -0.78493733168E+02  0.16736101563E+04  0.12699999809E+01 0.  1.
       -4    1    3    3    0  502 -0.26700845984E+03 -0.16503074134E+04 -0.64707126604E+03  0.17926268191E+04  0.12699999809E+01 0. -1.
</event>
<event>
 5   0  0.1473755E-07  0.3403567E+04  0.7818609E-02  0.8137031E-01
        1   -1    0    0  501    0  0.00000000000E+00  0.00000000000E+00  0.16942696935E+04  0.16942696935E+04  0.50400001928E-02 0. -1.
       -1   -1    0    0    0  501  0.00000000000E+00  0.00000000000E+00 -0.17093308200E+04  0.17093308200E+04  0.50400001928E-02 0.  1.
    10030    2    1    2    0    0  0.00000000000E+00  0.00000000000E+00 -0.15061126504E+02  0.34036005135E+04  0.34035671901E+04 0.  0.
        1    1    3    3  502    0  0.55203289086E+03  0.12843268659E+03  0.15971134957E+04  0.16946996152E+04  0.50400001928E-02 0. -1.
       -1    1    3    3    0  502 -0.55203289086E+03 -0.12843268659E+03 -0.16121746222E+04  0.17089008983E+04  0.50400001928E-02 0.  1.
</event>
<event>
 5   0  0.4447909E-07  0.3388645E+04  0.7818609E-02  0.8140699E-01
       -2   -1    0    0    0  501  0.00000000000E+00  0.00000000000E+00  0.21028785236E+04  0.21028785236E+04  0.25500000920E-02 0.  1.
        2   -1    0    0  501    0  0.00000000000E+00  0.00000000000E+00 -0.13651424342E+04  0.13651424342E+04  0.25500000920E-02 0. -1.
    10030    2    1    2    0    0  0.00000000000E+00  0.00000000000E+00  0.73773608941E+03  0.34680209579E+04  0.33886449839E+04 0.  0.
        5    1    3    3  502    0 -0.34558285644E+03 -0.10876940324E+04  0.16504797841E+04  0.20066418281E+04  0.46999998093E+01 0. -1.
       -5    1    3    3    0  502  0.34558285644E+03  0.10876940324E+04 -0.91274369468E+03  0.14613791297E+04  0.46999998093E+01 0.  1.
</event>
<event>
 5   0  0.1523259E-07  0.3410653E+04  0.7818609E-02  0.8135297E-01
       -1   -1    0    0    0  501  0.00000000000E+00  0.00000000000E+00  0.15784993693E+04  0.15784993693E+04  0.50400001928E-02 0.  1.
        1   -1    0    0  501    0  0.00000000000E+00  0.00000000000E+00 -0.18423442707E+04  0.18423442707E+04  0.50400001928E-02 0. -1.
    10030    2    1    2    0    0  0.00000000000E+00  0.00000000000E+00 -0.26384490146E+03  0.34208436400E+04  0.34106534678E+04 0.  0.
        4    1    3    3  502    0  0.13327752074E+04 -0.41878434906E+03  0.84899114261E+03  0.16347653219E+04  0.12699999809E+01 0.  1.
       -4    1    3    3    0  502 -0.13327752074E+04  0.41878434906E+03 -0.11128360441E+04  0.17860783181E+04  0.12699999809E+01 0. -1.
</event>
<event>
 5   0  0.1421875E-07  0.3400166E+04  0.7818609E-02  0.8137866E-01
       -4   -1    0    0    0  501  0.00000000000E+00  0.00000000000E+00  0.15182043603E+04  0.15182048915E+04  0.12699999809E+01 0. -1.
        4   -1    0    0  501    0  0.00000000000E+00  0.00000000000E+00 -0.19037489180E+04  0.19037493416E+04  0.12699999809E+01 0.  1.
    10030    2    1    2    0    0  0.00000000000E+00  0.00000000000E+00 -0.38554455768E+03  0.34219542331E+04  0.34001656088E+04 0.  0.
        3    1    3    3  502    0 -0.92085278603E+03  0.14250634753E+04 -0.84819963668E+02  0.16988143508E+04  0.10100000352E+00 0.  1.
       -3    1    3    3    0  502  0.92085278603E+03 -0.14250634753E+04 -0.30072459402E+03  0.17231398822E+04  0.10100000352E+00 0. -1.
</event>
<event>
 5   0  0.4381939E-07  0.3400015E+04  0.7818609E-02  0.8137903E-01
       -2   -1    0    0    0  501  0.00000000000E+00  0.00000000000E+00  0.14791334105E+04  0.14791334105E+04  0.25500000920E-02 0. -1.
        2   -1    0    0  501    0  0.00000000000E+00  0.00000000000E+00 -0.19538643956E+04  0.19538643956E+04  0.25500000920E-02 0.  1.
    10030    2    1    2    0    0  0.00000000000E+00  0.00000000000E+00 -0.47473098510E+03  0.34329978061E+04  0.34000153571E+04 0.  0.
        3    1    3    3  502    0 -0.11871353949E+04  0.29629678766E+02 -0.14656603410E+04  0.18863532567E+04  0.10100000352E+00 0.  1.
       -3    1    3    3    0  502  0.11871353949E+04 -0.29629678766E+02  0.99092935592E+03  0.15466445494E+04  0.10100000352E+00 0. -1.
</event>
<event>
 5   0  0.4381939E-07  0.3383276E+04  0.7818609E-02  0.8142023E-01
       -2   -1    0    0    0  501  0.00000000000E+00  0.00000000000E+00  0.13091103534E+04  0.13091103534E+04  0.25500000920E-02 0. -1.
        2   -1    0    0  501    0  0.00000000000E+00  0.00000000000E+00 -0.21859412902E+04  0.21859412902E+04  0.25500000920E-02 0.  1.
    10030    2    1    2    0    0  0.00000000000E+00  0.00000000000E+00 -0.87683093683E+03  0.34950516436E+04  0.33832755578E+04 0.  0.
        3    1    3    3  502    0  0.71187910113E+03  0.12523825598E+04  0.47767676853E+03  0.15176985986E+04  0.10100000352E+00 0. -1.
       -3    1    3    3    0  502 -0.71187910113E+03 -0.12523825598E+04 -0.13545077054E+04  0.19773530451E+04  0.10100000352E+00 0.  1.
</event>
<event>
 5   0  0.1421875E-07  0.3393728E+04  0.7818609E-02  0.8139447E-01
        1   -1    0    0  501    0  0.00000000000E+00  0.00000000000E+00  0.14411984028E+04  0.14411984028E+04  0.50400001928E-02 0.  1.
       -1   -1    0    0    0  501  0.00000000000E+00  0.00000000000E+00 -0.19978845928E+04  0.19978845928E+04  0.50400001928E-02 0. -1.
    10030    2    1    2    0    0  0.00000000000E+00  0.00000000000E+00 -0.55668618998E+03  0.34390829956E+04  0.33937283829E+04 0.  0.
        5    1    3    3  502    0 -0.13557185039E+04 -0.79499285461E+03  0.37000390594E+03  0.16145932246E+04  0.46999998093E+01 0.  1.
       -5    1    3    3    0  502  0.13557185039E+04  0.79499285461E+03 -0.92669009592E+03  0.18244897710E+04  0.46999998093E+01 0. -1.
</event>
<event>
 5   0  0.4447909E-07  0.3444861E+04  0.7818609E-02  0.8126983E-01
        2   -1    0    0  501    0  0.00000000000E+00  0.00000000000E+00  0.13576284747E+04  0.13576284747E+04  0.25500000920E-02 0.  1.
       -2   -1    0    0    0  501  0.00000000000E+00  0.00000000000E+00 -0.21852568628E+04  0.21852568628E+04  0.25500000920E-02 0. -1.
    10030    2    1    2    0    0  0.00000000000E+00  0.00000000000E+00 -0.82762838806E+03  0.35428853375E+04  0.34448610663E+04 0.  0.
        5    1    3    3  502    0 -0.97049374843E+02  0.16061830802E+04 -0.10457094860E+04  0.19190552591E+04  0.46999998093E+01 0. -1.
       -5    1    3    3    0  502  0.97049374843E+02 -0.16061830802E+04  0.21808109795E+03  0.16238300784E+04  0.46999998093E+01 0.  1.
</event>
<event>
 5   0  0.4381939E-07  0.3411103E+04  0.7818609E-02  0.8135187E-01
        2   -1    0    0  501    0  0.00000000000E+00  0.00000000000E+00  0.21201756685E+04  0.21201756685E+04  0.25500000920E-02 0. -1.
       -2   -1    0    0    0  501  0.00000000000E+00  0.00000000000E+00 -0.13720120100E+04  0.13720120100E+04  0.25500000920E-02 0.  1.
    10030    2    1    2    0    0  0.00000000000E+00  0.00000000000E+00  0.74816365850E+03  0.34921876786E+04  0.34111033292E+04 0.  0.
        3    1    3    3  502    0 -0.47173760992E+03  0.11468845178E+04 -0.82465968517E+03  0.14892763599E+04  0.10100000352E+00 0.  1.
       -3    1    3    3    0  502  0.47173760992E+03 -0.11468845178E+04  0.15728233437E+04  0.20029113186E+04  0.10100000352E+00 0. -1.
</event>
<event>
 5   0  0.1435806E-07  0.3400554E+04  0.7818609E-02  0.8137770E-01
       -1   -1    0    0    0  501  0.00000000000E+00  0.00000000000E+00  0.18114766061E+04  0.18114766062E+04  0.50400001928E-02 0.  1.
        1   -1    0    0  501    0  0.00000000000E+00  0.00000000000E+00 -0.15959034399E+04  0.15959034399E+04  0.50400001928E-02 0. -1.
    10030    2    1    2    0    0  0.00000000000E+00  0.00000000000E+00  0.21557316629E+03  0.34073800460E+04  0.34005539237E+04 0.  0.
        3    1    3    3  502    0 -0.39909120683E+03 -0.16081372104E+04 -0.27450602292E+03  0.16795036903E+04  0.10100000352E+00 0.  1.
       -3    1    3    3    0  502  0.39909120683E+03  0.16081372104E+04  0.49007918921E+03  0.17278763557E+04  0.10100000352E+00 0. -1.
</event>
<event>
 5   0  0.1435806E-07  0.3402174E+04  0.7818609E-02  0.8137373E-01
       -1   -1    0    0    0  501  0.00000000000E+00  0.00000000000E+00  0.17381387748E+04  0.17381387748E+04  0.50400001928E-02 0.  1.
        1   -1    0    0  501    0  0.00000000000E+00  0.00000000000E+00 -0.16648248523E+04  0.16648248523E+04  0.50400001928E-02 0. -1.
    10030    2    1    2    0    0  0.00000000000E+00  0.00000000000E+00  0.73313922482E+02  0.34029636272E+04  0.34021737928E+04 0.  0.
        3    1    3    3  502    0  0.13617270258E+04 -0.97945177034E+03  0.31968971136E+03  0.17075795106E+04  0.10100000352E+00 0. -1.
       -3    1    3    3    0  502 -0.13617270258E+04  0.97945177034E+03 -0.24637578887E+03  0.16953841166E+04  0.10100000352E+00 0.  1.
</event>
<event>
 5   0  0.1523259E-07  0.3404593E+04  0.7818609E-02  0.8136780E-01
       -1   -1    0    0    0  501  0.00000000000E+00  0.00000000000E+00  0.14274749921E+04  0.14274749921E+04  0.50400001928E-02 0. -1.
        1   -1    0    0  501    0  0.00000000000E+00  0.00000000000E+00 -0.20300273575E+04  0.20300273575E+04  0.50400001928E-02 0.  1.
    10030    2    1    2    0    0  0.00000000000E+00  0.00000000000E+00 -0.60255236546E+03  0.34575023496E+04  0.34045929484E+04 0.  0.
        4    1    3    3  502    0 -0.81199539467E+03 -0.14890726087E+03  0.12105843721E+04  0.14652733629E+04  0.12699999809E+01 0. -1.
       -4    1    3    3    0  502  0.81199539467E+03  0.14890726087E+03 -0.18131367375E+04  0.19922289866E+04  0.12699999809E+01 0.  1.
</event>
<event>
 5   0  0.4486226E-07  0.3399487E+04  0.7818609E-02  0.8138032E-01
        2   -1    0    0  501    0  0.00000000000E+00  0.00000000000E+00  0.12905775023E+04  0.12905775023E+04  0.25500000920E-02 0.  1.
       -2   -1    0    0    0  501  0.00000000000E+00  0.00000000000E+00 -0.22386319372E+04  0.22386319372E+04  0.25500000920E-02 0. -1.
    10030    2    1    2    0    0  0.00000000000E+00  0.00000000000E+00 -0.94805443486E+03  0.35292094395E+04  0.33994870284E+04 0.  0.
        1    1    3    3  502    0 -0.33488034225E+03  0.45324729887E+02 -0.22034053734E+04  0.22291689964E+04  0.50400001928E-02 0. -1.
       -1    1    3    3    0  502  0.33488034225E+03 -0.45324729887E+02  0.12553509386E+04  0.13000404431E+04  0.50400001928E-02 0.  1.
</event>
<event>
 5   0  0.4447909E-07  0.3432976E+04  0.7818609E-02  0.8129860E-01
        2   -1    0    0  501    0  0.00000000000E+00  0.00000000000E+00  0.22864687961E+04  0.22864687961E+04  0.25500000920E-02 0. -1.
       -2   -1    0    0    0  501  0.00000000000E+00  0.00000000000E+00 -0.12885943782E+04  0.12885943782E+04  0.25500000920E-02 0.  1.
    10030    2    1    2    0    0  0.00000000000E+00  0.00000000000E+00  0.99787441796E+03  0.35750631743E+04  0.34329758732E+04 0.  0.
        5    1    3    3  502    0  0.15334077597E+04 -0.76677220821E+03  0.58625113526E+03  0.18119027182E+04  0.46999998093E+01 0.  1.
       -5    1    3    3    0  502 -0.15334077597E+04  0.76677220821E+03  0.41162328271E+03  0.17631604560E+04  0.46999998093E+01 0. -1.
</event>
<event>
 5   0  0.4396257E-07  0.3396183E+04  0.7818609E-02  0.8138844E-01
       -2   -1    0    0    0  501  0.00000000000E+00  0.00000000000E+00  0.13491423328E+04  0.13491423328E+04  0.25500000920E-02 0.  1.
        2   -1    0    0  501    0  0.00000000000E+00  0.00000000000E+00 -0.21372950765E+04  0.21372950765E+04  0.25500000920E-02 0. -1.
    10030    2    1    2    0    0  0.00000000000E+00  0.00000000000E+00 -0.78815274363E+03  0.34864374093E+04  0.33961833080E+04 0.  0.
        2    1    3    3  502    0 -0.50900561660E+03  0.91553876817E+03 -0.17660883307E+04  0.20533791529E+04  0.25500000920E-02 0.  1.
       -2    1    3    3    0  502  0.50900561660E+03 -0.91553876817E+03  0.97793558707E+03  0.14330582564E+04  0.25500000920E-02 0. -1.
</event>
<event>
 5   0  0.4381939E-07  0.3412631E+04  0.7818609E-02  0.8134813E-01
       -2   -1    0    0    0  501  0.00000000000E+00  0.00000000000E+00  0.19544440356E+04  0.19544440356E+04  0.25500000920E-02 0. -1.
        2   -1    0    0  501    0  0.00000000000E+00  0.00000000000E+00 -0.14896884629E+04  0.14896884629E+04  0.25500000920E-02 0.  1.
    10030    2    1    2    0    0  0.00000000000E+00  0.00000000000E+00  0.46475557274E+03  0.34441324985E+04  0.34126310854E+04 0.  0.
        3    1    3    3  502    0 -0.14465193444E+04 -0.89239570865E+03  0.38451546447E+03  0.17425958990E+04  0.10100000352E+00 0. -1.
       -3    1    3    3    0  502  0.14465193444E+04  0.89239570865E+03  0.80240108264E+02  0.17015365995E+04  0.10100000352E+00 0.  1.
</event>
<event>
 5   0  0.1523259E-07  0.3399635E+04  0.7818609E-02  0.8137996E-01
       -1   -1    0    0    0  501  0.00000000000E+00  0.00000000000E+00  0.14084574972E+04  0.14084574972E+04  0.50400001928E-02 0.  1.
        1   -1    0    0  501    0  0.00000000000E+00  0.00000000000E+00 -0.20514491225E+04  0.20514491225E+04  0.50400001928E-02 0. -1.
    10030    2    1    2    0    0  0.00000000000E+00  0.00000000000E+00 -0.64299162534E+03  0.34599066198E+04  0.33996346255E+04 0.  0.
        4    1    3    3  502    0  0.16534552650E+02  0.95640873111E+03  0.11085442047E+04  0.14641936071E+04  0.12699999809E+01 0.  1.
       -4    1    3    3    0  502 -0.16534552650E+02 -0.95640873111E+03 -0.17515358300E+04  0.19957130127E+04  0.12699999809E+01 0. -1.
</event>
<event>
 5   0  0.1473755E-07  0.3388525E+04  0.7818609E-02  0.8140728E-01
        1   -1    0    0  501    0  0.00000000000E+00  0.00000000000E+00  0.23652201634E+04  0.23652201634E+04  0.50400001928E-02 0.  1.
       -1   -1    0    0    0  501  0.00000000000E+00  0.00000000000E+00 -0.12136397972E+04  0.12136397972E+04  0.50400001928E-02 0. -1.
    10030    2    1    2    0    0  0.00000000000E+00  0.00000000000E+00  0.11515803663E+04  0.35788599606E+04  0.33885249413E+04 0.  0.
        1    1    3    3  502    0  0.26673759679E+03 -0.76331001240E+02 -0.11894842817E+04  0.12214123889E+04  0.50400001928E-02 0. -1.
       -1    1    3    3    0  502 -0.26673759679E+03  0.76331001240E+02  0.23410646480E+04  0.23574475717E+04  0.50400001928E-02 0.  1.
</event>
<event>
 5   0  0.4381939E-07  0.3396675E+04  0.7818609E-02  0.8138723E-01
       -2   -1    0    0    0  501  0.00000000000E+00  0.00000000000E+00  0.19872866834E+04  0.19872866834E+04  0.25500000920E-02 0.  1.
        2   -1    0    0  501    0  0.00000000000E+00  0.00000000000E+00 -0.14514013653E+04  0.14514013653E+04  0.25500000920E-02 0. -1.
    10030    2    1    2    0    0  0.00000000000E+00  0.00000000000E+00  0.53588531813E+03  0.34386880487E+04  0.33966752011E+04 0.  0.
        3    1    3    3  502    0 -0.34080149213E+03  0.16538518023E+04  0.84094825934E+02  0.16906931688E+04  0.10100000352E+00 0.  1.
       -3    1    3    3    0  502  0.34080149213E+03 -0.16538518023E+04  0.45179049219E+03  0.17479948799E+04  0.10100000352E+00 0. -1.
</event>
<event>
 5   0  0.4447909E-07  0.3386192E+04  0.7818609E-02  0.8141304E-01
       -2   -1    0    0    0  501  0.00000000000E+00  0.00000000000E+00  0.26155914218E+04  0.26155914218E+04  0.25500000920E-02 0. -1.
        2   -1    0    0  501    0  0.00000000000E+00  0.00000000000E+00 -0.10959564391E+04  0.10959564391E+04  0.25500000920E-02 0.  1.
    10030    2    1    2    0    0  0.00000000000E+00  0.00000000000E+00  0.15196349827E+04  0.37115478609E+04  0.33861921156E+04 0.  0.
        5    1    3    3  502    0  0.14170229035E+04  0.68870748022E+02 -0.25301017227E+03  0.14410875498E+04  0.46999998093E+01 0.  1.
       -5    1    3    3    0  502 -0.14170229035E+04 -0.68870748022E+02  0.17726451549E+04  0.22704603111E+04  0.46999998093E+01 0. -1.
</event>
<event>
 5   0  0.1435806E-07  0.3420551E+04  0.7818609E-02  0.8132881E-01
       -1   -1    0    0    0  501  0.00000000000E+00  0.00000000000E+00  0.13282918573E+04  0.13282918573E+04  0.50400001928E-02 0.  1.
        1   -1    0    0  501    0  0.00000000000E+00  0.00000000000E+00 -0.22021081461E+04  0.22021081461E+04  0.50400001928E-02 0. -1.
    10030    2    1    2    0    0  0.00000000000E+00  0.00000000000E+00 -0.87381628883E+03  0.35304000034E+04  0.34205510196E+04 0.  0.
        3    1    3    3  502    0 -0.17052100317E+04  0.54199974862E+01 -0.57255044319E+03  0.17987730954E+04  0.10100000352E+00 0. -1.
       -3    1    3    3    0  502  0.17052100317E+04 -0.54199974862E+01 -0.30126584564E+03  0.17316269080E+04  0.10100000352E+00 0.  1.
</event>
<event>
 5   0  0.1523259E-07  0.3370138E+04  0.7818609E-02  0.8145275E-01
       -1   -1    0    0    0  501  0.00000000000E+00  0.00000000000E+00  0.17484395173E+04  0.17484395173E+04  0.50400001928E-02 0.  1.
        1   -1    0    0  501    0  0.00000000000E+00  0.00000000000E+00 -0.16239948727E+04  0.16239948727E+04  0.50400001928E-02 0. -1.
    10030    2    1    2    0    0  0.00000000000E+00  0.00000000000E+00  0.12444464452E+03  0.33724343900E+04  0.33701375707E+04 0.  0.
        4    1    3    3  502    0 -0.14842992988E+03 -0.86564751216E+03  0.15012838139E+04  0.17393193388E+04  0.12699999809E+01 0.  1.
       -4    1    3    3    0  502  0.14842992988E+03  0.86564751216E+03 -0.13768391694E+04  0.16331150513E+04  0.12699999809E+01 0. -1.
</event>
<event>
 5   0  0.1520084E-07  0.3417327E+04  0.7818609E-02  0.8133667E-01
       -1   -1    0    0    0  501  0.00000000000E+00  0.00000000000E+00  0.16550929809E+04  0.16550929809E+04  0.50400001928E-02 0.  1.
        1   -1    0    0  501    0  0.00000000000E+00  0.00000000000E+00 -0.17639680468E+04  0.17639680468E+04  0.50400001928E-02 0. -1.
    10030    2    1    2    0    0  0.00000000000E+00  0.00000000000E+00 -0.10887506593E+03  0.34190610278E+04  0.34173271034E+04 0.  0.
        2    1    3    3  502    0 -0.15168219532E+04  0.53756192372E+03 -0.62901933178E+03  0.17278272423E+04  0.25500000920E-02 0. -1.
       -2    1    3    3    0  502  0.15168219532E+04 -0.53756192372E+03  0.52014426585E+03  0.16912337854E+04  0.25500000920E-02 0.  1.
</event>
<event>
 5   0  0.4521737E-07  0.3395778E+04  0.7818609E-02  0.8138943E-01
       -2   -1    0    0    0  501  0.00000000000E+00  0.00000000000E+00  0.11730246833E+04  0.11730246833E+04  0.25500000920E-02 0.  1.
        2   -1    0    0  501    0  0.00000000000E+00  0.00000000000E+00 -0.24576011165E+04  0.24576011165E+04  0.25500000920E-02 0. -1.
    10030    2    1    2    0    0  0.00000000000E+00  0.00000000000E+00 -0.12845764331E+04  0.36306257998E+04  0.33957778322E+04 0.  0.
        4    1    3    3  502    0  0.64557867105E+03  0.14260555749E+04  0.60775234984E+02  0.15665572333E+04  0.12699999809E+01 0.  1.
       -4    1    3    3    0  502 -0.64557867105E+03 -0.14260555749E+04 -0.13453516681E+04  0.20640685665E+04  0.12699999809E+01 0. -1.
</event>
<event>
 5   0  0.1421875E-07  0.3403052E+04  0.7818609E-02  0.8137158E-01
        1   -1    0    0  501    0  0.00000000000E+00  0.00000000000E+00  0.19047614104E+04  0.19047614104E+04  0.50400001928E-02 0.  1.
       -1   -1    0    0    0  501  0.00000000000E+00  0.00000000000E+00 -0.15199752502E+04  0.15199752502E+04  0.50400001928E-02 0. -1.
    10030    2    1    2    0    0  0.00000000000E+00  0.00000000000E+00  0.38478616021E+03  0.34247366605E+04  0.34030516900E+04 0.  0.
        5    1    3    3  502    0  0.73765444347E+03  0.14934785386E+04  0.54181717585E+03  0.17516278616E+04  0.46999998093E+01 0.  1.
       -5    1    3    3    0  502 -0.73765444347E+03 -0.14934785386E+04 -0.15703101564E+03  0.16731087990E+04  0.46999998093E+01 0. -1.
</event>
<event>
 5   0  0.4447909E-07  0.3399560E+04  0.7818609E-02  0.8138014E-01
        2   -1    0    0  501    0  0.00000000000E+00  0.00000000000E+00  0.19659406911E+04  0.19659406911E+04  0.25500000920E-02 0.  1.
       -2   -1    0    0    0  501  0.00000000000E+00  0.00000000000E+00 -0.14696533870E+04  0.14696533870E+04  0.25500000920E-02 0. -1.
    10030    2    1    2    0    0  0.00000000000E+00  0.00000000000E+00  0.49628730410E+03  0.34355940782E+04  0.33995596158E+04 0.  0.
        5    1    3    3  502    0 -0.74703740802E+03 -0.12154191005E+04  0.11820170123E+04  0.18526993243E+04  0.46999998093E+01 0.  1.
       -5    1    3    3    0  502  0.74703740802E+03  0.12154191005E+04 -0.68572970821E+03  0.15828947538E+04  0.46999998093E+01 0. -1.
</event>
<event>
 5   0  0.1520084E-07  0.3392055E+04  0.7818609E-02  0.8139859E-01
       -1   -1    0    0    0  501  0.00000000000E+00  0.00000000000E+00  0.22646262693E+04  0.22646262693E+04  0.50400001928E-02 0. -1.
        1   -1    0    0  501    0  0.00000000000E+00  0.00000000000E+00 -0.12701916590E+04  0.12701916590E+04  0.50400001928E-02 0.  1.
    10030    2    1    2    0    0  0.00000000000E+00  0.00000000000E+00  0.99443461026E+03  0.35348179284E+04  0.33920550692E+04 0.  0.
        2    1    3    3  502    0 -0.38450506302E+03 -0.14636471606E+04 -0.30078099543E+03  0.15429116506E+04  0.25500000920E-02 0.  1.
       -2    1    3    3    0  502  0.38450506302E+03  0.14636471606E+04  0.12952156057E+04  0.19919062778E+04  0.25500000920E-02 0. -1.
</event>
<event>
 5   0  0.4486226E-07  0.3391724E+04  0.7818609E-02  0.8139940E-01
       -2   -1    0    0    0  501  0.00000000000E+00  0.00000000000E+00  0.13828296865E+04  0.13828296865E+04  0.25500000920E-02 0.  1.
        2   -1    0    0  501    0  0.00000000000E+00  0.00000000000E+00 -0.20797562480E+04  0.20797562480E+04  0.25500000920E-02 0. -1.
    10030    2    1    2    0    0  0.00000000000E+00  0.00000000000E+00 -0.69692656154E+03  0.34625859345E+04  0.33917244466E+04 0.  0.
        1    1    3    3  502    0  0.33866532738E+03  0.14060618605E+04 -0.12525409565E+04  0.19132597856E+04  0.50400001928E-02 0. -1.
       -1    1    3    3    0  502 -0.33866532738E+03 -0.14060618605E+04  0.55561439494E+03  0.15493261489E+04  0.50400001928E-02 0.  1.
</event>
<event>
 5   0  0.1421875E-07  0.3407668E+04  0.7818609E-02  0.8136027E-01
        1   -1    0    0  501    0  0.00000000000E+00  0.00000000000E+00  0.19275573919E+04  0.19275573919E+04  0.50400001928E-02 0.  1.
       -1   -1    0    0    0  501  0.00000000000E+00  0.00000000000E+00 -0.15060775510E+04  0.15060775510E+04  0.50400001928E-02 0. -1.
    10030    2    1    2    0    0  0.00000000000E+00  0.00000000000E+00  0.42147984094E+03  0.34336349430E+04  0.34076683620E+04 0.  0.
        5    1    3    3  502    0 -0.89711644977E+03  0.14344911996E+04  0.80957803456E+01  0.16919428353E+04  0.46999998093E+01 0. -1.
       -5    1    3    3    0  502  0.89711644977E+03 -0.14344911996E+04  0.41338406060E+03  0.17416921076E+04  0.46999998093E+01 0.  1.
</event>
<event>
 5   0  0.1520084E-07  0.3397834E+04  0.7818609E-02  0.8138438E-01
        1   -1    0    0  501    0  0.00000000000E+00  0.00000000000E+00  0.16680567384E+04  0.16680567384E+04  0.50400001928E-02 0.  1.
       -1   -1    0    0    0  501  0.00000000000E+00  0.00000000000E+00 -0.17303480032E+04  0.17303480032E+04  0.50400001928E-02 0. -1.
    10030    2    1    2    0    0  0.00000000000E+00  0.00000000000E+00 -0.62291264778E+02  0.33984047415E+04  0.33978338078E+04 0.  0.
        2    1    3    3  502    0  0.22309610895E+03 -0.57277400411E+03  0.15529376280E+04  0.16701668211E+04  0.25500000920E-02 0.  1.
       -2    1    3    3    0  502 -0.22309610895E+03  0.57277400411E+03 -0.16152288928E+04  0.17282379205E+04  0.25500000920E-02 0. -1.
</event>
<event>
 5   0  0.4396257E-07  0.3395460E+04  0.7818609E-02  0.8139022E-01
        2   -1    0    0  501    0  0.00000000000E+00  0.00000000000E+00  0.24132838052E+04  0.24132838052E+04  0.25500000920E-02 0.  1.
       -2   -1    0    0    0  501  0.00000000000E+00  0.00000000000E+00 -0.11943422833E+04  0.11943422833E+04  0.25500000920E-02 0. -1.
    10030    2    1    2    0    0  0.00000000000E+00  0.00000000000E+00  0.12189415219E+04  0.36076260885E+04  0.33954598453E+04 0.  0.
        2    1    3    3  502    0  0.14378519917E+04  0.64691354306E+03  0.12783906048E+04  0.20298270913E+04  0.25500000920E-02 0.  1.
       -2    1    3    3    0  502 -0.14378519917E+04 -0.64691354306E+03 -0.59449082891E+02  0.15777989972E+04  0.25500000920E-02 0. -1.
</event>
<event>
 5   0  0.4396257E-07  0.3397550E+04  0.7818609E-02  0.8138508E-01
        2   -1    0    0  501    0  0.00000000000E+00  0.00000000000E+00  0.12180699843E+04  0.12180699843E+04  0.25500000920E-02 0. -1.
       -2   -1    0    0    0  501  0.00000000000E+00  0.00000000000E+00 -0.23691871938E+04  0.23691871938E+04  0.25500000920E-02 0.  1.
    10030    2    1    2    0    0  0.00000000000E+00  0.00000000000E+00 -0.11511172095E+04  0.35872571780E+04  0.33975495922E+04 0.  0.
        2    1    3    3  502    0  0.11143594544E+04  0.52387971568E+03 -0.18111981977E+04  0.21901337543E+04  0.25500000920E-02 0. -1.
       -2    1    3    3    0  502 -0.11143594544E+04 -0.52387971568E+03  0.66008098826E+03  0.13971234238E+04  0.25500000920E-02 0.  1.
</event>
<event>
 5   0  0.4521737E-07  0.3389578E+04  0.7818609E-02  0.8140469E-01
        2   -1    0    0  501    0  0.00000000000E+00  0.00000000000E+00  0.23047682496E+04  0.23047682496E+04  0.25500000920E-02 0.  1.
       -2   -1    0    0    0  501  0.00000000000E+00  0.00000000000E+00 -0.12462469032E+04  0.12462469032E+04  0.25500000920E-02 0. -1.
    10030    2    1    2    0    0  0.00000000000E+00  0.00000000000E+00  0.10585213464E+04  0.35510151527E+04  0.33895783180E+04 0.  0.
        4    1    3    3  502    0  0.83302669679E+03 -0.14574237425E+04  0.28515845597E+03  0.17027431987E+04  0.12699999809E+01 0.  1.
       -4    1    3    3    0  502 -0.83302669679E+03  0.14574237425E+04  0.77336289042E+03  0.18482719540E+04  0.12699999809E+01 0. -1.
</event>
<event>
 5   0  0.4396257E-07  0.3400073E+04  0.7818609E-02  0.8137888E-01
        2   -1    0    0  501    0  0.00000000000E+00  0.00000000000E+00  0.17960532563E+04  0.17960532563E+04  0.25500000920E-02 0.  1.
       -2   -1    0    0    0  501  0.00000000000E+00  0.00000000000E+00 -0.16091529674E+04  0.16091529674E+04  0.25500000920E-02 0. -1.
    10030    2    1    2    0    0  0.00000000000E+00  0.00000000000E+00  0.18690028885E+03  0.34052062237E+04  0.34000731916E+04 0.  0.
        2    1    3    3  502    0  0.11265601316E+04  0.58057283478E+03  0.12282635372E+04  0.17648891929E+04  0.25500000920E-02 0.  1.
       -2    1    3    3    0  502 -0.11265601316E+04 -0.58057283478E+03 -0.10413632483E+04  0.16403170308E+04  0.25500000920E-02 0. -1.
</event>
<event>
 5   0  0.4396257E-07  0.3395744E+04  0.7818609E-02  0.8138952E-01
       -2   -1    0    0    0  501  0.00000000000E+00  0.00000000000E+00  0.99496026375E+03  0.99496026375E+03  0.25500000920E-02 0.  1.
        2   -1    0    0  501    0  0.00000000000E+00  0.00000000000E+00 -0.28973716534E+04  0.28973716534E+04  0.25500000920E-02 0. -1.
    10030    2    1    2    0    0  0.00000000000E+00  0.00000000000E+00 -0.19024113897E+04  0.38923319172E+04  0.33957441979E+04 0.  0.
        2    1    3    3  502    0  0.64234165254E+03  0.15581699212E+04 -0.71553352689E+03  0.18309791179E+04  0.25500000920E-02 0.  1.
       -2    1    3    3    0  502 -0.64234165254E+03 -0.15581699212E+04 -0.11868778628E+04  0.20613527993E+04  0.25500000920E-02 0. -1.
</event>
<event>
 5   0  0.4381939E-07  0.3395180E+04  0.7818609E-02  0.8139090E-01
        2   -1    0    0  501    0  0.00000000000E+00  0.00000000000E+00  0.14938851311E+04  0.14938851311E+04  0.25500000920E-02 0. -1.
       -2   -1    0    0    0  501  0.00000000000E+00  0.00000000000E+00 -0.19290715375E+04  0.19290715375E+04  0.25500000920E-02 0.  1.
    10030    2    1    2    0    0  0.00000000000E+00  0.00000000000E+00 -0.43518640637E+03  0.34229566686E+04  0.33951796929E+04 0.  0.
        3    1    3    3  502    0  0.16238591403E+04 -0.37473474689E+03 -0.54345049724E+03  0.17529070401E+04  0.10100000352E+00 0. -1.
       -3    1    3    3    0  502 -0.16238591403E+04  0.37473474689E+03  0.10826409087E+03  0.16700496285E+04  0.10100000352E+00 0.  1.
</event>
<event>
 5   0  0.1523259E-07  0.3422857E+04  0.7818609E-02  0.8132319E-01
       -1   -1    0    0    0  501  0.00000000000E+00  0.00000000000E+00  0.16129339123E+04  0.16129339123E+04  0.50400001928E-02 0.  1.
        1   -1    0    0  501    0  0.00000000000E+00  0.00000000000E+00 -0.18159382171E+04  0.18159382171E+04  0.50400001928E-02 0. -1.
    10030    2    1    2    0    0  0.00000000000E+00  0.00000000000E+00 -0.20300430477E+03  0.34288721294E+04  0.34228574805E+04 0.  0.
        4    1    3    3  502    0 -0.80074370978E+03  0.61048706004E+03  0.12848016138E+04  0.16323607870E+04  0.12699999809E+01 0.  1.
       -4    1    3    3    0  502  0.80074370978E+03 -0.61048706004E+03 -0.14878059185E+04  0.17965113424E+04  0.12699999809E+01 0. -1.
</event>
<event>
 5   0  0.1473755E-07  0.3227510E+04  0.7818609E-02  0.8181590E-01
       -1   -1    0    0    0  501  0.00000000000E+00  0.00000000000E+00  0.12085232360E+04  0.12085232360E+04  0.50400001928E-02 0.  1.
        1   -1    0    0  501    0  0.00000000000E+00  0.00000000000E+00 -0.21548650893E+04  0.21548650893E+04  0.50400001928E-02 0. -1.
    10030    2    1    2    0    0  0.00000000000E+00  0.00000000000E+00 -0.94634185338E+03  0.33633883253E+04  0.32275095853E+04 0.  0.
        1    1    3    3  502    0  0.11743988149E+04  0.87134016020E+03  0.23802582371E+03  0.14815878455E+04  0.50400001928E-02 0.  1.
       -1    1    3    3    0  502 -0.11743988149E+04 -0.87134016020E+03 -0.11843676771E+04  0.18818004798E+04  0.50400001928E-02 0. -1.
</event>
<event>
 5   0  0.1435806E-07  0.3409840E+04  0.7818609E-02  0.8135495E-01
       -1   -1    0    0    0  501  0.00000000000E+00  0.00000000000E+00  0.15553390886E+04  0.15553390886E+04  0.50400001928E-02 0.  1.
        1   -1    0    0  501    0  0.00000000000E+00  0.00000000000E+00 -0.18688864281E+04  0.18688864281E+04  0.50400001928E-02 0. -1.
    10030    2    1    2    0    0  0.00000000000E+00  0.00000000000E+00 -0.31354733949E+03  0.34242255167E+04  0.34098399457E+04 0.  0.
        3    1    3    3  502    0 -0.82667270634E+03 -0.38063205647E+02  0.13401240871E+04  0.15750457612E+04  0.10100000352E+00 0.  1.
       -3    1    3    3    0  502  0.82667270634E+03  0.38063205647E+02 -0.16536714265E+04  0.18491797555E+04  0.10100000352E+00 0. -1.
</event>
<event>
 5   0  0.1520084E-07  0.3390482E+04  0.7818609E-02  0.8140246E-01
        1   -1    0    0  501    0  0.00000000000E+00  0.00000000000E+00  0.10573568008E+04  0.10573568008E+04  0.50400001928E-02 0.  1.
       -1   -1    0    0    0  501  0.00000000000E+00  0.00000000000E+00 -0.27179485808E+04  0.27179485808E+04  0.50400001928E-02 0. -1.
    10030    2    1    2    0    0  0.00000000000E+00  0.00000000000E+00 -0.16605917800E+04  0.37753053816E+04  0.33904816272E+04 0.  0.
        2    1    3    3  502    0 -0.10313354933E+04 -0.11839781562E+03 -0.23226245111E+04  0.25440628062E+04  0.25500000920E-02 0. -1.
       -2    1    3    3    0  502  0.10313354933E+04  0.11839781562E+03  0.66203273109E+03  0.12312425754E+04  0.25500000920E-02 0.  1.
</event>
<event>
 5   0  0.1435806E-07  0.3403417E+04  0.7818609E-02  0.8137068E-01
       -1   -1    0    0    0  501  0.00000000000E+00  0.00000000000E+00  0.16148391303E+04  0.16148391303E+04  0.50400001928E-02 0. -1.
        1   -1    0    0  501    0  0.00000000000E+00  0.00000000000E+00 -0.17932505733E+04  0.17932505733E+04  0.50400001928E-02 0.  1.
    10030    2    1    2    0    0  0.00000000000E+00  0.00000000000E+00 -0.17841144302E+03  0.34080897036E+04  0.34034166340E+04 0.  0.
        3    1    3    3  502    0 -0.13476310270E+04  0.50745696455E+03 -0.99719724025E+03  0.17515776609E+04  0.10100000352E+00 0.  1.
       -3    1    3    3    0  502  0.13476310270E+04 -0.50745696455E+03  0.81878579724E+03  0.16565120428E+04  0.10100000352E+00 0. -1.
</event>
<event>
 5   0  0.4521737E-07  0.3414349E+04  0.7818609E-02  0.8134394E-01
        2   -1    0    0  501    0  0.00000000000E+00  0.00000000000E+00  0.14556540070E+04  0.14556540070E+04  0.25500000920E-02 0.  1.
       -2   -1    0    0    0  501  0.00000000000E+00  0.00000000000E+00 -0.20021543258E+04  0.20021543258E+04  0.25500000920E-02 0. -1.
    10030    2    1    2    0    0  0.00000000000E+00  0.00000000000E+00 -0.54650031884E+03  0.34578083328E+04  0.34143485276E+04 0.  0.
        4    1    3    3  502    0 -0.56927615492E+02 -0.14450264376E+04  0.64554652280E+03  0.15836900216E+04  0.12699999809E+01 0.  1.
       -4    1    3    3    0  502  0.56927615492E+02  0.14450264376E+04 -0.11920468416E+04  0.18741183112E+04  0.12699999809E+01 0. -1.
</event>
<event>
 5   0  0.4521737E-07  0.3396043E+04  0.7818609E-02  0.8138878E-01
       -2   -1    0    0    0  501  0.00000000000E+00  0.00000000000E+00  0.10945266245E+04  0.10945266245E+04  0.25500000920E-02 0. -1.
        2   -1    0    0  501    0  0.00000000000E+00  0.00000000000E+00 -0.26342691828E+04  0.26342691828E+04  0.25500000920E-02 0.  1.
    10030    2    1    2    0    0  0.00000000000E+00  0.00000000000E+00 -0.15397425582E+04  0.37287958073E+04  0.33960434371E+04 0.  0.
        4    1    3    3  502    0 -0.81205065769E+03  0.82035852074E+03 -0.21372282544E+04  0.24290246185E+04  0.12699999809E+01 0.  1.
       -4    1    3    3    0  502  0.81205065769E+03 -0.82035852074E+03  0.59748569614E+03  0.12997711888E+04  0.12699999809E+01 0. -1.
</event>
<event>
 5   0  0.4396257E-07  0.3393783E+04  0.7818609E-02  0.8139434E-01
       -2   -1    0    0    0  501  0.00000000000E+00  0.00000000000E+00  0.13807928923E+04  0.13807928923E+04  0.25500000920E-02 0. -1.
        2   -1    0    0  501    0  0.00000000000E+00  0.00000000000E+00 -0.20853526896E+04  0.20853526896E+04  0.25500000920E-02 0.  1.
    10030    2    1    2    0    0  0.00000000000E+00  0.00000000000E+00 -0.70455979730E+03  0.34661455819E+04  0.33937826517E+04 0.  0.
        2    1    3    3  502    0 -0.22715868011E+03  0.10510960174E+03 -0.20663954397E+04  0.20814992692E+04  0.25500000920E-02 0.  1.
       -2    1    3    3    0  502  0.22715868011E+03 -0.10510960174E+03  0.13618356424E+04  0.13846463127E+04  0.25500000920E-02 0. -1.
</event>
<event>
 5   0  0.1421875E-07  0.3404433E+04  0.7818609E-02  0.8136819E-01
        3   -1    0    0  501    0  0.00000000000E+00  0.00000000000E+00  0.11251155256E+04  0.11251155301E+04  0.10100000352E+00 0. -1.
       -3   -1    0    0    0  501  0.00000000000E+00  0.00000000000E+00 -0.25753273188E+04  0.25753273208E+04  0.10100000352E+00 0.  1.
    10030    2    1    2    0    0  0.00000000000E+00  0.00000000000E+00 -0.14502117932E+04  0.37004428510E+04  0.34044328526E+04 0.  0.
        5    1    3    3  502    0  0.74680424342E+03 -0.52482235749E+02  0.93655621633E+03  0.11990123433E+04  0.46999998093E+01 0. -1.
       -5    1    3    3    0  502 -0.74680424342E+03  0.52482235749E+02 -0.23867680096E+04  0.25014305076E+04  0.46999998093E+01 0.  1.
</event>
<event>
 5   0  0.1473755E-07  0.3399642E+04  0.7818609E-02  0.8137994E-01
        1   -1    0    0  501    0  0.00000000000E+00  0.00000000000E+00  0.18293592662E+04  0.18293592662E+04  0.50400001928E-02 0. -1.
       -1   -1    0    0    0  501  0.00000000000E+00  0.00000000000E+00 -0.15794550349E+04  0.15794550349E+04  0.50400001928E-02 0.  1.
    10030    2    1    2    0    0  0.00000000000E+00  0.00000000000E+00  0.24990423133E+03  0.34088143012E+04  0.33996415715E+04 0.  0.
        1    1    3    3  502    0  0.14598985819E+04  0.84963996979E+03 -0.65820939626E+02  0.16904213510E+04  0.50400001928E-02 0.  1.
       -1    1    3    3    0  502 -0.14598985819E+04 -0.84963996979E+03  0.31572517095E+03  0.17183929502E+04  0.50400001928E-02 0. -1.
</event>
<event>
 5   0  0.1435806E-07  0.3383421E+04  0.7818609E-02  0.8141987E-01
       -1   -1    0    0    0  501  0.00000000000E+00  0.00000000000E+00  0.21611985806E+04  0.21611985806E+04  0.50400001928E-02 0.  1.
        1   -1    0    0  501    0  0.00000000000E+00  0.00000000000E+00 -0.13242115977E+04  0.13242115977E+04  0.50400001928E-02 0. -1.
    10030    2    1    2    0    0  0.00000000000E+00  0.00000000000E+00  0.83698698294E+03  0.34854101783E+04  0.33834208874E+04 0.  0.
        3    1    3    3  502    0  0.45209371715E+03  0.78856147692E+03 -0.10512825399E+04  0.13897528273E+04  0.10100000352E+00 0. -1.
       -3    1    3    3    0  502 -0.45209371715E+03 -0.78856147692E+03  0.18882695228E+04  0.20956573511E+04  0.10100000352E+00 0.  1.
</event>
<event>
 5   0  0.1523259E-07  0.3401944E+04  0.7818609E-02  0.8137429E-01
       -1   -1    0    0    0  501  0.00000000000E+00  0.00000000000E+00  0.15708459363E+04  0.15708459363E+04  0.50400001928E-02 0.  1.
        1   -1    0    0  501    0  0.00000000000E+00  0.00000000000E+00 -0.18418773041E+04  0.18418773041E+04  0.50400001928E-02 0. -1.
    10030    2    1    2    0    0  0.00000000000E+00  0.00000000000E+00 -0.27103136784E+03  0.34127232404E+04  0.34019438433E+04 0.  0.
        4    1    3    3  502    0 -0.29794528357E+03 -0.15766013829E+04  0.43095094079E+03  0.16613740213E+04  0.12699999809E+01 0.  1.
       -4    1    3    3    0  502  0.29794528357E+03  0.15766013829E+04 -0.70198230863E+03  0.17513492190E+04  0.12699999809E+01 0. -1.
</event>
<event>
 5   0  0.1523259E-07  0.3440450E+04  0.7818609E-02  0.8128049E-01
       -1   -1    0    0    0  501  0.00000000000E+00  0.00000000000E+00  0.29882971133E+04  0.29882971133E+04  0.50400001928E-02 0. -1.
        1   -1    0    0  501    0  0.00000000000E+00  0.00000000000E+00 -0.99025443425E+03  0.99025443426E+03  0.50400001928E-02 0.  1.
    10030    2    1    2    0    0  0.00000000000E+00  0.00000000000E+00  0.19980426791E+04  0.39785515476E+04  0.34404502422E+04 0.  0.
        4    1    3    3  502    0 -0.67391452773E+03 -0.37653933164E+03  0.27767387330E+04  0.28820517454E+04  0.12699999809E+01 0. -1.
       -4    1    3    3    0  502  0.67391452773E+03  0.37653933164E+03 -0.77869605390E+03  0.10964998022E+04  0.12699999809E+01 0.  1.
</event>
<event>
 5   0  0.4486226E-07  0.3407896E+04  0.7818609E-02  0.8135971E-01
        2   -1    0    0  501    0  0.00000000000E+00  0.00000000000E+00  0.22457880137E+04  0.22457880137E+04  0.25500000920E-02 0.  1.
       -2   -1    0    0    0  501  0.00000000000E+00  0.00000000000E+00 -0.12928375625E+04  0.12928375625E+04  0.25500000920E-02 0. -1.
    10030    2    1    2    0    0  0.00000000000E+00  0.00000000000E+00  0.95295045117E+03  0.35386255762E+04  0.34078961848E+04 0.  0.
        1    1    3    3  502    0  0.50176090717E+03 -0.90317234709E+03 -0.93047666989E+03  0.13904212059E+04  0.50400001928E-02 0. -1.
       -1    1    3    3    0  502 -0.50176090717E+03  0.90317234709E+03  0.18834271211E+04  0.21482043704E+04  0.50400001928E-02 0.  1.
</event>
<event>
 5   0  0.4396257E-07  0.3395518E+04  0.7818609E-02  0.8139007E-01
        2   -1    0    0  501    0  0.00000000000E+00  0.00000000000E+00  0.27063882686E+04  0.27063882686E+04  0.25500000920E-02 0.  1.
       -2   -1    0    0    0  501  0.00000000000E+00  0.00000000000E+00 -0.10650300880E+04  0.10650300881E+04  0.25500000920E-02 0. -1.
    10030    2    1    2    0    0  0.00000000000E+00  0.00000000000E+00  0.16413581806E+04  0.37714183567E+04  0.33955175959E+04 0.  0.
        2    1    3    3  502    0  0.35179750578E+03  0.14206542721E+04  0.17763791935E+04  0.23016392169E+04  0.25500000920E-02 0.  1.
       -2    1    3    3    0  502 -0.35179750578E+03 -0.14206542721E+04 -0.13502101289E+03  0.14697791398E+04  0.25500000920E-02 0. -1.
</event>
<event>
 5   0  0.4381939E-07  0.3385078E+04  0.7818609E-02  0.8141578E-01
       -2   -1    0    0    0  501  0.00000000000E+00  0.00000000000E+00  0.17437811607E+04  0.17437811607E+04  0.25500000920E-02 0. -1.
        2   -1    0    0  501    0  0.00000000000E+00  0.00000000000E+00 -0.16428025493E+04  0.16428025493E+04  0.25500000920E-02 0.  1.
    10030    2    1    2    0    0  0.00000000000E+00  0.00000000000E+00  0.10097861143E+03  0.33865837100E+04  0.33850779230E+04 0.  0.
        3    1    3    3  502    0 -0.65565504623E+03 -0.46599872976E+03 -0.14393506746E+04  0.16488689246E+04  0.10100000352E+00 0.  1.
       -3    1    3    3    0  502  0.65565504623E+03  0.46599872976E+03  0.15403292860E+04  0.17377147854E+04  0.10100000352E+00 0. -1.
</event>
<event>
 5   0  0.4447909E-07  0.3380813E+04  0.7818609E-02  0.8142631E-01
        2   -1    0    0  501    0  0.00000000000E+00  0.00000000000E+00  0.14151112483E+04  0.14151112483E+04  0.25500000920E-02 0. -1.
       -2   -1    0    0    0  501  0.00000000000E+00  0.00000000000E+00 -0.20192579608E+04  0.20192579608E+04  0.25500000920E-02 0.  1.
    10030    2    1    2    0    0  0.00000000000E+00  0.00000000000E+00 -0.60414671246E+03  0.34343692091E+04  0.33808133066E+04 0.  0.
        5    1    3    3  502    0  0.13852688843E+03 -0.31080308068E+03 -0.19841002369E+04  0.20130732957E+04  0.46999998093E+01 0.  1.
       -5    1    3    3    0  502 -0.13852688843E+03  0.31080308068E+03  0.13799535245E+04  0.14212959134E+04  0.46999998093E+01 0. -1.
</event>
<event>
 5   0  0.1421875E-07  0.3403035E+04  0.7818609E-02  0.8137162E-01
       -1   -1    0    0    0  501  0.00000000000E+00  0.00000000000E+00  0.10255415392E+04  0.10255415392E+04  0.50400001928E-02 0.  1.
        1   -1    0    0  501    0  0.00000000000E+00  0.00000000000E+00 -0.28230562911E+04  0.28230562911E+04  0.50400001928E-02 0. -1.
    10030    2    1    2    0    0  0.00000000000E+00  0.00000000000E+00 -0.17975147520E+04  0.38485978303E+04  0.34030348185E+04 0.  0.
        5    1    3    3  502    0 -0.77250453978E+03 -0.75041786395E+03  0.59100520133E+03  0.12284947995E+04  0.46999998093E+01 0.  1.
       -5    1    3    3    0  502  0.77250453978E+03  0.75041786395E+03 -0.23885199533E+04  0.26201030308E+04  0.46999998093E+01 0. -1.
</event>
<event>
 5   0  0.1520084E-07  0.3406956E+04  0.7818609E-02  0.8136201E-01
       -1   -1    0    0    0  501  0.00000000000E+00  0.00000000000E+00  0.11859893305E+04  0.11859893305E+04  0.50400001928E-02 0.  1.
        1   -1    0    0  501    0  0.00000000000E+00  0.00000000000E+00 -0.24467653128E+04  0.24467653128E+04  0.50400001928E-02 0. -1.
    10030    2    1    2    0    0  0.00000000000E+00  0.00000000000E+00 -0.12607759823E+04  0.36327546433E+04  0.34069561519E+04 0.  0.
        2    1    3    3  502    0 -0.16397680073E+02  0.62794466173E+03  0.10579861961E+04  0.12304138220E+04  0.25500000920E-02 0.  1.
       -2    1    3    3    0  502  0.16397680073E+02 -0.62794466173E+03 -0.23187621784E+04  0.24023408214E+04  0.25500000920E-02 0. -1.
</event>
<event>
 5   0  0.1421875E-07  0.3413489E+04  0.7818609E-02  0.8134604E-01
       -1   -1    0    0    0  501  0.00000000000E+00  0.00000000000E+00  0.22432160514E+04  0.22432160514E+04  0.50400001928E-02 0. -1.
        1   -1    0    0  501    0  0.00000000000E+00  0.00000000000E+00 -0.12985717062E+04  0.12985717062E+04  0.50400001928E-02 0.  1.
    10030    2    1    2    0    0  0.00000000000E+00  0.00000000000E+00  0.94464434524E+03  0.35417877576E+04  0.34134890627E+04 0.  0.
        5    1    3    3  502    0  0.75228498093E+03  0.20602753042E+03  0.20474631079E+04  0.21910060028E+04  0.46999998093E+01 0. -1.
       -5    1    3    3    0  502 -0.75228498093E+03 -0.20602753042E+03 -0.11028187627E+04  0.13507817548E+04  0.46999998093E+01 0.  1.
</event>
<event>
 5   0  0.4396257E-07  0.3407462E+04  0.7818609E-02  0.8136077E-01
        2   -1    0    0  501    0  0.00000000000E+00  0.00000000000E+00  0.16318303998E+04  0.16318303998E+04  0.25500000920E-02 0. -1.
       -2   -1    0    0    0  501  0.00000000000E+00  0.00000000000E+00 -0.17787999215E+04  0.17787999215E+04  0.25500000920E-02 0.  1.
    10030    2    1    2    0    0  0.00000000000E+00  0.00000000000E+00 -0.14696952178E+03  0.34106303213E+04  0.34074622739E+04 0.  0.
        2    1    3    3  502    0 -0.16754786861E+04 -0.27102720423E+03 -0.22199795817E+03  0.17117148321E+04  0.25500000920E-02 0.  1.
       -2    1    3    3    0  502  0.16754786861E+04  0.27102720423E+03  0.75028436385E+02  0.16989154892E+04  0.25500000920E-02 0. -1.
</event>
<event>
 5   0  0.4486226E-07  0.3403542E+04  0.7818609E-02  0.8137038E-01
       -2   -1    0    0    0  501  0.00000000000E+00  0.00000000000E+00  0.12142530184E+04  0.12142530185E+04  0.25500000920E-02 0.  1.
        2   -1    0    0  501    0  0.00000000000E+00  0.00000000000E+00 -0.23850251698E+04  0.23850251698E+04  0.25500000920E-02 0. -1.
    10030    2    1    2    0    0  0.00000000000E+00  0.00000000000E+00 -0.11707721514E+04  0.35992781883E+04  0.34035416915E+04 0.  0.
        1    1    3    3  502    0 -0.93480699512E+03  0.12790222790E+04 -0.12426280291E+04  0.20134265636E+04  0.50400001928E-02 0.  1.
       -1    1    3    3    0  502  0.93480699512E+03 -0.12790222790E+04  0.71855877723E+02  0.15858516247E+04  0.50400001928E-02 0. -1.
</event>
<event>
 5   0  0.4486226E-07  0.3398120E+04  0.7818609E-02  0.8138368E-01
        2   -1    0    0  501    0  0.00000000000E+00  0.00000000000E+00  0.16746466339E+04  0.16746466339E+04  0.25500000920E-02 0. -1.
       -2   -1    0    0    0  501  0.00000000000E+00  0.00000000000E+00 -0.17238296701E+04  0.17238296701E+04  0.25500000920E-02 0.  1.
    10030    2    1    2    0    0  0.00000000000E+00  0.00000000000E+00 -0.49183036205E+02  0.33984763040E+04  0.33981203948E+04 0.  0.
        1    1    3    3  502    0 -0.13492082007E+04  0.87010902382E+03 -0.58084494680E+03  0.17072882986E+04  0.50400001928E-02 0. -1.
       -1    1    3    3    0  502  0.13492082007E+04 -0.87010902382E+03  0.53166191059E+03  0.16911880054E+04  0.50400001928E-02 0.  1.
</event>
<event>
 5   0  0.4381939E-07  0.3405899E+04  0.7818609E-02  0.8136460E-01
        2   -1    0    0  501    0  0.00000000000E+00  0.00000000000E+00  0.17827788209E+04  0.17827788209E+04  0.25500000920E-02 0.  1.
       -2   -1    0    0    0  501  0.00000000000E+00  0.00000000000E+00 -0.16266943794E+04  0.16266943794E+04  0.25500000920E-02 0. -1.
    10030    2    1    2    0    0  0.00000000000E+00  0.00000000000E+00  0.15608444143E+03  0.34094732003E+04  0.34058985820E+04 0.  0.
        3    1    3    3  502    0  0.15785263785E+04  0.53269951710E+03  0.43128929058E+03  0.17209081224E+04  0.10100000352E+00 0.  1.
       -3    1    3    3    0  502 -0.15785263785E+04 -0.53269951710E+03 -0.27520484915E+03  0.16885650779E+04  0.10100000352E+00 0. -1.
</event>
<event>
 5   0  0.1523259E-07  0.3395937E+04  0.7818609E-02  0.8138904E-01
       -1   -1    0    0    0  501  0.00000000000E+00  0.00000000000E+00  0.18348327567E+04  0.18348327568E+04  0.50400001928E-02 0.  1.
        1   -1    0    0  501    0  0.00000000000E+00  0.00000000000E+00 -0.15713136814E+04  0.15713136814E+04  0.50400001928E-02 0. -1.
    10030    2    1    2    0    0  0.00000000000E+00  0.00000000000E+00  0.26351907539E+03  0.34061464381E+04  0.33959374633E+04 0.  0.
        4    1    3    3  502    0  0.99238951014E+03 -0.10223993357E+03  0.15098646439E+04  0.18096913548E+04  0.12699999809E+01 0.  1.
       -4    1    3    3    0  502 -0.99238951014E+03  0.10223993357E+03 -0.12463455685E+04  0.15964550833E+04  0.12699999809E+01 0. -1.
</event>
<event>
 5   0  0.4381939E-07  0.3397227E+04  0.7818609E-02  0.8138587E-01
        2   -1    0    0  501    0  0.00000000000E+00  0.00000000000E+00  0.18070001634E+04  0.18070001634E+04  0.25500000920E-02 0.  1.
       -2   -1    0    0    0  501  0.00000000000E+00  0.00000000000E+00 -0.15967276549E+04  0.15967276549E+04  0.25500000920E-02 0. -1.
    10030    2    1    2    0    0  0.00000000000E+00  0.00000000000E+00  0.21027250852E+03  0.34037278183E+04  0.33972265943E+04 0.  0.
        3    1    3    3  502    0 -0.12596400632E+04 -0.10138312317E+04 -0.41618656614E+03  0.16696580857E+04  0.10100000352E+00 0. -1.
       -3    1    3    3    0  502  0.12596400632E+04  0.10138312317E+04  0.62645907466E+03  0.17340697326E+04  0.10100000352E+00 0.  1.
</event>
<event>
 5   0  0.1520084E-07  0.3397206E+04  0.7818609E-02  0.8138592E-01
       -1   -1    0    0    0  501  0.00000000000E+00  0.00000000000E+00  0.13698361612E+04  0.13698361612E+04  0.50400001928E-02 0.  1.
        1   -1    0    0  501    0  0.00000000000E+00  0.00000000000E+00 -0.21062752486E+04  0.21062752486E+04  0.50400001928E-02 0. -1.
    10030    2    1    2    0    0  0.00000000000E+00  0.00000000000E+00 -0.73643908739E+03  0.34761114097E+04  0.33972059113E+04 0.  0.
        2    1    3    3  502    0  0.11861985409E+04  0.11640271722E+04 -0.72740817080E+03  0.18141523869E+04  0.25500000920E-02 0. -1.
       -2    1    3    3    0  502 -0.11861985409E+04 -0.11640271722E+04 -0.90309165888E+01  0.16619590228E+04  0.25500000920E-02 0.  1.
</event>
<event>
 5   0  0.4447909E-07  0.3403835E+04  0.7818609E-02  0.8136966E-01
       -2   -1    0    0    0  501  0.00000000000E+00  0.00000000000E+00  0.13543681987E+04  0.13543681987E+04  0.25500000920E-02 0. -1.
        2   -1    0    0  501    0  0.00000000000E+00  0.00000000000E+00 -0.21386528572E+04  0.21386528572E+04  0.25500000920E-02 0.  1.
    10030    2    1    2    0    0  0.00000000000E+00  0.00000000000E+00 -0.78428465856E+03  0.34930210559E+04  0.34038351417E+04 0.  0.
        5    1    3    3  502    0 -0.11291475193E+04 -0.68545745277E+03  0.70913756351E+03  0.14992412127E+04  0.46999998093E+01 0. -1.
       -5    1    3    3    0  502  0.11291475193E+04  0.68545745277E+03 -0.14934222221E+04  0.19937798432E+04  0.46999998093E+01 0.  1.
</event>
<event>
 5   0  0.4381939E-07  0.3396264E+04  0.7818609E-02  0.8138824E-01
        2   -1    0    0  501    0  0.00000000000E+00  0.00000000000E+00  0.30025545573E+04  0.30025545573E+04  0.25500000920E-02 0.  1.
       -2   -1    0    0    0  501  0.00000000000E+00  0.00000000000E+00 -0.96039981801E+03  0.96039981802E+03  0.25500000920E-02 0. -1.
    10030    2    1    2    0    0  0.00000000000E+00  0.00000000000E+00  0.20421547393E+04  0.39629543753E+04  0.33962643303E+04 0.  0.
        3    1    3    3  502    0  0.13893453051E+03 -0.45639341717E+03  0.29227516264E+04  0.29614312139E+04  0.10100000352E+00 0.  1.
       -3    1    3    3    0  502 -0.13893453051E+03  0.45639341717E+03 -0.88059688711E+03  0.10015231614E+04  0.10100000352E+00 0. -1.
</event>
<event>
 5   0  0.1520084E-07  0.3396589E+04  0.7818609E-02  0.8138744E-01
       -1   -1    0    0    0  501  0.00000000000E+00  0.00000000000E+00  0.13493285049E+04  0.13493285049E+04  0.50400001928E-02 0. -1.
        1   -1    0    0  501    0  0.00000000000E+00  0.00000000000E+00 -0.21375105945E+04  0.21375105945E+04  0.50400001928E-02 0.  1.
    10030    2    1    2    0    0  0.00000000000E+00  0.00000000000E+00 -0.78818208962E+03  0.34868390995E+04  0.33965888622E+04 0.  0.
        2    1    3    3  502    0  0.16301473631E+04  0.47598969649E+03 -0.37762239405E+03  0.17396968957E+04  0.25500000920E-02 0. -1.
       -2    1    3    3    0  502 -0.16301473631E+04 -0.47598969649E+03 -0.41055969558E+03  0.17471422037E+04  0.25500000920E-02 0.  1.
</event>
<event>
 5   0  0.1520084E-07  0.3213313E+04  0.7818609E-02  0.8185310E-01
        1   -1    0    0  501    0  0.00000000000E+00  0.00000000000E+00  0.18241319149E+04  0.18241319149E+04  0.50400001928E-02 0.  1.
       -1   -1    0    0    0  501  0.00000000000E+00  0.00000000000E+00 -0.14151085117E+04  0.14151085117E+04  0.50400001928E-02 0. -1.
    10030    2    1    2    0    0  0.00000000000E+00  0.00000000000E+00  0.40902340318E+03  0.32392404266E+04  0.32133126827E+04 0.  0.
        2    1    3    3  502    0  0.10052880652E+04 -0.20081918015E+03 -0.10425685443E+04  0.14621496526E+04  0.25500000920E-02 0. -1.
       -2    1    3    3    0  502 -0.10052880652E+04  0.20081918015E+03  0.14515919475E+04  0.17770907740E+04  0.25500000920E-02 0.  1.
</event>
<event>
 5   0  0.1421875E-07  0.3394745E+04  0.7818609E-02  0.8139197E-01
       -3   -1    0    0    0  501  0.00000000000E+00  0.00000000000E+00  0.10016947107E+04  0.10016947158E+04  0.10100000352E+00 0.  1.
        3   -1    0    0  501    0  0.00000000000E+00  0.00000000000E+00 -0.28761992942E+04  0.28761992960E+04  0.10100000352E+00 0. -1.
    10030    2    1    2    0    0  0.00000000000E+00  0.00000000000E+00 -0.18745045836E+04  0.38778940118E+04  0.33947451352E+04 0.  0.
        2    1    3    3  502    0  0.17737388491E+03 -0.15018218165E+04 -0.18177624849E+04  0.23645698795E+04  0.25500000920E-02 0. -1.
       -2    1    3    3    0  502 -0.17737388491E+03  0.15018218165E+04 -0.56742098651E+02  0.15133241323E+04  0.25500000920E-02 0.  1.
</event>
<event>
 5   0  0.4396257E-07  0.3401450E+04  0.7818609E-02  0.8137551E-01
        2   -1    0    0  501    0  0.00000000000E+00  0.00000000000E+00  0.10737092658E+04  0.10737092658E+04  0.25500000920E-02 0. -1.
       -2   -1    0    0    0  501  0.00000000000E+00  0.00000000000E+00 -0.26938997915E+04  0.26938997915E+04  0.25500000920E-02 0.  1.
    10030    2    1    2    0    0  0.00000000000E+00  0.00000000000E+00 -0.16201905257E+04  0.37676090573E+04  0.34014497893E+04 0.  0.
        2    1    3    3  502    0 -0.37028020215E+03 -0.13150321367E+04 -0.19320766521E+04  0.23662918540E+04  0.25500000920E-02 0.  1.
       -2    1    3    3    0  502  0.37028020215E+03  0.13150321367E+04  0.31188612635E+03  0.14013172034E+04  0.25500000920E-02 0. -1.
</event>
<event>
 5   0  0.4396257E-07  0.3418460E+04  0.7818609E-02  0.8133391E-01
        2   -1    0    0  501    0  0.00000000000E+00  0.00000000000E+00  0.20333677815E+04  0.20333677815E+04  0.25500000920E-02 0.  1.
       -2   -1    0    0    0  501  0.00000000000E+00  0.00000000000E+00 -0.14367623862E+04  0.14367623862E+04  0.25500000920E-02 0. -1.
    10030    2    1    2    0    0  0.00000000000E+00  0.00000000000E+00  0.59660539524E+03  0.34701301677E+04  0.34184595044E+04 0.  0.
        2    1    3    3  502    0 -0.14703872324E+03 -0.53713490461E+03 -0.13420845189E+04  0.14530399677E+04  0.25500000920E-02 0. -1.
       -2    1    3    3    0  502  0.14703872324E+03  0.53713490461E+03  0.19386899141E+04  0.20170902000E+04  0.25500000920E-02 0.  1.
</event>
<event>
 5   0  0.1435806E-07  0.3383469E+04  0.7818609E-02  0.8141976E-01
       -1   -1    0    0    0  501  0.00000000000E+00  0.00000000000E+00  0.11716255990E+04  0.11716255990E+04  0.50400001928E-02 0.  1.
        1   -1    0    0  501    0  0.00000000000E+00  0.00000000000E+00 -0.24427303184E+04  0.24427303184E+04  0.50400001928E-02 0. -1.
    10030    2    1    2    0    0  0.00000000000E+00  0.00000000000E+00 -0.12711047195E+04  0.36143559174E+04  0.33834688546E+04 0.  0.
        3    1    3    3  502    0 -0.29521317921E+03  0.16063029810E+04 -0.16430813908E+03  0.16414497442E+04  0.10100000352E+00 0. -1.
       -3    1    3    3    0  502  0.29521317921E+03 -0.16063029810E+04 -0.11067965804E+04  0.19729061732E+04  0.10100000352E+00 0.  1.
</event>
<event>
 5   0  0.4521737E-07  0.3385268E+04  0.7818609E-02  0.8141532E-01
       -2   -1    0    0    0  501  0.00000000000E+00  0.00000000000E+00  0.14885088389E+04  0.14885088389E+04  0.25500000920E-02 0. -1.
        2   -1    0    0  501    0  0.00000000000E+00  0.00000000000E+00 -0.19247513156E+04  0.19247513156E+04  0.25500000920E-02 0.  1.
    10030    2    1    2    0    0  0.00000000000E+00  0.00000000000E+00 -0.43624247674E+03  0.34132601544E+04  0.33852676975E+04 0.  0.
        4    1    3    3  502    0 -0.65959221798E+03 -0.15335308743E+04 -0.50012829515E+03  0.17426728783E+04  0.12699999809E+01 0. -1.
       -4    1    3    3    0  502  0.65959221798E+03  0.15335308743E+04  0.63885818415E+02  0.16705872761E+04  0.12699999809E+01 0.  1.
</event>
<event>
 5   0  0.1473755E-07  0.3410376E+04  0.7818609E-02  0.8135364E-01
       -1   -1    0    0    0  501  0.00000000000E+00  0.00000000000E+00  0.16033418843E+04  0.16033418843E+04  0.50400001928E-02 0. -1.
        1   -1    0    0  501    0  0.00000000000E+00  0.00000000000E+00 -0.18135038779E+04  0.18135038779E+04  0.50400001928E-02 0.  1.
    10030    2    1    2    0    0  0.00000000000E+00  0.00000000000E+00 -0.21016199356E+03  0.34168457622E+04  0.34103763574E+04 0.  0.
        1    1    3    3  502    0 -0.14284374309E+04 -0.77941527643E+02  0.82466555084E+03  0.16512363993E+04  0.50400001928E-02 0. -1.
       -1    1    3    3    0  502  0.14284374309E+04  0.77941527643E+02 -0.10348275444E+04  0.17656093629E+04  0.50400001928E-02 0.  1.
</event>
<event>
 5   0  0.4396257E-07  0.3392223E+04  0.7818609E-02  0.8139818E-01
       -2   -1    0    0    0  501  0.00000000000E+00  0.00000000000E+00  0.12847234768E+04  0.12847234768E+04  0.25500000920E-02 0. -1.
        2   -1    0    0  501    0  0.00000000000E+00  0.00000000000E+00 -0.22392319648E+04  0.22392319648E+04  0.25500000920E-02 0.  1.
    10030    2    1    2    0    0  0.00000000000E+00  0.00000000000E+00 -0.95450848802E+03  0.35239554416E+04  0.33922227964E+04 0.  0.
        2    1    3    3  502    0 -0.45746801505E+03 -0.40159004714E+02 -0.21734200545E+04  0.22214059656E+04  0.25500000920E-02 0.  1.
       -2    1    3    3    0  502  0.45746801505E+03  0.40159004714E+02  0.12189115665E+04  0.13025494760E+04  0.25500000920E-02 0. -1.
</event>
<event>
 5   0  0.1421875E-07  0.3415264E+04  0.7818609E-02  0.8134170E-01
       -1   -1    0    0    0  501  0.00000000000E+00  0.00000000000E+00  0.24689618095E+04  0.24689618095E+04  0.50400001928E-02 0. -1.
        1   -1    0    0  501    0  0.00000000000E+00  0.00000000000E+00 -0.11810658087E+04  0.11810658087E+04  0.50400001928E-02 0.  1.
    10030    2    1    2    0    0  0.00000000000E+00  0.00000000000E+00  0.12878960008E+04  0.36500276182E+04  0.34152636070E+04 0.  0.
        5    1    3    3  502    0 -0.61073033573E+03 -0.95845220540E+03 -0.71816565240E+03  0.13443980688E+04  0.46999998093E+01 0.  1.
       -5    1    3    3    0  502  0.61073033573E+03  0.95845220540E+03  0.20060616532E+04  0.23056295495E+04  0.46999998093E+01 0. -1.
</event>
<event>
 5   0  0.4486226E-07  0.3405853E+04  0.7818609E-02  0.8136471E-01
       -2   -1    0    0    0  501  0.00000000000E+00  0.00000000000E+00  0.12854497936E+04  0.12854497936E+04  0.25500000920E-02 0.  1.
        2   -1    0    0  501    0  0.00000000000E+00  0.00000000000E+00 -0.22559871555E+04  0.22559871555E+04  0.25500000920E-02 0. -1.
    10030    2    1    2    0    0  0.00000000000E+00  0.00000000000E+00 -0.97053736186E+03  0.35414369490E+04  0.34058527410E+04 0.  0.
        1    1    3    3  502    0  0.14101158160E+04  0.85065312383E+03 -0.34513054149E+02  0.16471880593E+04  0.50400001928E-02 0.  1.
       -1    1    3    3    0  502 -0.14101158160E+04 -0.85065312383E+03 -0.93602430771E+03  0.18942488898E+04  0.50400001928E-02 0. -1.
</event>
<event>
 5   0  0.4447909E-07  0.3395955E+04  0.7818609E-02  0.8138900E-01
        2   -1    0    0  501    0  0.00000000000E+00  0.00000000000E+00  0.34567217835E+04  0.34567217835E+04  0.25500000920E-02 0.  1.
       -2   -1    0    0    0  501  0.00000000000E+00  0.00000000000E+00 -0.83406421260E+03  0.83406421260E+03  0.25500000920E-02 0. -1.
    10030    2    1    2    0    0  0.00000000000E+00  0.00000000000E+00  0.26226575709E+04  0.42907859961E+04  0.33959552014E+04 0.  0.
        5    1    3    3  502    0  0.97619990406E+03 -0.80795579334E+03 -0.11667497993E+03  0.12725541079E+04  0.46999998093E+01 0. -1.
       -5    1    3    3    0  502 -0.97619990406E+03  0.80795579334E+03  0.27393325508E+04  0.30182318881E+04  0.46999998093E+01 0.  1.
</event>
<event>
 5   0  0.1435806E-07  0.3405698E+04  0.7818609E-02  0.8136509E-01
       -1   -1    0    0    0  501  0.00000000000E+00  0.00000000000E+00  0.14520259095E+04  0.14520259095E+04  0.50400001928E-02 0.  1.
        1   -1    0    0  501    0  0.00000000000E+00  0.00000000000E+00 -0.19969994596E+04  0.19969994596E+04  0.50400001928E-02 0. -1.
    10030    2    1    2    0    0  0.00000000000E+00  0.00000000000E+00 -0.54497355007E+03  0.34490253691E+04  0.34056981408E+04 0.  0.
        3    1    3    3  502    0  0.24752385601E+03  0.14618592671E+04 -0.11206342517E+04  0.18585267586E+04  0.10100000352E+00 0. -1.
       -3    1    3    3    0  502 -0.24752385601E+03 -0.14618592671E+04  0.57566070165E+03  0.15904986104E+04  0.10100000352E+00 0.  1.
</event>
<event>
 5   0  0.1523259E-07  0.3406666E+04  0.7818609E-02  0.8136272E-01
       -1   -1    0    0    0  501  0.00000000000E+00  0.00000000000E+00  0.14580796185E+04  0.14580796186E+04  0.50400001928E-02 0.  1.
        1   -1    0    0  501    0  0.00000000000E+00  0.00000000000E+00 -0.19898389627E+04  0.19898389627E+04  0.50400001928E-02 0. -1.
    10030    2    1    2    0    0  0.00000000000E+00  0.00000000000E+00 -0.53175934417E+03  0.34479185813E+04  0.34066661919E+04 0.  0.
        4    1    3    3  502    0 -0.96242922010E+03 -0.12473566107E+04 -0.92115577997E+03  0.18250200278E+04  0.12699999809E+01 0. -1.
       -4    1    3    3    0  502  0.96242922010E+03  0.12473566107E+04  0.38939643580E+03  0.16228985535E+04  0.12699999809E+01 0.  1.
</event>
<event>
 5   0  0.1523259E-07  0.3399982E+04  0.7818609E-02  0.8137911E-01
       -1   -1    0    0    0  501  0.00000000000E+00  0.00000000000E+00  0.10637958418E+04  0.10637958419E+04  0.50400001928E-02 0. -1.
        1   -1    0    0  501    0  0.00000000000E+00  0.00000000000E+00 -0.27166571311E+04  0.27166571311E+04  0.50400001928E-02 0.  1.
    10030    2    1    2    0    0  0.00000000000E+00  0.00000000000E+00 -0.16528612893E+04  0.37804529730E+04  0.33999815057E+04 0.  0.
        4    1    3    3  502    0 -0.34143576896E+03 -0.81524547814E+03 -0.24410911040E+04  0.25961762200E+04  0.12699999809E+01 0.  1.
       -4    1    3    3    0  502  0.34143576896E+03  0.81524547814E+03  0.78822981477E+03  0.11842767530E+04  0.12699999809E+01 0. -1.
</event>
<event>
 5   0  0.4396257E-07  0.3477598E+04  0.7818609E-02  0.8119120E-01
       -2   -1    0    0    0  501  0.00000000000E+00  0.00000000000E+00  0.11853360234E+04  0.11853360234E+04  0.25500000920E-02 0. -1.
        2   -1    0    0  501    0  0.00000000000E+00  0.00000000000E+00 -0.25506873652E+04  0.25506873652E+04  0.25500000920E-02 0.  1.
    10030    2    1    2    0    0  0.00000000000E+00  0.00000000000E+00 -0.13653513417E+04  0.37360233886E+04  0.34775978022E+04 0.  0.
        2    1    3    3  502    0  0.43473952693E+03  0.30065165362E+03  0.10969341729E+04  0.12176429907E+04  0.25500000920E-02 0. -1.
       -2    1    3    3    0  502 -0.43473952693E+03 -0.30065165362E+03 -0.24622855146E+04  0.25183803979E+04  0.25500000920E-02 0.  1.
</event>
<event>
 5   0  0.4396257E-07  0.3402028E+04  0.7818609E-02  0.8137409E-01
       -2   -1    0    0    0  501  0.00000000000E+00  0.00000000000E+00  0.12497951703E+04  0.12497951703E+04  0.25500000920E-02 0.  1.
        2   -1    0    0  501    0  0.00000000000E+00  0.00000000000E+00 -0.23151382446E+04  0.23151382446E+04  0.25500000920E-02 0. -1.
    10030    2    1    2    0    0  0.00000000000E+00  0.00000000000E+00 -0.10653430743E+04  0.35649334149E+04  0.34020279815E+04 0.  0.
        2    1    3    3  502    0  0.52873259107E+02 -0.40017690927E+03 -0.22642235550E+04  0.22999229220E+04  0.25500000920E-02 0. -1.
       -2    1    3    3    0  502 -0.52873259107E+02  0.40017690927E+03  0.11988804807E+04  0.12650104929E+04  0.25500000920E-02 0.  1.
</event>
<event>
 5   0  0.4521737E-07  0.3402448E+04  0.7818609E-02  0.8137306E-01
       -2   -1    0    0    0  501  0.00000000000E+00  0.00000000000E+00  0.14884475700E+04  0.14884475700E+04  0.25500000920E-02 0.  1.
        2   -1    0    0  501    0  0.00000000000E+00  0.00000000000E+00 -0.19444176521E+04  0.19444176521E+04  0.25500000920E-02 0. -1.
    10030    2    1    2    0    0  0.00000000000E+00  0.00000000000E+00 -0.45597008210E+03  0.34328652220E+04  0.34024483709E+04 0.  0.
        4    1    3    3  502    0 -0.66736458629E+02 -0.16281715564E+04  0.26501983933E+03  0.16509492724E+04  0.12699999809E+01 0. -1.
       -4    1    3    3    0  502  0.66736458629E+02  0.16281715564E+04 -0.72098992142E+03  0.17819159496E+04  0.12699999809E+01 0.  1.
</event>
<event>
 5   0  0.4447909E-07  0.3352608E+04  0.7818609E-02  0.8149637E-01
       -2   -1    0    0    0  501  0.00000000000E+00  0.00000000000E+00  0.16392214903E+04  0.16392214903E+04  0.25500000920E-02 0.  1.
        2   -1    0    0  501    0  0.00000000000E+00  0.00000000000E+00 -0.17142250898E+04  0.17142250898E+04  0.25500000920E-02 0. -1.
    10030    2    1    2    0    0  0.00000000000E+00  0.00000000000E+00 -0.75003599527E+02  0.33534465801E+04  0.33526077053E+04 0.  0.
        5    1    3    3  502    0  0.83753453658E+03  0.40054359596E+03  0.13585813793E+04  0.16454983216E+04  0.46999998093E+01 0.  1.
       -5    1    3    3    0  502 -0.83753453658E+03 -0.40054359596E+03 -0.14335849788E+04  0.17079482585E+04  0.46999998093E+01 0. -1.
</event>
<event>
 5   0  0.4396257E-07  0.3397666E+04  0.7818609E-02  0.8138479E-01
       -2   -1    0    0    0  501  0.00000000000E+00  0.00000000000E+00  0.10543168246E+04  0.10543168246E+04  0.25500000920E-02 0.  1.
        2   -1    0    0  501    0  0.00000000000E+00  0.00000000000E+00 -0.27373495275E+04  0.27373495275E+04  0.25500000920E-02 0. -1.
    10030    2    1    2    0    0  0.00000000000E+00  0.00000000000E+00 -0.16830327029E+04  0.37916663520E+04  0.33976660586E+04 0.  0.
        2    1    3    3  502    0 -0.10278382261E+04 -0.58268717491E+03  0.52071538748E+03  0.12911701195E+04  0.25500000920E-02 0.  1.
       -2    1    3    3    0  502  0.10278382261E+04  0.58268717491E+03 -0.22037480904E+04  0.25004962325E+04  0.25500000920E-02 0. -1.
</event>
<event>
 5   0  0.4486226E-07  0.3399208E+04  0.7818609E-02  0.8138101E-01
        2   -1    0    0  501    0  0.00000000000E+00  0.00000000000E+00  0.21583150610E+04  0.21583150610E+04  0.25500000920E-02 0. -1.
       -2   -1    0    0    0  501  0.00000000000E+00  0.00000000000E+00 -0.13383834882E+04  0.13383834882E+04  0.25500000920E-02 0.  1.
    10030    2    1    2    0    0  0.00000000000E+00  0.00000000000E+00  0.81993157280E+03  0.34966985493E+04  0.33992076960E+04 0.  0.
        1    1    3    3  502    0 -0.15523618335E+04 -0.55077060145E+03  0.84088066197E+03  0.18493933614E+04  0.50400001928E-02 0. -1.
       -1    1    3    3    0  502  0.15523618335E+04  0.55077060145E+03 -0.20949089172E+02  0.16473051879E+04  0.50400001928E-02 0.  1.
</event>
<event>
 5   0  0.4521737E-07  0.3431233E+04  0.7818609E-02  0.8130283E-01
        2   -1    0    0  501    0  0.00000000000E+00  0.00000000000E+00  0.17217536279E+04  0.17217536279E+04  0.25500000920E-02 0. -1.
       -2   -1    0    0    0  501  0.00000000000E+00  0.00000000000E+00 -0.17095008472E+04  0.17095008472E+04  0.25500000920E-02 0.  1.
    10030    2    1    2    0    0  0.00000000000E+00  0.00000000000E+00  0.12252780718E+02  0.34312544751E+04  0.34312325981E+04 0.  0.
        4    1    3    3  502    0 -0.46638203688E+03  0.11866565500E+04  0.11540325290E+04  0.17197263338E+04  0.12699999809E+01 0.  1.
       -4    1    3    3    0  502  0.46638203688E+03 -0.11866565500E+04 -0.11417797483E+04  0.17115281413E+04  0.12699999809E+01 0. -1.
</event>
<event>
 5   0  0.4521737E-07  0.3417732E+04  0.7818609E-02  0.8133568E-01
       -2   -1    0    0    0  501  0.00000000000E+00  0.00000000000E+00  0.26213686410E+04  0.26213686410E+04  0.25500000920E-02 0. -1.
        2   -1    0    0  501    0  0.00000000000E+00  0.00000000000E+00 -0.11140067526E+04  0.11140067526E+04  0.25500000920E-02 0.  1.
    10030    2    1    2    0    0  0.00000000000E+00  0.00000000000E+00  0.15073618884E+04  0.37353753936E+04  0.34177316261E+04 0.  0.
        4    1    3    3  502    0 -0.16619872025E+04 -0.11184958354E+03  0.11705898474E+04  0.20359258323E+04  0.12699999809E+01 0. -1.
       -4    1    3    3    0  502  0.16619872025E+04  0.11184958354E+03  0.33677204101E+03  0.16994495613E+04  0.12699999809E+01 0.  1.
</event>
<event>
 5   0  0.4447909E-07  0.3399344E+04  0.7818609E-02  0.8138067E-01
        2   -1    0    0  501    0  0.00000000000E+00  0.00000000000E+00  0.17049459102E+04  0.17049459102E+04  0.25500000920E-02 0.  1.
       -2   -1    0    0    0  501  0.00000000000E+00  0.00000000000E+00 -0.16944143770E+04  0.16944143770E+04  0.25500000920E-02 0. -1.
    10030    2    1    2    0    0  0.00000000000E+00  0.00000000000E+00  0.10531533106E+02  0.33993602872E+04  0.33993439733E+04 0.  0.
        5    1    3    3  502    0  0.74078160686E+03 -0.54974071563E+03  0.14328196496E+04  0.17041028378E+04  0.46999998093E+01 0.  1.
       -5    1    3    3    0  502 -0.74078160686E+03  0.54974071563E+03 -0.14222881165E+04  0.16952574494E+04  0.46999998093E+01 0. -1.
</event>
<event>
 5   0  0.1523259E-07  0.3403509E+04  0.7818609E-02  0.8137046E-01
       -1   -1    0    0    0  501  0.00000000000E+00  0.00000000000E+00  0.16978963632E+04  0.16978963632E+04  0.50400001928E-02 0. -1.
        1   -1    0    0  501    0  0.00000000000E+00  0.00000000000E+00 -0.17056212217E+04  0.17056212217E+04  0.50400001928E-02 0.  1.
    10030    2    1    2    0    0  0.00000000000E+00  0.00000000000E+00 -0.77248584934E+01  0.34035175849E+04  0.34035088185E+04 0.  0.
        4    1    3    3  502    0  0.20274928974E+03 -0.16817444886E+04 -0.16694153307E+03  0.17021289281E+04  0.12699999809E+01 0.  1.
       -4    1    3    3    0  502 -0.20274928974E+03  0.16817444886E+04  0.15921667458E+03  0.17013886569E+04  0.12699999809E+01 0. -1.
</event>
<event>
 5   0  0.4447909E-07  0.3396911E+04  0.7818609E-02  0.8138665E-01
        2   -1    0    0  501    0  0.00000000000E+00  0.00000000000E+00  0.25722997599E+04  0.25722997599E+04  0.25500000920E-02 0. -1.
       -2   -1    0    0    0  501  0.00000000000E+00  0.00000000000E+00 -0.11214677837E+04  0.11214677837E+04  0.25500000920E-02 0.  1.
    10030    2    1    2    0    0  0.00000000000E+00  0.00000000000E+00  0.14508319762E+04  0.36937675436E+04  0.33969111327E+04 0.  0.
        5    1    3    3  502    0 -0.15629288852E+04  0.29118682508E+03  0.75530715402E+02  0.15916228970E+04  0.46999998093E+01 0.  1.
       -5    1    3    3    0  502  0.15629288852E+04 -0.29118682508E+03  0.13753012608E+04  0.21021446466E+04  0.46999998093E+01 0. -1.
</event>
<event>
 5   0  0.4381939E-07  0.3395848E+04  0.7818609E-02  0.8138926E-01
       -2   -1    0    0    0  501  0.00000000000E+00  0.00000000000E+00  0.85928397372E+03  0.85928397373E+03  0.25500000920E-02 0.  1.
        2   -1    0    0  501    0  0.00000000000E+00  0.00000000000E+00 -0.33550558072E+04  0.33550558072E+04  0.25500000920E-02 0. -1.
    10030    2    1    2    0    0  0.00000000000E+00  0.00000000000E+00 -0.24957718334E+04  0.42143397809E+04  0.33958478682E+04 0.  0.
        3    1    3    3  502    0 -0.22863073537E+02  0.70294803905E+03 -0.31657798263E+04  0.32429647831E+04  0.10100000352E+00 0. -1.
       -3    1    3    3    0  502  0.22863073537E+02 -0.70294803905E+03  0.67000799282E+03  0.97137499781E+03  0.10100000352E+00 0.  1.
</event>
<event>
 5   0  0.1520084E-07  0.3402471E+04  0.7818609E-02  0.8137300E-01
       -1   -1    0    0    0  501  0.00000000000E+00  0.00000000000E+00  0.10399289066E+04  0.10399289066E+04  0.50400001928E-02 0.  1.
        1   -1    0    0  501    0  0.00000000000E+00  0.00000000000E+00 -0.27830761889E+04  0.27830761889E+04  0.50400001928E-02 0. -1.
    10030    2    1    2    0    0  0.00000000000E+00  0.00000000000E+00 -0.17431472823E+04  0.38230050955E+04  0.34024705013E+04 0.  0.
        2    1    3    3  502    0 -0.78598839351E+03  0.12680500568E+04 -0.17902284199E+04  0.23303747546E+04  0.25500000920E-02 0. -1.
       -2    1    3    3    0  502  0.78598839351E+03 -0.12680500568E+04  0.47081137620E+02  0.14926303409E+04  0.25500000920E-02 0.  1.
</event>
<event>
 5   0  0.1473755E-07  0.3402927E+04  0.7818609E-02  0.8137188E-01
       -1   -1    0    0    0  501  0.00000000000E+00  0.00000000000E+00  0.14177238150E+04  0.14177238150E+04  0.50400001928E-02 0.  1.
        1   -1    0    0  501    0  0.00000000000E+00  0.00000000000E+00 -0.20419896637E+04  0.20419896637E+04  0.50400001928E-02 0. -1.
    10030    2    1    2    0    0  0.00000000000E+00  0.00000000000E+00 -0.62426584865E+03  0.34597134787E+04  0.34029266088E+04 0.  0.
        1    1    3    3  502    0  0.17299823816E+03 -0.36921270599E+03 -0.19915861401E+04  0.20328949226E+04  0.50400001928E-02 0. -1.
       -1    1    3    3    0  502 -0.17299823816E+03  0.36921270599E+03  0.13673202915E+04  0.14268185561E+04  0.50400001928E-02 0.  1.
</event>
<event>
 5   0  0.1421875E-07  0.3394972E+04  0.7818609E-02  0.8139141E-01
        1   -1    0    0  501    0  0.00000000000E+00  0.00000000000E+00  0.20545299946E+04  0.20545299946E+04  0.50400001928E-02 0.  1.
       -1   -1    0    0    0  501  0.00000000000E+00  0.00000000000E+00 -0.14024906987E+04  0.14024906987E+04  0.50400001928E-02 0. -1.
    10030    2    1    2    0    0  0.00000000000E+00  0.00000000000E+00  0.65203929586E+03  0.34570206933E+04  0.33949722871E+04 0.  0.
        5    1    3    3  502    0  0.86615305851E+03  0.10320776246E+04 -0.72533882804E+03  0.15302103938E+04  0.46999998093E+01 0. -1.
       -5    1    3    3    0  502 -0.86615305851E+03 -0.10320776246E+04  0.13773781239E+04  0.19268102994E+04  0.46999998093E+01 0.  1.
</event>
<event>
 5   0  0.1421875E-07  0.3402498E+04  0.7818609E-02  0.8137293E-01
       -1   -1    0    0    0  501  0.00000000000E+00  0.00000000000E+00  0.18387472514E+04  0.18387472514E+04  0.50400001928E-02 0. -1.
        1   -1    0    0  501    0  0.00000000000E+00  0.00000000000E+00 -0.15740327012E+04  0.15740327012E+04  0.50400001928E-02 0.  1.
    10030    2    1    2    0    0  0.00000000000E+00  0.00000000000E+00  0.26471455027E+03  0.34127799526E+04  0.34024980840E+04 0.  0.
        5    1    3    3  502    0  0.11719210488E+04  0.12279757881E+04  0.24629072269E+03  0.17152273001E+04  0.46999998093E+01 0. -1.
       -5    1    3    3    0  502 -0.11719210488E+04 -0.12279757881E+04  0.18423827576E+02  0.16975526526E+04  0.46999998093E+01 0.  1.
</event>
<event>
 5   0  0.4486226E-07  0.3385903E+04  0.7818609E-02  0.8141375E-01
       -2   -1    0    0    0  501  0.00000000000E+00  0.00000000000E+00  0.11800451354E+04  0.11800451354E+04  0.25500000920E-02 0. -1.
        2   -1    0    0  501    0  0.00000000000E+00  0.00000000000E+00 -0.24287931105E+04  0.24287931105E+04  0.25500000920E-02 0.  1.
    10030    2    1    2    0    0  0.00000000000E+00  0.00000000000E+00 -0.12487479751E+04  0.36088382459E+04  0.33859034215E+04 0.  0.
        1    1    3    3  502    0 -0.14583621475E+04 -0.85972808095E+03 -0.61208355546E+03  0.18001663271E+04  0.50400001928E-02 0. -1.
       -1    1    3    3    0  502  0.14583621475E+04  0.85972808095E+03 -0.63666441968E+03  0.18086719188E+04  0.50400001928E-02 0.  1.
</event>
<event>
 5   0  0.4486226E-07  0.3394969E+04  0.7818609E-02  0.8139142E-01
        2   -1    0    0  501    0  0.00000000000E+00  0.00000000000E+00  0.21619966099E+04  0.21619966099E+04  0.25500000920E-02 0.  1.
       -2   -1    0    0    0  501  0.00000000000E+00  0.00000000000E+00 -0.13327746141E+04  0.13327746141E+04  0.25500000920E-02 0. -1.
    10030    2    1    2    0    0  0.00000000000E+00  0.00000000000E+00  0.82922199584E+03  0.34947712240E+04  0.33949693356E+04 0.  0.
        1    1    3    3  502    0 -0.14836427516E+04  0.58974107469E+03  0.10081579903E+04  0.18882195007E+04  0.50400001928E-02 0.  1.
       -1    1    3    3    0  502  0.14836427516E+04 -0.58974107469E+03 -0.17893599443E+03  0.16065517233E+04  0.50400001928E-02 0. -1.
</event>
<event>
 5   0  0.1473755E-07  0.3389320E+04  0.7818609E-02  0.8140532E-01
       -1   -1    0    0    0  501  0.00000000000E+00  0.00000000000E+00  0.22713290501E+04  0.22713290502E+04  0.50400001928E-02 0. -1.
        1   -1    0    0  501    0  0.00000000000E+00  0.00000000000E+00 -0.12644020073E+04  0.12644020073E+04  0.50400001928E-02 0.  1.
    10030    2    1    2    0    0  0.00000000000E+00  0.00000000000E+00  0.10069270429E+04  0.35357310574E+04  0.33893202919E+04 0.  0.
        1    1    3    3  502    0  0.23372584765E+03  0.59911955983E+03 -0.11321629841E+04  0.13020618424E+04  0.50400001928E-02 0.  1.
       -1    1    3    3    0  502 -0.23372584765E+03 -0.59911955983E+03  0.21390900270E+04  0.22336692151E+04  0.50400001928E-02 0. -1.
</event>
<event>
 5   0  0.4396257E-07  0.3368360E+04  0.7818609E-02  0.8145716E-01
        2   -1    0    0  501    0  0.00000000000E+00  0.00000000000E+00  0.99548875181E+03  0.99548875181E+03  0.25500000920E-02 0.  1.
       -2   -1    0    0    0  501  0.00000000000E+00  0.00000000000E+00 -0.28493167280E+04  0.28493167280E+04  0.25500000920E-02 0. -1.
    10030    2    1    2    0    0  0.00000000000E+00  0.00000000000E+00 -0.18538279762E+04  0.38448054799E+04  0.33683602854E+04 0.  0.
        2    1    3    3  502    0  0.78130249225E+03  0.64668288877E+03  0.60782553738E+03  0.11824061176E+04  0.25500000920E-02 0.  1.
       -2    1    3    3    0  502 -0.78130249225E+03 -0.64668288877E+03 -0.24616535136E+04  0.26623993623E+04  0.25500000920E-02 0. -1.
</event>
<event>
 5   0  0.4447909E-07  0.3413510E+04  0.7818609E-02  0.8134599E-01
        2   -1    0    0  501    0  0.00000000000E+00  0.00000000000E+00  0.24350077519E+04  0.24350077519E+04  0.25500000920E-02 0. -1.
       -2   -1    0    0    0  501  0.00000000000E+00  0.00000000000E+00 -0.11963051638E+04  0.11963051638E+04  0.25500000920E-02 0.  1.
    10030    2    1    2    0    0  0.00000000000E+00  0.00000000000E+00  0.12387025881E+04  0.36313129157E+04  0.34135098344E+04 0.  0.
        5    1    3    3  502    0 -0.13081745940E+04 -0.80231138384E+03 -0.17528126821E+03  0.15445937776E+04  0.46999998093E+01 0.  1.
       -5    1    3    3    0  502  0.13081745940E+04  0.80231138384E+03  0.14139838563E+04  0.20867191380E+04  0.46999998093E+01 0. -1.
</event>
<event>
 5   0  0.4447909E-07  0.3363177E+04  0.7818609E-02  0.8147004E-01
       -2   -1    0    0    0  501  0.00000000000E+00  0.00000000000E+00  0.13506141385E+04  0.13506141385E+04  0.25500000920E-02 0. -1.
        2   -1    0    0  501    0  0.00000000000E+00  0.00000000000E+00 -0.20936692958E+04  0.20936692958E+04  0.25500000920E-02 0.  1.
    10030    2    1    2    0    0  0.00000000000E+00  0.00000000000E+00 -0.74305515730E+03  0.34442834344E+04  0.33631766843E+04 0.  0.
        5    1    3    3  502    0  0.11955636609E+04 -0.10758108424E+04 -0.87425889415E+03  0.18305988473E+04  0.46999998093E+01 0. -1.
       -5    1    3    3    0  502 -0.11955636609E+04  0.10758108424E+04  0.13120373685E+03  0.16136845870E+04  0.46999998093E+01 0.  1.
</event>
<event>
 5   0  0.1473755E-07  0.3385786E+04  0.7818609E-02  0.8141404E-01
        1   -1    0    0  501    0  0.00000000000E+00  0.00000000000E+00  0.21109664987E+04  0.21109664987E+04  0.50400001928E-02 0. -1.
       -1   -1    0    0    0  501  0.00000000000E+00  0.00000000000E+00 -0.13576180852E+04  0.13576180852E+04  0.50400001928E-02 0.  1.
    10030    2    1    2    0    0  0.00000000000E+00  0.00000000000E+00  0.75334841351E+03  0.34685845839E+04  0.33857857557E+04 0.  0.
        1    1    3    3  502    0  0.67933107160E+03  0.35276940403E+03 -0.11702014836E+04  0.13983234496E+04  0.50400001928E-02 0.  1.
       -1    1    3    3    0  502 -0.67933107160E+03 -0.35276940403E+03  0.19235498972E+04  0.20702611343E+04  0.50400001928E-02 0. -1.
</event>
<event>
 5   0  0.1523259E-07  0.3402000E+04  0.7818609E-02  0.8137416E-01
        1   -1    0    0  501    0  0.00000000000E+00  0.00000000000E+00  0.18224318244E+04  0.18224318244E+04  0.50400001928E-02 0.  1.
       -1   -1    0    0    0  501  0.00000000000E+00  0.00000000000E+00 -0.15876598276E+04  0.15876598277E+04  0.50400001928E-02 0. -1.
    10030    2    1    2    0    0  0.00000000000E+00  0.00000000000E+00  0.23477199676E+03  0.34100916521E+04  0.34020004681E+04 0.  0.
        4    1    3    3  502    0 -0.26912151943E+03  0.68620094815E+03 -0.14192642949E+04  0.15992532273E+04  0.12699999809E+01 0. -1.
       -4    1    3    3    0  502  0.26912151943E+03 -0.68620094815E+03  0.16540362917E+04  0.18108384247E+04  0.12699999809E+01 0.  1.
</event>
<event>
 5   0  0.4381939E-07  0.3399041E+04  0.7818609E-02  0.8138142E-01
       -2   -1    0    0    0  501  0.00000000000E+00  0.00000000000E+00  0.15137226896E+04  0.15137226896E+04  0.25500000920E-02 0. -1.
        2   -1    0    0  501    0  0.00000000000E+00  0.00000000000E+00 -0.19081230669E+04  0.19081230669E+04  0.25500000920E-02 0.  1.
    10030    2    1    2    0    0  0.00000000000E+00  0.00000000000E+00 -0.39440037730E+03  0.34218457566E+04  0.33990405594E+04 0.  0.
        3    1    3    3  502    0 -0.28720530482E+03 -0.16010685225E+04 -0.69290805161E+03  0.17680579399E+04  0.10100000352E+00 0.  1.
       -3    1    3    3    0  502  0.28720530482E+03  0.16010685225E+04  0.29850767431E+03  0.16537878167E+04  0.10100000352E+00 0. -1.
</event>
<event>
 5   0  0.4486226E-07  0.3373798E+04  0.7818609E-02  0.8144367E-01
        2   -1    0    0  501    0  0.00000000000E+00  0.00000000000E+00  0.24019042293E+04  0.24019042293E+04  0.25500000920E-02 0. -1.
       -2   -1    0    0    0  501  0.00000000000E+00  0.00000000000E+00 -0.11847382592E+04  0.11847382592E+04  0.25500000920E-02 0.  1.
    10030    2    1    2    0    0  0.00000000000E+00  0.00000000000E+00  0.12171659701E+04  0.35866424884E+04  0.33737977623E+04 0.  0.
        1    1    3    3  502    0 -0.31498775075E+02 -0.16725142250E+04  0.37729893187E+03  0.17148324961E+04  0.50400001928E-02 0. -1.
       -1    1    3    3    0  502  0.31498775075E+02  0.16725142250E+04  0.83986703824E+03  0.18718099924E+04  0.50400001928E-02 0.  1.
</event>
<event>
 5   0  0.4447909E-07  0.3405469E+04  0.7818609E-02  0.8136565E-01
        2   -1    0    0  501    0  0.00000000000E+00  0.00000000000E+00  0.21432809862E+04  0.21432809862E+04  0.25500000920E-02 0.  1.
       -2   -1    0    0    0  501  0.00000000000E+00  0.00000000000E+00 -0.13527413740E+04  0.13527413740E+04  0.25500000920E-02 0. -1.
    10030    2    1    2    0    0  0.00000000000E+00  0.00000000000E+00  0.79053961222E+03  0.34960223602E+04  0.34054690521E+04 0.  0.
        5    1    3    3  502    0 -0.91805775687E+03  0.17073262804E+03 -0.10664246713E+04  0.14174848658E+04  0.46999998093E+01 0. -1.
       -5    1    3    3    0  502  0.91805775687E+03 -0.17073262804E+03  0.18569642836E+04  0.20785374944E+04  0.46999998093E+01 0.  1.
</event>
<event>
 5   0  0.1520084E-07  0.3399697E+04  0.7818609E-02  0.8137981E-01
       -1   -1    0    0    0  501  0.00000000000E+00  0.00000000000E+00  0.18621730101E+04  0.18621730101E+04  0.50400001928E-02 0.  1.
        1   -1    0    0  501    0  0.00000000000E+00  0.00000000000E+00 -0.15516739259E+04  0.15516739259E+04  0.50400001928E-02 0. -1.
    10030    2    1    2    0    0  0.00000000000E+00  0.00000000000E+00  0.31049908417E+03  0.34138469361E+04  0.33996972250E+04 0.  0.
        2    1    3    3  502    0 -0.14912085473E+04  0.24486899917E+03  0.93683444538E+03  0.17780108370E+04  0.25500000920E-02 0.  1.
       -2    1    3    3    0  502  0.14912085473E+04 -0.24486899917E+03 -0.62633536121E+03  0.16358360991E+04  0.25500000920E-02 0. -1.
</event>
<event>
 5   0  0.4381939E-07  0.3399716E+04  0.7818609E-02  0.8137976E-01
        2   -1    0    0  501    0  0.00000000000E+00  0.00000000000E+00  0.19774724726E+04  0.19774724726E+04  0.25500000920E-02 0. -1.
       -2   -1    0    0    0  501  0.00000000000E+00  0.00000000000E+00 -0.14612175003E+04  0.14612175003E+04  0.25500000920E-02 0.  1.
    10030    2    1    2    0    0  0.00000000000E+00  0.00000000000E+00  0.51625497233E+03  0.34386899730E+04  0.33997160960E+04 0.  0.
        3    1    3    3  502    0  0.96102942672E+03  0.13927821012E+04  0.94727283053E+02  0.16948135027E+04  0.10100000352E+00 0. -1.
       -3    1    3    3    0  502 -0.96102942672E+03 -0.13927821012E+04  0.42152768927E+03  0.17438764703E+04  0.10100000352E+00 0.  1.
</event>
<event>
 5   0  0.4521737E-07  0.3405426E+04  0.7818609E-02  0.8136576E-01
        2   -1    0    0  501    0  0.00000000000E+00  0.00000000000E+00  0.28813373452E+04  0.28813373452E+04  0.25500000920E-02 0. -1.
       -2   -1    0    0    0  501  0.00000000000E+00  0.00000000000E+00 -0.10062102246E+04  0.10062102246E+04  0.25500000920E-02 0.  1.
    10030    2    1    2    0    0  0.00000000000E+00  0.00000000000E+00  0.18751271206E+04  0.38875475697E+04  0.34054257279E+04 0.  0.
        4    1    3    3  502    0 -0.76048032370E+03  0.70342842631E+02 -0.79971312385E+03  0.11058124306E+04  0.12699999809E+01 0.  1.
       -4    1    3    3    0  502  0.76048032370E+03 -0.70342842631E+02  0.26748402444E+04  0.27817351392E+04  0.12699999809E+01 0. -1.
</event>
<event>
 5   0  0.1421875E-07  0.3384758E+04  0.7818609E-02  0.8141657E-01
       -3   -1    0    0    0  501  0.00000000000E+00  0.00000000000E+00  0.21678135981E+04  0.21678136005E+04  0.10100000352E+00 0.  1.
        3   -1    0    0  501    0  0.00000000000E+00  0.00000000000E+00 -0.13212140866E+04  0.13212140904E+04  0.10100000352E+00 0. -1.
    10030    2    1    2    0    0  0.00000000000E+00  0.00000000000E+00  0.84659951157E+03  0.34890276909E+04  0.33847575238E+04 0.  0.
        3    1    3    3  502    0 -0.84739397104E+03  0.87746887481E+03 -0.78591835657E+03  0.14511015960E+04  0.10100000352E+00 0. -1.
       -3    1    3    3    0  502  0.84739397104E+03 -0.87746887481E+03  0.16325178681E+04  0.20379260949E+04  0.10100000352E+00 0.  1.
</event>
<event>
 5   0  0.4381939E-07  0.3420454E+04  0.7818609E-02  0.8132904E-01
        2   -1    0    0  501    0  0.00000000000E+00  0.00000000000E+00  0.17184062652E+04  0.17184062652E+04  0.25500000920E-02 0. -1.
       -2   -1    0    0    0  501  0.00000000000E+00  0.00000000000E+00 -0.17020871091E+04  0.17020871091E+04  0.25500000920E-02 0.  1.
    10030    2    1    2    0    0  0.00000000000E+00  0.00000000000E+00  0.16319156127E+02  0.34204933743E+04  0.34204544447E+04 0.  0.
        3    1    3    3  502    0 -0.13883474551E+04 -0.98333803583E+03 -0.16624078179E+03  0.17094146239E+04  0.10100000352E+00 0.  1.
       -3    1    3    3    0  502  0.13883474551E+04  0.98333803583E+03  0.18255993792E+03  0.17110787503E+04  0.10100000352E+00 0. -1.
</event>
<event>
 5   0  0.4521737E-07  0.3415049E+04  0.7818609E-02  0.8134223E-01
       -2   -1    0    0    0  501  0.00000000000E+00  0.00000000000E+00  0.15732171976E+04  0.15732171976E+04  0.25500000920E-02 0.  1.
        2   -1    0    0  501    0  0.00000000000E+00  0.00000000000E+00 -0.18532978207E+04  0.18532978207E+04  0.25500000920E-02 0. -1.
    10030    2    1    2    0    0  0.00000000000E+00  0.00000000000E+00 -0.28008062307E+03  0.34265150183E+04  0.34150490501E+04 0.  0.
        4    1    3    3  502    0 -0.73211930533E+03  0.75466978781E+03 -0.14899619676E+04  0.18235990359E+04  0.12699999809E+01 0. -1.
       -4    1    3    3    0  502  0.73211930533E+03 -0.75466978781E+03  0.12098813445E+04  0.16029159824E+04  0.12699999809E+01 0.  1.
</event>
<event>
 5   0  0.4486226E-07  0.3404326E+04  0.7818609E-02  0.8136845E-01
        2   -1    0    0  501    0  0.00000000000E+00  0.00000000000E+00  0.20911692395E+04  0.20911692395E+04  0.25500000920E-02 0. -1.
       -2   -1    0    0    0  501  0.00000000000E+00  0.00000000000E+00 -0.13855207491E+04  0.13855207491E+04  0.25500000920E-02 0.  1.
    10030    2    1    2    0    0  0.00000000000E+00  0.00000000000E+00  0.70564849032E+03  0.34766899886E+04  0.34043257019E+04 0.  0.
        1    1    3    3  502    0 -0.13152002954E+04  0.74585155210E+03 -0.44565995994E+03  0.15762801637E+04  0.50400001928E-02 0.  1.
       -1    1    3    3    0  502  0.13152002954E+04 -0.74585155210E+03  0.11513084503E+04  0.19004098248E+04  0.50400001928E-02 0. -1.
</event>
<event>
 5   0  0.1523259E-07  0.3405669E+04  0.7818609E-02  0.8136516E-01
       -1   -1    0    0    0  501  0.00000000000E+00  0.00000000000E+00  0.15903021525E+04  0.15903021525E+04  0.50400001928E-02 0. -1.
        1   -1    0    0  501    0  0.00000000000E+00  0.00000000000E+00 -0.18233298961E+04  0.18233298961E+04  0.50400001928E-02 0.  1.
    10030    2    1    2    0    0  0.00000000000E+00  0.00000000000E+00 -0.23302774364E+03  0.34136320486E+04  0.34056690729E+04 0.  0.
        4    1    3    3  502    0 -0.16255713357E+04 -0.40538646317E+03 -0.42189571827E+03  0.17276625718E+04  0.12699999809E+01 0.  1.
       -4    1    3    3    0  502  0.16255713357E+04  0.40538646317E+03  0.18886797463E+03  0.16859694768E+04  0.12699999809E+01 0. -1.
</event>
<event>
 5   0  0.4381939E-07  0.3431956E+04  0.7818609E-02  0.8130107E-01
       -2   -1    0    0    0  501  0.00000000000E+00  0.00000000000E+00  0.17506150826E+04  0.17506150826E+04  0.25500000920E-02 0. -1.
        2   -1    0    0  501    0  0.00000000000E+00  0.00000000000E+00 -0.16820265179E+04  0.16820265179E+04  0.25500000920E-02 0.  1.
    10030    2    1    2    0    0  0.00000000000E+00  0.00000000000E+00  0.68588564709E+02  0.34326416004E+04  0.34319562884E+04 0.  0.
        3    1    3    3  502    0 -0.16457695890E+04 -0.46054139244E+03  0.18900246885E+03  0.17194120674E+04  0.10100000352E+00 0. -1.
       -3    1    3    3    0  502  0.16457695890E+04  0.46054139244E+03 -0.12041390414E+03  0.17132295330E+04  0.10100000352E+00 0.  1.
</event>
<event>
 5   0  0.4447909E-07  0.3397476E+04  0.7818609E-02  0.8138526E-01
        2   -1    0    0  501    0  0.00000000000E+00  0.00000000000E+00  0.19762889173E+04  0.19762889173E+04  0.25500000920E-02 0. -1.
       -2   -1    0    0    0  501  0.00000000000E+00  0.00000000000E+00 -0.14601668387E+04  0.14601668387E+04  0.25500000920E-02 0.  1.
    10030    2    1    2    0    0  0.00000000000E+00  0.00000000000E+00  0.51612207865E+03  0.34364557560E+04  0.33974764404E+04 0.  0.
        5    1    3    3  502    0 -0.15021822707E+04  0.57077339844E+03 -0.29903531206E+03  0.16345574491E+04  0.46999998093E+01 0.  1.
       -5    1    3    3    0  502  0.15021822707E+04 -0.57077339844E+03  0.81515739071E+03  0.18018983069E+04  0.46999998093E+01 0. -1.
</event>
<event>
 5   0  0.1435806E-07  0.3245551E+04  0.7818609E-02  0.8176890E-01
       -1   -1    0    0    0  501  0.00000000000E+00  0.00000000000E+00  0.23287407327E+04  0.23287407327E+04  0.50400001928E-02 0. -1.
        1   -1    0    0  501    0  0.00000000000E+00  0.00000000000E+00 -0.11308258959E+04  0.11308258959E+04  0.50400001928E-02 0.  1.
    10030    2    1    2    0    0  0.00000000000E+00  0.00000000000E+00  0.11979148368E+04  0.34595666286E+04  0.32455510012E+04 0.  0.
        3    1    3    3  502    0  0.79218591900E+02 -0.18675840816E+03 -0.11172563028E+04  0.11355245240E+04  0.10100000352E+00 0.  1.
       -3    1    3    3    0  502 -0.79218591900E+02  0.18675840816E+03  0.23151711396E+04  0.23240421046E+04  0.10100000352E+00 0. -1.
</event>
<event>
 5   0  0.1523259E-07  0.3403322E+04  0.7818609E-02  0.8137091E-01
       -1   -1    0    0    0  501  0.00000000000E+00  0.00000000000E+00  0.14942960899E+04  0.14942960899E+04  0.50400001928E-02 0. -1.
        1   -1    0    0  501    0  0.00000000000E+00  0.00000000000E+00 -0.19378024236E+04  0.19378024236E+04  0.50400001928E-02 0.  1.
    10030    2    1    2    0    0  0.00000000000E+00  0.00000000000E+00 -0.44350633370E+03  0.34320985136E+04  0.34033222502E+04 0.  0.
        4    1    3    3  502    0 -0.84742033043E+03 -0.35540159095E+03  0.12225638393E+04  0.15294101678E+04  0.12699999809E+01 0. -1.
       -4    1    3    3    0  502  0.84742033043E+03  0.35540159095E+03 -0.16660701730E+04  0.19026883458E+04  0.12699999809E+01 0.  1.
</event>
<event>
 5   0  0.4521737E-07  0.3413231E+04  0.7818609E-02  0.8134667E-01
       -2   -1    0    0    0  501  0.00000000000E+00  0.00000000000E+00  0.12635802006E+04  0.12635802006E+04  0.25500000920E-02 0.  1.
        2   -1    0    0  501    0  0.00000000000E+00  0.00000000000E+00 -0.23049871119E+04  0.23049871119E+04  0.25500000920E-02 0. -1.
    10030    2    1    2    0    0  0.00000000000E+00  0.00000000000E+00 -0.10414069113E+04  0.35685673124E+04  0.34132307728E+04 0.  0.
        4    1    3    3  502    0 -0.15952778519E+04  0.17797062369E+03  0.85286237983E+02  0.16074390573E+04  0.12699999809E+01 0.  1.
       -4    1    3    3    0  502  0.15952778519E+04 -0.17797062369E+03 -0.11266931492E+04  0.19611282551E+04  0.12699999809E+01 0. -1.
</event>
<event>
 5   0  0.1435806E-07  0.3388881E+04  0.7818609E-02  0.8140641E-01
       -1   -1    0    0    0  501  0.00000000000E+00  0.00000000000E+00  0.26640143871E+04  0.26640143871E+04  0.50400001928E-02 0.  1.
        1   -1    0    0  501    0  0.00000000000E+00  0.00000000000E+00 -0.10777453160E+04  0.10777453160E+04  0.50400001928E-02 0. -1.
    10030    2    1    2    0    0  0.00000000000E+00  0.00000000000E+00  0.15862690711E+04  0.37417597031E+04  0.33888812475E+04 0.  0.
        3    1    3    3  502    0  0.11837175065E+04  0.83069544219E+03  0.17682035899E+04  0.22842473593E+04  0.10100000352E+00 0. -1.
       -3    1    3    3    0  502 -0.11837175065E+04 -0.83069544219E+03 -0.18193451880E+03  0.14575123438E+04  0.10100000352E+00 0.  1.
</event>
<event>
 5   0  0.4447909E-07  0.3403281E+04  0.7818609E-02  0.8137101E-01
       -2   -1    0    0    0  501  0.00000000000E+00  0.00000000000E+00  0.11618374109E+04  0.11618374109E+04  0.25500000920E-02 0. -1.
        2   -1    0    0  501    0  0.00000000000E+00  0.00000000000E+00 -0.24922425212E+04  0.24922425212E+04  0.25500000920E-02 0.  1.
    10030    2    1    2    0    0  0.00000000000E+00  0.00000000000E+00 -0.13304051103E+04  0.36540799322E+04  0.34032811216E+04 0.  0.
        5    1    3    3  502    0 -0.64948698313E+03 -0.46103079374E+03 -0.22797372443E+04  0.24148719897E+04  0.46999998093E+01 0.  1.
       -5    1    3    3    0  502  0.64948698313E+03  0.46103079374E+03  0.94933213391E+03  0.12392079424E+04  0.46999998093E+01 0. -1.
</event>
<event>
 5   0  0.4396257E-07  0.3389737E+04  0.7818609E-02  0.8140430E-01
       -2   -1    0    0    0  501  0.00000000000E+00  0.00000000000E+00  0.13043138263E+04  0.13043138263E+04  0.25500000920E-02 0. -1.
        2   -1    0    0  501    0  0.00000000000E+00  0.00000000000E+00 -0.22023680775E+04  0.22023680775E+04  0.25500000920E-02 0.  1.
    10030    2    1    2    0    0  0.00000000000E+00  0.00000000000E+00 -0.89805425120E+03  0.35066819038E+04  0.33897369421E+04 0.  0.
        2    1    3    3  502    0  0.68316735079E+03  0.16712777982E+03 -0.20442813062E+04  0.21618823702E+04  0.25500000920E-02 0.  1.
       -2    1    3    3    0  502 -0.68316735079E+03 -0.16712777982E+03  0.11462270550E+04  0.13447995336E+04  0.25500000920E-02 0. -1.
</event>
<event>
 5   0  0.4447909E-07  0.3406757E+04  0.7818609E-02  0.8136250E-01
        2   -1    0    0  501    0  0.00000000000E+00  0.00000000000E+00  0.24592163582E+04  0.24592163582E+04  0.25500000920E-02 0.  1.
       -2   -1    0    0    0  501  0.00000000000E+00  0.00000000000E+00 -0.11798468663E+04  0.11798468663E+04  0.25500000920E-02 0. -1.
    10030    2    1    2    0    0  0.00000000000E+00  0.00000000000E+00  0.12793694920E+04  0.36390632245E+04  0.34067572345E+04 0.  0.
        5    1    3    3  502    0 -0.70144889381E+03 -0.14346665722E+04  0.12726968329E+04  0.20420768944E+04  0.46999998093E+01 0.  1.
       -5    1    3    3    0  502  0.70144889381E+03  0.14346665722E+04  0.66726590361E+01  0.15969863301E+04  0.46999998093E+01 0. -1.
</event>
<event>
 5   0  0.1421875E-07  0.3350166E+04  0.7818609E-02  0.8150247E-01
        1   -1    0    0  501    0  0.00000000000E+00  0.00000000000E+00  0.15395205690E+04  0.15395205690E+04  0.50400001928E-02 0.  1.
       -1   -1    0    0    0  501  0.00000000000E+00  0.00000000000E+00 -0.18225819446E+04  0.18225819446E+04  0.50400001928E-02 0. -1.
    10030    2    1    2    0    0  0.00000000000E+00  0.00000000000E+00 -0.28306137562E+03  0.33621025136E+04  0.33501656033E+04 0.  0.
        5    1    3    3  502    0 -0.16457794907E+04  0.54112810083E+02  0.16674777543E+03  0.16550967460E+04  0.46999998093E+01 0.  1.
       -5    1    3    3    0  502  0.16457794907E+04 -0.54112810083E+02 -0.44980915105E+03  0.17070057676E+04  0.46999998093E+01 0. -1.
</event>
<event>
 5   0  0.1523259E-07  0.3398722E+04  0.7818609E-02  0.8138220E-01
        1   -1    0    0  501    0  0.00000000000E+00  0.00000000000E+00  0.13017478409E+04  0.13017478410E+04  0.50400001928E-02 0. -1.
       -1   -1    0    0    0  501  0.00000000000E+00  0.00000000000E+00 -0.22184237556E+04  0.22184237556E+04  0.50400001928E-02 0.  1.
    10030    2    1    2    0    0  0.00000000000E+00  0.00000000000E+00 -0.91667591468E+03  0.35201715966E+04  0.33987223095E+04 0.  0.
        4    1    3    3  502    0 -0.93548570485E+03 -0.14165602694E+04 -0.53890060936E+03  0.17810648445E+04  0.12699999809E+01 0.  1.
       -4    1    3    3    0  502  0.93548570485E+03  0.14165602694E+04 -0.37777530532E+03  0.17391067520E+04  0.12699999809E+01 0. -1.
</event>
<event>
 5   0  0.4381939E-07  0.3413201E+04  0.7818609E-02  0.8134674E-01
        2   -1    0    0  501    0  0.00000000000E+00  0.00000000000E+00  0.18214864585E+04  0.18214864585E+04  0.25500000920E-02 0. -1.
       -2   -1    0    0    0  501  0.00000000000E+00  0.00000000000E+00 -0.15989610926E+04  0.15989610926E+04  0.25500000920E-02 0.  1.
    10030    2    1    2    0    0  0.00000000000E+00  0.00000000000E+00  0.22252536589E+03  0.34204475511E+04  0.34132014168E+04 0.  0.
        3    1    3    3  502    0 -0.24027628608E+03 -0.63756891337E+03 -0.14567505074E+04  0.16082129411E+04  0.10100000352E+00 0.  1.
       -3    1    3    3    0  502  0.24027628608E+03  0.63756891337E+03  0.16792758733E+04  0.18122346100E+04  0.10100000352E+00 0. -1.
</event>
<event>
 5   0  0.1520084E-07  0.3352873E+04  0.7818609E-02  0.8149571E-01
        1   -1    0    0  501    0  0.00000000000E+00  0.00000000000E+00  0.21555344915E+04  0.21555344915E+04  0.50400001928E-02 0. -1.
       -1   -1    0    0    0  501  0.00000000000E+00  0.00000000000E+00 -0.13038251132E+04  0.13038251132E+04  0.50400001928E-02 0.  1.
    10030    2    1    2    0    0  0.00000000000E+00  0.00000000000E+00  0.85170937826E+03  0.34593596047E+04  0.33528733960E+04 0.  0.
        2    1    3    3  502    0  0.64031373923E+03 -0.30803079356E+03  0.19924843012E+04  0.21153908256E+04  0.25500000920E-02 0. -1.
       -2    1    3    3    0  502 -0.64031373923E+03  0.30803079356E+03 -0.11407749229E+04  0.13439687791E+04  0.25500000920E-02 0.  1.
</event>
<event>
 5   0  0.4521737E-07  0.3408207E+04  0.7818609E-02  0.8135895E-01
       -2   -1    0    0    0  501  0.00000000000E+00  0.00000000000E+00  0.10772680263E+04  0.10772680263E+04  0.25500000920E-02 0.  1.
        2   -1    0    0  501    0  0.00000000000E+00  0.00000000000E+00 -0.26956793226E+04  0.26956793226E+04  0.25500000920E-02 0. -1.
    10030    2    1    2    0    0  0.00000000000E+00  0.00000000000E+00 -0.16184112963E+04  0.37729473489E+04  0.34082072374E+04 0.  0.
        4    1    3    3  502    0  0.36277512126E+03 -0.14683525407E+04  0.59858302528E+02  0.15136874188E+04  0.12699999809E+01 0.  1.
       -4    1    3    3    0  502 -0.36277512126E+03  0.14683525407E+04 -0.16782695988E+04  0.22592599301E+04  0.12699999809E+01 0. -1.
</event>
<event>
 5   0  0.1523259E-07  0.3399812E+04  0.7818609E-02  0.8137953E-01
        1   -1    0    0  501    0  0.00000000000E+00  0.00000000000E+00  0.16053484043E+04  0.16053484043E+04  0.50400001928E-02 0. -1.
       -1   -1    0    0    0  501  0.00000000000E+00  0.00000000000E+00 -0.18000327754E+04  0.18000327754E+04  0.50400001928E-02 0.  1.
    10030    2    1    2    0    0  0.00000000000E+00  0.00000000000E+00 -0.19468437110E+03  0.34053811796E+04  0.33998116086E+04 0.  0.
        4    1    3    3  502    0 -0.15094547625E+03 -0.22989706103E+03 -0.17776006211E+04  0.17987503375E+04  0.12699999809E+01 0.  1.
       -4    1    3    3    0  502  0.15094547625E+03  0.22989706103E+03  0.15829162500E+04  0.16066308422E+04  0.12699999809E+01 0. -1.
</event>
<event>
 5   0  0.1473755E-07  0.3311851E+04  0.7818609E-02  0.8159886E-01
        1   -1    0    0  501    0  0.00000000000E+00  0.00000000000E+00  0.11655333048E+04  0.11655333048E+04  0.50400001928E-02 0. -1.
       -1   -1    0    0    0  501  0.00000000000E+00  0.00000000000E+00 -0.23526481311E+04  0.23526481312E+04  0.50400001928E-02 0.  1.
    10030    2    1    2    0    0  0.00000000000E+00  0.00000000000E+00 -0.11871148263E+04  0.35181814360E+04  0.33118512958E+04 0.  0.
        1    1    3    3  502    0  0.35490938693E+03 -0.16098110255E+04 -0.76029982579E+03  0.18153534190E+04  0.50400001928E-02 0.  1.
       -1    1    3    3    0  502 -0.35490938693E+03  0.16098110255E+04 -0.42681500055E+03  0.17028280170E+04  0.50400001928E-02 0. -1.
</event>
<event>
 5   0  0.1421875E-07  0.3410215E+04  0.7818609E-02  0.8135404E-01
       -1   -1    0    0    0  501  0.00000000000E+00  0.00000000000E+00  0.10291096490E+04  0.10291096490E+04  0.50400001928E-02 0.  1.
        1   -1    0    0  501    0  0.00000000000E+00  0.00000000000E+00 -0.28251529584E+04  0.28251529584E+04  0.50400001928E-02 0. -1.
    10030    2    1    2    0    0  0.00000000000E+00  0.00000000000E+00 -0.17960433094E+04  0.38542626073E+04  0.34102153417E+04 0.  0.
        5    1    3    3  502    0  0.11877733931E+04  0.11377660672E+04 -0.14060546955E+04  0.21638690242E+04  0.46999998093E+01 0. -1.
       -5    1    3    3    0  502 -0.11877733931E+04 -0.11377660672E+04 -0.38998861392E+03  0.16903935832E+04  0.46999998093E+01 0.  1.
</event>
<event>
 5   0  0.1435806E-07  0.3411541E+04  0.7818609E-02  0.8135080E-01
       -1   -1    0    0    0  501  0.00000000000E+00  0.00000000000E+00  0.25091691705E+04  0.25091691705E+04  0.50400001928E-02 0. -1.
        1   -1    0    0  501    0  0.00000000000E+00  0.00000000000E+00 -0.11596081046E+04  0.11596081046E+04  0.50400001928E-02 0.  1.
    10030    2    1    2    0    0  0.00000000000E+00  0.00000000000E+00  0.13495610659E+04  0.36687772751E+04  0.34115409457E+04 0.  0.
        3    1    3    3  502    0 -0.60056003914E+03  0.15012966300E+04  0.12589612842E+04  0.20492797411E+04  0.10100000352E+00 0. -1.
       -3    1    3    3    0  502  0.60056003914E+03 -0.15012966300E+04  0.90599781675E+02  0.16194975340E+04  0.10100000352E+00 0.  1.
</event>
<event>
 5   0  0.4396257E-07  0.3394254E+04  0.7818609E-02  0.8139318E-01
        2   -1    0    0  501    0  0.00000000000E+00  0.00000000000E+00  0.22474799283E+04  0.22474799283E+04  0.25500000920E-02 0.  1.
       -2   -1    0    0    0  501  0.00000000000E+00  0.00000000000E+00 -0.12815423007E+04  0.12815423007E+04  0.25500000920E-02 0. -1.
    10030    2    1    2    0    0  0.00000000000E+00  0.00000000000E+00  0.96593762762E+03  0.35290222289E+04  0.33942543204E+04 0.  0.
        2    1    3    3  502    0  0.92257952780E+03 -0.52750337625E+03  0.18586941370E+04  0.21410643830E+04  0.25500000920E-02 0.  1.
       -2    1    3    3    0  502 -0.92257952780E+03  0.52750337625E+03 -0.89275650940E+03  0.13879578460E+04  0.25500000920E-02 0. -1.
</event>
<event>
 5   0  0.1523259E-07  0.3386191E+04  0.7818609E-02  0.8141304E-01
       -1   -1    0    0    0  501  0.00000000000E+00  0.00000000000E+00  0.15623832304E+04  0.15623832304E+04  0.50400001928E-02 0. -1.
        1   -1    0    0  501    0  0.00000000000E+00  0.00000000000E+00 -0.18347438352E+04  0.18347438352E+04  0.50400001928E-02 0.  1.
    10030    2    1    2    0    0  0.00000000000E+00  0.00000000000E+00 -0.27236060474E+03  0.33971270656E+04  0.33861913710E+04 0.  0.
        4    1    3    3  502    0 -0.24136110639E+03  0.13988313487E+04 -0.10619752790E+04  0.17727880392E+04  0.12699999809E+01 0.  1.
       -4    1    3    3    0  502  0.24136110639E+03 -0.13988313487E+04  0.78961467427E+03  0.16243390264E+04  0.12699999809E+01 0. -1.
</event>
<event>
 5   0  0.4381939E-07  0.3394438E+04  0.7818609E-02  0.8139273E-01
        2   -1    0    0  501    0  0.00000000000E+00  0.00000000000E+00  0.26960797706E+04  0.26960797706E+04  0.25500000920E-02 0. -1.
       -2   -1    0    0    0  501  0.00000000000E+00  0.00000000000E+00 -0.10684223952E+04  0.10684223952E+04  0.25500000920E-02 0.  1.
    10030    2    1    2    0    0  0.00000000000E+00  0.00000000000E+00  0.16276573754E+04  0.37645021658E+04  0.33944378069E+04 0.  0.
        3    1    3    3  502    0  0.12948731555E+04 -0.10782640942E+04  0.58871644735E+03  0.17849193290E+04  0.10100000352E+00 0.  1.
       -3    1    3    3    0  502 -0.12948731555E+04  0.10782640942E+04  0.10389409280E+04  0.19795828368E+04  0.10100000352E+00 0. -1.
</event>
<event>
 5   0  0.4521737E-07  0.3397665E+04  0.7818609E-02  0.8138480E-01
       -2   -1    0    0    0  501  0.00000000000E+00  0.00000000000E+00  0.15782173662E+04  0.15782173662E+04  0.25500000920E-02 0. -1.
        2   -1    0    0  501    0  0.00000000000E+00  0.00000000000E+00 -0.18286656919E+04  0.18286656919E+04  0.25500000920E-02 0.  1.
    10030    2    1    2    0    0  0.00000000000E+00  0.00000000000E+00 -0.25044832573E+03  0.34068830581E+04  0.33976650523E+04 0.  0.
        4    1    3    3  502    0  0.13049506071E+04  0.12747350085E+03  0.95793093256E+03  0.16238161426E+04  0.12699999809E+01 0. -1.
       -4    1    3    3    0  502 -0.13049506071E+04 -0.12747350085E+03 -0.12083792583E+04  0.17830669155E+04  0.12699999809E+01 0.  1.
</event>
<event>
 5   0  0.1435806E-07  0.3394224E+04  0.7818609E-02  0.8139325E-01
        1   -1    0    0  501    0  0.00000000000E+00  0.00000000000E+00  0.17270710009E+04  0.17270710009E+04  0.50400001928E-02 0. -1.
       -1   -1    0    0    0  501  0.00000000000E+00  0.00000000000E+00 -0.16676725867E+04  0.16676725867E+04  0.50400001928E-02 0.  1.
    10030    2    1    2    0    0  0.00000000000E+00  0.00000000000E+00  0.59398414190E+02  0.33947435875E+04  0.33942238956E+04 0.  0.
        3    1    3    3  502    0 -0.68879169555E+02  0.16931083833E+04  0.12367430650E+03  0.16990160923E+04  0.10100000352E+00 0. -1.
       -3    1    3    3    0  502  0.68879169555E+02 -0.16931083833E+04 -0.64275892315E+02  0.16957274952E+04  0.10100000352E+00 0.  1.
</event>
<event>
 5   0  0.4447909E-07  0.3414669E+04  0.7818609E-02  0.8134315E-01
       -2   -1    0    0    0  501  0.00000000000E+00  0.00000000000E+00  0.11093796278E+04  0.11093796278E+04  0.25500000920E-02 0.  1.
        2   -1    0    0  501    0  0.00000000000E+00  0.00000000000E+00 -0.26275866055E+04  0.26275866055E+04  0.25500000920E-02 0. -1.
    10030    2    1    2    0    0  0.00000000000E+00  0.00000000000E+00 -0.15182069777E+04  0.37369662333E+04  0.34146689739E+04 0.  0.
        5    1    3    3  502    0  0.90117673748E+03 -0.88967737972E+03  0.49411128238E+03  0.13593430036E+04  0.46999998093E+01 0.  1.
       -5    1    3    3    0  502 -0.90117673748E+03  0.88967737972E+03 -0.20123182601E+04  0.23776232296E+04  0.46999998093E+01 0. -1.
</event>
<event>
 5   0  0.4486226E-07  0.3406242E+04  0.7818609E-02  0.8136376E-01
       -2   -1    0    0    0  501  0.00000000000E+00  0.00000000000E+00  0.11142071885E+04  0.11142071885E+04  0.25500000920E-02 0.  1.
        2   -1    0    0  501    0  0.00000000000E+00  0.00000000000E+00 -0.26033046417E+04  0.26033046417E+04  0.25500000920E-02 0. -1.
    10030    2    1    2    0    0  0.00000000000E+00  0.00000000000E+00 -0.14890974531E+04  0.37175118302E+04  0.34062417681E+04 0.  0.
        1    1    3    3  502    0 -0.13805008126E+04 -0.70839433248E+03  0.21766179859E+02  0.15517985663E+04  0.50400001928E-02 0.  1.
       -1    1    3    3    0  502  0.13805008126E+04  0.70839433248E+03 -0.15108636330E+04  0.21657132639E+04  0.50400001928E-02 0. -1.
</event>
<event>
 5   0  0.4381939E-07  0.3396939E+04  0.7818609E-02  0.8138658E-01
        2   -1    0    0  501    0  0.00000000000E+00  0.00000000000E+00  0.17215385030E+04  0.17215385030E+04  0.25500000920E-02 0.  1.
       -2   -1    0    0    0  501  0.00000000000E+00  0.00000000000E+00 -0.16757093319E+04  0.16757093319E+04  0.25500000920E-02 0. -1.
    10030    2    1    2    0    0  0.00000000000E+00  0.00000000000E+00  0.45829171179E+02  0.33972478349E+04  0.33969387011E+04 0.  0.
        3    1    3    3  502    0  0.13826785344E+04  0.98099033070E+03 -0.80323515950E+02  0.16972312264E+04  0.10100000352E+00 0.  1.
       -3    1    3    3    0  502 -0.13826785344E+04 -0.98099033070E+03  0.12615268713E+03  0.17000166085E+04  0.10100000352E+00 0. -1.
</event>
<event>
 5   0  0.1473755E-07  0.3384446E+04  0.7818609E-02  0.8141734E-01
       -1   -1    0    0    0  501  0.00000000000E+00  0.00000000000E+00  0.10343157300E+04  0.10343157300E+04  0.50400001928E-02 0. -1.
        1   -1    0    0  501    0  0.00000000000E+00  0.00000000000E+00 -0.27686118992E+04  0.27686118992E+04  0.50400001928E-02 0.  1.
    10030    2    1    2    0    0  0.00000000000E+00  0.00000000000E+00 -0.17342961692E+04  0.38029276293E+04  0.33844460922E+04 0.  0.
        1    1    3    3  502    0 -0.14296682520E+04 -0.90017612997E+03 -0.75849376630E+03  0.18519128407E+04  0.50400001928E-02 0. -1.
       -1    1    3    3    0  502  0.14296682520E+04  0.90017612997E+03 -0.97580240287E+03  0.19510147886E+04  0.50400001928E-02 0.  1.
</event>
<event>
 5   0  0.1520084E-07  0.3405234E+04  0.7818609E-02  0.8136623E-01
       -1   -1    0    0    0  501  0.00000000000E+00  0.00000000000E+00  0.10208347408E+04  0.10208347408E+04  0.50400001928E-02 0. -1.
        1   -1    0    0  501    0  0.00000000000E+00  0.00000000000E+00 -0.28397387341E+04  0.28397387341E+04  0.50400001928E-02 0.  1.
    10030    2    1    2    0    0  0.00000000000E+00  0.00000000000E+00 -0.18189039933E+04  0.38605734749E+04  0.34052335923E+04 0.  0.
        2    1    3    3  502    0 -0.47519402015E+03  0.95462165407E+03  0.59535998998E+03  0.12212965966E+04  0.25500000920E-02 0. -1.
       -2    1    3    3    0  502  0.47519402015E+03 -0.95462165407E+03 -0.24142639833E+04  0.26392768783E+04  0.25500000920E-02 0.  1.
</event>
<event>
 5   0  0.4486226E-07  0.3399289E+04  0.7818609E-02  0.8138081E-01
        2   -1    0    0  501    0  0.00000000000E+00  0.00000000000E+00  0.19342736804E+04  0.19342736804E+04  0.25500000920E-02 0. -1.
       -2   -1    0    0    0  501  0.00000000000E+00  0.00000000000E+00 -0.14934763320E+04  0.14934763320E+04  0.25500000920E-02 0.  1.
    10030    2    1    2    0    0  0.00000000000E+00  0.00000000000E+00  0.44079734845E+03  0.34277500124E+04  0.33992893147E+04 0.  0.
        1    1    3    3  502    0  0.21618573624E+02 -0.51644481372E+03 -0.14122960931E+04  0.15039158430E+04  0.50400001928E-02 0.  1.
       -1    1    3    3    0  502 -0.21618573624E+02  0.51644481372E+03  0.18530934415E+04  0.19238341694E+04  0.50400001928E-02 0. -1.
</event>
<event>
 5   0  0.4381939E-07  0.3401779E+04  0.7818609E-02  0.8137470E-01
        2   -1    0    0  501    0  0.00000000000E+00  0.00000000000E+00  0.23388259660E+04  0.23388259660E+04  0.25500000920E-02 0. -1.
       -2   -1    0    0    0  501  0.00000000000E+00  0.00000000000E+00 -0.12369563321E+04  0.12369563321E+04  0.25500000920E-02 0.  1.
    10030    2    1    2    0    0  0.00000000000E+00  0.00000000000E+00  0.11018696339E+04  0.35757822981E+04  0.34017792923E+04 0.  0.
        3    1    3    3  502    0  0.19575138528E+03  0.17162912096E+03  0.23177593090E+04  0.23323343209E+04  0.10100000352E+00 0. -1.
       -3    1    3    3    0  502 -0.19575138528E+03 -0.17162912096E+03 -0.12158896750E+04  0.12434479772E+04  0.10100000352E+00 0.  1.
</event>
<event>
 5   0  0.1421875E-07  0.3404871E+04  0.7818609E-02  0.8136712E-01
       -1   -1    0    0    0  501  0.00000000000E+00  0.00000000000E+00  0.15467612923E+04  0.15467612923E+04  0.50400001928E-02 0. -1.
        1   -1    0    0  501    0  0.00000000000E+00  0.00000000000E+00 -0.18737770922E+04  0.18737770922E+04  0.50400001928E-02 0.  1.
    10030    2    1    2    0    0  0.00000000000E+00  0.00000000000E+00 -0.32701579993E+03  0.34205383844E+04  0.34048705564E+04 0.  0.
        5    1    3    3  502    0 -0.24409797896E+03  0.36658033276E+03  0.14885345479E+04  0.15523279789E+04  0.46999998093E+01 0. -1.
       -5    1    3    3    0  502  0.24409797896E+03 -0.36658033276E+03 -0.18155503479E+04  0.18682104055E+04  0.46999998093E+01 0.  1.
</event>
<event>
 5   0  0.4381939E-07  0.3386035E+04  0.7818609E-02  0.8141342E-01
        2   -1    0    0  501    0  0.00000000000E+00  0.00000000000E+00  0.88407303305E+03  0.88407303305E+03  0.25500000920E-02 0.  1.
       -2   -1    0    0    0  501  0.00000000000E+00  0.00000000000E+00 -0.32421628569E+04  0.32421628569E+04  0.25500000920E-02 0. -1.
    10030    2    1    2    0    0  0.00000000000E+00  0.00000000000E+00 -0.23580898238E+04  0.41262358899E+04  0.33860352925E+04 0.  0.
        3    1    3    3  502    0 -0.46057086296E+03 -0.13277376774E+04 -0.23295102047E+04  0.27205938072E+04  0.10100000352E+00 0. -1.
       -3    1    3    3    0  502  0.46057086296E+03  0.13277376774E+04 -0.28579619132E+02  0.14056420827E+04  0.10100000352E+00 0.  1.
</event>
<event>
 5   0  0.1523259E-07  0.3398033E+04  0.7818609E-02  0.8138389E-01
       -1   -1    0    0    0  501  0.00000000000E+00  0.00000000000E+00  0.12677059961E+04  0.12677059961E+04  0.50400001928E-02 0. -1.
        1   -1    0    0  501    0  0.00000000000E+00  0.00000000000E+00 -0.22770713409E+04  0.22770713409E+04  0.50400001928E-02 0.  1.
    10030    2    1    2    0    0  0.00000000000E+00  0.00000000000E+00 -0.10093653448E+04  0.35447773371E+04  0.33980329560E+04 0.  0.
        4    1    3    3  502    0  0.47780780488E+02  0.72605709579E+03  0.10969422974E+04  0.13163304775E+04  0.12699999809E+01 0. -1.
       -4    1    3    3    0  502 -0.47780780488E+02 -0.72605709579E+03 -0.21063076422E+04  0.22284468595E+04  0.12699999809E+01 0.  1.
</event>
<event>
 5   0  0.1523259E-07  0.3438462E+04  0.7818609E-02  0.8128530E-01
       -1   -1    0    0    0  501  0.00000000000E+00  0.00000000000E+00  0.21226122606E+04  0.21226122606E+04  0.50400001928E-02 0. -1.
        1   -1    0    0  501    0  0.00000000000E+00  0.00000000000E+00 -0.13925084415E+04  0.13925084415E+04  0.50400001928E-02 0.  1.
    10030    2    1    2    0    0  0.00000000000E+00  0.00000000000E+00  0.73010381905E+03  0.35151207021E+04  0.34384621510E+04 0.  0.
        4    1    3    3  502    0 -0.13697721274E+04 -0.10385665902E+04  0.39499020963E+03  0.17637786488E+04  0.12699999809E+01 0.  1.
       -4    1    3    3    0  502  0.13697721274E+04  0.10385665902E+04  0.33511360943E+03  0.17513420533E+04  0.12699999809E+01 0. -1.
</event>
<event>
 5   0  0.4381939E-07  0.3399410E+04  0.7818609E-02  0.8138051E-01
        2   -1    0    0  501    0  0.00000000000E+00  0.00000000000E+00  0.10142866301E+04  0.10142866301E+04  0.25500000920E-02 0.  1.
       -2   -1    0    0    0  501  0.00000000000E+00  0.00000000000E+00 -0.28483039019E+04  0.28483039019E+04  0.25500000920E-02 0. -1.
    10030    2    1    2    0    0  0.00000000000E+00  0.00000000000E+00 -0.18340172719E+04  0.38625905320E+04  0.33994096935E+04 0.  0.
        3    1    3    3  502    0  0.22189605895E+03  0.94223600529E+03 -0.25044931891E+04  0.26850572983E+04  0.10100000352E+00 0. -1.
       -3    1    3    3    0  502 -0.22189605895E+03 -0.94223600529E+03  0.67047591724E+03  0.11775332337E+04  0.10100000352E+00 0.  1.
</event>
<event>
 5   0  0.1421875E-07  0.3397874E+04  0.7818609E-02  0.8138428E-01
       -1   -1    0    0    0  501  0.00000000000E+00  0.00000000000E+00  0.16157137838E+04  0.16157137838E+04  0.50400001928E-02 0. -1.
        1   -1    0    0  501    0  0.00000000000E+00  0.00000000000E+00 -0.17864470828E+04  0.17864470828E+04  0.50400001928E-02 0.  1.
    10030    2    1    2    0    0  0.00000000000E+00  0.00000000000E+00 -0.17073329898E+03  0.34021608667E+04  0.33978741447E+04 0.  0.
        5    1    3    3  502    0 -0.93225411813E+03 -0.61028091859E+03  0.11987584806E+04  0.16366381778E+04  0.46999998093E+01 0. -1.
       -5    1    3    3    0  502  0.93225411813E+03  0.61028091859E+03 -0.13694917796E+04  0.17655226888E+04  0.46999998093E+01 0.  1.
</event>
<event>
 5   0  0.1473755E-07  0.3398948E+04  0.7818609E-02  0.8138165E-01
        1   -1    0    0  501    0  0.00000000000E+00  0.00000000000E+00  0.11322634311E+04  0.11322634311E+04  0.50400001928E-02 0. -1.
       -1   -1    0    0    0  501  0.00000000000E+00  0.00000000000E+00 -0.25508298286E+04  0.25508298286E+04  0.50400001928E-02 0.  1.
    10030    2    1    2    0    0  0.00000000000E+00  0.00000000000E+00 -0.14185663974E+04  0.36830932597E+04  0.33989476806E+04 0.  0.
        1    1    3    3  502    0 -0.76926607745E+03 -0.10771335367E+04  0.44576548096E+03  0.13966724089E+04  0.50400001928E-02 0. -1.
       -1    1    3    3    0  502  0.76926607745E+03  0.10771335367E+04 -0.18643318784E+04  0.22864208507E+04  0.50400001928E-02 0.  1.
</event>
<event>
 5   0  0.1523259E-07  0.3425368E+04  0.7818609E-02  0.8131708E-01
       -1   -1    0    0    0  501  0.00000000000E+00  0.00000000000E+00  0.23557638967E+04  0.23557638967E+04  0.50400001928E-02 0. -1.
        1   -1    0    0  501    0  0.00000000000E+00  0.00000000000E+00 -0.12451528645E+04  0.12451528645E+04  0.50400001928E-02 0.  1.
    10030    2    1    2    0    0  0.00000000000E+00  0.00000000000E+00  0.11106110322E+04  0.36009167612E+04  0.34253678133E+04 0.  0.
        4    1    3    3  502    0 -0.10699276388E+04  0.18233231390E+03 -0.83746910426E+03  0.13708925336E+04  0.12699999809E+01 0.  1.
       -4    1    3    3    0  502  0.10699276388E+04 -0.18233231390E+03  0.19480801365E+04  0.22300242277E+04  0.12699999809E+01 0. -1.
</event>
<event>
 5   0  0.4396257E-07  0.3394408E+04  0.7818609E-02  0.8139280E-01
       -2   -1    0    0    0  501  0.00000000000E+00  0.00000000000E+00  0.11440034855E+04  0.11440034855E+04  0.25500000920E-02 0. -1.
        2   -1    0    0  501    0  0.00000000000E+00  0.00000000000E+00 -0.25179124249E+04  0.25179124249E+04  0.25500000920E-02 0.  1.
    10030    2    1    2    0    0  0.00000000000E+00  0.00000000000E+00 -0.13739089393E+04  0.36619159104E+04  0.33944075126E+04 0.  0.
        2    1    3    3  502    0 -0.68767399742E+02  0.45598727792E+02  0.11418384277E+04  0.11448157905E+04  0.25500000920E-02 0. -1.
       -2    1    3    3    0  502  0.68767399742E+02 -0.45598727792E+02 -0.25157473670E+04  0.25171001199E+04  0.25500000920E-02 0.  1.
</event>
<event>
 5   0  0.4396257E-07  0.3398730E+04  0.7818609E-02  0.8138218E-01
       -2   -1    0    0    0  501  0.00000000000E+00  0.00000000000E+00  0.12988393723E+04  0.12988393723E+04  0.25500000920E-02 0. -1.
        2   -1    0    0  501    0  0.00000000000E+00  0.00000000000E+00 -0.22234019775E+04  0.22234019775E+04  0.25500000920E-02 0.  1.
    10030    2    1    2    0    0  0.00000000000E+00  0.00000000000E+00 -0.92456260514E+03  0.35222413498E+04  0.33987303681E+04 0.  0.
        2    1    3    3  502    0  0.65032258313E+03 -0.12978292676E+04  0.45331922549E+03  0.15207822297E+04  0.25500000920E-02 0. -1.
       -2    1    3    3    0  502 -0.65032258313E+03  0.12978292676E+04 -0.13778818306E+04  0.20014591201E+04  0.25500000920E-02 0.  1.
</event>
<event>
 5   0  0.4396257E-07  0.3403472E+04  0.7818609E-02  0.8137055E-01
        2   -1    0    0  501    0  0.00000000000E+00  0.00000000000E+00  0.12982933356E+04  0.12982933356E+04  0.25500000920E-02 0.  1.
       -2   -1    0    0    0  501  0.00000000000E+00  0.00000000000E+00 -0.22305475401E+04  0.22305475401E+04  0.25500000920E-02 0. -1.
    10030    2    1    2    0    0  0.00000000000E+00  0.00000000000E+00 -0.93225420457E+03  0.35288408757E+04  0.34034717604E+04 0.  0.
        2    1    3    3  502    0  0.24525346355E+03  0.11102216363E+04  0.84667376276E+03  0.14176028370E+04  0.25500000920E-02 0.  1.
       -2    1    3    3    0  502 -0.24525346355E+03 -0.11102216363E+04 -0.17789279673E+04  0.21112380387E+04  0.25500000920E-02 0. -1.
</event>
<event>
 5   0  0.1520084E-07  0.3402319E+04  0.7818609E-02  0.8137337E-01
        1   -1    0    0  501    0  0.00000000000E+00  0.00000000000E+00  0.29929718565E+04  0.29929718565E+04  0.50400001928E-02 0.  1.
       -1   -1    0    0    0  501  0.00000000000E+00  0.00000000000E+00 -0.96691295141E+03  0.96691295142E+03  0.50400001928E-02 0. -1.
    10030    2    1    2    0    0  0.00000000000E+00  0.00000000000E+00  0.20260589051E+04  0.39598848079E+04  0.34023187689E+04 0.  0.
        2    1    3    3  502    0  0.31924607389E+03 -0.26786861372E+03  0.29326424661E+04  0.29621045701E+04  0.25500000920E-02 0.  1.
       -2    1    3    3    0  502 -0.31924607389E+03  0.26786861372E+03 -0.90658356104E+03  0.99778023786E+03  0.25500000920E-02 0. -1.
</event>
<event>
 5   0  0.1523259E-07  0.3394441E+04  0.7818609E-02  0.8139272E-01
       -1   -1    0    0    0  501  0.00000000000E+00  0.00000000000E+00  0.13505296579E+04  0.13505296579E+04  0.50400001928E-02 0. -1.
        1   -1    0    0  501    0  0.00000000000E+00  0.00000000000E+00 -0.21329093969E+04  0.21329093969E+04  0.50400001928E-02 0.  1.
    10030    2    1    2    0    0  0.00000000000E+00  0.00000000000E+00 -0.78237973904E+03  0.34834390548E+04  0.33944409838E+04 0.  0.
        4    1    3    3  502    0 -0.90071877113E+03  0.41661865848E+03  0.10217499242E+04  0.14243735226E+04  0.12699999809E+01 0. -1.
       -4    1    3    3    0  502  0.90071877113E+03 -0.41661865848E+03 -0.18041296633E+04  0.20590655322E+04  0.12699999809E+01 0.  1.
</event>
<event>
 5   0  0.1435806E-07  0.3403645E+04  0.7818609E-02  0.8137012E-01
       -1   -1    0    0    0  501  0.00000000000E+00  0.00000000000E+00  0.26067929317E+04  0.26067929317E+04  0.50400001928E-02 0.  1.
        1   -1    0    0  501    0  0.00000000000E+00  0.00000000000E+00 -0.11110205577E+04  0.11110205577E+04  0.50400001928E-02 0. -1.
    10030    2    1    2    0    0  0.00000000000E+00  0.00000000000E+00  0.14957723739E+04  0.37178134894E+04  0.34036454203E+04 0.  0.
        3    1    3    3  502    0  0.19426213033E+03  0.10128516812E+04 -0.73080146061E+03  0.12639925191E+04  0.10100000352E+00 0. -1.
       -3    1    3    3    0  502 -0.19426213033E+03 -0.10128516812E+04  0.22265738345E+04  0.24538209703E+04  0.10100000352E+00 0.  1.
</event>
<event>
 5   0  0.4447909E-07  0.3374166E+04  0.7818609E-02  0.8144276E-01
        2   -1    0    0  501    0  0.00000000000E+00  0.00000000000E+00  0.17982347799E+04  0.17982347799E+04  0.25500000920E-02 0. -1.
       -2   -1    0    0    0  501  0.00000000000E+00  0.00000000000E+00 -0.15828016554E+04  0.15828016554E+04  0.25500000920E-02 0.  1.
    10030    2    1    2    0    0  0.00000000000E+00  0.00000000000E+00  0.21543312458E+03  0.33810364353E+04  0.33741659630E+04 0.  0.
        5    1    3    3  502    0 -0.17422136852E+03 -0.35252092476E+03  0.17516676700E+04  0.17952676135E+04  0.46999998093E+01 0. -1.
       -5    1    3    3    0  502  0.17422136852E+03  0.35252092476E+03 -0.15362345455E+04  0.15857688218E+04  0.46999998093E+01 0.  1.
</event>
<event>
 5   0  0.1523259E-07  0.3383163E+04  0.7818609E-02  0.8142051E-01
        1   -1    0    0  501    0  0.00000000000E+00  0.00000000000E+00  0.19090720682E+04  0.19090720682E+04  0.50400001928E-02 0.  1.
       -1   -1    0    0    0  501  0.00000000000E+00  0.00000000000E+00 -0.14988685605E+04  0.14988685605E+04  0.50400001928E-02 0. -1.
    10030    2    1    2    0    0  0.00000000000E+00  0.00000000000E+00  0.41020350775E+03  0.34079406287E+04  0.33831630778E+04 0.  0.
        4    1    3    3  502    0  0.10290792813E+04  0.43733842906E+03  0.14837196278E+04  0.18578736813E+04  0.12699999809E+01 0.  1.
       -4    1    3    3    0  502 -0.10290792813E+04 -0.43733842906E+03 -0.10735161201E+04  0.15500669475E+04  0.12699999809E+01 0. -1.
</event>
<event>
 5   0  0.4447909E-07  0.3435012E+04  0.7818609E-02  0.8129366E-01
        2   -1    0    0  501    0  0.00000000000E+00  0.00000000000E+00  0.30829521488E+04  0.30829521488E+04  0.25500000920E-02 0.  1.
       -2   -1    0    0    0  501  0.00000000000E+00  0.00000000000E+00 -0.95681906226E+03  0.95681906226E+03  0.25500000920E-02 0. -1.
    10030    2    1    2    0    0  0.00000000000E+00  0.00000000000E+00  0.21261330866E+04  0.40397712111E+04  0.34350123051E+04 0.  0.
        5    1    3    3  502    0 -0.10992114302E+04 -0.97683033930E+03  0.21066091515E+04  0.25691024673E+04  0.46999998093E+01 0.  1.
       -5    1    3    3    0  502  0.10992114302E+04  0.97683033930E+03  0.19523935074E+02  0.14706687438E+04  0.46999998093E+01 0. -1.
</event>
<event>
 5   0  0.1523259E-07  0.3394703E+04  0.7818609E-02  0.8139207E-01
       -1   -1    0    0    0  501  0.00000000000E+00  0.00000000000E+00  0.17359914922E+04  0.17359914922E+04  0.50400001928E-02 0.  1.
        1   -1    0    0  501    0  0.00000000000E+00  0.00000000000E+00 -0.16595720090E+04  0.16595720090E+04  0.50400001928E-02 0. -1.
    10030    2    1    2    0    0  0.00000000000E+00  0.00000000000E+00  0.76419483250E+02  0.33955635012E+04  0.33947034559E+04 0.  0.
        4    1    3    3  502    0  0.96441285827E+00  0.11237807024E+04 -0.12341649200E+04  0.16691460870E+04  0.12699999809E+01 0. -1.
       -4    1    3    3    0  502 -0.96441285827E+00 -0.11237807024E+04  0.13105844033E+04  0.17264174142E+04  0.12699999809E+01 0.  1.
</event>
<event>
 5   0  0.1421875E-07  0.3351738E+04  0.7818609E-02  0.8149854E-01
        3   -1    0    0  501    0  0.00000000000E+00  0.00000000000E+00  0.16697410375E+04  0.16697410405E+04  0.10100000352E+00 0.  1.
       -3   -1    0    0    0  501  0.00000000000E+00  0.00000000000E+00 -0.16820199093E+04  0.16820199123E+04  0.10100000352E+00 0. -1.
    10030    2    1    2    0    0  0.00000000000E+00  0.00000000000E+00 -0.12278871812E+02  0.33517609528E+04  0.33517384615E+04 0.  0.
        4    1    3    3  502    0  0.75404046419E+03  0.12693290622E+04 -0.79909038925E+03  0.16787853802E+04  0.12699999809E+01 0. -1.
       -4    1    3    3    0  502 -0.75404046419E+03 -0.12693290622E+04  0.78681151744E+03  0.16729755726E+04  0.12699999809E+01 0.  1.
</event>
<event>
 5   0  0.1435806E-07  0.3397011E+04  0.7818609E-02  0.8138640E-01
       -1   -1    0    0    0  501  0.00000000000E+00  0.00000000000E+00  0.11392518942E+04  0.11392518942E+04  0.50400001928E-02 0. -1.
        1   -1    0    0  501    0  0.00000000000E+00  0.00000000000E+00 -0.25322937578E+04  0.25322937578E+04  0.50400001928E-02 0.  1.
    10030    2    1    2    0    0  0.00000000000E+00  0.00000000000E+00 -0.13930418637E+04  0.36715456520E+04  0.33970107213E+04 0.  0.
        3    1    3    3  502    0  0.12116340844E+04 -0.18257521208E+03 -0.19678156441E+04  0.23181219299E+04  0.10100000352E+00 0.  1.
       -3    1    3    3    0  502 -0.12116340844E+04  0.18257521208E+03  0.57477378048E+03  0.13534237221E+04  0.10100000352E+00 0. -1.
</event>
<event>
 5   0  0.1435806E-07  0.3412751E+04  0.7818609E-02  0.8134784E-01
        1   -1    0    0  501    0  0.00000000000E+00  0.00000000000E+00  0.22363313650E+04  0.22363313650E+04  0.50400001928E-02 0.  1.
       -1   -1    0    0    0  501  0.00000000000E+00  0.00000000000E+00 -0.13020065259E+04  0.13020065259E+04  0.50400001928E-02 0. -1.
    10030    2    1    2    0    0  0.00000000000E+00  0.00000000000E+00  0.93432483911E+03  0.35383378909E+04  0.34127514010E+04 0.  0.
        3    1    3    3  502    0 -0.10698900154E+03 -0.78747799390E+03  0.20327462888E+04  0.21825731883E+04  0.10100000352E+00 0.  1.
       -3    1    3    3    0  502  0.10698900154E+03  0.78747799390E+03 -0.10984214497E+04  0.13557647026E+04  0.10100000352E+00 0. -1.
</event>
<event>
 5   0  0.4521737E-07  0.3387045E+04  0.7818609E-02  0.8141093E-01
        2   -1    0    0  501    0  0.00000000000E+00  0.00000000000E+00  0.20367604939E+04  0.20367604939E+04  0.25500000920E-02 0. -1.
       -2   -1    0    0    0  501  0.00000000000E+00  0.00000000000E+00 -0.14081272553E+04  0.14081272553E+04  0.25500000920E-02 0.  1.
    10030    2    1    2    0    0  0.00000000000E+00  0.00000000000E+00  0.62863323857E+03  0.34448877492E+04  0.33870447083E+04 0.  0.
        4    1    3    3  502    0 -0.14275012043E+04  0.85648277787E+03  0.63058350081E+03  0.17801571844E+04  0.12699999809E+01 0. -1.
       -4    1    3    3    0  502  0.14275012043E+04 -0.85648277787E+03 -0.19502622403E+01  0.16647305648E+04  0.12699999809E+01 0.  1.
</event>
<event>
 5   0  0.4396257E-07  0.3402109E+04  0.7818609E-02  0.8137389E-01
        2   -1    0    0  501    0  0.00000000000E+00  0.00000000000E+00  0.13314875060E+04  0.13314875060E+04  0.25500000920E-02 0. -1.
       -2   -1    0    0    0  501  0.00000000000E+00  0.00000000000E+00 -0.21731982407E+04  0.21731982407E+04  0.25500000920E-02 0.  1.
    10030    2    1    2    0    0  0.00000000000E+00  0.00000000000E+00 -0.84171073463E+03  0.35046857467E+04  0.34021089374E+04 0.  0.
        2    1    3    3  502    0 -0.11974188877E+04  0.18875207060E+03  0.80850234863E+03  0.14570914126E+04  0.25500000920E-02 0. -1.
       -2    1    3    3    0  502  0.11974188877E+04 -0.18875207060E+03 -0.16502130833E+04  0.20475943341E+04  0.25500000920E-02 0.  1.
</event>
<event>
 5   0  0.1435806E-07  0.3394743E+04  0.7818609E-02  0.8139198E-01
       -1   -1    0    0    0  501  0.00000000000E+00  0.00000000000E+00  0.27708424262E+04  0.27708424262E+04  0.50400001928E-02 0. -1.
        1   -1    0    0  501    0  0.00000000000E+00  0.00000000000E+00 -0.10397813528E+04  0.10397813528E+04  0.50400001928E-02 0.  1.
    10030    2    1    2    0    0  0.00000000000E+00  0.00000000000E+00  0.17310610734E+04  0.38106237790E+04  0.33947431633E+04 0.  0.
        3    1    3    3  502    0 -0.15858019439E+04 -0.60614859102E+02  0.18957208351E+03  0.15982426448E+04  0.10100000352E+00 0.  1.
       -3    1    3    3    0  502  0.15858019439E+04  0.60614859102E+02  0.15414889899E+04  0.22123811342E+04  0.10100000352E+00 0. -1.
</event>
<event>
 5   0  0.4381939E-07  0.3404883E+04  0.7818609E-02  0.8136709E-01
        2   -1    0    0  501    0  0.00000000000E+00  0.00000000000E+00  0.30726840008E+04  0.30726840008E+04  0.25500000920E-02 0. -1.
       -2   -1    0    0    0  501  0.00000000000E+00  0.00000000000E+00 -0.94324910061E+03  0.94324910061E+03  0.25500000920E-02 0.  1.
    10030    2    1    2    0    0  0.00000000000E+00  0.00000000000E+00  0.21294349002E+04  0.40159331014E+04  0.34048826237E+04 0.  0.
        3    1    3    3  502    0  0.31217793698E+03  0.15981963480E+04  0.16504485402E+04  0.23185484737E+04  0.10100000352E+00 0. -1.
       -3    1    3    3    0  502 -0.31217793698E+03 -0.15981963480E+04  0.47898636004E+03  0.16973846277E+04  0.10100000352E+00 0.  1.
</event>
<event>
 5   0  0.1473755E-07  0.3404168E+04  0.7818609E-02  0.8136884E-01
       -1   -1    0    0    0  501  0.00000000000E+00  0.00000000000E+00  0.13690944847E+04  0.13690944848E+04  0.50400001928E-02 0.  1.
        1   -1    0    0  501    0  0.00000000000E+00  0.00000000000E+00 -0.21160631081E+04  0.21160631081E+04  0.50400001928E-02 0. -1.
    10030    2    1    2    0    0  0.00000000000E+00  0.00000000000E+00 -0.74696862332E+03  0.34851575928E+04  0.34041682277E+04 0.  0.
        1    1    3    3  502    0  0.16362688934E+04 -0.31281779310E+03 -0.73087319920E+03  0.18191774231E+04  0.50400001928E-02 0. -1.
       -1    1    3    3    0  502 -0.16362688934E+04  0.31281779310E+03 -0.16095424119E+02  0.16659801697E+04  0.50400001928E-02 0.  1.
</event>
<event>
 5   0  0.1523259E-07  0.3401579E+04  0.7818609E-02  0.8137519E-01
       -1   -1    0    0    0  501  0.00000000000E+00  0.00000000000E+00  0.18795617153E+04  0.18795617153E+04  0.50400001928E-02 0.  1.
        1   -1    0    0  501    0  0.00000000000E+00  0.00000000000E+00 -0.15390206257E+04  0.15390206257E+04  0.50400001928E-02 0. -1.
    10030    2    1    2    0    0  0.00000000000E+00  0.00000000000E+00  0.34054108962E+03  0.34185823410E+04  0.34015786024E+04 0.  0.
        4    1    3    3  502    0  0.13490244064E+04 -0.54362944795E+03 -0.71577299847E+03  0.16210281996E+04  0.12699999809E+01 0. -1.
       -4    1    3    3    0  502 -0.13490244064E+04  0.54362944795E+03  0.10563140881E+04  0.17975541414E+04  0.12699999809E+01 0.  1.
</event>
<event>
 5   0  0.1421875E-07  0.3412278E+04  0.7818609E-02  0.8134899E-01
       -1   -1    0    0    0  501  0.00000000000E+00  0.00000000000E+00  0.15351850247E+04  0.15351850247E+04  0.50400001928E-02 0. -1.
        1   -1    0    0  501    0  0.00000000000E+00  0.00000000000E+00 -0.18961300141E+04  0.18961300141E+04  0.50400001928E-02 0.  1.
    10030    2    1    2    0    0  0.00000000000E+00  0.00000000000E+00 -0.36094498944E+03  0.34313150388E+04  0.34122780676E+04 0.  0.
        5    1    3    3  502    0  0.14238112307E+04 -0.29854574391E+03  0.71585906133E+03  0.16213711072E+04  0.46999998093E+01 0. -1.
       -5    1    3    3    0  502 -0.14238112307E+04  0.29854574391E+03 -0.10768040508E+04  0.18099439316E+04  0.46999998093E+01 0.  1.
</event>
<event>
 5   0  0.4381939E-07  0.3404403E+04  0.7818609E-02  0.8136827E-01
       -2   -1    0    0    0  501  0.00000000000E+00  0.00000000000E+00  0.14817251945E+04  0.14817251945E+04  0.25500000920E-02 0. -1.
        2   -1    0    0  501    0  0.00000000000E+00  0.00000000000E+00 -0.19554838484E+04  0.19554838484E+04  0.25500000920E-02 0.  1.
    10030    2    1    2    0    0  0.00000000000E+00  0.00000000000E+00 -0.47375865392E+03  0.34372090430E+04  0.34044028467E+04 0.  0.
        3    1    3    3  502    0  0.10603781008E+04  0.40597902908E+03 -0.15172754320E+04  0.18950845457E+04  0.10100000352E+00 0.  1.
       -3    1    3    3    0  502 -0.10603781008E+04 -0.40597902908E+03  0.10435167781E+04  0.15421244972E+04  0.10100000352E+00 0. -1.
</event>
<event>
 5   0  0.1473755E-07  0.3419143E+04  0.7818609E-02  0.8133224E-01
        1   -1    0    0  501    0  0.00000000000E+00  0.00000000000E+00  0.20934103648E+04  0.20934103648E+04  0.50400001928E-02 0. -1.
       -1   -1    0    0    0  501  0.00000000000E+00  0.00000000000E+00 -0.13961117928E+04  0.13961117928E+04  0.50400001928E-02 0.  1.
    10030    2    1    2    0    0  0.00000000000E+00  0.00000000000E+00  0.69729857205E+03  0.34895221576E+04  0.34191431075E+04 0.  0.
        1    1    3    3  502    0  0.11921760212E+04 -0.62000321021E+03  0.14272607049E+04  0.19602960914E+04  0.50400001928E-02 0. -1.
       -1    1    3    3    0  502 -0.11921760212E+04  0.62000321021E+03 -0.72996213285E+03  0.15292260662E+04  0.50400001928E-02 0.  1.
</event>
<event>
 5   0  0.4486226E-07  0.3366572E+04  0.7818609E-02  0.8146160E-01
       -2   -1    0    0    0  501  0.00000000000E+00  0.00000000000E+00  0.16450084007E+04  0.16450084007E+04  0.25500000920E-02 0.  1.
        2   -1    0    0  501    0  0.00000000000E+00  0.00000000000E+00 -0.17224542304E+04  0.17224542304E+04  0.25500000920E-02 0. -1.
    10030    2    1    2    0    0  0.00000000000E+00  0.00000000000E+00 -0.77445829666E+02  0.33674626311E+04  0.33665719531E+04 0.  0.
        1    1    3    3  502    0 -0.12844648099E+04 -0.95631813510E+03 -0.55756763228E+03  0.16956638487E+04  0.50400001928E-02 0. -1.
       -1    1    3    3    0  502  0.12844648099E+04  0.95631813510E+03  0.48012180262E+03  0.16717987824E+04  0.50400001928E-02 0.  1.
</event>
<event>
 5   0  0.1523259E-07  0.3415301E+04  0.7818609E-02  0.8134161E-01
        1   -1    0    0  501    0  0.00000000000E+00  0.00000000000E+00  0.14675427347E+04  0.14675427347E+04  0.50400001928E-02 0.  1.
       -1   -1    0    0    0  501  0.00000000000E+00  0.00000000000E+00 -0.19870424904E+04  0.19870424904E+04  0.50400001928E-02 0. -1.
    10030    2    1    2    0    0  0.00000000000E+00  0.00000000000E+00 -0.51949975571E+03  0.34545852251E+04  0.34153007307E+04 0.  0.
        4    1    3    3  502    0 -0.73974269222E+03 -0.43550245312E+03  0.12334369912E+04  0.15027475042E+04  0.12699999809E+01 0.  1.
       -4    1    3    3    0  502  0.73974269222E+03  0.43550245312E+03 -0.17529367469E+04  0.19518377209E+04  0.12699999809E+01 0. -1.
</event>
<event>
 5   0  0.1421875E-07  0.3404101E+04  0.7818609E-02  0.8136900E-01
       -1   -1    0    0    0  501  0.00000000000E+00  0.00000000000E+00  0.20083068175E+04  0.20083068175E+04  0.50400001928E-02 0.  1.
        1   -1    0    0  501    0  0.00000000000E+00  0.00000000000E+00 -0.14424970823E+04  0.14424970823E+04  0.50400001928E-02 0. -1.
    10030    2    1    2    0    0  0.00000000000E+00  0.00000000000E+00  0.56580973521E+03  0.34508038999E+04  0.34041014819E+04 0.  0.
        5    1    3    3  502    0 -0.14888643228E+04 -0.73061694556E+03 -0.10501543847E+03  0.16617967460E+04  0.46999998093E+01 0. -1.
       -5    1    3    3    0  502  0.14888643228E+04  0.73061694556E+03  0.67082517367E+03  0.17890071538E+04  0.46999998093E+01 0.  1.
</event>
<event>
 5   0  0.1520084E-07  0.3376667E+04  0.7818609E-02  0.8143657E-01
        1   -1    0    0  501    0  0.00000000000E+00  0.00000000000E+00  0.11891519135E+04  0.11891519135E+04  0.50400001928E-02 0. -1.
       -1   -1    0    0    0  501  0.00000000000E+00  0.00000000000E+00 -0.23970617694E+04  0.23970617694E+04  0.50400001928E-02 0.  1.
    10030    2    1    2    0    0  0.00000000000E+00  0.00000000000E+00 -0.12079098559E+04  0.35862136829E+04  0.33766673451E+04 0.  0.
        2    1    3    3  502    0 -0.64828645796E+03 -0.14394974538E+04 -0.12394542300E+04  0.20071559579E+04  0.25500000920E-02 0.  1.
       -2    1    3    3    0  502  0.64828645796E+03  0.14394974538E+04  0.31544374103E+02  0.15790577250E+04  0.25500000920E-02 0. -1.
</event>
<event>
 5   0  0.1523259E-07  0.3399951E+04  0.7818609E-02  0.8137918E-01
       -1   -1    0    0    0  501  0.00000000000E+00  0.00000000000E+00  0.30802015134E+04  0.30802015134E+04  0.50400001928E-02 0. -1.
        1   -1    0    0  501    0  0.00000000000E+00  0.00000000000E+00 -0.93822309422E+03  0.93822309423E+03  0.50400001928E-02 0.  1.
    10030    2    1    2    0    0  0.00000000000E+00  0.00000000000E+00  0.21419784192E+04  0.40184246077E+04  0.33999507025E+04 0.  0.
        4    1    3    3  502    0  0.16473489844E+04  0.10631277430E+03  0.15508688114E+04  0.22650070123E+04  0.12699999809E+01 0. -1.
       -4    1    3    3    0  502 -0.16473489844E+04 -0.10631277430E+03  0.59110960780E+03  0.17534175954E+04  0.12699999809E+01 0.  1.
</event>
<event>
 5   0  0.1421875E-07  0.3396556E+04  0.7818609E-02  0.8138752E-01
       -1   -1    0    0    0  501  0.00000000000E+00  0.00000000000E+00  0.12989004497E+04  0.12989004497E+04  0.50400001928E-02 0. -1.
        1   -1    0    0  501    0  0.00000000000E+00  0.00000000000E+00 -0.22204530003E+04  0.22204530003E+04  0.50400001928E-02 0.  1.
    10030    2    1    2    0    0  0.00000000000E+00  0.00000000000E+00 -0.92155255063E+03  0.35193534500E+04  0.33965555497E+04 0.  0.
        5    1    3    3  502    0 -0.11804455786E+04 -0.40569878833E+03  0.73241305222E+03  0.14472367602E+04  0.46999998093E+01 0. -1.
       -5    1    3    3    0  502  0.11804455786E+04  0.40569878833E+03 -0.16539656028E+04  0.20721166898E+04  0.46999998093E+01 0.  1.
</event>
<event>
 5   0  0.4396257E-07  0.3379099E+04  0.7818609E-02  0.8143055E-01
       -2   -1    0    0    0  501  0.00000000000E+00  0.00000000000E+00  0.22269572071E+04  0.22269572071E+04  0.25500000920E-02 0.  1.
        2   -1    0    0  501    0  0.00000000000E+00  0.00000000000E+00 -0.12818284953E+04  0.12818284953E+04  0.25500000920E-02 0. -1.
    10030    2    1    2    0    0  0.00000000000E+00  0.00000000000E+00  0.94512871179E+03  0.35087857024E+04  0.33790988183E+04 0.  0.
        2    1    3    3  502    0  0.27215900752E+03  0.13628851179E+04  0.14701926600E+04  0.20231146353E+04  0.25500000920E-02 0.  1.
       -2    1    3    3    0  502 -0.27215900752E+03 -0.13628851179E+04 -0.52506394823E+03  0.14856710671E+04  0.25500000920E-02 0. -1.
</event>
<event>
 5   0  0.1473755E-07  0.3410602E+04  0.7818609E-02  0.8135309E-01
        1   -1    0    0  501    0  0.00000000000E+00  0.00000000000E+00  0.12253220416E+04  0.12253220416E+04  0.50400001928E-02 0. -1.
       -1   -1    0    0    0  501  0.00000000000E+00  0.00000000000E+00 -0.23732954435E+04  0.23732954435E+04  0.50400001928E-02 0.  1.
    10030    2    1    2    0    0  0.00000000000E+00  0.00000000000E+00 -0.11479734019E+04  0.35986174851E+04  0.34106018344E+04 0.  0.
        1    1    3    3  502    0  0.19517531834E+02 -0.46021325233E+03 -0.23064117851E+04  0.23519592884E+04  0.50400001928E-02 0.  1.
       -1    1    3    3    0  502 -0.19517531834E+02  0.46021325233E+03  0.11584383832E+04  0.12466581967E+04  0.50400001928E-02 0. -1.
</event>
<event>
 5   0  0.1473755E-07  0.3520508E+04  0.7818609E-02  0.8108947E-01
        1   -1    0    0  501    0  0.00000000000E+00  0.00000000000E+00  0.20020760113E+04  0.20020760113E+04  0.50400001928E-02 0. -1.
       -1   -1    0    0    0  501  0.00000000000E+00  0.00000000000E+00 -0.15476408645E+04  0.15476408645E+04  0.50400001928E-02 0.  1.
    10030    2    1    2    0    0  0.00000000000E+00  0.00000000000E+00  0.45443514680E+03  0.35497168759E+04  0.35205082866E+04 0.  0.
        1    1    3    3  502    0  0.13988597168E+04 -0.10527061600E+04  0.41175482827E+03  0.17984829177E+04  0.50400001928E-02 0.  1.
       -1    1    3    3    0  502 -0.13988597168E+04  0.10527061600E+04  0.42680318530E+02  0.17512339582E+04  0.50400001928E-02 0. -1.
</event>
<event>
 5   0  0.1473755E-07  0.3399204E+04  0.7818609E-02  0.8138102E-01
       -1   -1    0    0    0  501  0.00000000000E+00  0.00000000000E+00  0.12821111421E+04  0.12821111421E+04  0.50400001928E-02 0. -1.
        1   -1    0    0  501    0  0.00000000000E+00  0.00000000000E+00 -0.22530398892E+04  0.22530398892E+04  0.50400001928E-02 0.  1.
    10030    2    1    2    0    0  0.00000000000E+00  0.00000000000E+00 -0.97092874715E+03  0.35351510313E+04  0.33992043455E+04 0.  0.
        1    1    3    3  502    0 -0.59190663527E+03  0.37886018366E+03  0.11239267821E+04  0.13255564549E+04  0.50400001928E-02 0. -1.
       -1    1    3    3    0  502  0.59190663527E+03 -0.37886018366E+03 -0.20948555292E+04  0.22095945764E+04  0.50400001928E-02 0.  1.
</event>
<event>
 5   0  0.4521737E-07  0.3398522E+04  0.7818609E-02  0.8138269E-01
       -2   -1    0    0    0  501  0.00000000000E+00  0.00000000000E+00  0.13058658987E+04  0.13058658987E+04  0.25500000920E-02 0. -1.
        2   -1    0    0  501    0  0.00000000000E+00  0.00000000000E+00 -0.22111671470E+04  0.22111671470E+04  0.25500000920E-02 0.  1.
    10030    2    1    2    0    0  0.00000000000E+00  0.00000000000E+00 -0.90530124823E+03  0.35170330457E+04  0.33985218985E+04 0.  0.
        4    1    3    3  502    0 -0.16231063289E+04  0.48148071183E+03 -0.60328869274E+03  0.17972914874E+04  0.12699999809E+01 0.  1.
       -4    1    3    3    0  502  0.16231063289E+04 -0.48148071183E+03 -0.30201255549E+03  0.17197415583E+04  0.12699999809E+01 0. -1.
</event>
<event>
 5   0  0.1435806E-07  0.3380331E+04  0.7818609E-02  0.8142751E-01
        1   -1    0    0  501    0  0.00000000000E+00  0.00000000000E+00  0.29458648345E+04  0.29458648345E+04  0.50400001928E-02 0.  1.
       -1   -1    0    0    0  501  0.00000000000E+00  0.00000000000E+00 -0.96971867118E+03  0.96971867119E+03  0.50400001928E-02 0. -1.
    10030    2    1    2    0    0  0.00000000000E+00  0.00000000000E+00  0.19761461633E+04  0.39155835057E+04  0.33803314233E+04 0.  0.
        3    1    3    3  502    0 -0.32746050237E+03 -0.84933171868E+03 -0.66152515180E+03  0.11252600969E+04  0.10100000352E+00 0. -1.
       -3    1    3    3    0  502  0.32746050237E+03  0.84933171868E+03  0.26376713151E+04  0.27903234088E+04  0.10100000352E+00 0.  1.
</event>
<event>
 5   0  0.4521737E-07  0.3396734E+04  0.7818609E-02  0.8138708E-01
       -2   -1    0    0    0  501  0.00000000000E+00  0.00000000000E+00  0.10796358184E+04  0.10796358184E+04  0.25500000920E-02 0.  1.
        2   -1    0    0  501    0  0.00000000000E+00  0.00000000000E+00 -0.26716883551E+04  0.26716883551E+04  0.25500000920E-02 0. -1.
    10030    2    1    2    0    0  0.00000000000E+00  0.00000000000E+00 -0.15920525366E+04  0.37513241735E+04  0.33967339866E+04 0.  0.
        4    1    3    3  502    0  0.28865817405E+03  0.63540373680E+03 -0.25060107396E+04  0.26013751921E+04  0.12699999809E+01 0. -1.
       -4    1    3    3    0  502 -0.28865817405E+03 -0.63540373680E+03  0.91395820296E+03  0.11499489814E+04  0.12699999809E+01 0.  1.
</event>
<event>
 5   0  0.4381939E-07  0.3405486E+04  0.7818609E-02  0.8136561E-01
       -2   -1    0    0    0  501  0.00000000000E+00  0.00000000000E+00  0.14448690262E+04  0.14448690262E+04  0.25500000920E-02 0. -1.
        2   -1    0    0  501    0  0.00000000000E+00  0.00000000000E+00 -0.20066414729E+04  0.20066414729E+04  0.25500000920E-02 0.  1.
    10030    2    1    2    0    0  0.00000000000E+00  0.00000000000E+00 -0.56177244671E+03  0.34515104991E+04  0.34054862272E+04 0.  0.
        3    1    3    3  502    0 -0.15910639971E+04 -0.55252659241E+03 -0.53439424652E+03  0.17670165531E+04  0.10100000352E+00 0.  1.
       -3    1    3    3    0  502  0.15910639971E+04  0.55252659241E+03 -0.27378200189E+02  0.16844939460E+04  0.10100000352E+00 0. -1.
</event>
<event>
 5   0  0.4486226E-07  0.3402188E+04  0.7818609E-02  0.8137370E-01
       -2   -1    0    0    0  501  0.00000000000E+00  0.00000000000E+00  0.16889108399E+04  0.16889108399E+04  0.25500000920E-02 0.  1.
        2   -1    0    0  501    0  0.00000000000E+00  0.00000000000E+00 -0.17133647764E+04  0.17133647764E+04  0.25500000920E-02 0. -1.
    10030    2    1    2    0    0  0.00000000000E+00  0.00000000000E+00 -0.24453936505E+02  0.34022756163E+04  0.34021877335E+04 0.  0.
        1    1    3    3  502    0 -0.82321090625E+03 -0.14011278674E+04 -0.51511653011E+03  0.17047523388E+04  0.50400001928E-02 0. -1.
       -1    1    3    3    0  502  0.82321090625E+03  0.14011278674E+04  0.49066259361E+03  0.16975232775E+04  0.50400001928E-02 0.  1.
</event>
<event>
 5   0  0.4521737E-07  0.3385696E+04  0.7818609E-02  0.8141426E-01
       -2   -1    0    0    0  501  0.00000000000E+00  0.00000000000E+00  0.12602435790E+04  0.12602435790E+04  0.25500000920E-02 0. -1.
        2   -1    0    0  501    0  0.00000000000E+00  0.00000000000E+00 -0.22739526331E+04  0.22739526331E+04  0.25500000920E-02 0.  1.
    10030    2    1    2    0    0  0.00000000000E+00  0.00000000000E+00 -0.10137090541E+04  0.35341962120E+04  0.33856959135E+04 0.  0.
        4    1    3    3  502    0 -0.33060025694E+03 -0.82635823875E+03  0.99629388245E+03  0.13359519384E+04  0.12699999809E+01 0. -1.
       -4    1    3    3    0  502  0.33060025694E+03  0.82635823875E+03 -0.20100029365E+04  0.21982442736E+04  0.12699999809E+01 0.  1.
</event>
<event>
 5   0  0.1435806E-07  0.3399447E+04  0.7818609E-02  0.8138042E-01
       -1   -1    0    0    0  501  0.00000000000E+00  0.00000000000E+00  0.22648380770E+04  0.22648380770E+04  0.50400001928E-02 0.  1.
        1   -1    0    0  501    0  0.00000000000E+00  0.00000000000E+00 -0.12756147162E+04  0.12756147162E+04  0.50400001928E-02 0. -1.
    10030    2    1    2    0    0  0.00000000000E+00  0.00000000000E+00  0.98922336083E+03  0.35404527932E+04  0.33994474732E+04 0.  0.
        3    1    3    3  502    0  0.93415008036E+03 -0.12969612631E+04  0.10967953530E+04  0.19384800611E+04  0.10100000352E+00 0.  1.
       -3    1    3    3    0  502 -0.93415008036E+03  0.12969612631E+04 -0.10757199216E+03  0.16019727321E+04  0.10100000352E+00 0. -1.
</event>
<event>
 5   0  0.4381939E-07  0.3413426E+04  0.7818609E-02  0.8134619E-01
       -2   -1    0    0    0  501  0.00000000000E+00  0.00000000000E+00  0.19737887396E+04  0.19737887396E+04  0.25500000920E-02 0.  1.
        2   -1    0    0  501    0  0.00000000000E+00  0.00000000000E+00 -0.14757753327E+04  0.14757753327E+04  0.25500000920E-02 0. -1.
    10030    2    1    2    0    0  0.00000000000E+00  0.00000000000E+00  0.49801340691E+03  0.34495640722E+04  0.34134256891E+04 0.  0.
        3    1    3    3  502    0 -0.83172984276E+03 -0.74139661947E+03 -0.10575168458E+04  0.15361592912E+04  0.10100000352E+00 0. -1.
       -3    1    3    3    0  502  0.83172984276E+03  0.74139661947E+03  0.15555302527E+04  0.19134047810E+04  0.10100000352E+00 0.  1.
</event>
<event>
 5   0  0.1435806E-07  0.3382054E+04  0.7818609E-02  0.8142325E-01
        1   -1    0    0  501    0  0.00000000000E+00  0.00000000000E+00  0.10674471910E+04  0.10674471910E+04  0.50400001928E-02 0. -1.
       -1   -1    0    0    0  501  0.00000000000E+00  0.00000000000E+00 -0.26788893219E+04  0.26788893219E+04  0.50400001928E-02 0.  1.
    10030    2    1    2    0    0  0.00000000000E+00  0.00000000000E+00 -0.16114421309E+04  0.37463365129E+04  0.33820543352E+04 0.  0.
        3    1    3    3  502    0  0.53967192758E+03  0.92805184476E+03 -0.22529889513E+04  0.24956933387E+04  0.10100000352E+00 0.  1.
       -3    1    3    3    0  502 -0.53967192758E+03 -0.92805184476E+03  0.64154682044E+03  0.12506431741E+04  0.10100000352E+00 0. -1.
</event>
<event>
 5   0  0.4521737E-07  0.3416396E+04  0.7818609E-02  0.8133894E-01
        2   -1    0    0  501    0  0.00000000000E+00  0.00000000000E+00  0.20784017039E+04  0.20784017039E+04  0.25500000920E-02 0. -1.
       -2   -1    0    0    0  501  0.00000000000E+00  0.00000000000E+00 -0.14039348214E+04  0.14039348214E+04  0.25500000920E-02 0.  1.
    10030    2    1    2    0    0  0.00000000000E+00  0.00000000000E+00  0.67446688252E+03  0.34823365253E+04  0.34163960689E+04 0.  0.
        4    1    3    3  502    0 -0.14458347189E+04 -0.61182944852E+03  0.10234022838E+04  0.18740670094E+04  0.12699999809E+01 0. -1.
       -4    1    3    3    0  502  0.14458347189E+04  0.61182944852E+03 -0.34893540125E+03  0.16082695159E+04  0.12699999809E+01 0.  1.
</event>
<event>
 5   0  0.4396257E-07  0.3401032E+04  0.7818609E-02  0.8137653E-01
        2   -1    0    0  501    0  0.00000000000E+00  0.00000000000E+00  0.23981383635E+04  0.23981383635E+04  0.25500000920E-02 0. -1.
       -2   -1    0    0    0  501  0.00000000000E+00  0.00000000000E+00 -0.12058333518E+04  0.12058333518E+04  0.25500000920E-02 0.  1.
    10030    2    1    2    0    0  0.00000000000E+00  0.00000000000E+00  0.11923050117E+04  0.36039717152E+04  0.34010323261E+04 0.  0.
        2    1    3    3  502    0  0.40752888079E+03  0.15856490224E+04  0.10833617438E+04  0.19631697020E+04  0.25500000920E-02 0. -1.
       -2    1    3    3    0  502 -0.40752888079E+03 -0.15856490224E+04  0.10894326794E+03  0.16408020132E+04  0.25500000920E-02 0.  1.
</event>
<event>
 5   0  0.4486226E-07  0.3395267E+04  0.7818609E-02  0.8139069E-01
       -2   -1    0    0    0  501  0.00000000000E+00  0.00000000000E+00  0.18352751937E+04  0.18352751937E+04  0.25500000920E-02 0. -1.
        2   -1    0    0  501    0  0.00000000000E+00  0.00000000000E+00 -0.15703144680E+04  0.15703144680E+04  0.25500000920E-02 0.  1.
    10030    2    1    2    0    0  0.00000000000E+00  0.00000000000E+00  0.26496072575E+03  0.34055896617E+04  0.33952668169E+04 0.  0.
        1    1    3    3  502    0 -0.24128744717E+02 -0.11641397765E+04 -0.11066523243E+04  0.16063881792E+04  0.50400001928E-02 0.  1.
       -1    1    3    3    0  502  0.24128744717E+02  0.11641397765E+04  0.13716130500E+04  0.17992014825E+04  0.50400001928E-02 0. -1.
</event>
<event>
 5   0  0.4381939E-07  0.3404163E+04  0.7818609E-02  0.8136885E-01
       -2   -1    0    0    0  501  0.00000000000E+00  0.00000000000E+00  0.14658387075E+04  0.14658387075E+04  0.25500000920E-02 0.  1.
        2   -1    0    0  501    0  0.00000000000E+00  0.00000000000E+00 -0.19763984785E+04  0.19763984785E+04  0.25500000920E-02 0. -1.
    10030    2    1    2    0    0  0.00000000000E+00  0.00000000000E+00 -0.51055977105E+03  0.34422371860E+04  0.34041629757E+04 0.  0.
        3    1    3    3  502    0 -0.75627594206E+03 -0.60200299300E+03  0.11613606834E+04  0.15109995206E+04  0.10100000352E+00 0.  1.
       -3    1    3    3    0  502  0.75627594206E+03  0.60200299300E+03 -0.16719204544E+04  0.19312376654E+04  0.10100000352E+00 0. -1.
</event>
<event>
 5   0  0.4396257E-07  0.3428441E+04  0.7818609E-02  0.8130961E-01
       -2   -1    0    0    0  501  0.00000000000E+00  0.00000000000E+00  0.14744895209E+04  0.14744895209E+04  0.25500000920E-02 0.  1.
        2   -1    0    0  501    0  0.00000000000E+00  0.00000000000E+00 -0.19929286368E+04  0.19929286368E+04  0.25500000920E-02 0. -1.
    10030    2    1    2    0    0  0.00000000000E+00  0.00000000000E+00 -0.51843911593E+03  0.34674181578E+04  0.34284412732E+04 0.  0.
        2    1    3    3  502    0  0.16085607436E+04  0.45761505715E+03  0.12145454458E+03  0.16767917023E+04  0.25500000920E-02 0. -1.
       -2    1    3    3    0  502 -0.16085607436E+04 -0.45761505715E+03 -0.63989366050E+03  0.17906264555E+04  0.25500000920E-02 0.  1.
</event>
<event>
 5   0  0.1523259E-07  0.3402593E+04  0.7818609E-02  0.8137270E-01
       -1   -1    0    0    0  501  0.00000000000E+00  0.00000000000E+00  0.17533746827E+04  0.17533746827E+04  0.50400001928E-02 0.  1.
        1   -1    0    0  501    0  0.00000000000E+00  0.00000000000E+00 -0.16507655553E+04  0.16507655553E+04  0.50400001928E-02 0. -1.
    10030    2    1    2    0    0  0.00000000000E+00  0.00000000000E+00  0.10260912744E+03  0.34041402380E+04  0.34025934413E+04 0.  0.
        4    1    3    3  502    0 -0.46600922981E+03  0.35242220085E+03 -0.15472462267E+04  0.16538858815E+04  0.12699999809E+01 0. -1.
       -4    1    3    3    0  502  0.46600922981E+03 -0.35242220085E+03  0.16498553542E+04  0.17502543565E+04  0.12699999809E+01 0.  1.
</event>
<event>
 5   0  0.1520084E-07  0.3410236E+04  0.7818609E-02  0.8135399E-01
        1   -1    0    0  501    0  0.00000000000E+00  0.00000000000E+00  0.13294856279E+04  0.13294856279E+04  0.50400001928E-02 0.  1.
       -1   -1    0    0    0  501  0.00000000000E+00  0.00000000000E+00 -0.21868812149E+04  0.21868812149E+04  0.50400001928E-02 0. -1.
    10030    2    1    2    0    0  0.00000000000E+00  0.00000000000E+00 -0.85739558698E+03  0.35163668428E+04  0.34102358541E+04 0.  0.
        2    1    3    3  502    0  0.61335534660E+03  0.11021983250E+04  0.75434539247E+03  0.14697220486E+04  0.25500000920E-02 0.  1.
       -2    1    3    3    0  502 -0.61335534660E+03 -0.11021983250E+04 -0.16117409794E+04  0.20466447942E+04  0.25500000920E-02 0. -1.
</event>
<event>
 5   0  0.1523259E-07  0.3384454E+04  0.7818609E-02  0.8141732E-01
        1   -1    0    0  501    0  0.00000000000E+00  0.00000000000E+00  0.20547426164E+04  0.20547426164E+04  0.50400001928E-02 0.  1.
       -1   -1    0    0    0  501  0.00000000000E+00  0.00000000000E+00 -0.13936694176E+04  0.13936694176E+04  0.50400001928E-02 0. -1.
    10030    2    1    2    0    0  0.00000000000E+00  0.00000000000E+00  0.66107319874E+03  0.34484120340E+04  0.33844538381E+04 0.  0.
        4    1    3    3  502    0  0.13900760130E+03 -0.32737570719E+03  0.20162294973E+04  0.20473595106E+04  0.12699999809E+01 0.  1.
       -4    1    3    3    0  502 -0.13900760130E+03  0.32737570719E+03 -0.13551562986E+04  0.14010525234E+04  0.12699999809E+01 0. -1.
</event>
<event>
 5   0  0.1421875E-07  0.3387970E+04  0.7818609E-02  0.8140865E-01
       -1   -1    0    0    0  501  0.00000000000E+00  0.00000000000E+00  0.19530400382E+04  0.19530400382E+04  0.50400001928E-02 0.  1.
        1   -1    0    0  501    0  0.00000000000E+00  0.00000000000E+00 -0.14692916879E+04  0.14692916879E+04  0.50400001928E-02 0. -1.
    10030    2    1    2    0    0  0.00000000000E+00  0.00000000000E+00  0.48374835029E+03  0.34223317261E+04  0.33879701853E+04 0.  0.
        5    1    3    3  502    0  0.12578262486E+04  0.11268052656E+04  0.10730735980E+03  0.16921447744E+04  0.46999998093E+01 0.  1.
       -5    1    3    3    0  502 -0.12578262486E+04 -0.11268052656E+04  0.37644099049E+03  0.17301869516E+04  0.46999998093E+01 0. -1.
</event>
<event>
 5   0  0.1421875E-07  0.3398992E+04  0.7818609E-02  0.8138154E-01
       -1   -1    0    0    0  501  0.00000000000E+00  0.00000000000E+00  0.15831708923E+04  0.15831708923E+04  0.50400001928E-02 0.  1.
        1   -1    0    0  501    0  0.00000000000E+00  0.00000000000E+00 -0.18243686767E+04  0.18243686767E+04  0.50400001928E-02 0. -1.
    10030    2    1    2    0    0  0.00000000000E+00  0.00000000000E+00 -0.24119778441E+03  0.34075395689E+04  0.33989924305E+04 0.  0.
        5    1    3    3  502    0  0.27960174411E+03  0.16743334264E+04 -0.20263214337E+03  0.17095763901E+04  0.46999998093E+01 0.  1.
       -5    1    3    3    0  502 -0.27960174411E+03 -0.16743334264E+04 -0.38565641043E+02  0.16979631788E+04  0.46999998093E+01 0. -1.
</event>
<event>
 5   0  0.4381939E-07  0.3408323E+04  0.7818609E-02  0.8135867E-01
        2   -1    0    0  501    0  0.00000000000E+00  0.00000000000E+00  0.29237221424E+04  0.29237221424E+04  0.25500000920E-02 0. -1.
       -2   -1    0    0    0  501  0.00000000000E+00  0.00000000000E+00 -0.99331123851E+03  0.99331123851E+03  0.25500000920E-02 0.  1.
    10030    2    1    2    0    0  0.00000000000E+00  0.00000000000E+00  0.19304109039E+04  0.39170333809E+04  0.34083227913E+04 0.  0.
        3    1    3    3  502    0 -0.12409668953E+04 -0.68527739096E+03 -0.12177517708E+03  0.14228257595E+04  0.10100000352E+00 0.  1.
       -3    1    3    3    0  502  0.12409668953E+04  0.68527739096E+03  0.20521860810E+04  0.24942076215E+04  0.10100000352E+00 0. -1.
</event>
<event>
 5   0  0.4381939E-07  0.3399528E+04  0.7818609E-02  0.8138022E-01
        2   -1    0    0  501    0  0.00000000000E+00  0.00000000000E+00  0.14004695224E+04  0.14004695224E+04  0.25500000920E-02 0.  1.
       -2   -1    0    0    0  501  0.00000000000E+00  0.00000000000E+00 -0.20630204463E+04  0.20630204463E+04  0.25500000920E-02 0. -1.
    10030    2    1    2    0    0  0.00000000000E+00  0.00000000000E+00 -0.66255092388E+03  0.34634899686E+04  0.33995277666E+04 0.  0.
        3    1    3    3  502    0 -0.13820625144E+04  0.94393024051E+03 -0.63366991522E+03  0.17895917592E+04  0.10100000352E+00 0. -1.
       -3    1    3    3    0  502  0.13820625144E+04 -0.94393024051E+03 -0.28881008658E+02  0.16738982095E+04  0.10100000352E+00 0.  1.
</event>
<event>
 5   0  0.1421875E-07  0.3400338E+04  0.7818609E-02  0.8137823E-01
        3   -1    0    0  501    0  0.00000000000E+00  0.00000000000E+00  0.16745391539E+04  0.16745391570E+04  0.10100000352E+00 0.  1.
       -3   -1    0    0    0  501  0.00000000000E+00  0.00000000000E+00 -0.17261914760E+04  0.17261914790E+04  0.10100000352E+00 0. -1.
    10030    2    1    2    0    0  0.00000000000E+00  0.00000000000E+00 -0.51652322103E+02  0.34007306359E+04  0.34003383502E+04 0.  0.
        4    1    3    3  502    0  0.39449390418E+03 -0.11006598595E+04  0.12086160555E+04  0.16816158744E+04  0.12699999809E+01 0.  1.
       -4    1    3    3    0  502 -0.39449390418E+03  0.11006598595E+04 -0.12602683776E+04  0.17191147615E+04  0.12699999809E+01 0. -1.
</event>
<event>
 5   0  0.4486226E-07  0.3361101E+04  0.7818609E-02  0.8147520E-01
       -2   -1    0    0    0  501  0.00000000000E+00  0.00000000000E+00  0.12826736903E+04  0.12826736903E+04  0.25500000920E-02 0. -1.
        2   -1    0    0  501    0  0.00000000000E+00  0.00000000000E+00 -0.22018456382E+04  0.22018456382E+04  0.25500000920E-02 0.  1.
    10030    2    1    2    0    0  0.00000000000E+00  0.00000000000E+00 -0.91917194791E+03  0.34845193284E+04  0.33611006948E+04 0.  0.
        1    1    3    3  502    0  0.35641318449E+03 -0.14257518107E+04 -0.13046561924E+04  0.19651784560E+04  0.50400001928E-02 0.  1.
       -1    1    3    3    0  502 -0.35641318449E+03  0.14257518107E+04  0.38548424448E+03  0.15193408724E+04  0.50400001928E-02 0. -1.
</event>
<event>
 5   0  0.1520084E-07  0.3406586E+04  0.7818609E-02  0.8136292E-01
       -1   -1    0    0    0  501  0.00000000000E+00  0.00000000000E+00  0.25553522112E+04  0.25553522112E+04  0.50400001928E-02 0. -1.
        1   -1    0    0  501    0  0.00000000000E+00  0.00000000000E+00 -0.11353450248E+04  0.11353450248E+04  0.50400001928E-02 0.  1.
    10030    2    1    2    0    0  0.00000000000E+00  0.00000000000E+00  0.14200071863E+04  0.36906972360E+04  0.34065856335E+04 0.  0.
        2    1    3    3  502    0  0.28567519207E+02  0.16292758955E+04  0.17281776747E+03  0.16386647087E+04  0.25500000920E-02 0.  1.
       -2    1    3    3    0  502 -0.28567519207E+02 -0.16292758955E+04  0.12471894189E+04  0.20520325273E+04  0.25500000920E-02 0. -1.
</event>
<event>
 5   0  0.4381939E-07  0.3302362E+04  0.7818609E-02  0.8162295E-01
        2   -1    0    0  501    0  0.00000000000E+00  0.00000000000E+00  0.18413299779E+04  0.18413299779E+04  0.25500000920E-02 0. -1.
       -2   -1    0    0    0  501  0.00000000000E+00  0.00000000000E+00 -0.14806685980E+04  0.14806685980E+04  0.25500000920E-02 0.  1.
    10030    2    1    2    0    0  0.00000000000E+00  0.00000000000E+00  0.36066137986E+03  0.33219985759E+04  0.33023624737E+04 0.  0.
        3    1    3    3  502    0 -0.82052431337E+03 -0.99360948041E+03 -0.85822253796E+03  0.15482460668E+04  0.10100000352E+00 0. -1.
       -3    1    3    3    0  502  0.82052431337E+03  0.99360948041E+03  0.12188839178E+04  0.17737525092E+04  0.10100000352E+00 0.  1.
</event>
<event>
 5   0  0.4521737E-07  0.3403443E+04  0.7818609E-02  0.8137062E-01
        2   -1    0    0  501    0  0.00000000000E+00  0.00000000000E+00  0.16696313460E+04  0.16696313460E+04  0.25500000920E-02 0.  1.
       -2   -1    0    0    0  501  0.00000000000E+00  0.00000000000E+00 -0.17344283436E+04  0.17344283436E+04  0.25500000920E-02 0. -1.
    10030    2    1    2    0    0  0.00000000000E+00  0.00000000000E+00 -0.64796997655E+02  0.34040596896E+04  0.34034429215E+04 0.  0.
        4    1    3    3  502    0  0.10141813674E+04  0.93512622953E+03 -0.10289873194E+04  0.17210001242E+04  0.12699999809E+01 0. -1.
       -4    1    3    3    0  502 -0.10141813674E+04 -0.93512622953E+03  0.96419032175E+03  0.16830595654E+04  0.12699999809E+01 0.  1.
</event>
<event>
 5   0  0.4447909E-07  0.3406398E+04  0.7818609E-02  0.8136338E-01
       -2   -1    0    0    0  501  0.00000000000E+00  0.00000000000E+00  0.11631039976E+04  0.11631039976E+04  0.25500000920E-02 0. -1.
        2   -1    0    0  501    0  0.00000000000E+00  0.00000000000E+00 -0.24940904564E+04  0.24940904564E+04  0.25500000920E-02 0.  1.
    10030    2    1    2    0    0  0.00000000000E+00  0.00000000000E+00 -0.13309864589E+04  0.36571944540E+04  0.34063978512E+04 0.  0.
        5    1    3    3  502    0  0.10305846745E+04  0.78940194253E+03  0.51822625087E+03  0.13977985317E+04  0.46999998093E+01 0. -1.
       -5    1    3    3    0  502 -0.10305846745E+04 -0.78940194253E+03 -0.18492127097E+04  0.22593959223E+04  0.46999998093E+01 0.  1.
</event>
<event>
 5   0  0.1473755E-07  0.3394375E+04  0.7818609E-02  0.8139288E-01
        1   -1    0    0  501    0  0.00000000000E+00  0.00000000000E+00  0.16182483959E+04  0.16182483959E+04  0.50400001928E-02 0. -1.
       -1   -1    0    0    0  501  0.00000000000E+00  0.00000000000E+00 -0.17799777264E+04  0.17799777264E+04  0.50400001928E-02 0.  1.
    10030    2    1    2    0    0  0.00000000000E+00  0.00000000000E+00 -0.16172933049E+03  0.33982261223E+04  0.33943754067E+04 0.  0.
        1    1    3    3  502    0  0.16246228578E+03 -0.15330040259E+04 -0.79156489407E+03  0.17329369057E+04  0.50400001928E-02 0.  1.
       -1    1    3    3    0  502 -0.16246228578E+03  0.15330040259E+04  0.62983556358E+03  0.16652892166E+04  0.50400001928E-02 0. -1.
</event>
<event>
 5   0  0.1435806E-07  0.3395056E+04  0.7818609E-02  0.8139121E-01
        1   -1    0    0  501    0  0.00000000000E+00  0.00000000000E+00  0.21478512467E+04  0.21478512467E+04  0.50400001928E-02 0. -1.
       -1   -1    0    0    0  501  0.00000000000E+00  0.00000000000E+00 -0.13416201278E+04  0.13416201278E+04  0.50400001928E-02 0.  1.
    10030    2    1    2    0    0  0.00000000000E+00  0.00000000000E+00  0.80623111888E+03  0.34894713746E+04  0.33950555013E+04 0.  0.
        3    1    3    3  502    0 -0.21523958190E+03 -0.99388971365E+03 -0.99389525510E+03  0.14219608394E+04  0.10100000352E+00 0.  1.
       -3    1    3    3    0  502  0.21523958190E+03  0.99388971365E+03  0.18001263740E+04  0.20675105352E+04  0.10100000352E+00 0. -1.
</event>
<event>
 5   0  0.1523259E-07  0.3410962E+04  0.7818609E-02  0.8135221E-01
       -1   -1    0    0    0  501  0.00000000000E+00  0.00000000000E+00  0.12228093466E+04  0.12228093466E+04  0.50400001928E-02 0. -1.
        1   -1    0    0  501    0  0.00000000000E+00  0.00000000000E+00 -0.23786743722E+04  0.23786743722E+04  0.50400001928E-02 0.  1.
    10030    2    1    2    0    0  0.00000000000E+00  0.00000000000E+00 -0.11558650255E+04  0.36014837188E+04  0.34109618907E+04 0.  0.
        4    1    3    3  502    0  0.94748275942E+03  0.24855279703E+03  0.89617279052E+03  0.13276405220E+04  0.12699999809E+01 0. -1.
       -4    1    3    3    0  502 -0.94748275942E+03 -0.24855279703E+03 -0.20520378161E+04  0.22738431968E+04  0.12699999809E+01 0.  1.
</event>
<event>
 5   0  0.1421875E-07  0.3397025E+04  0.7818609E-02  0.8138637E-01
        1   -1    0    0  501    0  0.00000000000E+00  0.00000000000E+00  0.12802293859E+04  0.12802293859E+04  0.50400001928E-02 0.  1.
       -1   -1    0    0    0  501  0.00000000000E+00  0.00000000000E+00 -0.22534587901E+04  0.22534587901E+04  0.50400001928E-02 0. -1.
    10030    2    1    2    0    0  0.00000000000E+00  0.00000000000E+00 -0.97322940425E+03  0.35336881760E+04  0.33970246764E+04 0.  0.
        5    1    3    3  502    0 -0.17890742910E+01 -0.15900708469E+04  0.13456360108E+03  0.15957624985E+04  0.46999998093E+01 0.  1.
       -5    1    3    3    0  502  0.17890742910E+01  0.15900708469E+04 -0.11077930053E+04  0.19379256775E+04  0.46999998093E+01 0. -1.
</event>
<event>
 5   0  0.4381939E-07  0.3402701E+04  0.7818609E-02  0.8137244E-01
        2   -1    0    0  501    0  0.00000000000E+00  0.00000000000E+00  0.25976450834E+04  0.25976450834E+04  0.25500000920E-02 0.  1.
       -2   -1    0    0    0  501  0.00000000000E+00  0.00000000000E+00 -0.11143146924E+04  0.11143146924E+04  0.25500000920E-02 0. -1.
    10030    2    1    2    0    0  0.00000000000E+00  0.00000000000E+00  0.14833303910E+04  0.37119597758E+04  0.34027013281E+04 0.  0.
        3    1    3    3  502    0  0.13189619354E+04  0.61928033334E+03 -0.21646909840E+03  0.14731013540E+04  0.10100000352E+00 0. -1.
       -3    1    3    3    0  502 -0.13189619354E+04 -0.61928033334E+03  0.16997994894E+04  0.22388584218E+04  0.10100000352E+00 0.  1.
</event>
<event>
 5   0  0.1520084E-07  0.3392931E+04  0.7818609E-02  0.8139644E-01
       -1   -1    0    0    0  501  0.00000000000E+00  0.00000000000E+00  0.21447003115E+04  0.21447003115E+04  0.50400001928E-02 0. -1.
        1   -1    0    0  501    0  0.00000000000E+00  0.00000000000E+00 -0.13419098000E+04  0.13419098000E+04  0.50400001928E-02 0.  1.
    10030    2    1    2    0    0  0.00000000000E+00  0.00000000000E+00  0.80279051153E+03  0.34866101116E+04  0.33929305128E+04 0.  0.
        2    1    3    3  502    0  0.80944653059E+01 -0.63627395769E+03  0.20174195294E+04  0.21153939650E+04  0.25500000920E-02 0. -1.
       -2    1    3    3    0  502 -0.80944653059E+01  0.63627395769E+03 -0.12146290179E+04  0.13712161466E+04  0.25500000920E-02 0.  1.
</event>
<event>
 5   0  0.1523259E-07  0.3388051E+04  0.7818609E-02  0.8140845E-01
       -1   -1    0    0    0  501  0.00000000000E+00  0.00000000000E+00  0.13185577323E+04  0.13185577323E+04  0.50400001928E-02 0. -1.
        1   -1    0    0  501    0  0.00000000000E+00  0.00000000000E+00 -0.21764101551E+04  0.21764101551E+04  0.50400001928E-02 0.  1.
    10030    2    1    2    0    0  0.00000000000E+00  0.00000000000E+00 -0.85785242282E+03  0.34949678875E+04  0.33880510260E+04 0.  0.
        4    1    3    3  502    0  0.14682042552E+04 -0.70790379915E+03  0.47122891479E+02  0.16306359813E+04  0.12699999809E+01 0. -1.
       -4    1    3    3    0  502 -0.14682042552E+04  0.70790379915E+03 -0.90497531430E+03  0.18643319061E+04  0.12699999809E+01 0.  1.
</event>
<event>
 5   0  0.1435806E-07  0.3232531E+04  0.7818609E-02  0.8180278E-01
        1   -1    0    0  501    0  0.00000000000E+00  0.00000000000E+00  0.13456990287E+04  0.13456990287E+04  0.50400001928E-02 0. -1.
       -1   -1    0    0    0  501  0.00000000000E+00  0.00000000000E+00 -0.19412316004E+04  0.19412316004E+04  0.50400001928E-02 0.  1.
    10030    2    1    2    0    0  0.00000000000E+00  0.00000000000E+00 -0.59553257169E+03  0.32869306291E+04  0.32325305747E+04 0.  0.
        3    1    3    3  502    0  0.38827209470E+02 -0.12751059160E+04 -0.13068945058E+04  0.18263011550E+04  0.10100000352E+00 0.  1.
       -3    1    3    3    0  502 -0.38827209470E+02  0.12751059160E+04  0.71136193407E+03  0.14606294741E+04  0.10100000352E+00 0. -1.
</event>
<event>
 5   0  0.1523259E-07  0.3417097E+04  0.7818609E-02  0.8133723E-01
       -1   -1    0    0    0  501  0.00000000000E+00  0.00000000000E+00  0.17017113500E+04  0.17017113500E+04  0.50400001928E-02 0. -1.
        1   -1    0    0  501    0  0.00000000000E+00  0.00000000000E+00 -0.17154133447E+04  0.17154133447E+04  0.50400001928E-02 0.  1.
    10030    2    1    2    0    0  0.00000000000E+00  0.00000000000E+00 -0.13701994710E+02  0.34171246948E+04  0.34170972235E+04 0.  0.
        4    1    3    3  502    0  0.31347190026E+03  0.16791469839E+04 -0.43423410686E+02  0.17087089955E+04  0.12699999809E+01 0. -1.
       -4    1    3    3    0  502 -0.31347190026E+03 -0.16791469839E+04  0.29721415977E+02  0.17084156992E+04  0.12699999809E+01 0.  1.
</event>
<event>
 5   0  0.4396257E-07  0.3405286E+04  0.7818609E-02  0.8136610E-01
       -2   -1    0    0    0  501  0.00000000000E+00  0.00000000000E+00  0.16122091018E+04  0.16122091018E+04  0.25500000920E-02 0. -1.
        2   -1    0    0  501    0  0.00000000000E+00  0.00000000000E+00 -0.17981499687E+04  0.17981499687E+04  0.25500000920E-02 0.  1.
    10030    2    1    2    0    0  0.00000000000E+00  0.00000000000E+00 -0.18594086693E+03  0.34103590704E+04  0.34052863291E+04 0.  0.
        2    1    3    3  502    0 -0.16844445878E+04  0.24708697765E+03 -0.68681429161E+02  0.17038552411E+04  0.25500000920E-02 0.  1.
       -2    1    3    3    0  502  0.16844445878E+04 -0.24708697765E+03 -0.11725943777E+03  0.17065038294E+04  0.25500000920E-02 0. -1.
</event>
<event>
 5   0  0.4447909E-07  0.3408452E+04  0.7818609E-02  0.8135835E-01
       -2   -1    0    0    0  501  0.00000000000E+00  0.00000000000E+00  0.18368455064E+04  0.18368455064E+04  0.25500000920E-02 0.  1.
        2   -1    0    0  501    0  0.00000000000E+00  0.00000000000E+00 -0.15811816055E+04  0.15811816055E+04  0.25500000920E-02 0. -1.
    10030    2    1    2    0    0  0.00000000000E+00  0.00000000000E+00  0.25566390088E+03  0.34180271118E+04  0.34084520397E+04 0.  0.
        5    1    3    3  502    0  0.73543537409E+03  0.15366437533E+04  0.17513460887E+03  0.17125517321E+04  0.46999998093E+01 0.  1.
       -5    1    3    3    0  502 -0.73543537409E+03 -0.15366437533E+04  0.80529292016E+02  0.17054753797E+04  0.46999998093E+01 0. -1.
</event>
<event>
 5   0  0.4381939E-07  0.3396575E+04  0.7818609E-02  0.8138747E-01
        2   -1    0    0  501    0  0.00000000000E+00  0.00000000000E+00  0.16512961147E+04  0.16512961147E+04  0.25500000920E-02 0. -1.
       -2   -1    0    0    0  501  0.00000000000E+00  0.00000000000E+00 -0.17466159434E+04  0.17466159434E+04  0.25500000920E-02 0.  1.
    10030    2    1    2    0    0  0.00000000000E+00  0.00000000000E+00 -0.95319828640E+02  0.33979120581E+04  0.33965748166E+04 0.  0.
        3    1    3    3  502    0  0.41846638077E+03  0.12587685742E+04 -0.11085337717E+04  0.17287161619E+04  0.10100000352E+00 0.  1.
       -3    1    3    3    0  502 -0.41846638077E+03 -0.12587685742E+04  0.10132139431E+04  0.16691958962E+04  0.10100000352E+00 0. -1.
</event>
<event>
 5   0  0.4447909E-07  0.3402517E+04  0.7818609E-02  0.8137289E-01
        2   -1    0    0  501    0  0.00000000000E+00  0.00000000000E+00  0.15181901217E+04  0.15181901217E+04  0.25500000920E-02 0.  1.
       -2   -1    0    0    0  501  0.00000000000E+00  0.00000000000E+00 -0.19064013997E+04  0.19064013997E+04  0.25500000920E-02 0. -1.
    10030    2    1    2    0    0  0.00000000000E+00  0.00000000000E+00 -0.38821127800E+03  0.34245915213E+04  0.34025165821E+04 0.  0.
        5    1    3    3  502    0 -0.59214710337E+03 -0.74306681113E+03 -0.16144561843E+04  0.18733065256E+04  0.46999998093E+01 0. -1.
       -5    1    3    3    0  502  0.59214710337E+03  0.74306681113E+03  0.12262449063E+04  0.15512849957E+04  0.46999998093E+01 0.  1.
</event>
<event>
 5   0  0.1523259E-07  0.3451956E+04  0.7818609E-02  0.8125271E-01
        1   -1    0    0  501    0  0.00000000000E+00  0.00000000000E+00  0.11427510255E+04  0.11427510255E+04  0.50400001928E-02 0. -1.
       -1   -1    0    0    0  501  0.00000000000E+00  0.00000000000E+00 -0.26068676467E+04  0.26068676467E+04  0.50400001928E-02 0.  1.
    10030    2    1    2    0    0  0.00000000000E+00  0.00000000000E+00 -0.14641166212E+04  0.37496186723E+04  0.34519563593E+04 0.  0.
        4    1    3    3  502    0 -0.84999278863E+03 -0.12982183011E+04 -0.15529640844E+04  0.21953490744E+04  0.12699999809E+01 0.  1.
       -4    1    3    3    0  502  0.84999278863E+03  0.12982183011E+04  0.88847463218E+02  0.15542695978E+04  0.12699999809E+01 0. -1.
</event>
<event>
 5   0  0.1421875E-07  0.3387833E+04  0.7818609E-02  0.8140899E-01
       -1   -1    0    0    0  501  0.00000000000E+00  0.00000000000E+00  0.10218339620E+04  0.10218339620E+04  0.50400001928E-02 0. -1.
        1   -1    0    0  501    0  0.00000000000E+00  0.00000000000E+00 -0.28080431456E+04  0.28080431456E+04  0.50400001928E-02 0.  1.
    10030    2    1    2    0    0  0.00000000000E+00  0.00000000000E+00 -0.17862091836E+04  0.38298771076E+04  0.33878334392E+04 0.  0.
        5    1    3    3  502    0  0.12378826184E+04  0.11192848548E+04 -0.12210992212E+04  0.20679113524E+04  0.46999998093E+01 0.  1.
       -5    1    3    3    0  502 -0.12378826184E+04 -0.11192848548E+04 -0.56510996239E+03  0.17619657553E+04  0.46999998093E+01 0. -1.
</event>
<event>
 5   0  0.1435806E-07  0.3385512E+04  0.7818609E-02  0.8141471E-01
       -1   -1    0    0    0  501  0.00000000000E+00  0.00000000000E+00  0.10972043898E+04  0.10972043898E+04  0.50400001928E-02 0. -1.
        1   -1    0    0  501    0  0.00000000000E+00  0.00000000000E+00 -0.26115674433E+04  0.26115674433E+04  0.50400001928E-02 0.  1.
    10030    2    1    2    0    0  0.00000000000E+00  0.00000000000E+00 -0.15143630535E+04  0.37087718331E+04  0.33855122289E+04 0.  0.
        3    1    3    3  502    0  0.80272513548E+03  0.67053353369E+03  0.70085700210E+03  0.12590406707E+04  0.10100000352E+00 0. -1.
       -3    1    3    3    0  502 -0.80272513548E+03 -0.67053353369E+03 -0.22152200556E+04  0.24497311624E+04  0.10100000352E+00 0.  1.
</event>
<event>
 5   0  0.1421875E-07  0.3407546E+04  0.7818609E-02  0.8136057E-01
       -1   -1    0    0    0  501  0.00000000000E+00  0.00000000000E+00  0.14641666538E+04  0.14641666538E+04  0.50400001928E-02 0.  1.
        1   -1    0    0  501    0  0.00000000000E+00  0.00000000000E+00 -0.19825902579E+04  0.19825902579E+04  0.50400001928E-02 0. -1.
    10030    2    1    2    0    0  0.00000000000E+00  0.00000000000E+00 -0.51842360408E+03  0.34467569117E+04  0.34075460635E+04 0.  0.
        5    1    3    3  502    0  0.62158232859E+03  0.58237694579E+03 -0.17517565256E+04  0.19478707640E+04  0.46999998093E+01 0. -1.
       -5    1    3    3    0  502 -0.62158232859E+03 -0.58237694579E+03  0.12333329216E+04  0.14988861476E+04  0.46999998093E+01 0.  1.
</event>
<event>
 5   0  0.4396257E-07  0.3402546E+04  0.7818609E-02  0.8137282E-01
       -2   -1    0    0    0  501  0.00000000000E+00  0.00000000000E+00  0.13193854987E+04  0.13193854987E+04  0.25500000920E-02 0. -1.
        2   -1    0    0  501    0  0.00000000000E+00  0.00000000000E+00 -0.21936950619E+04  0.21936950619E+04  0.25500000920E-02 0.  1.
    10030    2    1    2    0    0  0.00000000000E+00  0.00000000000E+00 -0.87430956323E+03  0.35130805606E+04  0.34025457841E+04 0.  0.
        2    1    3    3  502    0 -0.88244253283E+03  0.13418581798E+04  0.14236444026E+03  0.16123138132E+04  0.25500000920E-02 0. -1.
       -2    1    3    3    0  502  0.88244253283E+03 -0.13418581798E+04 -0.10166740035E+04  0.19007667474E+04  0.25500000920E-02 0.  1.
</event>
<event>
 5   0  0.4381939E-07  0.3404571E+04  0.7818609E-02  0.8136785E-01
        2   -1    0    0  501    0  0.00000000000E+00  0.00000000000E+00  0.21406856624E+04  0.21406856624E+04  0.25500000920E-02 0.  1.
       -2   -1    0    0    0  501  0.00000000000E+00  0.00000000000E+00 -0.13536671048E+04  0.13536671048E+04  0.25500000920E-02 0. -1.
    10030    2    1    2    0    0  0.00000000000E+00  0.00000000000E+00  0.78701855756E+03  0.34943527672E+04  0.34045709057E+04 0.  0.
        3    1    3    3  502    0  0.81738144363E+03 -0.44066011942E+03  0.18578360242E+04  0.20769806134E+04  0.10100000352E+00 0.  1.
       -3    1    3    3    0  502 -0.81738144363E+03  0.44066011942E+03 -0.10708174667E+04  0.14173721538E+04  0.10100000352E+00 0. -1.
</event>
<event>
 5   0  0.4381939E-07  0.3517576E+04  0.7818609E-02  0.8109637E-01
        2   -1    0    0  501    0  0.00000000000E+00  0.00000000000E+00  0.22421603200E+04  0.22421603200E+04  0.25500000920E-02 0. -1.
       -2   -1    0    0    0  501  0.00000000000E+00  0.00000000000E+00 -0.13796227882E+04  0.13796227882E+04  0.25500000920E-02 0.  1.
    10030    2    1    2    0    0  0.00000000000E+00  0.00000000000E+00  0.86253753179E+03  0.36217831081E+04  0.35175761383E+04 0.  0.
        3    1    3    3  502    0  0.47926774371E+03  0.16922279778E+04  0.42968608912E+03  0.18105146353E+04  0.10100000352E+00 0.  1.
       -3    1    3    3    0  502 -0.47926774371E+03 -0.16922279778E+04  0.43285144267E+03  0.18112684729E+04  0.10100000352E+00 0. -1.
</event>
<event>
 5   0  0.1520084E-07  0.3413291E+04  0.7818609E-02  0.8134652E-01
        1   -1    0    0  501    0  0.00000000000E+00  0.00000000000E+00  0.21660044928E+04  0.21660044928E+04  0.50400001928E-02 0.  1.
       -1   -1    0    0    0  501  0.00000000000E+00  0.00000000000E+00 -0.13447057209E+04  0.13447057209E+04  0.50400001928E-02 0. -1.
    10030    2    1    2    0    0  0.00000000000E+00  0.00000000000E+00  0.82129877185E+03  0.35107102137E+04  0.34132908654E+04 0.  0.
        2    1    3    3  502    0  0.47220121061E+02  0.16114280904E+04  0.98673198843E+03  0.18901244000E+04  0.25500000920E-02 0.  1.
       -2    1    3    3    0  502 -0.47220121061E+02 -0.16114280904E+04 -0.16543321658E+03  0.16205858137E+04  0.25500000920E-02 0. -1.
</event>
<event>
 5   0  0.4521737E-07  0.3403388E+04  0.7818609E-02  0.8137075E-01
        2   -1    0    0  501    0  0.00000000000E+00  0.00000000000E+00  0.23492531255E+04  0.23492531255E+04  0.25500000920E-02 0.  1.
       -2   -1    0    0    0  501  0.00000000000E+00  0.00000000000E+00 -0.12326311123E+04  0.12326311123E+04  0.25500000920E-02 0. -1.
    10030    2    1    2    0    0  0.00000000000E+00  0.00000000000E+00  0.11166220132E+04  0.35818842378E+04  0.34033880138E+04 0.  0.
        4    1    3    3  502    0 -0.12104605132E+04 -0.10090551636E+04 -0.11751536686E+03  0.15802589824E+04  0.12699999809E+01 0. -1.
       -4    1    3    3    0  502  0.12104605132E+04  0.10090551636E+04  0.12341373801E+04  0.20016252554E+04  0.12699999809E+01 0.  1.
</event>
<event>
 5   0  0.4381939E-07  0.3413429E+04  0.7818609E-02  0.8134618E-01
       -2   -1    0    0    0  501  0.00000000000E+00  0.00000000000E+00  0.98771187312E+03  0.98771187312E+03  0.25500000920E-02 0.  1.
        2   -1    0    0  501    0  0.00000000000E+00  0.00000000000E+00 -0.29491133346E+04  0.29491133346E+04  0.25500000920E-02 0. -1.
    10030    2    1    2    0    0  0.00000000000E+00  0.00000000000E+00 -0.19614014615E+04  0.39368252078E+04  0.34134289246E+04 0.  0.
        3    1    3    3  502    0  0.73814448079E+03  0.34285689933E+03 -0.27108816090E+04  0.28304217417E+04  0.10100000352E+00 0. -1.
       -3    1    3    3    0  502 -0.73814448079E+03 -0.34285689933E+03  0.74948014748E+03  0.11064034660E+04  0.10100000352E+00 0.  1.
</event>
<event>
 5   0  0.4381939E-07  0.3403233E+04  0.7818609E-02  0.8137113E-01
        2   -1    0    0  501    0  0.00000000000E+00  0.00000000000E+00  0.21829763713E+04  0.21829763713E+04  0.25500000920E-02 0. -1.
       -2   -1    0    0    0  501  0.00000000000E+00  0.00000000000E+00 -0.13263993219E+04  0.13263993219E+04  0.25500000920E-02 0.  1.
    10030    2    1    2    0    0  0.00000000000E+00  0.00000000000E+00  0.85657704934E+03  0.35093756932E+04  0.34032328035E+04 0.  0.
        3    1    3    3  502    0  0.13043147311E+04 -0.64700724904E+03 -0.47988568250E+03  0.15330184528E+04  0.10100000352E+00 0.  1.
       -3    1    3    3    0  502 -0.13043147311E+04  0.64700724904E+03  0.13364627318E+04  0.19763572405E+04  0.10100000352E+00 0. -1.
</event>
<event>
 5   0  0.4381939E-07  0.3395741E+04  0.7818609E-02  0.8138952E-01
        2   -1    0    0  501    0  0.00000000000E+00  0.00000000000E+00  0.23180379616E+04  0.23180379616E+04  0.25500000920E-02 0.  1.
       -2   -1    0    0    0  501  0.00000000000E+00  0.00000000000E+00 -0.12436227502E+04  0.12436227502E+04  0.25500000920E-02 0. -1.
    10030    2    1    2    0    0  0.00000000000E+00  0.00000000000E+00  0.10744152114E+04  0.35616607118E+04  0.33957413004E+04 0.  0.
        3    1    3    3  502    0  0.15174354997E+04 -0.67087587215E+03  0.15891932748E+03  0.16667154209E+04  0.10100000352E+00 0. -1.
       -3    1    3    3    0  502 -0.15174354997E+04  0.67087587215E+03  0.91549588391E+03  0.18949452908E+04  0.10100000352E+00 0.  1.
</event>
<event>
 5   0  0.4447909E-07  0.3405753E+04  0.7818609E-02  0.8136496E-01
       -2   -1    0    0    0  501  0.00000000000E+00  0.00000000000E+00  0.91738620200E+03  0.91738620200E+03  0.25500000920E-02 0. -1.
        2   -1    0    0  501    0  0.00000000000E+00  0.00000000000E+00 -0.31609243232E+04  0.31609243232E+04  0.25500000920E-02 0.  1.
    10030    2    1    2    0    0  0.00000000000E+00  0.00000000000E+00 -0.22435381212E+04  0.40783105252E+04  0.34057529914E+04 0.  0.
        5    1    3    3  502    0  0.90820462629E+02 -0.18591725084E+02 -0.31578926134E+04  0.31592565354E+04  0.46999998093E+01 0.  1.
       -5    1    3    3    0  502 -0.90820462629E+02  0.18591725084E+02  0.91435449222E+03  0.91905398978E+03  0.46999998093E+01 0. -1.
</event>
<event>
 5   0  0.1435806E-07  0.3280875E+04  0.7818609E-02  0.8167779E-01
       -1   -1    0    0    0  501  0.00000000000E+00  0.00000000000E+00  0.13290443294E+04  0.13290443294E+04  0.50400001928E-02 0.  1.
        1   -1    0    0  501    0  0.00000000000E+00  0.00000000000E+00 -0.20247899503E+04  0.20247899503E+04  0.50400001928E-02 0. -1.
    10030    2    1    2    0    0  0.00000000000E+00  0.00000000000E+00 -0.69574562091E+03  0.33538342798E+04  0.32808752502E+04 0.  0.
        3    1    3    3  502    0 -0.14310370339E+03  0.11571614181E+04 -0.15274546379E+04  0.19216188223E+04  0.10100000352E+00 0. -1.
       -3    1    3    3    0  502  0.14310370339E+03 -0.11571614181E+04  0.83170901695E+03  0.14322154574E+04  0.10100000352E+00 0.  1.
</event>
<event>
 5   0  0.1520084E-07  0.3395997E+04  0.7818609E-02  0.8138889E-01
       -1   -1    0    0    0  501  0.00000000000E+00  0.00000000000E+00  0.17295918717E+04  0.17295918717E+04  0.50400001928E-02 0. -1.
        1   -1    0    0  501    0  0.00000000000E+00  0.00000000000E+00 -0.16669824772E+04  0.16669824773E+04  0.50400001928E-02 0.  1.
    10030    2    1    2    0    0  0.00000000000E+00  0.00000000000E+00  0.62609394445E+02  0.33965743489E+04  0.33959972573E+04 0.  0.
        2    1    3    3  502    0  0.31790375882E+03  0.12410056597E+04 -0.10833538419E+04  0.16777405622E+04  0.25500000920E-02 0.  1.
       -2    1    3    3    0  502 -0.31790375882E+03 -0.12410056597E+04  0.11459632363E+04  0.17188337867E+04  0.25500000920E-02 0. -1.
</event>
<event>
 5   0  0.1523259E-07  0.3392871E+04  0.7818609E-02  0.8139658E-01
        1   -1    0    0  501    0  0.00000000000E+00  0.00000000000E+00  0.16330963951E+04  0.16330963951E+04  0.50400001928E-02 0. -1.
       -1   -1    0    0    0  501  0.00000000000E+00  0.00000000000E+00 -0.17622314057E+04  0.17622314057E+04  0.50400001928E-02 0.  1.
    10030    2    1    2    0    0  0.00000000000E+00  0.00000000000E+00 -0.12913501062E+03  0.33953278008E+04  0.33928712065E+04 0.  0.
        4    1    3    3  502    0 -0.31985411350E+03 -0.14487725444E+04  0.75861157636E+03  0.16663558071E+04  0.12699999809E+01 0. -1.
       -4    1    3    3    0  502  0.31985411350E+03  0.14487725444E+04 -0.88774658698E+03  0.17289719936E+04  0.12699999809E+01 0.  1.
</event>
<event>
 5   0  0.4381939E-07  0.3319694E+04  0.7818609E-02  0.8157902E-01
        2   -1    0    0  501    0  0.00000000000E+00  0.00000000000E+00  0.25695816234E+04  0.25695816234E+04  0.25500000920E-02 0.  1.
       -2   -1    0    0    0  501  0.00000000000E+00  0.00000000000E+00 -0.10721944816E+04  0.10721944816E+04  0.25500000920E-02 0. -1.
    10030    2    1    2    0    0  0.00000000000E+00  0.00000000000E+00  0.14973871418E+04  0.36417761050E+04  0.33196935019E+04 0.  0.
        3    1    3    3  502    0  0.14708748243E+04  0.73682901040E+03  0.50659826676E+03  0.17213458552E+04  0.10100000352E+00 0. -1.
       -3    1    3    3    0  502 -0.14708748243E+04 -0.73682901040E+03  0.99078887501E+03  0.19204302498E+04  0.10100000352E+00 0.  1.
</event>
<event>
 5   0  0.4381939E-07  0.3405821E+04  0.7818609E-02  0.8136479E-01
       -2   -1    0    0    0  501  0.00000000000E+00  0.00000000000E+00  0.10474770620E+04  0.10474770620E+04  0.25500000920E-02 0.  1.
        2   -1    0    0  501    0  0.00000000000E+00  0.00000000000E+00 -0.27684651411E+04  0.27684651411E+04  0.25500000920E-02 0. -1.
    10030    2    1    2    0    0  0.00000000000E+00  0.00000000000E+00 -0.17209880791E+04  0.38159422031E+04  0.34058207424E+04 0.  0.
        3    1    3    3  502    0  0.71386231505E+03 -0.67316618954E+03 -0.24199093962E+04  0.26112666695E+04  0.10100000352E+00 0. -1.
       -3    1    3    3    0  502 -0.71386231505E+03  0.67316618954E+03  0.69892131708E+03  0.12046755336E+04  0.10100000352E+00 0.  1.
</event>
<event>
 5   0  0.4486226E-07  0.3399004E+04  0.7818609E-02  0.8138151E-01
        2   -1    0    0  501    0  0.00000000000E+00  0.00000000000E+00  0.16087169625E+04  0.16087169625E+04  0.25500000920E-02 0.  1.
       -2   -1    0    0    0  501  0.00000000000E+00  0.00000000000E+00 -0.17954098914E+04  0.17954098914E+04  0.25500000920E-02 0. -1.
    10030    2    1    2    0    0  0.00000000000E+00  0.00000000000E+00 -0.18669292891E+03  0.34041268539E+04  0.33990035875E+04 0.  0.
        1    1    3    3  502    0 -0.43039618074E+03 -0.95669264310E+03  0.12457570358E+04  0.16286228164E+04  0.50400001928E-02 0.  1.
       -1    1    3    3    0  502  0.43039618074E+03  0.95669264310E+03 -0.14324499648E+04  0.17755040375E+04  0.50400001928E-02 0. -1.
</event>
<event>
 5   0  0.1473755E-07  0.3401666E+04  0.7818609E-02  0.8137498E-01
       -1   -1    0    0    0  501  0.00000000000E+00  0.00000000000E+00  0.15351420458E+04  0.15351420458E+04  0.50400001928E-02 0.  1.
        1   -1    0    0  501    0  0.00000000000E+00  0.00000000000E+00 -0.18844072799E+04  0.18844072799E+04  0.50400001928E-02 0. -1.
    10030    2    1    2    0    0  0.00000000000E+00  0.00000000000E+00 -0.34926523413E+03  0.34195493257E+04  0.34016659723E+04 0.  0.
        1    1    3    3  502    0  0.88155235977E+03 -0.67577053490E+03  0.11201732233E+04  0.15775260470E+04  0.50400001928E-02 0.  1.
       -1    1    3    3    0  502 -0.88155235977E+03  0.67577053490E+03 -0.14694384574E+04  0.18420232786E+04  0.50400001928E-02 0. -1.
</event>
<event>
 5   0  0.4396257E-07  0.3407160E+04  0.7818609E-02  0.8136151E-01
       -2   -1    0    0    0  501  0.00000000000E+00  0.00000000000E+00  0.22313745631E+04  0.22313745631E+04  0.25500000920E-02 0.  1.
        2   -1    0    0  501    0  0.00000000000E+00  0.00000000000E+00 -0.13006266138E+04  0.13006266138E+04  0.25500000920E-02 0. -1.
    10030    2    1    2    0    0  0.00000000000E+00  0.00000000000E+00  0.93074794931E+03  0.35320011768E+04  0.34071601911E+04 0.  0.
        2    1    3    3  502    0 -0.51392776011E+03 -0.53880001467E+03  0.20537559352E+04  0.21845687537E+04  0.25500000920E-02 0.  1.
       -2    1    3    3    0  502  0.51392776011E+03  0.53880001467E+03 -0.11230079859E+04  0.13474324231E+04  0.25500000920E-02 0. -1.
</event>
<event>
 5   0  0.4381939E-07  0.3414975E+04  0.7818609E-02  0.8134241E-01
       -2   -1    0    0    0  501  0.00000000000E+00  0.00000000000E+00  0.22246996836E+04  0.22246996836E+04  0.25500000920E-02 0.  1.
        2   -1    0    0  501    0  0.00000000000E+00  0.00000000000E+00 -0.13105202161E+04  0.13105202161E+04  0.25500000920E-02 0. -1.
    10030    2    1    2    0    0  0.00000000000E+00  0.00000000000E+00  0.91417946755E+03  0.35352198997E+04  0.34149752034E+04 0.  0.
        3    1    3    3  502    0 -0.62118662272E+02  0.68005406233E+02  0.22221261413E+04  0.22240341862E+04  0.10100000352E+00 0.  1.
       -3    1    3    3    0  502  0.62118662272E+02 -0.68005406233E+02 -0.13079466738E+04  0.13111857134E+04  0.10100000352E+00 0. -1.
</event>
<event>
 5   0  0.1473755E-07  0.3232760E+04  0.7818609E-02  0.8180219E-01
        1   -1    0    0  501    0  0.00000000000E+00  0.00000000000E+00  0.26577484468E+04  0.26577484468E+04  0.50400001928E-02 0. -1.
       -1   -1    0    0    0  501  0.00000000000E+00  0.00000000000E+00 -0.98304403024E+03  0.98304403025E+03  0.50400001928E-02 0.  1.
    10030    2    1    2    0    0  0.00000000000E+00  0.00000000000E+00  0.16747044166E+04  0.36407924771E+04  0.32327596536E+04 0.  0.
        1    1    3    3  502    0 -0.89291495265E+03 -0.12321413330E+04  0.14513367082E+04  0.21028189694E+04  0.50400001928E-02 0. -1.
       -1    1    3    3    0  502  0.89291495265E+03  0.12321413330E+04  0.22336770835E+03  0.15379735077E+04  0.50400001928E-02 0.  1.
</event>
<event>
 5   0  0.4521737E-07  0.3384758E+04  0.7818609E-02  0.8141657E-01
        2   -1    0    0  501    0  0.00000000000E+00  0.00000000000E+00  0.32959110287E+04  0.32959110287E+04  0.25500000920E-02 0.  1.
       -2   -1    0    0    0  501  0.00000000000E+00  0.00000000000E+00 -0.86900002911E+03  0.86900002911E+03  0.25500000920E-02 0. -1.
    10030    2    1    2    0    0  0.00000000000E+00  0.00000000000E+00  0.24269109996E+04  0.41649110578E+04  0.33847580592E+04 0.  0.
        4    1    3    3  502    0 -0.27077781129E+03 -0.54020844581E+03  0.31586416761E+04  0.32159236059E+04  0.12699999809E+01 0.  1.
       -4    1    3    3    0  502  0.27077781129E+03  0.54020844581E+03 -0.73173067652E+03  0.94898745191E+03  0.12699999809E+01 0. -1.
</event>
<event>
 5   0  0.1421875E-07  0.3400809E+04  0.7818609E-02  0.8137708E-01
       -3   -1    0    0    0  501  0.00000000000E+00  0.00000000000E+00  0.13903888618E+04  0.13903888655E+04  0.10100000352E+00 0. -1.
        3   -1    0    0  501    0  0.00000000000E+00  0.00000000000E+00 -0.20795438751E+04  0.20795438775E+04  0.10100000352E+00 0.  1.
    10030    2    1    2    0    0  0.00000000000E+00  0.00000000000E+00 -0.68915501326E+03  0.34699327430E+04  0.34008085228E+04 0.  0.
        1    1    3    3  502    0  0.10556564509E+04  0.11260425309E+04  0.38336066758E+03  0.15903923180E+04  0.50400001928E-02 0.  1.
       -1    1    3    3    0  502 -0.10556564509E+04 -0.11260425309E+04 -0.10725156808E+04  0.18795404250E+04  0.50400001928E-02 0. -1.
</event>
<event>
 5   0  0.4447909E-07  0.3404178E+04  0.7818609E-02  0.8136882E-01
       -2   -1    0    0    0  501  0.00000000000E+00  0.00000000000E+00  0.17797774905E+04  0.17797774905E+04  0.25500000920E-02 0. -1.
        2   -1    0    0  501    0  0.00000000000E+00  0.00000000000E+00 -0.16277921071E+04  0.16277921071E+04  0.25500000920E-02 0.  1.
    10030    2    1    2    0    0  0.00000000000E+00  0.00000000000E+00  0.15198538332E+03  0.34075695976E+04  0.34041784627E+04 0.  0.
        5    1    3    3  502    0  0.17884440492E+03 -0.92429673351E+03  0.14954235730E+04  0.17670946566E+04  0.46999998093E+01 0. -1.
       -5    1    3    3    0  502 -0.17884440492E+03  0.92429673351E+03 -0.13434381896E+04  0.16404749410E+04  0.46999998093E+01 0.  1.
</event>
<event>
 5   0  0.4521737E-07  0.3375274E+04  0.7818609E-02  0.8144002E-01
        2   -1    0    0  501    0  0.00000000000E+00  0.00000000000E+00  0.22899097956E+04  0.22899097956E+04  0.25500000920E-02 0.  1.
       -2   -1    0    0    0  501  0.00000000000E+00  0.00000000000E+00 -0.12437690498E+04  0.12437690498E+04  0.25500000920E-02 0. -1.
    10030    2    1    2    0    0  0.00000000000E+00  0.00000000000E+00  0.10461407459E+04  0.35336788454E+04  0.33752741700E+04 0.  0.
        4    1    3    3  502    0 -0.10900863497E+04  0.12412253096E+04  0.88450998028E+03  0.18738431197E+04  0.12699999809E+01 0.  1.
       -4    1    3    3    0  502  0.10900863497E+04 -0.12412253096E+04  0.16163076558E+03  0.16598357257E+04  0.12699999809E+01 0. -1.
</event>
<event>
 5   0  0.4381939E-07  0.3412196E+04  0.7818609E-02  0.8134919E-01
       -2   -1    0    0    0  501  0.00000000000E+00  0.00000000000E+00  0.15404555317E+04  0.15404555317E+04  0.25500000920E-02 0.  1.
        2   -1    0    0  501    0  0.00000000000E+00  0.00000000000E+00 -0.18895517429E+04  0.18895517429E+04  0.25500000920E-02 0. -1.
    10030    2    1    2    0    0  0.00000000000E+00  0.00000000000E+00 -0.34909621116E+03  0.34300072746E+04  0.34121960288E+04 0.  0.
        3    1    3    3  502    0 -0.39960554644E+03 -0.36240438578E+03 -0.18015606473E+04  0.18805962639E+04  0.10100000352E+00 0. -1.
       -3    1    3    3    0  502  0.39960554644E+03  0.36240438578E+03  0.14524644361E+04  0.15494110107E+04  0.10100000352E+00 0.  1.
</event>
<event>
 5   0  0.4381939E-07  0.3404059E+04  0.7818609E-02  0.8136911E-01
       -2   -1    0    0    0  501  0.00000000000E+00  0.00000000000E+00  0.13631419998E+04  0.13631419998E+04  0.25500000920E-02 0. -1.
        2   -1    0    0  501    0  0.00000000000E+00  0.00000000000E+00 -0.21251669151E+04  0.21251669151E+04  0.25500000920E-02 0.  1.
    10030    2    1    2    0    0  0.00000000000E+00  0.00000000000E+00 -0.76202491530E+03  0.34883089149E+04  0.34040589176E+04 0.  0.
        3    1    3    3  502    0 -0.93219812350E+03  0.14239210208E+04 -0.36157315263E+03  0.17399079199E+04  0.10100000352E+00 0.  1.
       -3    1    3    3    0  502  0.93219812350E+03 -0.14239210208E+04 -0.40045176267E+03  0.17484009950E+04  0.10100000352E+00 0. -1.
</event>
<event>
 5   0  0.4521737E-07  0.3395972E+04  0.7818609E-02  0.8138896E-01
        2   -1    0    0  501    0  0.00000000000E+00  0.00000000000E+00  0.28738725952E+04  0.28738725952E+04  0.25500000920E-02 0.  1.
       -2   -1    0    0    0  501  0.00000000000E+00  0.00000000000E+00 -0.10032304378E+04  0.10032304378E+04  0.25500000920E-02 0. -1.
    10030    2    1    2    0    0  0.00000000000E+00  0.00000000000E+00  0.18706421574E+04  0.38771030330E+04  0.33959720034E+04 0.  0.
        4    1    3    3  502    0 -0.57410496394E+03 -0.14508663101E+04  0.16999423776E+04  0.23074694493E+04  0.12699999809E+01 0.  1.
       -4    1    3    3    0  502  0.57410496394E+03  0.14508663101E+04  0.17069977985E+03  0.15696335837E+04  0.12699999809E+01 0. -1.
</event>
<event>
 5   0  0.4381939E-07  0.3399690E+04  0.7818609E-02  0.8137982E-01
       -2   -1    0    0    0  501  0.00000000000E+00  0.00000000000E+00  0.13120663141E+04  0.13120663141E+04  0.25500000920E-02 0. -1.
        2   -1    0    0  501    0  0.00000000000E+00  0.00000000000E+00 -0.22022304687E+04  0.22022304687E+04  0.25500000920E-02 0.  1.
    10030    2    1    2    0    0  0.00000000000E+00  0.00000000000E+00 -0.89016415456E+03  0.35142967828E+04  0.33996896410E+04 0.  0.
        3    1    3    3  502    0  0.88601320363E+03  0.10540172815E+04 -0.14754283984E+04  0.20181329976E+04  0.10100000352E+00 0.  1.
       -3    1    3    3    0  502 -0.88601320363E+03 -0.10540172815E+04  0.58526424389E+03  0.14961637852E+04  0.10100000352E+00 0. -1.
</event>
<event>
 5   0  0.1421875E-07  0.3403385E+04  0.7818609E-02  0.8137076E-01
        1   -1    0    0  501    0  0.00000000000E+00  0.00000000000E+00  0.10141575758E+04  0.10141575758E+04  0.50400001928E-02 0. -1.
       -1   -1    0    0    0  501  0.00000000000E+00  0.00000000000E+00 -0.28553322757E+04  0.28553322757E+04  0.50400001928E-02 0.  1.
    10030    2    1    2    0    0  0.00000000000E+00  0.00000000000E+00 -0.18411747000E+04  0.38694898516E+04  0.34033847028E+04 0.  0.
        5    1    3    3  502    0 -0.12647050726E+04 -0.12405045491E+02  0.37379402051E+03  0.13188543762E+04  0.46999998093E+01 0. -1.
       -5    1    3    3    0  502  0.12647050726E+04  0.12405045491E+02 -0.22149687205E+04  0.25506354754E+04  0.46999998093E+01 0.  1.
</event>
<event>
 5   0  0.4486226E-07  0.3403449E+04  0.7818609E-02  0.8137060E-01
        2   -1    0    0  501    0  0.00000000000E+00  0.00000000000E+00  0.22966929017E+04  0.22966929017E+04  0.25500000920E-02 0. -1.
       -2   -1    0    0    0  501  0.00000000000E+00  0.00000000000E+00 -0.12608854483E+04  0.12608854483E+04  0.25500000920E-02 0.  1.
    10030    2    1    2    0    0  0.00000000000E+00  0.00000000000E+00  0.10358074534E+04  0.35575783501E+04  0.34034492263E+04 0.  0.
        1    1    3    3  502    0 -0.20103271982E+03 -0.96728228399E+03  0.19662258650E+04  0.22004757040E+04  0.50400001928E-02 0. -1.
       -1    1    3    3    0  502  0.20103271982E+03  0.96728228399E+03 -0.93041841162E+03  0.13571026461E+04  0.50400001928E-02 0.  1.
</event>
<event>
 5   0  0.1435806E-07  0.3402478E+04  0.7818609E-02  0.8137298E-01
       -1   -1    0    0    0  501  0.00000000000E+00  0.00000000000E+00  0.23919481573E+04  0.23919481573E+04  0.50400001928E-02 0. -1.
        1   -1    0    0  501    0  0.00000000000E+00  0.00000000000E+00 -0.12099818114E+04  0.12099818114E+04  0.50400001928E-02 0.  1.
    10030    2    1    2    0    0  0.00000000000E+00  0.00000000000E+00  0.11819663459E+04  0.36019299688E+04  0.34024777820E+04 0.  0.
        3    1    3    3  502    0 -0.11284852371E+04 -0.64902836961E+03 -0.56843352187E+03  0.14205046406E+04  0.10100000352E+00 0.  1.
       -3    1    3    3    0  502  0.11284852371E+04  0.64902836961E+03  0.17503998678E+04  0.21814253282E+04  0.10100000352E+00 0. -1.
</event>
<event>
 5   0  0.4521737E-07  0.3378878E+04  0.7818609E-02  0.8143110E-01
       -2   -1    0    0    0  501  0.00000000000E+00  0.00000000000E+00  0.25244428975E+04  0.25244428975E+04  0.25500000920E-02 0. -1.
        2   -1    0    0  501    0  0.00000000000E+00  0.00000000000E+00 -0.11306274090E+04  0.11306274090E+04  0.25500000920E-02 0.  1.
    10030    2    1    2    0    0  0.00000000000E+00  0.00000000000E+00  0.13938154885E+04  0.36550703065E+04  0.33788781170E+04 0.  0.
        4    1    3    3  502    0  0.10792394735E+04  0.71589283860E+03 -0.47664009732E+03  0.13800173161E+04  0.12699999809E+01 0.  1.
       -4    1    3    3    0  502 -0.10792394735E+04 -0.71589283860E+03  0.18704555858E+04  0.22750529903E+04  0.12699999809E+01 0. -1.
</event>
<event>
 5   0  0.4521737E-07  0.3420896E+04  0.7818609E-02  0.8132797E-01
       -2   -1    0    0    0  501  0.00000000000E+00  0.00000000000E+00  0.14783795145E+04  0.14783795145E+04  0.25500000920E-02 0. -1.
        2   -1    0    0  501    0  0.00000000000E+00  0.00000000000E+00 -0.19789456684E+04  0.19789456684E+04  0.25500000920E-02 0.  1.
    10030    2    1    2    0    0  0.00000000000E+00  0.00000000000E+00 -0.50056615395E+03  0.34573251829E+04  0.34208962197E+04 0.  0.
        4    1    3    3  502    0 -0.15035885893E+04  0.26008875052E+03  0.53073759297E+03  0.16155831175E+04  0.12699999809E+01 0. -1.
       -4    1    3    3    0  502  0.15035885893E+04 -0.26008875052E+03 -0.10313037469E+04  0.18417420654E+04  0.12699999809E+01 0.  1.
</event>
<event>
 5   0  0.4521737E-07  0.3409608E+04  0.7818609E-02  0.8135552E-01
        2   -1    0    0  501    0  0.00000000000E+00  0.00000000000E+00  0.23244588016E+04  0.23244588016E+04  0.25500000920E-02 0. -1.
       -2   -1    0    0    0  501  0.00000000000E+00  0.00000000000E+00 -0.12503366444E+04  0.12503366444E+04  0.25500000920E-02 0.  1.
    10030    2    1    2    0    0  0.00000000000E+00  0.00000000000E+00  0.10741221573E+04  0.35747954460E+04  0.34096076126E+04 0.  0.
        4    1    3    3  502    0 -0.57393265665E+03 -0.10652637649E+04  0.17961454847E+04  0.21657160013E+04  0.12699999809E+01 0. -1.
       -4    1    3    3    0  502  0.57393265665E+03  0.10652637649E+04 -0.72202332746E+03  0.14090794447E+04  0.12699999809E+01 0.  1.
</event>
<event>
 5   0  0.4486226E-07  0.3398533E+04  0.7818609E-02  0.8138266E-01
       -2   -1    0    0    0  501  0.00000000000E+00  0.00000000000E+00  0.98035521372E+03  0.98035521372E+03  0.25500000920E-02 0. -1.
        2   -1    0    0  501    0  0.00000000000E+00  0.00000000000E+00 -0.29453678108E+04  0.29453678108E+04  0.25500000920E-02 0.  1.
    10030    2    1    2    0    0  0.00000000000E+00  0.00000000000E+00 -0.19650125971E+04  0.39257230245E+04  0.33985330304E+04 0.  0.
        1    1    3    3  502    0 -0.10328244549E+04 -0.43808269776E+03  0.49174173473E+03  0.12249296871E+04  0.50400001928E-02 0. -1.
       -1    1    3    3    0  502  0.10328244549E+04  0.43808269776E+03 -0.24567543318E+04  0.27007933374E+04  0.50400001928E-02 0.  1.
</event>
<event>
 5   0  0.1473755E-07  0.3421548E+04  0.7818609E-02  0.8132638E-01
        1   -1    0    0  501    0  0.00000000000E+00  0.00000000000E+00  0.20406326026E+04  0.20406326026E+04  0.50400001928E-02 0. -1.
       -1   -1    0    0    0  501  0.00000000000E+00  0.00000000000E+00 -0.14342354259E+04  0.14342354259E+04  0.50400001928E-02 0.  1.
    10030    2    1    2    0    0  0.00000000000E+00  0.00000000000E+00  0.60639717669E+03  0.34748680284E+04  0.34215479361E+04 0.  0.
        1    1    3    3  502    0  0.16807538549E+04  0.31510417073E+03  0.35421496987E+03  0.17463368530E+04  0.50400001928E-02 0.  1.
       -1    1    3    3    0  502 -0.16807538549E+04 -0.31510417073E+03  0.25218220682E+03  0.17285311755E+04  0.50400001928E-02 0. -1.
</event>
<event>
 5   0  0.1421875E-07  0.3395437E+04  0.7818609E-02  0.8139027E-01
       -1   -1    0    0    0  501  0.00000000000E+00  0.00000000000E+00  0.13169498704E+04  0.13169498704E+04  0.50400001928E-02 0. -1.
        1   -1    0    0  501    0  0.00000000000E+00  0.00000000000E+00 -0.21885786191E+04  0.21885786191E+04  0.50400001928E-02 0.  1.
    10030    2    1    2    0    0  0.00000000000E+00  0.00000000000E+00 -0.87162874872E+03  0.35055284895E+04  0.33954371317E+04 0.  0.
        5    1    3    3  502    0 -0.27818348083E+03  0.16115914665E+04 -0.90623377079E+03  0.18697312217E+04  0.46999998093E+01 0.  1.
       -5    1    3    3    0  502  0.27818348083E+03 -0.16115914665E+04  0.34605022066E+02  0.16357972679E+04  0.46999998093E+01 0. -1.
</event>
<event>
 5   0  0.4521737E-07  0.3394108E+04  0.7818609E-02  0.8139354E-01
        2   -1    0    0  501    0  0.00000000000E+00  0.00000000000E+00  0.14830472791E+04  0.14830472791E+04  0.25500000920E-02 0. -1.
       -2   -1    0    0    0  501  0.00000000000E+00  0.00000000000E+00 -0.19419427493E+04  0.19419427493E+04  0.25500000920E-02 0.  1.
    10030    2    1    2    0    0  0.00000000000E+00  0.00000000000E+00 -0.45889547019E+03  0.34249900284E+04  0.33941083722E+04 0.  0.
        4    1    3    3  502    0  0.15823295142E+04 -0.60164803609E+03 -0.10901255956E+03  0.16963585712E+04  0.12699999809E+01 0. -1.
       -4    1    3    3    0  502 -0.15823295142E+04  0.60164803609E+03 -0.34988291063E+03  0.17286314572E+04  0.12699999809E+01 0.  1.
</event>
<event>
 5   0  0.4486226E-07  0.3414174E+04  0.7818609E-02  0.8134436E-01
        2   -1    0    0  501    0  0.00000000000E+00  0.00000000000E+00  0.90510024186E+03  0.90510024186E+03  0.25500000920E-02 0.  1.
       -2   -1    0    0    0  501  0.00000000000E+00  0.00000000000E+00 -0.32196940246E+04  0.32196940246E+04  0.25500000920E-02 0. -1.
    10030    2    1    2    0    0  0.00000000000E+00  0.00000000000E+00 -0.23145937827E+04  0.41247942664E+04  0.34141738915E+04 0.  0.
        1    1    3    3  502    0  0.10533655672E+04  0.58095640387E+03  0.30602568136E+03  0.12412659179E+04  0.50400001928E-02 0.  1.
       -1    1    3    3    0  502 -0.10533655672E+04 -0.58095640387E+03 -0.26206194641E+04  0.28835283485E+04  0.50400001928E-02 0. -1.
</event>
<event>
 5   0  0.4396257E-07  0.3390305E+04  0.7818609E-02  0.8140290E-01
        2   -1    0    0  501    0  0.00000000000E+00  0.00000000000E+00  0.97068306324E+03  0.97068306325E+03  0.25500000920E-02 0. -1.
       -2   -1    0    0    0  501  0.00000000000E+00  0.00000000000E+00 -0.29603290537E+04  0.29603290537E+04  0.25500000920E-02 0.  1.
    10030    2    1    2    0    0  0.00000000000E+00  0.00000000000E+00 -0.19896459904E+04  0.39310121169E+04  0.33903045728E+04 0.  0.
        2    1    3    3  502    0 -0.87235713782E+03 -0.41718907920E+03 -0.26091710599E+04  0.27825936325E+04  0.25500000920E-02 0.  1.
       -2    1    3    3    0  502  0.87235713782E+03  0.41718907920E+03  0.61952506947E+03  0.11484184844E+04  0.25500000920E-02 0. -1.
</event>
<event>
 5   0  0.4447909E-07  0.3378570E+04  0.7818609E-02  0.8143186E-01
        2   -1    0    0  501    0  0.00000000000E+00  0.00000000000E+00  0.16584165048E+04  0.16584165048E+04  0.25500000920E-02 0. -1.
       -2   -1    0    0    0  501  0.00000000000E+00  0.00000000000E+00 -0.17207277581E+04  0.17207277581E+04  0.25500000920E-02 0.  1.
    10030    2    1    2    0    0  0.00000000000E+00  0.00000000000E+00 -0.62311253278E+02  0.33791442630E+04  0.33785697059E+04 0.  0.
        5    1    3    3  502    0  0.26788175031E+03  0.10151862140E+04  0.12924354139E+04  0.16651651781E+04  0.46999998093E+01 0. -1.
       -5    1    3    3    0  502 -0.26788175031E+03 -0.10151862140E+04 -0.13547466671E+04  0.17139790849E+04  0.46999998093E+01 0.  1.
</event>
<event>
 5   0  0.4396257E-07  0.3410840E+04  0.7818609E-02  0.8135251E-01
       -2   -1    0    0    0  501  0.00000000000E+00  0.00000000000E+00  0.20645630502E+04  0.20645630502E+04  0.25500000920E-02 0. -1.
        2   -1    0    0  501    0  0.00000000000E+00  0.00000000000E+00 -0.14087517297E+04  0.14087517297E+04  0.25500000920E-02 0.  1.
    10030    2    1    2    0    0  0.00000000000E+00  0.00000000000E+00  0.65581132047E+03  0.34733147799E+04  0.34108396433E+04 0.  0.
        2    1    3    3  502    0 -0.19903169911E+02  0.88980331654E+03  0.18093063931E+04  0.20163669563E+04  0.25500000920E-02 0. -1.
       -2    1    3    3    0  502  0.19903169911E+02 -0.88980331654E+03 -0.11534950726E+04  0.14569478236E+04  0.25500000920E-02 0.  1.
</event>
<event>
 5   0  0.1435806E-07  0.3407093E+04  0.7818609E-02  0.8136168E-01
       -1   -1    0    0    0  501  0.00000000000E+00  0.00000000000E+00  0.21479484564E+04  0.21479484564E+04  0.50400001928E-02 0. -1.
        1   -1    0    0  501    0  0.00000000000E+00  0.00000000000E+00 -0.13510897277E+04  0.13510897277E+04  0.50400001928E-02 0.  1.
    10030    2    1    2    0    0  0.00000000000E+00  0.00000000000E+00  0.79685872874E+03  0.34990381842E+04  0.34070932451E+04 0.  0.
        3    1    3    3  502    0 -0.14706421566E+04  0.44920525910E+03 -0.35449756943E+03  0.15780501433E+04  0.10100000352E+00 0.  1.
       -3    1    3    3    0  502  0.14706421566E+04 -0.44920525910E+03  0.11513562982E+04  0.19209880409E+04  0.10100000352E+00 0. -1.
</event>
<event>
 5   0  0.4486226E-07  0.3406191E+04  0.7818609E-02  0.8136389E-01
       -2   -1    0    0    0  501  0.00000000000E+00  0.00000000000E+00  0.16286549302E+04  0.16286549302E+04  0.25500000920E-02 0. -1.
        2   -1    0    0  501    0  0.00000000000E+00  0.00000000000E+00 -0.17809385412E+04  0.17809385412E+04  0.25500000920E-02 0.  1.
    10030    2    1    2    0    0  0.00000000000E+00  0.00000000000E+00 -0.15228361103E+03  0.34095934714E+04  0.34061910313E+04 0.  0.
        1    1    3    3  502    0  0.92208989480E+03 -0.74269803115E+03  0.11492886327E+04  0.16500649990E+04  0.50400001928E-02 0. -1.
       -1    1    3    3    0  502 -0.92208989480E+03  0.74269803115E+03 -0.13015722437E+04  0.17595284724E+04  0.50400001928E-02 0.  1.
</event>
<event>
 5   0  0.1523259E-07  0.3400703E+04  0.7818609E-02  0.8137734E-01
        1   -1    0    0  501    0  0.00000000000E+00  0.00000000000E+00  0.28454589505E+04  0.28454589505E+04  0.50400001928E-02 0. -1.
       -1   -1    0    0    0  501  0.00000000000E+00  0.00000000000E+00 -0.10160733865E+04  0.10160733866E+04  0.50400001928E-02 0.  1.
    10030    2    1    2    0    0  0.00000000000E+00  0.00000000000E+00  0.18293855639E+04  0.38615323370E+04  0.34007029345E+04 0.  0.
        4    1    3    3  502    0 -0.95078385454E+03  0.66733320205E+03  0.23246789534E+04  0.25987415012E+04  0.12699999809E+01 0. -1.
       -4    1    3    3    0  502  0.95078385454E+03 -0.66733320205E+03 -0.49529338946E+03  0.12627908359E+04  0.12699999809E+01 0.  1.
</event>
<event>
 5   0  0.1523259E-07  0.3396449E+04  0.7818609E-02  0.8138778E-01
       -1   -1    0    0    0  501  0.00000000000E+00  0.00000000000E+00  0.17975173572E+04  0.17975173572E+04  0.50400001928E-02 0.  1.
        1   -1    0    0  501    0  0.00000000000E+00  0.00000000000E+00 -0.16044166721E+04  0.16044166721E+04  0.50400001928E-02 0. -1.
    10030    2    1    2    0    0  0.00000000000E+00  0.00000000000E+00  0.19310068510E+03  0.34019340293E+04  0.33964492143E+04 0.  0.
        4    1    3    3  502    0  0.91139708552E+03 -0.11425275205E+04  0.96278879473E+03  0.17501364686E+04  0.12699999809E+01 0.  1.
       -4    1    3    3    0  502 -0.91139708552E+03  0.11425275205E+04 -0.76968810963E+03  0.16517975607E+04  0.12699999809E+01 0. -1.
</event>
<event>
 5   0  0.4381939E-07  0.3396310E+04  0.7818609E-02  0.8138812E-01
        2   -1    0    0  501    0  0.00000000000E+00  0.00000000000E+00  0.16934595140E+04  0.16934595140E+04  0.25500000920E-02 0.  1.
       -2   -1    0    0    0  501  0.00000000000E+00  0.00000000000E+00 -0.17028639354E+04  0.17028639354E+04  0.25500000920E-02 0. -1.
    10030    2    1    2    0    0  0.00000000000E+00  0.00000000000E+00 -0.94044213542E+01  0.33963234494E+04  0.33963104290E+04 0.  0.
        3    1    3    3  502    0  0.13681709095E+04  0.68317733623E+02 -0.10082857371E+04  0.17009406480E+04  0.10100000352E+00 0. -1.
       -3    1    3    3    0  502 -0.13681709095E+04 -0.68317733623E+02  0.99888131571E+03  0.16953828014E+04  0.10100000352E+00 0.  1.
</event>
<event>
 5   0  0.4447909E-07  0.3401531E+04  0.7818609E-02  0.8137531E-01
       -2   -1    0    0    0  501  0.00000000000E+00  0.00000000000E+00  0.16441131718E+04  0.16441131718E+04  0.25500000920E-02 0. -1.
        2   -1    0    0  501    0  0.00000000000E+00  0.00000000000E+00 -0.17593697122E+04  0.17593697122E+04  0.25500000920E-02 0.  1.
    10030    2    1    2    0    0  0.00000000000E+00  0.00000000000E+00 -0.11525654037E+03  0.34034828840E+04  0.34015307835E+04 0.  0.
        5    1    3    3  502    0  0.88632117137E+03  0.15098487935E+03  0.13868827480E+04  0.16528240981E+04  0.46999998093E+01 0. -1.
       -5    1    3    3    0  502 -0.88632117137E+03 -0.15098487935E+03 -0.15021392884E+04  0.17506587858E+04  0.46999998093E+01 0.  1.
</event>
<event>
 5   0  0.4447909E-07  0.3393630E+04  0.7818609E-02  0.8139471E-01
        2   -1    0    0  501    0  0.00000000000E+00  0.00000000000E+00  0.19077605932E+04  0.19077605932E+04  0.25500000920E-02 0. -1.
       -2   -1    0    0    0  501  0.00000000000E+00  0.00000000000E+00 -0.15091943404E+04  0.15091943404E+04  0.25500000920E-02 0.  1.
    10030    2    1    2    0    0  0.00000000000E+00  0.00000000000E+00  0.39856625278E+03  0.34169549336E+04  0.33936302039E+04 0.  0.
        5    1    3    3  502    0 -0.12725717919E+04  0.48451584639E+03  0.12186469483E+04  0.18273798306E+04  0.46999998093E+01 0. -1.
       -5    1    3    3    0  502  0.12725717919E+04 -0.48451584639E+03 -0.82008069552E+03  0.15895751030E+04  0.46999998093E+01 0.  1.
</event>
<event>
 5   0  0.4486226E-07  0.3398666E+04  0.7818609E-02  0.8138234E-01
       -2   -1    0    0    0  501  0.00000000000E+00  0.00000000000E+00  0.11693145898E+04  0.11693145898E+04  0.25500000920E-02 0.  1.
        2   -1    0    0  501    0  0.00000000000E+00  0.00000000000E+00 -0.24695950212E+04  0.24695950212E+04  0.25500000920E-02 0. -1.
    10030    2    1    2    0    0  0.00000000000E+00  0.00000000000E+00 -0.13002804314E+04  0.36389096109E+04  0.33986664968E+04 0.  0.
        1    1    3    3  502    0  0.84431068399E+03  0.55701265459E+03 -0.21121716355E+04  0.23418780170E+04  0.50400001928E-02 0. -1.
       -1    1    3    3    0  502 -0.84431068399E+03 -0.55701265459E+03  0.81189120409E+03  0.12970315940E+04  0.50400001928E-02 0.  1.
</event>
<event>
 5   0  0.1473755E-07  0.3401509E+04  0.7818609E-02  0.8137536E-01
        1   -1    0    0  501    0  0.00000000000E+00  0.00000000000E+00  0.22949068202E+04  0.22949068202E+04  0.50400001928E-02 0.  1.
       -1   -1    0    0    0  501  0.00000000000E+00  0.00000000000E+00 -0.12604288116E+04  0.12604288116E+04  0.50400001928E-02 0. -1.
    10030    2    1    2    0    0  0.00000000000E+00  0.00000000000E+00  0.10344780086E+04  0.35553356319E+04  0.34015094745E+04 0.  0.
        1    1    3    3  502    0  0.65421556042E+03  0.14305240739E+04  0.11931431707E+04  0.19743322292E+04  0.50400001928E-02 0.  1.
       -1    1    3    3    0  502 -0.65421556042E+03 -0.14305240739E+04 -0.15866516205E+03  0.15810034027E+04  0.50400001928E-02 0. -1.
</event>
<event>
 5   0  0.1421875E-07  0.3384566E+04  0.7818609E-02  0.8141705E-01
       -3   -1    0    0    0  501  0.00000000000E+00  0.00000000000E+00  0.13460098035E+04  0.13460098073E+04  0.10100000352E+00 0.  1.
        3   -1    0    0  501    0  0.00000000000E+00  0.00000000000E+00 -0.21276383698E+04  0.21276383722E+04  0.10100000352E+00 0. -1.
    10030    2    1    2    0    0  0.00000000000E+00  0.00000000000E+00 -0.78162856626E+03  0.34736481795E+04  0.33845662143E+04 0.  0.
        1    1    3    3  502    0  0.37724247192E+03  0.12757117126E+04 -0.14643224226E+04  0.19783812609E+04  0.50400001928E-02 0. -1.
       -1    1    3    3    0  502 -0.37724247192E+03 -0.12757117126E+04  0.68269385632E+03  0.14952669186E+04  0.50400001928E-02 0.  1.
</event>
<event>
 5   0  0.4447909E-07  0.3396858E+04  0.7818609E-02  0.8138678E-01
        2   -1    0    0  501    0  0.00000000000E+00  0.00000000000E+00  0.23301610085E+04  0.23301610085E+04  0.25500000920E-02 0.  1.
       -2   -1    0    0    0  501  0.00000000000E+00  0.00000000000E+00 -0.12379664053E+04  0.12379664053E+04  0.25500000920E-02 0. -1.
    10030    2    1    2    0    0  0.00000000000E+00  0.00000000000E+00  0.10921946032E+04  0.35681274138E+04  0.33968579879E+04 0.  0.
        5    1    3    3  502    0  0.13577502407E+03  0.16701575206E+04  0.25503816400E+03  0.16949712552E+04  0.46999998093E+01 0. -1.
       -5    1    3    3    0  502 -0.13577502407E+03 -0.16701575206E+04  0.83715643920E+03  0.18731561586E+04  0.46999998093E+01 0.  1.
</event>
<event>
 5   0  0.4396257E-07  0.3386714E+04  0.7818609E-02  0.8141175E-01
       -2   -1    0    0    0  501  0.00000000000E+00  0.00000000000E+00  0.10418990201E+04  0.10418990201E+04  0.25500000920E-02 0. -1.
        2   -1    0    0  501    0  0.00000000000E+00  0.00000000000E+00 -0.27521453008E+04  0.27521453008E+04  0.25500000920E-02 0.  1.
    10030    2    1    2    0    0  0.00000000000E+00  0.00000000000E+00 -0.17102462807E+04  0.37940443209E+04  0.33867137417E+04 0.  0.
        2    1    3    3  502    0 -0.16437549628E+04 -0.32958853188E+03 -0.11223464707E+04  0.20174787678E+04  0.25500000920E-02 0.  1.
       -2    1    3    3    0  502  0.16437549628E+04  0.32958853188E+03 -0.58789981000E+03  0.17765655531E+04  0.25500000920E-02 0. -1.
</event>
<event>
 5   0  0.4381939E-07  0.3400488E+04  0.7818609E-02  0.8137787E-01
        2   -1    0    0  501    0  0.00000000000E+00  0.00000000000E+00  0.13112547038E+04  0.13112547038E+04  0.25500000920E-02 0. -1.
       -2   -1    0    0    0  501  0.00000000000E+00  0.00000000000E+00 -0.22046285915E+04  0.22046285915E+04  0.25500000920E-02 0.  1.
    10030    2    1    2    0    0  0.00000000000E+00  0.00000000000E+00 -0.89337388772E+03  0.35158832953E+04  0.34004879713E+04 0.  0.
        3    1    3    3  502    0 -0.28416048817E+03  0.28990044347E+03 -0.21537883967E+04  0.21917102724E+04  0.10100000352E+00 0.  1.
       -3    1    3    3    0  502  0.28416048817E+03 -0.28990044347E+03  0.12604145089E+04  0.13241730229E+04  0.10100000352E+00 0. -1.
</event>
<event>
 5   0  0.1473755E-07  0.3413491E+04  0.7818609E-02  0.8134603E-01
       -1   -1    0    0    0  501  0.00000000000E+00  0.00000000000E+00  0.20656472961E+04  0.20656472961E+04  0.50400001928E-02 0.  1.
        1   -1    0    0  501    0  0.00000000000E+00  0.00000000000E+00 -0.14102019620E+04  0.14102019620E+04  0.50400001928E-02 0. -1.
    10030    2    1    2    0    0  0.00000000000E+00  0.00000000000E+00  0.65544533407E+03  0.34758492582E+04  0.34134908055E+04 0.  0.
        1    1    3    3  502    0 -0.12063630830E+04  0.76123177274E+03 -0.62651701117E+03  0.15579824342E+04  0.50400001928E-02 0. -1.
       -1    1    3    3    0  502  0.12063630830E+04 -0.76123177274E+03  0.12819623452E+04  0.19178668240E+04  0.50400001928E-02 0.  1.
</event>
<event>
 5   0  0.4381939E-07  0.3434221E+04  0.7818609E-02  0.8129558E-01
        2   -1    0    0  501    0  0.00000000000E+00  0.00000000000E+00  0.18483439305E+04  0.18483439305E+04  0.25500000920E-02 0. -1.
       -2   -1    0    0    0  501  0.00000000000E+00  0.00000000000E+00 -0.15951943177E+04  0.15951943177E+04  0.25500000920E-02 0.  1.
    10030    2    1    2    0    0  0.00000000000E+00  0.00000000000E+00  0.25314961283E+03  0.34435382482E+04  0.34342205724E+04 0.  0.
        3    1    3    3  502    0  0.95948442706E+03  0.32883508178E+03  0.15158753920E+04  0.18239027088E+04  0.10100000352E+00 0. -1.
       -3    1    3    3    0  502 -0.95948442706E+03 -0.32883508178E+03 -0.12627257792E+04  0.16196355394E+04  0.10100000352E+00 0.  1.
</event>
<event>
 5   0  0.4447909E-07  0.3393355E+04  0.7818609E-02  0.8139539E-01
        2   -1    0    0  501    0  0.00000000000E+00  0.00000000000E+00  0.23688951623E+04  0.23688951623E+04  0.25500000920E-02 0.  1.
       -2   -1    0    0    0  501  0.00000000000E+00  0.00000000000E+00 -0.12152138171E+04  0.12152138171E+04  0.25500000920E-02 0. -1.
    10030    2    1    2    0    0  0.00000000000E+00  0.00000000000E+00  0.11536813452E+04  0.35841089794E+04  0.33933547604E+04 0.  0.
        5    1    3    3  502    0  0.48380211859E+03 -0.96318462448E+03 -0.80712338689E+03  0.13465731924E+04  0.46999998093E+01 0. -1.
       -5    1    3    3    0  502 -0.48380211859E+03  0.96318462448E+03  0.19608047321E+04  0.22375357870E+04  0.46999998093E+01 0.  1.
</event>
<event>
 5   0  0.1473755E-07  0.3453085E+04  0.7818609E-02  0.8124999E-01
       -1   -1    0    0    0  501  0.00000000000E+00  0.00000000000E+00  0.20873301443E+04  0.20873301443E+04  0.50400001928E-02 0.  1.
        1   -1    0    0  501    0  0.00000000000E+00  0.00000000000E+00 -0.14281155425E+04  0.14281155425E+04  0.50400001928E-02 0. -1.
    10030    2    1    2    0    0  0.00000000000E+00  0.00000000000E+00  0.65921460178E+03  0.35154456868E+04  0.34530847782E+04 0.  0.
        1    1    3    3  502    0 -0.61761796893E+03  0.14280331353E+04  0.10916015481E+04  0.19006116202E+04  0.50400001928E-02 0. -1.
       -1    1    3    3    0  502  0.61761796893E+03 -0.14280331353E+04 -0.43238694630E+03  0.16148340666E+04  0.50400001928E-02 0.  1.
</event>
<event>
 5   0  0.1520084E-07  0.3402162E+04  0.7818609E-02  0.8137376E-01
       -1   -1    0    0    0  501  0.00000000000E+00  0.00000000000E+00  0.10616814530E+04  0.10616814530E+04  0.50400001928E-02 0. -1.
        1   -1    0    0  501    0  0.00000000000E+00  0.00000000000E+00 -0.27255596298E+04  0.27255596298E+04  0.50400001928E-02 0.  1.
    10030    2    1    2    0    0  0.00000000000E+00  0.00000000000E+00 -0.16638781768E+04  0.37872410827E+04  0.34021617292E+04 0.  0.
        2    1    3    3  502    0 -0.56991600359E+03  0.20684393541E+03  0.93732306200E+03  0.11163167952E+04  0.25500000920E-02 0. -1.
       -2    1    3    3    0  502  0.56991600359E+03 -0.20684393541E+03 -0.26012012388E+04  0.26709242875E+04  0.25500000920E-02 0.  1.
</event>
<event>
 5   0  0.4521737E-07  0.3379670E+04  0.7818609E-02  0.8142914E-01
        2   -1    0    0  501    0  0.00000000000E+00  0.00000000000E+00  0.24108308233E+04  0.24108308233E+04  0.25500000920E-02 0.  1.
       -2   -1    0    0    0  501  0.00000000000E+00  0.00000000000E+00 -0.11844638040E+04  0.11844638040E+04  0.25500000920E-02 0. -1.
    10030    2    1    2    0    0  0.00000000000E+00  0.00000000000E+00  0.12263670193E+04  0.35952946273E+04  0.33796697162E+04 0.  0.
        4    1    3    3  502    0 -0.94914290019E+03  0.10963177573E+04  0.15361525963E+04  0.21124751553E+04  0.12699999809E+01 0.  1.
       -4    1    3    3    0  502  0.94914290019E+03 -0.10963177573E+04 -0.30978557693E+03  0.14828194720E+04  0.12699999809E+01 0. -1.
</event>
<event>
 5   0  0.4521737E-07  0.3406647E+04  0.7818609E-02  0.8136277E-01
        2   -1    0    0  501    0  0.00000000000E+00  0.00000000000E+00  0.13844963626E+04  0.13844963626E+04  0.25500000920E-02 0.  1.
       -2   -1    0    0    0  501  0.00000000000E+00  0.00000000000E+00 -0.20955713433E+04  0.20955713433E+04  0.25500000920E-02 0. -1.
    10030    2    1    2    0    0  0.00000000000E+00  0.00000000000E+00 -0.71107498077E+03  0.34800677059E+04  0.34066469746E+04 0.  0.
        4    1    3    3  502    0  0.21510204320E+03  0.12029844408E+04  0.85657146664E+03  0.14923661562E+04  0.12699999809E+01 0.  1.
       -4    1    3    3    0  502 -0.21510204320E+03 -0.12029844408E+04 -0.15676464474E+04  0.19877015497E+04  0.12699999809E+01 0. -1.
</event>
<event>
 5   0  0.4396257E-07  0.3394032E+04  0.7818609E-02  0.8139373E-01
        2   -1    0    0  501    0  0.00000000000E+00  0.00000000000E+00  0.22753745971E+04  0.22753745971E+04  0.25500000920E-02 0. -1.
       -2   -1    0    0    0  501  0.00000000000E+00  0.00000000000E+00 -0.12656652857E+04  0.12656652857E+04  0.25500000920E-02 0.  1.
    10030    2    1    2    0    0  0.00000000000E+00  0.00000000000E+00  0.10097093114E+04  0.35410398828E+04  0.33940316083E+04 0.  0.
        2    1    3    3  502    0 -0.40957683143E+03 -0.11668586931E+04 -0.70761341139E+03  0.14247909076E+04  0.25500000920E-02 0.  1.
       -2    1    3    3    0  502  0.40957683143E+03  0.11668586931E+04  0.17173227228E+04  0.21162489751E+04  0.25500000920E-02 0. -1.
</event>
<event>
 5   0  0.4486226E-07  0.3256584E+04  0.7818609E-02  0.8174031E-01
       -2   -1    0    0    0  501  0.00000000000E+00  0.00000000000E+00  0.15227213936E+04  0.15227213936E+04  0.25500000920E-02 0. -1.
        2   -1    0    0  501    0  0.00000000000E+00  0.00000000000E+00 -0.17411821267E+04  0.17411821267E+04  0.25500000920E-02 0.  1.
    10030    2    1    2    0    0  0.00000000000E+00  0.00000000000E+00 -0.21846073309E+03  0.32639035204E+04  0.32565842686E+04 0.  0.
        1    1    3    3  502    0  0.58736091039E+03 -0.13940897325E+04 -0.71295972848E+03  0.16723607852E+04  0.50400001928E-02 0.  1.
       -1    1    3    3    0  502 -0.58736091039E+03  0.13940897325E+04  0.49449899539E+03  0.15915427352E+04  0.50400001928E-02 0. -1.
</event>
<event>
 5   0  0.4521737E-07  0.3408805E+04  0.7818609E-02  0.8135749E-01
       -2   -1    0    0    0  501  0.00000000000E+00  0.00000000000E+00  0.10790745614E+04  0.10790745614E+04  0.25500000920E-02 0.  1.
        2   -1    0    0  501    0  0.00000000000E+00  0.00000000000E+00 -0.26921109335E+04  0.26921109335E+04  0.25500000920E-02 0. -1.
    10030    2    1    2    0    0  0.00000000000E+00  0.00000000000E+00 -0.16130363721E+04  0.37711854950E+04  0.34088053185E+04 0.  0.
        4    1    3    3  502    0 -0.20390993929E+03 -0.93946368340E+03 -0.23635508119E+04  0.25515770279E+04  0.12699999809E+01 0. -1.
       -4    1    3    3    0  502  0.20390993929E+03  0.93946368340E+03  0.75051443981E+03  0.12196084671E+04  0.12699999809E+01 0.  1.
</event>
<event>
 5   0  0.4381939E-07  0.3358989E+04  0.7818609E-02  0.8148046E-01
       -2   -1    0    0    0  501  0.00000000000E+00  0.00000000000E+00  0.13928925910E+04  0.13928925910E+04  0.25500000920E-02 0. -1.
        2   -1    0    0  501    0  0.00000000000E+00  0.00000000000E+00 -0.20250672689E+04  0.20250672689E+04  0.25500000920E-02 0.  1.
    10030    2    1    2    0    0  0.00000000000E+00  0.00000000000E+00 -0.63217467785E+03  0.34179598599E+04  0.33589886544E+04 0.  0.
        3    1    3    3  502    0 -0.16019580777E+03 -0.44895726511E+03  0.13226129351E+04  0.14058912863E+04  0.10100000352E+00 0. -1.
       -3    1    3    3    0  502  0.16019580777E+03  0.44895726511E+03 -0.19547876129E+04  0.20120685735E+04  0.10100000352E+00 0.  1.
</event>
<event>
 5   0  0.1435806E-07  0.3378343E+04  0.7818609E-02  0.8143242E-01
        1   -1    0    0  501    0  0.00000000000E+00  0.00000000000E+00  0.18464794420E+04  0.18464794420E+04  0.50400001928E-02 0.  1.
       -1   -1    0    0    0  501  0.00000000000E+00  0.00000000000E+00 -0.15452648545E+04  0.15452648546E+04  0.50400001928E-02 0. -1.
    10030    2    1    2    0    0  0.00000000000E+00  0.00000000000E+00  0.30121458749E+03  0.33917442966E+04  0.33783426626E+04 0.  0.
        3    1    3    3  502    0  0.14142373621E+04  0.26372953215E+03  0.10393756101E+04  0.17748020317E+04  0.10100000352E+00 0.  1.
       -3    1    3    3    0  502 -0.14142373621E+04 -0.26372953215E+03 -0.73816102258E+03  0.16169422649E+04  0.10100000352E+00 0. -1.
</event>
<event>
 5   0  0.1435806E-07  0.3405128E+04  0.7818609E-02  0.8136649E-01
        1   -1    0    0  501    0  0.00000000000E+00  0.00000000000E+00  0.98669030458E+03  0.98669030459E+03  0.50400001928E-02 0.  1.
       -1   -1    0    0    0  501  0.00000000000E+00  0.00000000000E+00 -0.29378259193E+04  0.29378259193E+04  0.50400001928E-02 0. -1.
    10030    2    1    2    0    0  0.00000000000E+00  0.00000000000E+00 -0.19511356147E+04  0.39245162239E+04  0.34051281040E+04 0.  0.
        3    1    3    3  502    0  0.70397960429E+03  0.40680090291E+00  0.81109225244E+03  0.10739916671E+04  0.10100000352E+00 0.  1.
       -3    1    3    3    0  502 -0.70397960429E+03 -0.40680090291E+00 -0.27622278671E+04  0.28505245568E+04  0.10100000352E+00 0. -1.
</event>
<event>
 5   0  0.1523259E-07  0.3400874E+04  0.7818609E-02  0.8137692E-01
       -1   -1    0    0    0  501  0.00000000000E+00  0.00000000000E+00  0.10773386225E+04  0.10773386225E+04  0.50400001928E-02 0.  1.
        1   -1    0    0  501    0  0.00000000000E+00  0.00000000000E+00 -0.26839149115E+04  0.26839149115E+04  0.50400001928E-02 0. -1.
    10030    2    1    2    0    0  0.00000000000E+00  0.00000000000E+00 -0.16065762891E+04  0.37612535340E+04  0.34008735311E+04 0.  0.
        4    1    3    3  502    0 -0.56571999084E+03  0.11486577935E+04  0.43422394489E+03  0.13520376777E+04  0.12699999809E+01 0. -1.
       -4    1    3    3    0  502  0.56571999084E+03 -0.11486577935E+04 -0.20408002339E+04  0.24092158563E+04  0.12699999809E+01 0.  1.
</event>
<event>
 5   0  0.1473755E-07  0.3385477E+04  0.7818609E-02  0.8141480E-01
        1   -1    0    0  501    0  0.00000000000E+00  0.00000000000E+00  0.18913798981E+04  0.18913798981E+04  0.50400001928E-02 0. -1.
       -1   -1    0    0    0  501  0.00000000000E+00  0.00000000000E+00 -0.15149590429E+04  0.15149590429E+04  0.50400001928E-02 0.  1.
    10030    2    1    2    0    0  0.00000000000E+00  0.00000000000E+00  0.37642085515E+03  0.34063389410E+04  0.33854766756E+04 0.  0.
        1    1    3    3  502    0  0.12955866768E+04 -0.55036830868E+03 -0.75774960174E+03  0.15986352215E+04  0.50400001928E-02 0.  1.
       -1    1    3    3    0  502 -0.12955866768E+04  0.55036830868E+03  0.11341704569E+04  0.18077037196E+04  0.50400001928E-02 0. -1.
</event>
<event>
 5   0  0.4486226E-07  0.3408377E+04  0.7818609E-02  0.8135853E-01
        2   -1    0    0  501    0  0.00000000000E+00  0.00000000000E+00  0.12751782172E+04  0.12751782172E+04  0.25500000920E-02 0. -1.
       -2   -1    0    0    0  501  0.00000000000E+00  0.00000000000E+00 -0.22775318252E+04  0.22775318252E+04  0.25500000920E-02 0.  1.
    10030    2    1    2    0    0  0.00000000000E+00  0.00000000000E+00 -0.10023536080E+04  0.35527100424E+04  0.34083773104E+04 0.  0.
        1    1    3    3  502    0 -0.12400328996E+04 -0.95482376939E+03 -0.12041921279E+04  0.19747021810E+04  0.50400001928E-02 0.  1.
       -1    1    3    3    0  502  0.12400328996E+04  0.95482376939E+03  0.20183851993E+03  0.15780078614E+04  0.50400001928E-02 0. -1.
</event>
<event>
 5   0  0.4521737E-07  0.3408102E+04  0.7818609E-02  0.8135921E-01
       -2   -1    0    0    0  501  0.00000000000E+00  0.00000000000E+00  0.31000404053E+04  0.31000404053E+04  0.25500000920E-02 0. -1.
        2   -1    0    0  501    0  0.00000000000E+00  0.00000000000E+00 -0.93669402503E+03  0.93669402503E+03  0.25500000920E-02 0.  1.
    10030    2    1    2    0    0  0.00000000000E+00  0.00000000000E+00  0.21633463802E+04  0.40367344303E+04  0.34081017150E+04 0.  0.
        4    1    3    3  502    0  0.14362804376E+04  0.77501412287E+03  0.16622232596E+04  0.23294926838E+04  0.12699999809E+01 0. -1.
       -4    1    3    3    0  502 -0.14362804376E+04 -0.77501412287E+03  0.50112312061E+03  0.17072417465E+04  0.12699999809E+01 0.  1.
</event>
<event>
 5   0  0.4396257E-07  0.3369192E+04  0.7818609E-02  0.8145509E-01
       -2   -1    0    0    0  501  0.00000000000E+00  0.00000000000E+00  0.14605719561E+04  0.14605719561E+04  0.25500000920E-02 0. -1.
        2   -1    0    0  501    0  0.00000000000E+00  0.00000000000E+00 -0.19429808453E+04  0.19429808453E+04  0.25500000920E-02 0.  1.
    10030    2    1    2    0    0  0.00000000000E+00  0.00000000000E+00 -0.48240888917E+03  0.34035528013E+04  0.33691917926E+04 0.  0.
        2    1    3    3  502    0 -0.67414781781E+03  0.98866402701E+03  0.95660804835E+03  0.15320022183E+04  0.25500000920E-02 0. -1.
       -2    1    3    3    0  502  0.67414781781E+03 -0.98866402701E+03 -0.14390169375E+04  0.18715505831E+04  0.25500000920E-02 0.  1.
</event>
<event>
 5   0  0.1421875E-07  0.3398592E+04  0.7818609E-02  0.8138252E-01
        1   -1    0    0  501    0  0.00000000000E+00  0.00000000000E+00  0.20842506411E+04  0.20842506412E+04  0.50400001928E-02 0.  1.
       -1   -1    0    0    0  501  0.00000000000E+00  0.00000000000E+00 -0.13854414559E+04  0.13854414559E+04  0.50400001928E-02 0. -1.
    10030    2    1    2    0    0  0.00000000000E+00  0.00000000000E+00  0.69880918528E+03  0.34696920970E+04  0.33985922042E+04 0.  0.
        5    1    3    3  502    0  0.14375381864E+04  0.90465980513E+03  0.29675288230E+03  0.17242417938E+04  0.46999998093E+01 0.  1.
       -5    1    3    3    0  502 -0.14375381864E+04 -0.90465980513E+03  0.40205630298E+03  0.17454503032E+04  0.46999998093E+01 0. -1.
</event>
<event>
 5   0  0.1435806E-07  0.3408859E+04  0.7818609E-02  0.8135735E-01
        1   -1    0    0  501    0  0.00000000000E+00  0.00000000000E+00  0.12574044545E+04  0.12574044545E+04  0.50400001928E-02 0.  1.
       -1   -1    0    0    0  501  0.00000000000E+00  0.00000000000E+00 -0.23103786113E+04  0.23103786113E+04  0.50400001928E-02 0. -1.
    10030    2    1    2    0    0  0.00000000000E+00  0.00000000000E+00 -0.10529741568E+04  0.35677830659E+04  0.34088592564E+04 0.  0.
        3    1    3    3  502    0  0.49919975599E+03 -0.59293672237E+03  0.10622771171E+04  0.13149931699E+04  0.10100000352E+00 0.  1.
       -3    1    3    3    0  502 -0.49919975599E+03  0.59293672237E+03 -0.21152512740E+04  0.22527898960E+04  0.10100000352E+00 0. -1.
</event>
<event>
 5   0  0.4486226E-07  0.3566681E+04  0.7818609E-02  0.8098167E-01
        2   -1    0    0  501    0  0.00000000000E+00  0.00000000000E+00  0.13440776505E+04  0.13440776505E+04  0.25500000920E-02 0.  1.
       -2   -1    0    0    0  501  0.00000000000E+00  0.00000000000E+00 -0.23661600202E+04  0.23661600202E+04  0.25500000920E-02 0. -1.
    10030    2    1    2    0    0  0.00000000000E+00  0.00000000000E+00 -0.10220823697E+04  0.37102376707E+04  0.35666806981E+04 0.  0.
        1    1    3    3  502    0 -0.13380584430E+04  0.88890713320E+03 -0.13166447223E+04  0.20770434789E+04  0.50400001928E-02 0. -1.
       -1    1    3    3    0  502  0.13380584430E+04 -0.88890713320E+03  0.29456235258E+03  0.16331941918E+04  0.50400001928E-02 0.  1.
</event>
<event>
 5   0  0.1523259E-07  0.3420574E+04  0.7818609E-02  0.8132875E-01
        1   -1    0    0  501    0  0.00000000000E+00  0.00000000000E+00  0.23490566806E+04  0.23490566806E+04  0.50400001928E-02 0.  1.
       -1   -1    0    0    0  501  0.00000000000E+00  0.00000000000E+00 -0.12452154178E+04  0.12452154178E+04  0.50400001928E-02 0. -1.
    10030    2    1    2    0    0  0.00000000000E+00  0.00000000000E+00  0.11038412628E+04  0.35942720984E+04  0.34205739845E+04 0.  0.
        4    1    3    3  502    0 -0.60246406073E+03  0.12559278521E+04 -0.49082328162E+03  0.14768977015E+04  0.12699999809E+01 0. -1.
       -4    1    3    3    0  502  0.60246406073E+03 -0.12559278521E+04  0.15946645444E+04  0.21173743968E+04  0.12699999809E+01 0.  1.
</event>
<event>
 5   0  0.1435806E-07  0.3378852E+04  0.7818609E-02  0.8143116E-01
        1   -1    0    0  501    0  0.00000000000E+00  0.00000000000E+00  0.19596215114E+04  0.19596215114E+04  0.50400001928E-02 0. -1.
       -1   -1    0    0    0  501  0.00000000000E+00  0.00000000000E+00 -0.14564856784E+04  0.14564856784E+04  0.50400001928E-02 0.  1.
    10030    2    1    2    0    0  0.00000000000E+00  0.00000000000E+00  0.50313583294E+03  0.34161071898E+04  0.33788522705E+04 0.  0.
        3    1    3    3  502    0  0.45339360815E+02  0.40580707136E+02  0.19585132950E+04  0.19594582895E+04  0.10100000352E+00 0. -1.
       -3    1    3    3    0  502 -0.45339360815E+02 -0.40580707136E+02 -0.14553774621E+04  0.14566489003E+04  0.10100000352E+00 0.  1.
</event>
<event>
 5   0  0.1473755E-07  0.3417652E+04  0.7818609E-02  0.8133587E-01
        1   -1    0    0  501    0  0.00000000000E+00  0.00000000000E+00  0.21427044466E+04  0.21427044466E+04  0.50400001928E-02 0.  1.
       -1   -1    0    0    0  501  0.00000000000E+00  0.00000000000E+00 -0.13628042603E+04  0.13628042603E+04  0.50400001928E-02 0. -1.
    10030    2    1    2    0    0  0.00000000000E+00  0.00000000000E+00  0.77990018629E+03  0.35055087069E+04  0.34176522634E+04 0.  0.
        1    1    3    3  502    0 -0.11342624426E+04 -0.74717586685E+03  0.14535558193E+04  0.19893837198E+04  0.50400001928E-02 0.  1.
       -1    1    3    3    0  502  0.11342624426E+04  0.74717586685E+03 -0.67365563299E+03  0.15161249871E+04  0.50400001928E-02 0. -1.
</event>
<event>
 5   0  0.1421875E-07  0.3399217E+04  0.7818609E-02  0.8138099E-01
        1   -1    0    0  501    0  0.00000000000E+00  0.00000000000E+00  0.15422241398E+04  0.15422241398E+04  0.50400001928E-02 0. -1.
       -1   -1    0    0    0  501  0.00000000000E+00  0.00000000000E+00 -0.18730535057E+04  0.18730535057E+04  0.50400001928E-02 0.  1.
    10030    2    1    2    0    0  0.00000000000E+00  0.00000000000E+00 -0.33082936591E+03  0.34152776456E+04  0.33992165755E+04 0.  0.
        5    1    3    3  502    0  0.74382180474E+02  0.35084561716E+03  0.15037660532E+04  0.15459494781E+04  0.46999998093E+01 0. -1.
       -5    1    3    3    0  502 -0.74382180474E+02 -0.35084561716E+03 -0.18345954191E+04  0.18693281675E+04  0.46999998093E+01 0.  1.
</event>
<event>
 5   0  0.1435806E-07  0.3406565E+04  0.7818609E-02  0.8136297E-01
       -1   -1    0    0    0  501  0.00000000000E+00  0.00000000000E+00  0.12859677487E+04  0.12859677487E+04  0.50400001928E-02 0.  1.
        1   -1    0    0  501    0  0.00000000000E+00  0.00000000000E+00 -0.22560220878E+04  0.22560220878E+04  0.50400001928E-02 0. -1.
    10030    2    1    2    0    0  0.00000000000E+00  0.00000000000E+00 -0.97005433912E+03  0.35419898366E+04  0.34065652176E+04 0.  0.
        3    1    3    3  502    0  0.14971826951E+04 -0.78106990197E+03 -0.71646394199E+03  0.18343791333E+04  0.10100000352E+00 0. -1.
       -3    1    3    3    0  502 -0.14971826951E+04  0.78106990197E+03 -0.25359039713E+03  0.17076107033E+04  0.10100000352E+00 0.  1.
</event>
<event>
 5   0  0.4521737E-07  0.3245390E+04  0.7818609E-02  0.8176932E-01
       -2   -1    0    0    0  501  0.00000000000E+00  0.00000000000E+00  0.12777462363E+04  0.12777462363E+04  0.25500000920E-02 0.  1.
        2   -1    0    0  501    0  0.00000000000E+00  0.00000000000E+00 -0.20607683227E+04  0.20607683227E+04  0.25500000920E-02 0. -1.
    10030    2    1    2    0    0  0.00000000000E+00  0.00000000000E+00 -0.78302208640E+03  0.33385145589E+04  0.32453899415E+04 0.  0.
        4    1    3    3  502    0  0.23981301433E+03  0.80298620775E+03  0.10379079797E+04  0.13339983954E+04  0.12699999809E+01 0.  1.
       -4    1    3    3    0  502 -0.23981301433E+03 -0.80298620775E+03 -0.18209300661E+04  0.20045161636E+04  0.12699999809E+01 0. -1.
</event>
<event>
 5   0  0.4486226E-07  0.3411907E+04  0.7818609E-02  0.8134990E-01
       -2   -1    0    0    0  501  0.00000000000E+00  0.00000000000E+00  0.16547894735E+04  0.16547894736E+04  0.25500000920E-02 0.  1.
        2   -1    0    0  501    0  0.00000000000E+00  0.00000000000E+00 -0.17586989986E+04  0.17586989986E+04  0.25500000920E-02 0. -1.
    10030    2    1    2    0    0  0.00000000000E+00  0.00000000000E+00 -0.10390952503E+03  0.34134884721E+04  0.34119065579E+04 0.  0.
        1    1    3    3  502    0  0.14209061738E+03  0.13681364275E+03  0.16433422863E+04  0.16551379358E+04  0.50400001928E-02 0.  1.
       -1    1    3    3    0  502 -0.14209061738E+03 -0.13681364275E+03 -0.17472518114E+04  0.17583505364E+04  0.50400001928E-02 0. -1.
</event>
<event>
 5   0  0.1523259E-07  0.3405787E+04  0.7818609E-02  0.8136487E-01
       -1   -1    0    0    0  501  0.00000000000E+00  0.00000000000E+00  0.14871552798E+04  0.14871552798E+04  0.50400001928E-02 0.  1.
        1   -1    0    0  501    0  0.00000000000E+00  0.00000000000E+00 -0.19499283652E+04  0.19499283652E+04  0.50400001928E-02 0. -1.
    10030    2    1    2    0    0  0.00000000000E+00  0.00000000000E+00 -0.46277308541E+03  0.34370836450E+04  0.34057869948E+04 0.  0.
        4    1    3    3  502    0 -0.42264950427E+03 -0.12170520220E+04  0.89239743193E+03  0.15672341934E+04  0.12699999809E+01 0.  1.
       -4    1    3    3    0  502  0.42264950427E+03  0.12170520220E+04 -0.13551705173E+04  0.18698494516E+04  0.12699999809E+01 0. -1.
</event>
<event>
 5   0  0.4447909E-07  0.3400428E+04  0.7818609E-02  0.8137801E-01
       -2   -1    0    0    0  501  0.00000000000E+00  0.00000000000E+00  0.21079835622E+04  0.21079835622E+04  0.25500000920E-02 0.  1.
        2   -1    0    0  501    0  0.00000000000E+00  0.00000000000E+00 -0.13713234726E+04  0.13713234726E+04  0.25500000920E-02 0. -1.
    10030    2    1    2    0    0  0.00000000000E+00  0.00000000000E+00  0.73666008966E+03  0.34793070348E+04  0.34004278194E+04 0.  0.
        5    1    3    3  502    0 -0.12346081138E+04 -0.12451757965E+03 -0.82093259471E+03  0.14878555835E+04  0.46999998093E+01 0. -1.
       -5    1    3    3    0  502  0.12346081138E+04  0.12451757965E+03  0.15575926844E+04  0.19914514513E+04  0.46999998093E+01 0.  1.
</event>
<event>
 5   0  0.1523259E-07  0.3403541E+04  0.7818609E-02  0.8137038E-01
       -1   -1    0    0    0  501  0.00000000000E+00  0.00000000000E+00  0.18035820379E+04  0.18035820379E+04  0.50400001928E-02 0. -1.
        1   -1    0    0  501    0  0.00000000000E+00  0.00000000000E+00 -0.16057060380E+04  0.16057060380E+04  0.50400001928E-02 0.  1.
    10030    2    1    2    0    0  0.00000000000E+00  0.00000000000E+00  0.19787599984E+03  0.34092880759E+04  0.34035408435E+04 0.  0.
        4    1    3    3  502    0  0.32405077150E+03  0.48197536677E+02  0.17716947021E+04  0.18017312883E+04  0.12699999809E+01 0. -1.
       -4    1    3    3    0  502 -0.32405077150E+03 -0.48197536677E+02 -0.15738187022E+04  0.16075567876E+04  0.12699999809E+01 0.  1.
</event>
<event>
 5   0  0.1473755E-07  0.3402686E+04  0.7818609E-02  0.8137247E-01
        1   -1    0    0  501    0  0.00000000000E+00  0.00000000000E+00  0.19407916136E+04  0.19407916136E+04  0.50400001928E-02 0.  1.
       -1   -1    0    0    0  501  0.00000000000E+00  0.00000000000E+00 -0.14914370119E+04  0.14914370120E+04  0.50400001928E-02 0. -1.
    10030    2    1    2    0    0  0.00000000000E+00  0.00000000000E+00  0.44935460162E+03  0.34322286255E+04  0.34026862594E+04 0.  0.
        1    1    3    3  502    0  0.37100739389E+02 -0.16215446960E+04  0.74273623519E+03  0.17839396797E+04  0.50400001928E-02 0.  1.
       -1    1    3    3    0  502 -0.37100739389E+02  0.16215446960E+04 -0.29338163357E+03  0.16482889458E+04  0.50400001928E-02 0. -1.
</event>
<event>
 5   0  0.1435806E-07  0.3407237E+04  0.7818609E-02  0.8136132E-01
        1   -1    0    0  501    0  0.00000000000E+00  0.00000000000E+00  0.15577158773E+04  0.15577158773E+04  0.50400001928E-02 0. -1.
       -1   -1    0    0    0  501  0.00000000000E+00  0.00000000000E+00 -0.18631869613E+04  0.18631869613E+04  0.50400001928E-02 0.  1.
    10030    2    1    2    0    0  0.00000000000E+00  0.00000000000E+00 -0.30547108401E+03  0.34209028385E+04  0.34072369521E+04 0.  0.
        3    1    3    3  502    0 -0.23532616215E+02 -0.12845840893E+04 -0.12759745879E+04  0.18107515637E+04  0.10100000352E+00 0.  1.
       -3    1    3    3    0  502  0.23532616215E+02  0.12845840893E+04  0.97050350387E+03  0.16101512748E+04  0.10100000352E+00 0. -1.
</event>
<event>
 5   0  0.1435806E-07  0.3374141E+04  0.7818609E-02  0.8144282E-01
       -1   -1    0    0    0  501  0.00000000000E+00  0.00000000000E+00  0.18424818133E+04  0.18424818133E+04  0.50400001928E-02 0. -1.
        1   -1    0    0  501    0  0.00000000000E+00  0.00000000000E+00 -0.15447680030E+04  0.15447680031E+04  0.50400001928E-02 0.  1.
    10030    2    1    2    0    0  0.00000000000E+00  0.00000000000E+00  0.29771381022E+03  0.33872498163E+04  0.33741410471E+04 0.  0.
        3    1    3    3  502    0 -0.87226453023E+03 -0.12789036657E+04 -0.52439526452E+03  0.16344511006E+04  0.10100000352E+00 0.  1.
       -3    1    3    3    0  502  0.87226453023E+03  0.12789036657E+04  0.82210907475E+03  0.17527987157E+04  0.10100000352E+00 0. -1.
</event>
<event>
 5   0  0.4447909E-07  0.3406812E+04  0.7818609E-02  0.8136236E-01
       -2   -1    0    0    0  501  0.00000000000E+00  0.00000000000E+00  0.97536044138E+03  0.97536044138E+03  0.25500000920E-02 0. -1.
        2   -1    0    0  501    0  0.00000000000E+00  0.00000000000E+00 -0.29748918274E+04  0.29748918274E+04  0.25500000920E-02 0.  1.
    10030    2    1    2    0    0  0.00000000000E+00  0.00000000000E+00 -0.19995313860E+04  0.39502522688E+04  0.34068118855E+04 0.  0.
        5    1    3    3  502    0 -0.70331051100E+03 -0.13016447584E+04 -0.19786092525E+04  0.24705953566E+04  0.46999998093E+01 0.  1.
       -5    1    3    3    0  502  0.70331051100E+03  0.13016447584E+04 -0.20922133490E+02  0.14796569122E+04  0.46999998093E+01 0. -1.
</event>
<event>
 5   0  0.4486226E-07  0.3406935E+04  0.7818609E-02  0.8136206E-01
       -2   -1    0    0    0  501  0.00000000000E+00  0.00000000000E+00  0.30126616743E+04  0.30126616743E+04  0.25500000920E-02 0.  1.
        2   -1    0    0  501    0  0.00000000000E+00  0.00000000000E+00 -0.96320175752E+03  0.96320175752E+03  0.25500000920E-02 0. -1.
    10030    2    1    2    0    0  0.00000000000E+00  0.00000000000E+00  0.20494599168E+04  0.39758634318E+04  0.34069347041E+04 0.  0.
        1    1    3    3  502    0  0.16948123283E+04 -0.67955318801E+02  0.12084866980E+04  0.20826538005E+04  0.50400001928E-02 0.  1.
       -1    1    3    3    0  502 -0.16948123283E+04  0.67955318801E+02  0.84097321880E+03  0.18932096313E+04  0.50400001928E-02 0. -1.
</event>
<event>
 5   0  0.1523259E-07  0.3397450E+04  0.7818609E-02  0.8138533E-01
       -1   -1    0    0    0  501  0.00000000000E+00  0.00000000000E+00  0.17656548321E+04  0.17656548321E+04  0.50400001928E-02 0.  1.
        1   -1    0    0  501    0  0.00000000000E+00  0.00000000000E+00 -0.16343317748E+04  0.16343317748E+04  0.50400001928E-02 0. -1.
    10030    2    1    2    0    0  0.00000000000E+00  0.00000000000E+00  0.13132305723E+03  0.33999866069E+04  0.33974495113E+04 0.  0.
        4    1    3    3  502    0  0.20743242728E+03  0.18515079342E+03 -0.16114046841E+04  0.16352173241E+04  0.12699999809E+01 0. -1.
       -4    1    3    3    0  502 -0.20743242728E+03 -0.18515079342E+03  0.17427277413E+04  0.17647692828E+04  0.12699999809E+01 0.  1.
</event>
<event>
 5   0  0.1435806E-07  0.3401657E+04  0.7818609E-02  0.8137500E-01
        1   -1    0    0  501    0  0.00000000000E+00  0.00000000000E+00  0.22006388580E+04  0.22006388581E+04  0.50400001928E-02 0. -1.
       -1   -1    0    0    0  501  0.00000000000E+00  0.00000000000E+00 -0.13145355033E+04  0.13145355034E+04  0.50400001928E-02 0.  1.
    10030    2    1    2    0    0  0.00000000000E+00  0.00000000000E+00  0.88610335471E+03  0.35151743614E+04  0.34016571896E+04 0.  0.
        3    1    3    3  502    0  0.96650578772E+03 -0.23582403287E+02  0.18890803455E+04  0.21221013476E+04  0.10100000352E+00 0. -1.
       -3    1    3    3    0  502 -0.96650578772E+03  0.23582403287E+02 -0.10029769908E+04  0.13930730138E+04  0.10100000352E+00 0.  1.
</event>
<event>
 5   0  0.4447909E-07  0.3388777E+04  0.7818609E-02  0.8140666E-01
        2   -1    0    0  501    0  0.00000000000E+00  0.00000000000E+00  0.19711238068E+04  0.19711238068E+04  0.25500000920E-02 0. -1.
       -2   -1    0    0    0  501  0.00000000000E+00  0.00000000000E+00 -0.14565054848E+04  0.14565054848E+04  0.25500000920E-02 0.  1.
    10030    2    1    2    0    0  0.00000000000E+00  0.00000000000E+00  0.51461832200E+03  0.34276292917E+04  0.33887771458E+04 0.  0.
        5    1    3    3  502    0  0.38186066133E+03 -0.31745203555E+03 -0.13812444417E+04  0.14678050474E+04  0.46999998093E+01 0.  1.
       -5    1    3    3    0  502 -0.38186066133E+03  0.31745203555E+03  0.18958627637E+04  0.19598242442E+04  0.46999998093E+01 0. -1.
</event>
<event>
 5   0  0.1421875E-07  0.3243803E+04  0.7818609E-02  0.8177344E-01
        1   -1    0    0  501    0  0.00000000000E+00  0.00000000000E+00  0.16727692864E+04  0.16727692864E+04  0.50400001928E-02 0.  1.
       -1   -1    0    0    0  501  0.00000000000E+00  0.00000000000E+00 -0.15725809254E+04  0.15725809254E+04  0.50400001928E-02 0. -1.
    10030    2    1    2    0    0  0.00000000000E+00  0.00000000000E+00  0.10018836097E+03  0.32453502118E+04  0.32438033679E+04 0.  0.
        5    1    3    3  502    0  0.50839869811E+03 -0.11097248370E+03 -0.14867890114E+04  0.15752294381E+04  0.46999998093E+01 0. -1.
       -5    1    3    3    0  502 -0.50839869811E+03  0.11097248370E+03  0.15869773724E+04  0.16701207737E+04  0.46999998093E+01 0.  1.
</event>
<event>
 5   0  0.1435806E-07  0.3396921E+04  0.7818609E-02  0.8138662E-01
       -1   -1    0    0    0  501  0.00000000000E+00  0.00000000000E+00  0.26751239439E+04  0.26751239439E+04  0.50400001928E-02 0.  1.
        1   -1    0    0  501    0  0.00000000000E+00  0.00000000000E+00 -0.10783681386E+04  0.10783681386E+04  0.50400001928E-02 0. -1.
    10030    2    1    2    0    0  0.00000000000E+00  0.00000000000E+00  0.15967558053E+04  0.37534920825E+04  0.33969212107E+04 0.  0.
        3    1    3    3  502    0  0.12230839803E+03 -0.43134940173E+03 -0.10117980760E+04  0.11066874028E+04  0.10100000352E+00 0. -1.
       -3    1    3    3    0  502 -0.12230839803E+03  0.43134940173E+03  0.26085538813E+04  0.26468046797E+04  0.10100000352E+00 0.  1.
</event>
<event>
 5   0  0.4521737E-07  0.3405221E+04  0.7818609E-02  0.8136626E-01
        2   -1    0    0  501    0  0.00000000000E+00  0.00000000000E+00  0.28719008093E+04  0.28719008093E+04  0.25500000920E-02 0.  1.
       -2   -1    0    0    0  501  0.00000000000E+00  0.00000000000E+00 -0.10093950241E+04  0.10093950241E+04  0.25500000920E-02 0. -1.
    10030    2    1    2    0    0  0.00000000000E+00  0.00000000000E+00  0.18625057852E+04  0.38812958334E+04  0.34052209247E+04 0.  0.
        4    1    3    3  502    0 -0.14116961349E+04 -0.93416879517E+03  0.11393214650E+04  0.20404931582E+04  0.12699999809E+01 0.  1.
       -4    1    3    3    0  502  0.14116961349E+04  0.93416879517E+03  0.72318432024E+03  0.18408026752E+04  0.12699999809E+01 0. -1.
</event>
<event>
 5   0  0.4396257E-07  0.3333301E+04  0.7818609E-02  0.8154473E-01
       -2   -1    0    0    0  501  0.00000000000E+00  0.00000000000E+00  0.11953583950E+04  0.11953583950E+04  0.25500000920E-02 0. -1.
        2   -1    0    0  501    0  0.00000000000E+00  0.00000000000E+00 -0.23237584575E+04  0.23237584576E+04  0.25500000920E-02 0.  1.
    10030    2    1    2    0    0  0.00000000000E+00  0.00000000000E+00 -0.11284000626E+04  0.35191168525E+04  0.33333011746E+04 0.  0.
        2    1    3    3  502    0 -0.33072171106E+03  0.13558467843E+04  0.39764520256E+03  0.14511440520E+04  0.25500000920E-02 0. -1.
       -2    1    3    3    0  502  0.33072171106E+03 -0.13558467843E+04 -0.15260452651E+04  0.20679728005E+04  0.25500000920E-02 0.  1.
</event>
<event>
 5   0  0.1520084E-07  0.3387685E+04  0.7818609E-02  0.8140936E-01
        1   -1    0    0  501    0  0.00000000000E+00  0.00000000000E+00  0.12338987777E+04  0.12338987777E+04  0.50400001928E-02 0.  1.
       -1   -1    0    0    0  501  0.00000000000E+00  0.00000000000E+00 -0.23252326055E+04  0.23252326055E+04  0.50400001928E-02 0. -1.
    10030    2    1    2    0    0  0.00000000000E+00  0.00000000000E+00 -0.10913338278E+04  0.35591313833E+04  0.33876845602E+04 0.  0.
        2    1    3    3  502    0  0.70682760771E+03  0.14036661064E+04  0.11814652267E+03  0.15760210678E+04  0.25500000920E-02 0.  1.
       -2    1    3    3    0  502 -0.70682760771E+03 -0.14036661064E+04 -0.12094803504E+04  0.19831103155E+04  0.25500000920E-02 0. -1.
</event>
<event>
 5   0  0.4396257E-07  0.3397765E+04  0.7818609E-02  0.8138455E-01
       -2   -1    0    0    0  501  0.00000000000E+00  0.00000000000E+00  0.16892811811E+04  0.16892811811E+04  0.25500000920E-02 0.  1.
        2   -1    0    0  501    0  0.00000000000E+00  0.00000000000E+00 -0.17085380708E+04  0.17085380708E+04  0.25500000920E-02 0. -1.
    10030    2    1    2    0    0  0.00000000000E+00  0.00000000000E+00 -0.19256889721E+02  0.33978192520E+04  0.33977646830E+04 0.  0.
        2    1    3    3  502    0  0.14226312633E+04  0.92651362846E+03 -0.72031331651E+02  0.16992632897E+04  0.25500000920E-02 0. -1.
       -2    1    3    3    0  502 -0.14226312633E+04 -0.92651362846E+03  0.52774441929E+02  0.16985559622E+04  0.25500000920E-02 0.  1.
</event>
<event>
 5   0  0.1520084E-07  0.3388973E+04  0.7818609E-02  0.8140618E-01
       -1   -1    0    0    0  501  0.00000000000E+00  0.00000000000E+00  0.17902082901E+04  0.17902082901E+04  0.50400001928E-02 0.  1.
        1   -1    0    0  501    0  0.00000000000E+00  0.00000000000E+00 -0.16038830607E+04  0.16038830607E+04  0.50400001928E-02 0. -1.
    10030    2    1    2    0    0  0.00000000000E+00  0.00000000000E+00  0.18632522940E+03  0.33940913508E+04  0.33889731493E+04 0.  0.
        2    1    3    3  502    0 -0.10128685448E+04  0.77959887854E+03 -0.10209956646E+04  0.16358817951E+04  0.25500000920E-02 0. -1.
       -2    1    3    3    0  502  0.10128685448E+04 -0.77959887854E+03  0.12073208940E+04  0.17582095557E+04  0.25500000920E-02 0.  1.
</event>
<event>
 5   0  0.1473755E-07  0.3399476E+04  0.7818609E-02  0.8138035E-01
        1   -1    0    0  501    0  0.00000000000E+00  0.00000000000E+00  0.15954006882E+04  0.15954006883E+04  0.50400001928E-02 0.  1.
       -1   -1    0    0    0  501  0.00000000000E+00  0.00000000000E+00 -0.18108988870E+04  0.18108988870E+04  0.50400001928E-02 0. -1.
    10030    2    1    2    0    0  0.00000000000E+00  0.00000000000E+00 -0.21549819875E+03  0.34062995753E+04  0.33994760365E+04 0.  0.
        1    1    3    3  502    0 -0.11091002099E+04  0.11576261253E+04  0.45810365367E+03  0.16673513365E+04  0.50400001928E-02 0.  1.
       -1    1    3    3    0  502  0.11091002099E+04 -0.11576261253E+04 -0.67360185242E+03  0.17389482388E+04  0.50400001928E-02 0. -1.
</event>
<event>
 5   0  0.4396257E-07  0.3398613E+04  0.7818609E-02  0.8138247E-01
       -2   -1    0    0    0  501  0.00000000000E+00  0.00000000000E+00  0.24187110677E+04  0.24187110677E+04  0.25500000920E-02 0.  1.
        2   -1    0    0  501    0  0.00000000000E+00  0.00000000000E+00 -0.11938769550E+04  0.11938769550E+04  0.25500000920E-02 0. -1.
    10030    2    1    2    0    0  0.00000000000E+00  0.00000000000E+00  0.12248341127E+04  0.36125880227E+04  0.33986134846E+04 0.  0.
        2    1    3    3  502    0 -0.91398965750E+03  0.77871604279E+03  0.18905644234E+04  0.22396449737E+04  0.25500000920E-02 0.  1.
       -2    1    3    3    0  502  0.91398965750E+03 -0.77871604279E+03 -0.66573031062E+03  0.13729430490E+04  0.25500000920E-02 0. -1.
</event>
<event>
 5   0  0.4521737E-07  0.3397709E+04  0.7818609E-02  0.8138469E-01
        2   -1    0    0  501    0  0.00000000000E+00  0.00000000000E+00  0.23346852814E+04  0.23346852814E+04  0.25500000920E-02 0.  1.
       -2   -1    0    0    0  501  0.00000000000E+00  0.00000000000E+00 -0.12361869182E+04  0.12361869182E+04  0.25500000920E-02 0. -1.
    10030    2    1    2    0    0  0.00000000000E+00  0.00000000000E+00  0.10984983632E+04  0.35708721996E+04  0.33977094654E+04 0.  0.
        4    1    3    3  502    0  0.22787040761E+03 -0.10415853109E+03 -0.12166627146E+04  0.12421930994E+04  0.12699999809E+01 0. -1.
       -4    1    3    3    0  502 -0.22787040761E+03  0.10415853109E+03  0.23151610778E+04  0.23286791001E+04  0.12699999809E+01 0.  1.
</event>
<event>
 5   0  0.4486226E-07  0.3394031E+04  0.7818609E-02  0.8139373E-01
        2   -1    0    0  501    0  0.00000000000E+00  0.00000000000E+00  0.16216657522E+04  0.16216657522E+04  0.25500000920E-02 0. -1.
       -2   -1    0    0    0  501  0.00000000000E+00  0.00000000000E+00 -0.17758668232E+04  0.17758668232E+04  0.25500000920E-02 0.  1.
    10030    2    1    2    0    0  0.00000000000E+00  0.00000000000E+00 -0.15420107107E+03  0.33975325754E+04  0.33940314716E+04 0.  0.
        1    1    3    3  502    0 -0.15773871740E+04  0.61822134229E+03  0.20542293920E+02  0.16943346513E+04  0.50400001928E-02 0.  1.
       -1    1    3    3    0  502  0.15773871740E+04 -0.61822134229E+03 -0.17474336499E+03  0.17031979241E+04  0.50400001928E-02 0. -1.
</event>
<event>
 5   0  0.4486226E-07  0.3394133E+04  0.7818609E-02  0.8139348E-01
       -2   -1    0    0    0  501  0.00000000000E+00  0.00000000000E+00  0.20062646075E+04  0.20062646075E+04  0.25500000920E-02 0.  1.
        2   -1    0    0  501    0  0.00000000000E+00  0.00000000000E+00 -0.14355206073E+04  0.14355206073E+04  0.25500000920E-02 0. -1.
    10030    2    1    2    0    0  0.00000000000E+00  0.00000000000E+00  0.57074400018E+03  0.34417852147E+04  0.33941326949E+04 0.  0.
        1    1    3    3  502    0 -0.25514906241E+03  0.11945162825E+03  0.19823862414E+04  0.20023049083E+04  0.50400001928E-02 0.  1.
       -1    1    3    3    0  502  0.25514906241E+03 -0.11945162825E+03 -0.14116422412E+04  0.14394803065E+04  0.50400001928E-02 0. -1.
</event>
<event>
 5   0  0.1520084E-07  0.3380385E+04  0.7818609E-02  0.8142737E-01
       -1   -1    0    0    0  501  0.00000000000E+00  0.00000000000E+00  0.96439779418E+03  0.96439779419E+03  0.50400001928E-02 0.  1.
        1   -1    0    0  501    0  0.00000000000E+00  0.00000000000E+00 -0.29622115410E+04  0.29622115410E+04  0.50400001928E-02 0. -1.
    10030    2    1    2    0    0  0.00000000000E+00  0.00000000000E+00 -0.19978137468E+04  0.39266093352E+04  0.33803847568E+04 0.  0.
        2    1    3    3  502    0  0.12934322487E+04  0.57195842284E+03  0.76202065727E+02  0.14163015831E+04  0.25500000920E-02 0.  1.
       -2    1    3    3    0  502 -0.12934322487E+04 -0.57195842284E+03 -0.20740158125E+04  0.25103077521E+04  0.25500000920E-02 0. -1.
</event>
<event>
 5   0  0.1520084E-07  0.3398328E+04  0.7818609E-02  0.8138317E-01
        1   -1    0    0  501    0  0.00000000000E+00  0.00000000000E+00  0.15172628217E+04  0.15172628217E+04  0.50400001928E-02 0. -1.
       -1   -1    0    0    0  501  0.00000000000E+00  0.00000000000E+00 -0.19028729325E+04  0.19028729325E+04  0.50400001928E-02 0.  1.
    10030    2    1    2    0    0  0.00000000000E+00  0.00000000000E+00 -0.38561011078E+03  0.34201357542E+04  0.33983280330E+04 0.  0.
        2    1    3    3  502    0  0.63219975983E+03  0.55669883582E+03 -0.16779332121E+04  0.18775116496E+04  0.25500000920E-02 0.  1.
       -2    1    3    3    0  502 -0.63219975983E+03 -0.55669883582E+03  0.12923231013E+04  0.15426241047E+04  0.25500000920E-02 0. -1.
</event>
<event>
 5   0  0.4486226E-07  0.3461014E+04  0.7818609E-02  0.8123092E-01
        2   -1    0    0  501    0  0.00000000000E+00  0.00000000000E+00  0.18162407440E+04  0.18162407440E+04  0.25500000920E-02 0.  1.
       -2   -1    0    0    0  501  0.00000000000E+00  0.00000000000E+00 -0.16488199406E+04  0.16488199406E+04  0.25500000920E-02 0. -1.
    10030    2    1    2    0    0  0.00000000000E+00  0.00000000000E+00  0.16742080333E+03  0.34650606846E+04  0.34610136987E+04 0.  0.
        1    1    3    3  502    0  0.34558418790E+02  0.31641680289E+03 -0.16192606601E+04  0.16502481519E+04  0.50400001928E-02 0. -1.
       -1    1    3    3    0  502 -0.34558418790E+02 -0.31641680289E+03  0.17866814634E+04  0.18148125328E+04  0.50400001928E-02 0.  1.
</event>
<event>
 5   0  0.4447909E-07  0.3365878E+04  0.7818609E-02  0.8146332E-01
        2   -1    0    0  501    0  0.00000000000E+00  0.00000000000E+00  0.17773994115E+04  0.17773994115E+04  0.25500000920E-02 0. -1.
       -2   -1    0    0    0  501  0.00000000000E+00  0.00000000000E+00 -0.15934983036E+04  0.15934983036E+04  0.25500000920E-02 0.  1.
    10030    2    1    2    0    0  0.00000000000E+00  0.00000000000E+00  0.18390110786E+03  0.33708977151E+04  0.33658775658E+04 0.  0.
        5    1    3    3  502    0 -0.13253423314E+04  0.72014787962E+03 -0.65556445554E+03  0.16446677808E+04  0.46999998093E+01 0.  1.
       -5    1    3    3    0  502  0.13253423314E+04 -0.72014787962E+03  0.83946556340E+03  0.17262299343E+04  0.46999998093E+01 0. -1.
</event>
<event>
 5   0  0.4521737E-07  0.3383714E+04  0.7818609E-02  0.8141915E-01
       -2   -1    0    0    0  501  0.00000000000E+00  0.00000000000E+00  0.16212317257E+04  0.16212317257E+04  0.25500000920E-02 0. -1.
        2   -1    0    0  501    0  0.00000000000E+00  0.00000000000E+00 -0.17655586582E+04  0.17655586582E+04  0.25500000920E-02 0.  1.
    10030    2    1    2    0    0  0.00000000000E+00  0.00000000000E+00 -0.14432693244E+03  0.33867903839E+04  0.33837137647E+04 0.  0.
        4    1    3    3  502    0  0.14780010433E+04  0.82234134540E+03 -0.31559043615E+02  0.16916648482E+04  0.12699999809E+01 0. -1.
       -4    1    3    3    0  502 -0.14780010433E+04 -0.82234134540E+03 -0.11276788883E+03  0.16951255358E+04  0.12699999809E+01 0.  1.
</event>
<event>
 5   0  0.1473755E-07  0.3403288E+04  0.7818609E-02  0.8137100E-01
        1   -1    0    0  501    0  0.00000000000E+00  0.00000000000E+00  0.24529481940E+04  0.24529481940E+04  0.50400001928E-02 0. -1.
       -1   -1    0    0    0  501  0.00000000000E+00  0.00000000000E+00 -0.11804541219E+04  0.11804541219E+04  0.50400001928E-02 0.  1.
    10030    2    1    2    0    0  0.00000000000E+00  0.00000000000E+00  0.12724940721E+04  0.36334023159E+04  0.34032882960E+04 0.  0.
        1    1    3    3  502    0  0.11116780473E+04 -0.27514951518E+03 -0.70744646109E+03  0.13461113743E+04  0.50400001928E-02 0.  1.
       -1    1    3    3    0  502 -0.11116780473E+04  0.27514951518E+03  0.19799405332E+04  0.22872909417E+04  0.50400001928E-02 0. -1.
</event>
<event>
 5   0  0.4381939E-07  0.3417188E+04  0.7818609E-02  0.8133701E-01
       -2   -1    0    0    0  501  0.00000000000E+00  0.00000000000E+00  0.10470266130E+04  0.10470266130E+04  0.25500000920E-02 0.  1.
        2   -1    0    0  501    0  0.00000000000E+00  0.00000000000E+00 -0.27881757860E+04  0.27881757860E+04  0.25500000920E-02 0. -1.
    10030    2    1    2    0    0  0.00000000000E+00  0.00000000000E+00 -0.17411491730E+04  0.38352023989E+04  0.34171884640E+04 0.  0.
        3    1    3    3  502    0 -0.18281046635E+03 -0.13234485080E+04 -0.20659230963E+04  0.24602792260E+04  0.10100000352E+00 0. -1.
       -3    1    3    3    0  502  0.18281046635E+03  0.13234485080E+04  0.32477392335E+03  0.13749231729E+04  0.10100000352E+00 0.  1.
</event>
<event>
 5   0  0.4486226E-07  0.3395292E+04  0.7818609E-02  0.8139063E-01
       -2   -1    0    0    0  501  0.00000000000E+00  0.00000000000E+00  0.14261474421E+04  0.14261474421E+04  0.25500000920E-02 0. -1.
        2   -1    0    0  501    0  0.00000000000E+00  0.00000000000E+00 -0.20208299018E+04  0.20208299018E+04  0.25500000920E-02 0.  1.
    10030    2    1    2    0    0  0.00000000000E+00  0.00000000000E+00 -0.59468245977E+03  0.34469773439E+04  0.33952916784E+04 0.  0.
        1    1    3    3  502    0 -0.11186593871E+03  0.16917883542E+04 -0.38431668315E+03  0.17384939277E+04  0.50400001928E-02 0.  1.
       -1    1    3    3    0  502  0.11186593871E+03 -0.16917883542E+04 -0.21036577662E+03  0.17084834163E+04  0.50400001928E-02 0. -1.
</event>
<event>
 5   0  0.1523259E-07  0.3378841E+04  0.7818609E-02  0.8143119E-01
        1   -1    0    0  501    0  0.00000000000E+00  0.00000000000E+00  0.15710376130E+04  0.15710376130E+04  0.50400001928E-02 0.  1.
       -1   -1    0    0    0  501  0.00000000000E+00  0.00000000000E+00 -0.18167237125E+04  0.18167237125E+04  0.50400001928E-02 0. -1.
    10030    2    1    2    0    0  0.00000000000E+00  0.00000000000E+00 -0.24568609958E+03  0.33877613255E+04  0.33788407981E+04 0.  0.
        4    1    3    3  502    0  0.56392578117E+03 -0.57075858017E+03  0.13678107174E+04  0.15857759663E+04  0.12699999809E+01 0.  1.
       -4    1    3    3    0  502 -0.56392578117E+03  0.57075858017E+03 -0.16134968170E+04  0.18019853593E+04  0.12699999809E+01 0. -1.
</event>
<event>
 5   0  0.4381939E-07  0.3400292E+04  0.7818609E-02  0.8137835E-01
        2   -1    0    0  501    0  0.00000000000E+00  0.00000000000E+00  0.12273234243E+04  0.12273234243E+04  0.25500000920E-02 0.  1.
       -2   -1    0    0    0  501  0.00000000000E+00  0.00000000000E+00 -0.23551217960E+04  0.23551217960E+04  0.25500000920E-02 0. -1.
    10030    2    1    2    0    0  0.00000000000E+00  0.00000000000E+00 -0.11277983716E+04  0.35824452203E+04  0.34002918389E+04 0.  0.
        3    1    3    3  502    0 -0.58534931956E+02  0.82186181599E+03  0.10029165613E+04  0.12979694996E+04  0.10100000352E+00 0.  1.
       -3    1    3    3    0  502  0.58534931956E+02 -0.82186181599E+03 -0.21307149329E+04  0.22844757207E+04  0.10100000352E+00 0. -1.
</event>
<event>
 5   0  0.4486226E-07  0.3426814E+04  0.7818609E-02  0.8131357E-01
        2   -1    0    0  501    0  0.00000000000E+00  0.00000000000E+00  0.18696410473E+04  0.18696410473E+04  0.25500000920E-02 0. -1.
       -2   -1    0    0    0  501  0.00000000000E+00  0.00000000000E+00 -0.15702280775E+04  0.15702280775E+04  0.25500000920E-02 0.  1.
    10030    2    1    2    0    0  0.00000000000E+00  0.00000000000E+00  0.29941296979E+03  0.34398691247E+04  0.34268136029E+04 0.  0.
        1    1    3    3  502    0 -0.17255720158E+03  0.84310754409E+03 -0.13375442290E+04  0.15904813370E+04  0.50400001928E-02 0.  1.
       -1    1    3    3    0  502  0.17255720158E+03 -0.84310754409E+03  0.16369571988E+04  0.18493877877E+04  0.50400001928E-02 0. -1.
</event>
<event>
 5   0  0.1520084E-07  0.3390621E+04  0.7818609E-02  0.8140212E-01
        1   -1    0    0  501    0  0.00000000000E+00  0.00000000000E+00  0.24132547549E+04  0.24132547549E+04  0.50400001928E-02 0. -1.
       -1   -1    0    0    0  501  0.00000000000E+00  0.00000000000E+00 -0.11909550791E+04  0.11909550791E+04  0.50400001928E-02 0.  1.
    10030    2    1    2    0    0  0.00000000000E+00  0.00000000000E+00  0.12222996757E+04  0.36042098340E+04  0.33906211865E+04 0.  0.
        2    1    3    3  502    0  0.12963020419E+04  0.66021392933E+03  0.15365021609E+04  0.21159206759E+04  0.25500000920E-02 0. -1.
       -2    1    3    3    0  502 -0.12963020419E+04 -0.66021392933E+03 -0.31420248516E+03  0.14882891581E+04  0.25500000920E-02 0.  1.
</event>
<event>
 5   0  0.4447909E-07  0.3396698E+04  0.7818609E-02  0.8138717E-01
        2   -1    0    0  501    0  0.00000000000E+00  0.00000000000E+00  0.14885187279E+04  0.14885187279E+04  0.25500000920E-02 0.  1.
       -2   -1    0    0    0  501  0.00000000000E+00  0.00000000000E+00 -0.19377585024E+04  0.19377585024E+04  0.25500000920E-02 0. -1.
    10030    2    1    2    0    0  0.00000000000E+00  0.00000000000E+00 -0.44923977448E+03  0.34262772303E+04  0.33966982916E+04 0.  0.
        5    1    3    3  502    0  0.11570003708E+04 -0.12317919760E+04 -0.39462955988E+03  0.17354296038E+04  0.46999998093E+01 0. -1.
       -5    1    3    3    0  502 -0.11570003708E+04  0.12317919760E+04 -0.54610214602E+02  0.16908476265E+04  0.46999998093E+01 0.  1.
</event>
<event>
 5   0  0.1473755E-07  0.3398462E+04  0.7818609E-02  0.8138284E-01
        1   -1    0    0  501    0  0.00000000000E+00  0.00000000000E+00  0.16660119122E+04  0.16660119122E+04  0.50400001928E-02 0. -1.
       -1   -1    0    0    0  501  0.00000000000E+00  0.00000000000E+00 -0.17331124948E+04  0.17331124948E+04  0.50400001928E-02 0.  1.
    10030    2    1    2    0    0  0.00000000000E+00  0.00000000000E+00 -0.67100582563E+02  0.33991244070E+04  0.33984620413E+04 0.  0.
        1    1    3    3  502    0  0.37870274432E+03 -0.15316642751E+04  0.59742513474E+03  0.16871064021E+04  0.50400001928E-02 0. -1.
       -1    1    3    3    0  502 -0.37870274432E+03  0.15316642751E+04 -0.66452571731E+03  0.17120180049E+04  0.50400001928E-02 0.  1.
</event>
<event>
 5   0  0.4486226E-07  0.3422691E+04  0.7818609E-02  0.8132360E-01
        2   -1    0    0  501    0  0.00000000000E+00  0.00000000000E+00  0.16855290370E+04  0.16855290370E+04  0.25500000920E-02 0.  1.
       -2   -1    0    0    0  501  0.00000000000E+00  0.00000000000E+00 -0.17375574304E+04  0.17375574304E+04  0.25500000920E-02 0. -1.
    10030    2    1    2    0    0  0.00000000000E+00  0.00000000000E+00 -0.52028393384E+02  0.34230864673E+04  0.34226910479E+04 0.  0.
        1    1    3    3  502    0 -0.30294668040E+03 -0.56109613966E+03  0.15622807120E+04  0.16874023208E+04  0.50400001928E-02 0.  1.
       -1    1    3    3    0  502  0.30294668040E+03  0.56109613966E+03 -0.16143091053E+04  0.17356841466E+04  0.50400001928E-02 0. -1.
</event>
<event>
 5   0  0.4396257E-07  0.3402214E+04  0.7818609E-02  0.8137363E-01
       -2   -1    0    0    0  501  0.00000000000E+00  0.00000000000E+00  0.19886064850E+04  0.19886064850E+04  0.25500000920E-02 0. -1.
        2   -1    0    0  501    0  0.00000000000E+00  0.00000000000E+00 -0.14551725519E+04  0.14551725519E+04  0.25500000920E-02 0.  1.
    10030    2    1    2    0    0  0.00000000000E+00  0.00000000000E+00  0.53343393318E+03  0.34437790369E+04  0.34022143222E+04 0.  0.
        2    1    3    3  502    0  0.34785161953E+03  0.12574869177E+04 -0.83817312633E+03  0.15507444300E+04  0.25500000920E-02 0.  1.
       -2    1    3    3    0  502 -0.34785161953E+03 -0.12574869177E+04  0.13716070595E+04  0.18930346069E+04  0.25500000920E-02 0. -1.
</event>
<event>
 5   0  0.1421875E-07  0.3407481E+04  0.7818609E-02  0.8136073E-01
        3   -1    0    0  501    0  0.00000000000E+00  0.00000000000E+00  0.24761502578E+04  0.24761502598E+04  0.10100000352E+00 0.  1.
       -3   -1    0    0    0  501  0.00000000000E+00  0.00000000000E+00 -0.11722763505E+04  0.11722763548E+04  0.10100000352E+00 0. -1.
    10030    2    1    2    0    0  0.00000000000E+00  0.00000000000E+00  0.13038739073E+04  0.36484266147E+04  0.34074814154E+04 0.  0.
        2    1    3    3  502    0  0.11021160356E+04 -0.66064010866E+03 -0.54593288863E+03  0.13961188445E+04  0.25500000920E-02 0. -1.
       -2    1    3    3    0  502 -0.11021160356E+04  0.66064010866E+03  0.18498067959E+04  0.22523077701E+04  0.25500000920E-02 0.  1.
</event>
<event>
 5   0  0.1435806E-07  0.3419501E+04  0.7818609E-02  0.8133137E-01
        1   -1    0    0  501    0  0.00000000000E+00  0.00000000000E+00  0.27328551888E+04  0.27328551889E+04  0.50400001928E-02 0.  1.
       -1   -1    0    0    0  501  0.00000000000E+00  0.00000000000E+00 -0.10696679421E+04  0.10696679421E+04  0.50400001928E-02 0. -1.
    10030    2    1    2    0    0  0.00000000000E+00  0.00000000000E+00  0.16631872467E+04  0.38025231310E+04  0.34195014759E+04 0.  0.
        3    1    3    3  502    0  0.98049587567E+03 -0.12909015908E+04  0.22715812685E+03  0.16368872607E+04  0.10100000352E+00 0. -1.
       -3    1    3    3    0  502 -0.98049587567E+03  0.12909015908E+04  0.14360291199E+04  0.21656358703E+04  0.10100000352E+00 0.  1.
</event>
<event>
 5   0  0.4381939E-07  0.3409528E+04  0.7818609E-02  0.8135572E-01
       -2   -1    0    0    0  501  0.00000000000E+00  0.00000000000E+00  0.16950791900E+04  0.16950791900E+04  0.25500000920E-02 0. -1.
        2   -1    0    0  501    0  0.00000000000E+00  0.00000000000E+00 -0.17145040182E+04  0.17145040182E+04  0.25500000920E-02 0.  1.
    10030    2    1    2    0    0  0.00000000000E+00  0.00000000000E+00 -0.19424828180E+02  0.34095832082E+04  0.34095278749E+04 0.  0.
        3    1    3    3  502    0 -0.15653038576E+04  0.53095092632E+03  0.40758924120E+03  0.17024141836E+04  0.10100000352E+00 0. -1.
       -3    1    3    3    0  502  0.15653038576E+04 -0.53095092632E+03 -0.42701406938E+03  0.17071690246E+04  0.10100000352E+00 0.  1.
</event>
<event>
 5   0  0.4447909E-07  0.3422274E+04  0.7818609E-02  0.8132461E-01
        2   -1    0    0  501    0  0.00000000000E+00  0.00000000000E+00  0.22108863490E+04  0.22108863490E+04  0.25500000920E-02 0.  1.
       -2   -1    0    0    0  501  0.00000000000E+00  0.00000000000E+00 -0.13243514342E+04  0.13243514342E+04  0.25500000920E-02 0. -1.
    10030    2    1    2    0    0  0.00000000000E+00  0.00000000000E+00  0.88653491484E+03  0.35352377832E+04  0.34222743941E+04 0.  0.
        5    1    3    3  502    0  0.15511349612E+04 -0.21025008953E+03  0.11572724748E+04  0.19466706036E+04  0.46999998093E+01 0.  1.
       -5    1    3    3    0  502 -0.15511349612E+04  0.21025008953E+03 -0.27073755996E+03  0.15885671797E+04  0.46999998093E+01 0. -1.
</event>
<event>
 5   0  0.1421875E-07  0.3434445E+04  0.7818609E-02  0.8129504E-01
       -3   -1    0    0    0  501  0.00000000000E+00  0.00000000000E+00  0.17160747255E+04  0.17160747285E+04  0.10100000352E+00 0. -1.
        3   -1    0    0  501    0  0.00000000000E+00  0.00000000000E+00 -0.17183706099E+04  0.17183706128E+04  0.10100000352E+00 0.  1.
    10030    2    1    2    0    0  0.00000000000E+00  0.00000000000E+00 -0.22958843111E+01  0.34344453413E+04  0.34344445740E+04 0.  0.
        2    1    3    3  502    0 -0.37392967772E+02 -0.48032959192E+03  0.16471053290E+04  0.17161208337E+04  0.25500000920E-02 0. -1.
       -2    1    3    3    0  502  0.37392967772E+02  0.48032959192E+03 -0.16494012134E+04  0.17183245076E+04  0.25500000920E-02 0.  1.
</event>
<event>
 5   0  0.4486226E-07  0.3396132E+04  0.7818609E-02  0.8138856E-01
        2   -1    0    0  501    0  0.00000000000E+00  0.00000000000E+00  0.15277884768E+04  0.15277884768E+04  0.25500000920E-02 0.  1.
       -2   -1    0    0    0  501  0.00000000000E+00  0.00000000000E+00 -0.18873215297E+04  0.18873215297E+04  0.25500000920E-02 0. -1.
    10030    2    1    2    0    0  0.00000000000E+00  0.00000000000E+00 -0.35953305292E+03  0.34151100065E+04  0.33961319675E+04 0.  0.
        1    1    3    3  502    0 -0.26240078169E+03  0.55369534848E+03 -0.17722814306E+04  0.18752104358E+04  0.50400001928E-02 0. -1.
       -1    1    3    3    0  502  0.26240078169E+03 -0.55369534848E+03  0.14127483777E+04  0.15398995707E+04  0.50400001928E-02 0.  1.
</event>
<event>
 5   0  0.1473755E-07  0.3391261E+04  0.7818609E-02  0.8140055E-01
       -1   -1    0    0    0  501  0.00000000000E+00  0.00000000000E+00  0.21703910940E+04  0.21703910940E+04  0.50400001928E-02 0.  1.
        1   -1    0    0  501    0  0.00000000000E+00  0.00000000000E+00 -0.13247206721E+04  0.13247206721E+04  0.50400001928E-02 0. -1.
    10030    2    1    2    0    0  0.00000000000E+00  0.00000000000E+00  0.84567042196E+03  0.34951117661E+04  0.33912605024E+04 0.  0.
        1    1    3    3  502    0  0.64925672768E+03  0.14659822279E+04 -0.14590051064E+03  0.16099456978E+04  0.50400001928E-02 0. -1.
       -1    1    3    3    0  502 -0.64925672768E+03 -0.14659822279E+04  0.99157093260E+03  0.18851660683E+04  0.50400001928E-02 0.  1.
</event>
<event>
 5   0  0.4381939E-07  0.3425279E+04  0.7818609E-02  0.8131730E-01
       -2   -1    0    0    0  501  0.00000000000E+00  0.00000000000E+00  0.10714092002E+04  0.10714092002E+04  0.25500000920E-02 0. -1.
        2   -1    0    0  501    0  0.00000000000E+00  0.00000000000E+00 -0.27376414590E+04  0.27376414590E+04  0.25500000920E-02 0.  1.
    10030    2    1    2    0    0  0.00000000000E+00  0.00000000000E+00 -0.16662322588E+04  0.38090506592E+04  0.34252791104E+04 0.  0.
        3    1    3    3  502    0  0.94169607166E+02 -0.15906050366E+04 -0.15313520599E+04  0.22099618637E+04  0.10100000352E+00 0.  1.
       -3    1    3    3    0  502 -0.94169607166E+02  0.15906050366E+04 -0.13488019887E+03  0.15990887955E+04  0.10100000352E+00 0. -1.
</event>
<event>
 5   0  0.4521737E-07  0.3507423E+04  0.7818609E-02  0.8112033E-01
       -2   -1    0    0    0  501  0.00000000000E+00  0.00000000000E+00  0.27148376995E+04  0.27148376995E+04  0.25500000920E-02 0. -1.
        2   -1    0    0  501    0  0.00000000000E+00  0.00000000000E+00 -0.11328499057E+04  0.11328499057E+04  0.25500000920E-02 0.  1.
    10030    2    1    2    0    0  0.00000000000E+00  0.00000000000E+00  0.15819877939E+04  0.38476876052E+04  0.35074227757E+04 0.  0.
        4    1    3    3  502    0  0.12038991457E+04  0.11226440140E+04  0.14544819571E+04  0.21966388214E+04  0.12699999809E+01 0. -1.
       -4    1    3    3    0  502 -0.12038991457E+04 -0.11226440140E+04  0.12750583676E+03  0.16510487838E+04  0.12699999809E+01 0.  1.
</event>
<event>
 5   0  0.4396257E-07  0.3401414E+04  0.7818609E-02  0.8137559E-01
       -2   -1    0    0    0  501  0.00000000000E+00  0.00000000000E+00  0.14061087188E+04  0.14061087188E+04  0.25500000920E-02 0. -1.
        2   -1    0    0  501    0  0.00000000000E+00  0.00000000000E+00 -0.20570269066E+04  0.20570269066E+04  0.25500000920E-02 0.  1.
    10030    2    1    2    0    0  0.00000000000E+00  0.00000000000E+00 -0.65091818774E+03  0.34631356254E+04  0.34014135110E+04 0.  0.
        2    1    3    3  502    0 -0.13428554724E+04  0.71166281100E+03 -0.11026444979E+04  0.18776447122E+04  0.25500000920E-02 0.  1.
       -2    1    3    3    0  502  0.13428554724E+04 -0.71166281100E+03  0.45172631020E+03  0.15854909132E+04  0.25500000920E-02 0. -1.
</event>
<event>
 5   0  0.4396257E-07  0.3457472E+04  0.7818609E-02  0.8123943E-01
        2   -1    0    0  501    0  0.00000000000E+00  0.00000000000E+00  0.12808469148E+04  0.12808469148E+04  0.25500000920E-02 0. -1.
       -2   -1    0    0    0  501  0.00000000000E+00  0.00000000000E+00 -0.23332444842E+04  0.23332444842E+04  0.25500000920E-02 0.  1.
    10030    2    1    2    0    0  0.00000000000E+00  0.00000000000E+00 -0.10523975695E+04  0.36140913990E+04  0.34574724867E+04 0.  0.
        2    1    3    3  502    0 -0.94100716663E+03  0.21181159127E+03  0.97342064459E+03  0.13703672461E+04  0.25500000920E-02 0. -1.
       -2    1    3    3    0  502  0.94100716663E+03 -0.21181159127E+03 -0.20258182141E+04  0.22437241529E+04  0.25500000920E-02 0.  1.
</event>
<event>
 5   0  0.4486226E-07  0.3387361E+04  0.7818609E-02  0.8141015E-01
       -2   -1    0    0    0  501  0.00000000000E+00  0.00000000000E+00  0.20125000821E+04  0.20125000821E+04  0.25500000920E-02 0.  1.
        2   -1    0    0  501    0  0.00000000000E+00  0.00000000000E+00 -0.14253686060E+04  0.14253686060E+04  0.25500000920E-02 0. -1.
    10030    2    1    2    0    0  0.00000000000E+00  0.00000000000E+00  0.58713147611E+03  0.34378686881E+04  0.33873614726E+04 0.  0.
        1    1    3    3  502    0 -0.11715096893E+04 -0.65681874423E+03  0.13407982732E+04  0.18977844515E+04  0.50400001928E-02 0.  1.
       -1    1    3    3    0  502  0.11715096893E+04  0.65681874423E+03 -0.75366679706E+03  0.15400842366E+04  0.50400001928E-02 0. -1.
</event>
<event>
 5   0  0.1421875E-07  0.3326436E+04  0.7818609E-02  0.8156201E-01
       -3   -1    0    0    0  501  0.00000000000E+00  0.00000000000E+00  0.19923892431E+04  0.19923892456E+04  0.10100000352E+00 0.  1.
        3   -1    0    0  501    0  0.00000000000E+00  0.00000000000E+00 -0.13884301397E+04  0.13884301434E+04  0.10100000352E+00 0. -1.
    10030    2    1    2    0    0  0.00000000000E+00  0.00000000000E+00  0.60395910336E+03  0.33808193890E+04  0.33264355010E+04 0.  0.
        2    1    3    3  502    0 -0.78960150770E+03 -0.40865265245E+02 -0.11852112527E+04  0.14247337380E+04  0.25500000920E-02 0. -1.
       -2    1    3    3    0  502  0.78960150770E+03  0.40865265245E+02  0.17891703560E+04  0.19560856509E+04  0.25500000920E-02 0.  1.
</event>
<event>
 5   0  0.1473755E-07  0.3396114E+04  0.7818609E-02  0.8138861E-01
       -1   -1    0    0    0  501  0.00000000000E+00  0.00000000000E+00  0.12314872445E+04  0.12314872445E+04  0.50400001928E-02 0. -1.
        1   -1    0    0  501    0  0.00000000000E+00  0.00000000000E+00 -0.23413951630E+04  0.23413951630E+04  0.50400001928E-02 0.  1.
    10030    2    1    2    0    0  0.00000000000E+00  0.00000000000E+00 -0.11099079185E+04  0.35728824075E+04  0.33961144136E+04 0.  0.
        1    1    3    3  502    0  0.12731489310E+03 -0.26894716382E+02 -0.23361421097E+04  0.23397633138E+04  0.50400001928E-02 0.  1.
       -1    1    3    3    0  502 -0.12731489310E+03  0.26894716382E+02  0.12262341912E+04  0.12331190938E+04  0.50400001928E-02 0. -1.
</event>
<event>
 5   0  0.4486226E-07  0.3394724E+04  0.7818609E-02  0.8139203E-01
       -2   -1    0    0    0  501  0.00000000000E+00  0.00000000000E+00  0.16319697342E+04  0.16319697342E+04  0.25500000920E-02 0.  1.
        2   -1    0    0  501    0  0.00000000000E+00  0.00000000000E+00 -0.17653742079E+04  0.17653742079E+04  0.25500000920E-02 0. -1.
    10030    2    1    2    0    0  0.00000000000E+00  0.00000000000E+00 -0.13340447372E+03  0.33973439421E+04  0.33947237159E+04 0.  0.
        1    1    3    3  502    0  0.10040644214E+04 -0.94929947527E+03 -0.10532229171E+04  0.17374099600E+04  0.50400001928E-02 0. -1.
       -1    1    3    3    0  502 -0.10040644214E+04  0.94929947527E+03  0.91981844335E+03  0.16599339821E+04  0.50400001928E-02 0.  1.
</event>
<event>
 5   0  0.1520084E-07  0.3401594E+04  0.7818609E-02  0.8137515E-01
        1   -1    0    0  501    0  0.00000000000E+00  0.00000000000E+00  0.19810225010E+04  0.19810225010E+04  0.50400001928E-02 0.  1.
       -1   -1    0    0    0  501  0.00000000000E+00  0.00000000000E+00 -0.14602108881E+04  0.14602108881E+04  0.50400001928E-02 0. -1.
    10030    2    1    2    0    0  0.00000000000E+00  0.00000000000E+00  0.52081161292E+03  0.34412333890E+04  0.34015941118E+04 0.  0.
        2    1    3    3  502    0  0.65860318901E+02 -0.94531672389E+03  0.16892201505E+04  0.19368598315E+04  0.25500000920E-02 0.  1.
       -2    1    3    3    0  502 -0.65860318901E+02  0.94531672389E+03 -0.11684085376E+04  0.15043735576E+04  0.25500000920E-02 0. -1.
</event>
<event>
 5   0  0.1435806E-07  0.3407415E+04  0.7818609E-02  0.8136089E-01
        1   -1    0    0  501    0  0.00000000000E+00  0.00000000000E+00  0.16847513828E+04  0.16847513828E+04  0.50400001928E-02 0.  1.
       -1   -1    0    0    0  501  0.00000000000E+00  0.00000000000E+00 -0.17228764705E+04  0.17228764705E+04  0.50400001928E-02 0. -1.
    10030    2    1    2    0    0  0.00000000000E+00  0.00000000000E+00 -0.38125087702E+02  0.34076278533E+04  0.34074145718E+04 0.  0.
        3    1    3    3  502    0  0.14746442598E+03  0.13844828592E+04 -0.10009997390E+04  0.17147999977E+04  0.10100000352E+00 0. -1.
       -3    1    3    3    0  502 -0.14746442598E+03 -0.13844828592E+04  0.96287465134E+03  0.16928278556E+04  0.10100000352E+00 0.  1.
</event>
<event>
 5   0  0.1523259E-07  0.3393919E+04  0.7818609E-02  0.8139400E-01
       -1   -1    0    0    0  501  0.00000000000E+00  0.00000000000E+00  0.13077679674E+04  0.13077679674E+04  0.50400001928E-02 0. -1.
        1   -1    0    0  501    0  0.00000000000E+00  0.00000000000E+00 -0.22019742304E+04  0.22019742304E+04  0.50400001928E-02 0.  1.
    10030    2    1    2    0    0  0.00000000000E+00  0.00000000000E+00 -0.89420626297E+03  0.35097421978E+04  0.33939188933E+04 0.  0.
        4    1    3    3  502    0  0.23690543240E+03 -0.15625621958E+04 -0.10862109705E+04  0.19177019281E+04  0.12699999809E+01 0.  1.
       -4    1    3    3    0  502 -0.23690543240E+03  0.15625621958E+04  0.19200470748E+03  0.15920402697E+04  0.12699999809E+01 0. -1.
</event>
<event>
 5   0  0.4486226E-07  0.3404105E+04  0.7818609E-02  0.8136900E-01
        2   -1    0    0  501    0  0.00000000000E+00  0.00000000000E+00  0.29402823329E+04  0.29402823329E+04  0.25500000920E-02 0.  1.
       -2   -1    0    0    0  501  0.00000000000E+00  0.00000000000E+00 -0.98527362556E+03  0.98527362556E+03  0.25500000920E-02 0. -1.
    10030    2    1    2    0    0  0.00000000000E+00  0.00000000000E+00  0.19550087073E+04  0.39255559584E+04  0.34041049539E+04 0.  0.
        1    1    3    3  502    0 -0.43981688927E+03 -0.10382691487E+04  0.24477746499E+04  0.26950032390E+04  0.50400001928E-02 0.  1.
       -1    1    3    3    0  502  0.43981688927E+03  0.10382691487E+04 -0.49276594260E+03  0.12305527195E+04  0.50400001928E-02 0. -1.
</event>
<event>
 5   0  0.1520084E-07  0.3393101E+04  0.7818609E-02  0.8139602E-01
       -1   -1    0    0    0  501  0.00000000000E+00  0.00000000000E+00  0.33266386677E+04  0.33266386677E+04  0.50400001928E-02 0. -1.
        1   -1    0    0  501    0  0.00000000000E+00  0.00000000000E+00 -0.86522287498E+03  0.86522287500E+03  0.50400001928E-02 0.  1.
    10030    2    1    2    0    0  0.00000000000E+00  0.00000000000E+00  0.24614157927E+04  0.41918615427E+04  0.33931011609E+04 0.  0.
        2    1    3    3  502    0 -0.13096237518E+04 -0.10577883033E+04  0.97082154414E+03  0.19433283141E+04  0.25500000920E-02 0.  1.
       -2    1    3    3    0  502  0.13096237518E+04  0.10577883033E+04  0.14905942485E+04  0.22485332285E+04  0.25500000920E-02 0. -1.
</event>
<event>
 5   0  0.1421875E-07  0.3397038E+04  0.7818609E-02  0.8138634E-01
       -1   -1    0    0    0  501  0.00000000000E+00  0.00000000000E+00  0.19747384181E+04  0.19747384181E+04  0.50400001928E-02 0. -1.
        1   -1    0    0  501    0  0.00000000000E+00  0.00000000000E+00 -0.14609358117E+04  0.14609358117E+04  0.50400001928E-02 0.  1.
    10030    2    1    2    0    0  0.00000000000E+00  0.00000000000E+00  0.51380260638E+03  0.34356742298E+04  0.33970375763E+04 0.  0.
        5    1    3    3  502    0 -0.14274989591E+04  0.91933439016E+03  0.21150217744E+03  0.17110477083E+04  0.46999998093E+01 0. -1.
       -5    1    3    3    0  502  0.14274989591E+04 -0.91933439016E+03  0.30230042895E+03  0.17246265215E+04  0.46999998093E+01 0.  1.
</event>
<event>
 5   0  0.1421875E-07  0.3357328E+04  0.7818609E-02  0.8148460E-01
        1   -1    0    0  501    0  0.00000000000E+00  0.00000000000E+00  0.18108090413E+04  0.18108090413E+04  0.50400001928E-02 0. -1.
       -1   -1    0    0    0  501  0.00000000000E+00  0.00000000000E+00 -0.15561620832E+04  0.15561620832E+04  0.50400001928E-02 0.  1.
    10030    2    1    2    0    0  0.00000000000E+00  0.00000000000E+00  0.25464695815E+03  0.33669711245E+04  0.33573277290E+04 0.  0.
        5    1    3    3  502    0  0.15123929723E+04  0.42803043608E+03  0.71837846132E+03  0.17281875652E+04  0.46999998093E+01 0.  1.
       -5    1    3    3    0  502 -0.15123929723E+04 -0.42803043608E+03 -0.46373150317E+03  0.16387835592E+04  0.46999998093E+01 0. -1.
</event>
<event>
 5   0  0.4486226E-07  0.3392061E+04  0.7818609E-02  0.8139858E-01
       -2   -1    0    0    0  501  0.00000000000E+00  0.00000000000E+00  0.12449581284E+04  0.12449581284E+04  0.25500000920E-02 0. -1.
        2   -1    0    0  501    0  0.00000000000E+00  0.00000000000E+00 -0.23105353093E+04  0.23105353093E+04  0.25500000920E-02 0.  1.
    10030    2    1    2    0    0  0.00000000000E+00  0.00000000000E+00 -0.10655771809E+04  0.35554934377E+04  0.33920611518E+04 0.  0.
        1    1    3    3  502    0  0.16387895899E+03 -0.16722905013E+04 -0.29123377918E+03  0.17053530274E+04  0.50400001928E-02 0.  1.
       -1    1    3    3    0  502 -0.16387895899E+03  0.16722905013E+04 -0.77434340168E+03  0.18501404103E+04  0.50400001928E-02 0. -1.
</event>
<event>
 5   0  0.1421875E-07  0.3400725E+04  0.7818609E-02  0.8137728E-01
       -1   -1    0    0    0  501  0.00000000000E+00  0.00000000000E+00  0.17648082592E+04  0.17648082592E+04  0.50400001928E-02 0.  1.
        1   -1    0    0  501    0  0.00000000000E+00  0.00000000000E+00 -0.16382698063E+04  0.16382698064E+04  0.50400001928E-02 0. -1.
    10030    2    1    2    0    0  0.00000000000E+00  0.00000000000E+00  0.12653845287E+03  0.34030780656E+04  0.34007246787E+04 0.  0.
        5    1    3    3  502    0  0.97954104506E+03 -0.12415571970E+04 -0.56185905519E+03  0.16782945570E+04  0.46999998093E+01 0. -1.
       -5    1    3    3    0  502 -0.97954104506E+03  0.12415571970E+04  0.68839750805E+03  0.17247835085E+04  0.46999998093E+01 0.  1.
</event>
<event>
 5   0  0.4396257E-07  0.3398935E+04  0.7818609E-02  0.8138168E-01
       -2   -1    0    0    0  501  0.00000000000E+00  0.00000000000E+00  0.11514810869E+04  0.11514810869E+04  0.25500000920E-02 0.  1.
        2   -1    0    0  501    0  0.00000000000E+00  0.00000000000E+00 -0.25082383344E+04  0.25082383344E+04  0.25500000920E-02 0. -1.
    10030    2    1    2    0    0  0.00000000000E+00  0.00000000000E+00 -0.13567572475E+04  0.36597194214E+04  0.33989345411E+04 0.  0.
        2    1    3    3  502    0 -0.73173752441E+03 -0.64328708896E+03 -0.21776703978E+04  0.23856878347E+04  0.25500000920E-02 0. -1.
       -2    1    3    3    0  502  0.73173752441E+03  0.64328708896E+03  0.82091315026E+03  0.12740315866E+04  0.25500000920E-02 0.  1.
</event>
<event>
 5   0  0.1520084E-07  0.3401861E+04  0.7818609E-02  0.8137450E-01
        1   -1    0    0  501    0  0.00000000000E+00  0.00000000000E+00  0.16315919548E+04  0.16315919548E+04  0.50400001928E-02 0.  1.
       -1   -1    0    0    0  501  0.00000000000E+00  0.00000000000E+00 -0.17732152494E+04  0.17732152495E+04  0.50400001928E-02 0. -1.
    10030    2    1    2    0    0  0.00000000000E+00  0.00000000000E+00 -0.14162329469E+03  0.34048072042E+04  0.34018605116E+04 0.  0.
        2    1    3    3  502    0 -0.94824509281E+03  0.71567528868E+03 -0.12891597298E+04  0.17530809119E+04  0.25500000920E-02 0. -1.
       -2    1    3    3    0  502  0.94824509281E+03 -0.71567528868E+03  0.11475364351E+04  0.16517262923E+04  0.25500000920E-02 0.  1.
</event>
<event>
 5   0  0.4447909E-07  0.3393816E+04  0.7818609E-02  0.8139426E-01
       -2   -1    0    0    0  501  0.00000000000E+00  0.00000000000E+00  0.27697015011E+04  0.27697015011E+04  0.25500000920E-02 0. -1.
        2   -1    0    0  501    0  0.00000000000E+00  0.00000000000E+00 -0.10396415500E+04  0.10396415500E+04  0.25500000920E-02 0.  1.
    10030    2    1    2    0    0  0.00000000000E+00  0.00000000000E+00  0.17300599512E+04  0.38093430511E+04  0.33938160007E+04 0.  0.
        5    1    3    3  502    0 -0.41432432058E+03 -0.43899023013E+03 -0.91504876724E+03  0.10962268931E+04  0.46999998093E+01 0.  1.
       -5    1    3    3    0  502  0.41432432058E+03  0.43899023013E+03  0.26451087184E+04  0.27131161580E+04  0.46999998093E+01 0. -1.
</event>
<event>
 5   0  0.4521737E-07  0.3407837E+04  0.7818609E-02  0.8135986E-01
        2   -1    0    0  501    0  0.00000000000E+00  0.00000000000E+00  0.22724237507E+04  0.22724237507E+04  0.25500000920E-02 0.  1.
       -2   -1    0    0    0  501  0.00000000000E+00  0.00000000000E+00 -0.12776392590E+04  0.12776392590E+04  0.25500000920E-02 0. -1.
    10030    2    1    2    0    0  0.00000000000E+00  0.00000000000E+00  0.99478449169E+03  0.35500630097E+04  0.34078367314E+04 0.  0.
        4    1    3    3  502    0  0.54394609670E+03 -0.34853987870E+03 -0.11451100694E+04  0.13147760597E+04  0.12699999809E+01 0. -1.
       -4    1    3    3    0  502 -0.54394609670E+03  0.34853987870E+03  0.21398945611E+04  0.22352869500E+04  0.12699999809E+01 0.  1.
</event>
<event>
 5   0  0.4521737E-07  0.3400161E+04  0.7818609E-02  0.8137867E-01
        2   -1    0    0  501    0  0.00000000000E+00  0.00000000000E+00  0.21329492096E+04  0.21329492096E+04  0.25500000920E-02 0.  1.
       -2   -1    0    0    0  501  0.00000000000E+00  0.00000000000E+00 -0.13550600056E+04  0.13550600056E+04  0.25500000920E-02 0. -1.
    10030    2    1    2    0    0  0.00000000000E+00  0.00000000000E+00  0.77788920405E+03  0.34880092152E+04  0.34001612714E+04 0.  0.
        4    1    3    3  502    0 -0.83795492528E+03  0.14770113248E+04  0.47191469445E+03  0.17625084403E+04  0.12699999809E+01 0. -1.
       -4    1    3    3    0  502  0.83795492528E+03 -0.14770113248E+04  0.30597450960E+03  0.17255007748E+04  0.12699999809E+01 0.  1.
</event>
<event>
 5   0  0.1421875E-07  0.3405714E+04  0.7818609E-02  0.8136505E-01
        3   -1    0    0  501    0  0.00000000000E+00  0.00000000000E+00  0.16063470322E+04  0.16063470354E+04  0.10100000352E+00 0.  1.
       -3   -1    0    0    0  501  0.00000000000E+00  0.00000000000E+00 -0.18051650473E+04  0.18051650501E+04  0.10100000352E+00 0. -1.
    10030    2    1    2    0    0  0.00000000000E+00  0.00000000000E+00 -0.19881801512E+03  0.34115120855E+04  0.34057137440E+04 0.  0.
        2    1    3    3  502    0  0.15869848559E+04  0.61739806223E+03 -0.94903974354E+02  0.17054934959E+04  0.25500000920E-02 0.  1.
       -2    1    3    3    0  502 -0.15869848559E+04 -0.61739806223E+03 -0.10391404076E+03  0.17060185896E+04  0.25500000920E-02 0. -1.
</event>
<event>
 5   0  0.1421875E-07  0.3416293E+04  0.7818609E-02  0.8133919E-01
       -3   -1    0    0    0  501  0.00000000000E+00  0.00000000000E+00  0.95160325900E+03  0.95160326436E+03  0.10100000352E+00 0.  1.
        3   -1    0    0  501    0  0.00000000000E+00  0.00000000000E+00 -0.30661558464E+04  0.30661558481E+04  0.10100000352E+00 0. -1.
    10030    2    1    2    0    0  0.00000000000E+00  0.00000000000E+00 -0.21145525874E+04  0.40177591125E+04  0.34162926749E+04 0.  0.
        3    1    3    3  502    0  0.70216881337E+03  0.15365517696E+04 -0.13541733918E+04  0.21651369398E+04  0.10100000352E+00 0.  1.
       -3    1    3    3    0  502 -0.70216881337E+03 -0.15365517696E+04 -0.76037919566E+03  0.18526221726E+04  0.10100000352E+00 0. -1.
</event>
<event>
 5   0  0.1421875E-07  0.3402964E+04  0.7818609E-02  0.8137179E-01
       -1   -1    0    0    0  501  0.00000000000E+00  0.00000000000E+00  0.17066734976E+04  0.17066734976E+04  0.50400001928E-02 0. -1.
        1   -1    0    0  501    0  0.00000000000E+00  0.00000000000E+00 -0.16963064295E+04  0.16963064295E+04  0.50400001928E-02 0.  1.
    10030    2    1    2    0    0  0.00000000000E+00  0.00000000000E+00  0.10367068177E+02  0.34029799271E+04  0.34029641356E+04 0.  0.
        5    1    3    3  502    0 -0.14538461336E+04  0.78386706966E+03 -0.40335596593E+03  0.17002453612E+04  0.46999998093E+01 0.  1.
       -5    1    3    3    0  502  0.14538461336E+04 -0.78386706966E+03  0.41372303410E+03  0.17027345659E+04  0.46999998093E+01 0. -1.
</event>
<event>
 5   0  0.4521737E-07  0.3417833E+04  0.7818609E-02  0.8133543E-01
        2   -1    0    0  501    0  0.00000000000E+00  0.00000000000E+00  0.18103383362E+04  0.18103383362E+04  0.25500000920E-02 0.  1.
       -2   -1    0    0    0  501  0.00000000000E+00  0.00000000000E+00 -0.16131762704E+04  0.16131762704E+04  0.25500000920E-02 0. -1.
    10030    2    1    2    0    0  0.00000000000E+00  0.00000000000E+00  0.19716206578E+03  0.34235146067E+04  0.34178325562E+04 0.  0.
        4    1    3    3  502    0  0.81985973476E+03 -0.10951670136E+03  0.15964698329E+04  0.17980215330E+04  0.12699999809E+01 0.  1.
       -4    1    3    3    0  502 -0.81985973476E+03  0.10951670136E+03 -0.13993077672E+04  0.16254930737E+04  0.12699999809E+01 0. -1.
</event>
<event>
 5   0  0.4447909E-07  0.3406580E+04  0.7818609E-02  0.8136293E-01
       -2   -1    0    0    0  501  0.00000000000E+00  0.00000000000E+00  0.12951140370E+04  0.12951140370E+04  0.25500000920E-02 0. -1.
        2   -1    0    0  501    0  0.00000000000E+00  0.00000000000E+00 -0.22401093285E+04  0.22401093285E+04  0.25500000920E-02 0.  1.
    10030    2    1    2    0    0  0.00000000000E+00  0.00000000000E+00 -0.94499529143E+03  0.35352233655E+04  0.34065801243E+04 0.  0.
        5    1    3    3  502    0 -0.25790822283E+03 -0.14413212594E+04 -0.13755611071E+04  0.20090082313E+04  0.46999998093E+01 0. -1.
       -5    1    3    3    0  502  0.25790822283E+03  0.14413212594E+04  0.43056581563E+03  0.15262151342E+04  0.46999998093E+01 0.  1.
</event>
<event>
 5   0  0.1421875E-07  0.3416331E+04  0.7818609E-02  0.8133910E-01
       -1   -1    0    0    0  501  0.00000000000E+00  0.00000000000E+00  0.11486635767E+04  0.11486635767E+04  0.50400001928E-02 0. -1.
        1   -1    0    0  501    0  0.00000000000E+00  0.00000000000E+00 -0.25401949349E+04  0.25401949349E+04  0.50400001928E-02 0.  1.
    10030    2    1    2    0    0  0.00000000000E+00  0.00000000000E+00 -0.13915313582E+04  0.36888585116E+04  0.34163310141E+04 0.  0.
        5    1    3    3  502    0 -0.96720749838E+03  0.51273576848E+03  0.72010280412E+03  0.13103276124E+04  0.46999998093E+01 0. -1.
       -5    1    3    3    0  502  0.96720749838E+03 -0.51273576848E+03 -0.21116341623E+04  0.23785308992E+04  0.46999998093E+01 0.  1.
</event>
<event>
 5   0  0.4521737E-07  0.3398200E+04  0.7818609E-02  0.8138348E-01
       -2   -1    0    0    0  501  0.00000000000E+00  0.00000000000E+00  0.12428290423E+04  0.12428290423E+04  0.25500000920E-02 0. -1.
        2   -1    0    0  501    0  0.00000000000E+00  0.00000000000E+00 -0.23228786744E+04  0.23228786744E+04  0.25500000920E-02 0.  1.
    10030    2    1    2    0    0  0.00000000000E+00  0.00000000000E+00 -0.10800496321E+04  0.35657077166E+04  0.33982001578E+04 0.  0.
        4    1    3    3  502    0  0.14373411542E+04  0.78709376175E+03 -0.69041508202E+02  0.16401934417E+04  0.12699999809E+01 0. -1.
       -4    1    3    3    0  502 -0.14373411542E+04 -0.78709376175E+03 -0.10110081239E+04  0.19255142749E+04  0.12699999809E+01 0.  1.
</event>
<event>
 5   0  0.4486226E-07  0.3398148E+04  0.7818609E-02  0.8138361E-01
       -2   -1    0    0    0  501  0.00000000000E+00  0.00000000000E+00  0.25612867495E+04  0.25612867495E+04  0.25500000920E-02 0.  1.
        2   -1    0    0  501    0  0.00000000000E+00  0.00000000000E+00 -0.11271100059E+04  0.11271100059E+04  0.25500000920E-02 0. -1.
    10030    2    1    2    0    0  0.00000000000E+00  0.00000000000E+00  0.14341767436E+04  0.36883967554E+04  0.33981476856E+04 0.  0.
        1    1    3    3  502    0 -0.62806189313E+03  0.12098904300E+04  0.18178903744E+04  0.22722284233E+04  0.50400001928E-02 0.  1.
       -1    1    3    3    0  502  0.62806189313E+03 -0.12098904300E+04 -0.38371363083E+03  0.14161683321E+04  0.50400001928E-02 0. -1.
</event>
<event>
 5   0  0.1435806E-07  0.3395244E+04  0.7818609E-02  0.8139075E-01
        1   -1    0    0  501    0  0.00000000000E+00  0.00000000000E+00  0.11641691412E+04  0.11641691412E+04  0.50400001928E-02 0.  1.
       -1   -1    0    0    0  501  0.00000000000E+00  0.00000000000E+00 -0.24755165913E+04  0.24755165913E+04  0.50400001928E-02 0. -1.
    10030    2    1    2    0    0  0.00000000000E+00  0.00000000000E+00 -0.13113474501E+04  0.36396857325E+04  0.33952437462E+04 0.  0.
        3    1    3    3  502    0  0.99380942663E+03 -0.12638124633E+04 -0.71420590990E+02  0.16093414895E+04  0.10100000352E+00 0.  1.
       -3    1    3    3    0  502 -0.99380942663E+03  0.12638124633E+04 -0.12399268592E+04  0.20303442430E+04  0.10100000352E+00 0. -1.
</event>
<event>
 5   0  0.4381939E-07  0.3399409E+04  0.7818609E-02  0.8138051E-01
        2   -1    0    0  501    0  0.00000000000E+00  0.00000000000E+00  0.27253735956E+04  0.27253735956E+04  0.25500000920E-02 0. -1.
       -2   -1    0    0    0  501  0.00000000000E+00  0.00000000000E+00 -0.10600367679E+04  0.10600367679E+04  0.25500000920E-02 0.  1.
    10030    2    1    2    0    0  0.00000000000E+00  0.00000000000E+00  0.16653368276E+04  0.37854103635E+04  0.33994094885E+04 0.  0.
        3    1    3    3  502    0 -0.14425642819E+04  0.84215408569E+03  0.11826507977E+04  0.20466748962E+04  0.10100000352E+00 0. -1.
       -3    1    3    3    0  502  0.14425642819E+04 -0.84215408569E+03  0.48268602997E+03  0.17387354673E+04  0.10100000352E+00 0.  1.
</event>
<event>
 5   0  0.1435806E-07  0.3400011E+04  0.7818609E-02  0.8137904E-01
       -1   -1    0    0    0  501  0.00000000000E+00  0.00000000000E+00  0.20633671741E+04  0.20633671741E+04  0.50400001928E-02 0.  1.
        1   -1    0    0  501    0  0.00000000000E+00  0.00000000000E+00 -0.14006324549E+04  0.14006324549E+04  0.50400001928E-02 0. -1.
    10030    2    1    2    0    0  0.00000000000E+00  0.00000000000E+00  0.66273471919E+03  0.34639996289E+04  0.34000111943E+04 0.  0.
        3    1    3    3  502    0 -0.11852554091E+04 -0.15551878107E+03 -0.90010020066E+03  0.14963946196E+04  0.10100000352E+00 0. -1.
       -3    1    3    3    0  502  0.11852554091E+04  0.15551878107E+03  0.15628349198E+04  0.19676050094E+04  0.10100000352E+00 0.  1.
</event>
<event>
 5   0  0.1421875E-07  0.3396827E+04  0.7818609E-02  0.8138685E-01
       -1   -1    0    0    0  501  0.00000000000E+00  0.00000000000E+00  0.13455334079E+04  0.13455334079E+04  0.50400001928E-02 0.  1.
        1   -1    0    0  501    0  0.00000000000E+00  0.00000000000E+00 -0.21438402829E+04  0.21438402829E+04  0.50400001928E-02 0. -1.
    10030    2    1    2    0    0  0.00000000000E+00  0.00000000000E+00 -0.79830687491E+03  0.34893736908E+04  0.33968271795E+04 0.  0.
        5    1    3    3  502    0  0.28107222573E+03  0.80472703484E+03 -0.19081897614E+04  0.20899276189E+04  0.46999998093E+01 0. -1.
       -5    1    3    3    0  502 -0.28107222573E+03 -0.80472703484E+03  0.11098828864E+04  0.13994460720E+04  0.46999998093E+01 0.  1.
</event>
<event>
 5   0  0.1473755E-07  0.3405961E+04  0.7818609E-02  0.8136445E-01
       -1   -1    0    0    0  501  0.00000000000E+00  0.00000000000E+00  0.13111290632E+04  0.13111290632E+04  0.50400001928E-02 0. -1.
        1   -1    0    0  501    0  0.00000000000E+00  0.00000000000E+00 -0.22119431850E+04  0.22119431850E+04  0.50400001928E-02 0.  1.
    10030    2    1    2    0    0  0.00000000000E+00  0.00000000000E+00 -0.90081412181E+03  0.35230722482E+04  0.34059612423E+04 0.  0.
        1    1    3    3  502    0 -0.10502114997E+04  0.22171214153E+03 -0.18180031336E+04  0.21112166780E+04  0.50400001928E-02 0.  1.
       -1    1    3    3    0  502  0.10502114997E+04 -0.22171214153E+03  0.91718901178E+03  0.14118555702E+04  0.50400001928E-02 0. -1.
</event>
<event>
 5   0  0.1473755E-07  0.3396951E+04  0.7818609E-02  0.8138655E-01
       -1   -1    0    0    0  501  0.00000000000E+00  0.00000000000E+00  0.14907648639E+04  0.14907648639E+04  0.50400001928E-02 0. -1.
        1   -1    0    0  501    0  0.00000000000E+00  0.00000000000E+00 -0.19351268612E+04  0.19351268612E+04  0.50400001928E-02 0.  1.
    10030    2    1    2    0    0  0.00000000000E+00  0.00000000000E+00 -0.44436199729E+03  0.34258917251E+04  0.33969510634E+04 0.  0.
        1    1    3    3  502    0 -0.12889637523E+04  0.47198890729E+03  0.78665020945E+03  0.15820934345E+04  0.50400001928E-02 0. -1.
       -1    1    3    3    0  502  0.12889637523E+04 -0.47198890729E+03 -0.12310122067E+04  0.18437982906E+04  0.50400001928E-02 0.  1.
</event>
<event>
 5   0  0.4381939E-07  0.3386775E+04  0.7818609E-02  0.8141160E-01
       -2   -1    0    0    0  501  0.00000000000E+00  0.00000000000E+00  0.16983530283E+04  0.16983530283E+04  0.25500000920E-02 0.  1.
        2   -1    0    0  501    0  0.00000000000E+00  0.00000000000E+00 -0.16884364444E+04  0.16884364444E+04  0.25500000920E-02 0. -1.
    10030    2    1    2    0    0  0.00000000000E+00  0.00000000000E+00  0.99165838859E+01  0.33867894727E+04  0.33867749547E+04 0.  0.
        3    1    3    3  502    0 -0.13762815614E+04 -0.95776203980E+03  0.24181807760E+03  0.16940882663E+04  0.10100000352E+00 0.  1.
       -3    1    3    3    0  502  0.13762815614E+04  0.95776203980E+03 -0.23190149372E+03  0.16927012064E+04  0.10100000352E+00 0. -1.
</event>
<event>
 5   0  0.1473755E-07  0.3379026E+04  0.7818609E-02  0.8143073E-01
        1   -1    0    0  501    0  0.00000000000E+00  0.00000000000E+00  0.25391644317E+04  0.25391644317E+04  0.50400001928E-02 0. -1.
       -1   -1    0    0    0  501  0.00000000000E+00  0.00000000000E+00 -0.11241707503E+04  0.11241707503E+04  0.50400001928E-02 0.  1.
    10030    2    1    2    0    0  0.00000000000E+00  0.00000000000E+00  0.14149936814E+04  0.36633351820E+04  0.33790261226E+04 0.  0.
        1    1    3    3  502    0  0.28117422326E+03  0.14383324201E+04  0.16188159493E+04  0.21836721760E+04  0.50400001928E-02 0. -1.
       -1    1    3    3    0  502 -0.28117422326E+03 -0.14383324201E+04 -0.20382226793E+03  0.14796630060E+04  0.50400001928E-02 0.  1.
</event>
<event>
 5   0  0.1520084E-07  0.3415505E+04  0.7818609E-02  0.8134111E-01
       -1   -1    0    0    0  501  0.00000000000E+00  0.00000000000E+00  0.12663096004E+04  0.12663096005E+04  0.50400001928E-02 0. -1.
        1   -1    0    0  501    0  0.00000000000E+00  0.00000000000E+00 -0.23030848815E+04  0.23030848815E+04  0.50400001928E-02 0.  1.
    10030    2    1    2    0    0  0.00000000000E+00  0.00000000000E+00 -0.10367752811E+04  0.35693944820E+04  0.34155049385E+04 0.  0.
        2    1    3    3  502    0 -0.78601441242E+03  0.15112451663E+04 -0.64525714453E+03  0.18215480756E+04  0.25500000920E-02 0. -1.
       -2    1    3    3    0  502  0.78601441242E+03 -0.15112451663E+04 -0.39151813656E+03  0.17478464064E+04  0.25500000920E-02 0.  1.
</event>
<event>
 5   0  0.1421875E-07  0.3360055E+04  0.7818609E-02  0.8147780E-01
        1   -1    0    0  501    0  0.00000000000E+00  0.00000000000E+00  0.15556741215E+04  0.15556741215E+04  0.50400001928E-02 0. -1.
       -1   -1    0    0    0  501  0.00000000000E+00  0.00000000000E+00 -0.18143213536E+04  0.18143213537E+04  0.50400001928E-02 0.  1.
    10030    2    1    2    0    0  0.00000000000E+00  0.00000000000E+00 -0.25864723214E+03  0.33699954752E+04  0.33600552245E+04 0.  0.
        5    1    3    3  502    0 -0.38168912682E+02 -0.39271864208E+02  0.15547720576E+04  0.15557433549E+04  0.46999998093E+01 0. -1.
       -5    1    3    3    0  502  0.38168912682E+02  0.39271864208E+02 -0.18134192898E+04  0.18142521202E+04  0.46999998093E+01 0.  1.
</event>
<event>
 5   0  0.4521737E-07  0.3426768E+04  0.7818609E-02  0.8131368E-01
        2   -1    0    0  501    0  0.00000000000E+00  0.00000000000E+00  0.24965401635E+04  0.24965401635E+04  0.25500000920E-02 0.  1.
       -2   -1    0    0    0  501  0.00000000000E+00  0.00000000000E+00 -0.11759011082E+04  0.11759011082E+04  0.25500000920E-02 0. -1.
    10030    2    1    2    0    0  0.00000000000E+00  0.00000000000E+00  0.13206390553E+04  0.36724412717E+04  0.34267677744E+04 0.  0.
        4    1    3    3  502    0 -0.64243228963E+03 -0.98916999298E+03  0.19921992741E+04  0.23151751732E+04  0.12699999809E+01 0.  1.
       -4    1    3    3    0  502  0.64243228963E+03  0.98916999298E+03 -0.67156021879E+03  0.13572660985E+04  0.12699999809E+01 0. -1.
</event>
<event>
 5   0  0.4381939E-07  0.3402359E+04  0.7818609E-02  0.8137328E-01
        2   -1    0    0  501    0  0.00000000000E+00  0.00000000000E+00  0.14126147832E+04  0.14126147832E+04  0.25500000920E-02 0. -1.
       -2   -1    0    0    0  501  0.00000000000E+00  0.00000000000E+00 -0.20486911267E+04  0.20486911267E+04  0.25500000920E-02 0.  1.
    10030    2    1    2    0    0  0.00000000000E+00  0.00000000000E+00 -0.63607634345E+03  0.34613059099E+04  0.34023588122E+04 0.  0.
        3    1    3    3  502    0 -0.86230965656E+03 -0.12438075651E+04 -0.11082689568E+04  0.18758718756E+04  0.10100000352E+00 0.  1.
       -3    1    3    3    0  502  0.86230965656E+03  0.12438075651E+04  0.47219261331E+03  0.15854340343E+04  0.10100000352E+00 0. -1.
</event>
<event>
 5   0  0.1473755E-07  0.3396366E+04  0.7818609E-02  0.8138799E-01
        1   -1    0    0  501    0  0.00000000000E+00  0.00000000000E+00  0.17544066221E+04  0.17544066221E+04  0.50400001928E-02 0.  1.
       -1   -1    0    0    0  501  0.00000000000E+00  0.00000000000E+00 -0.16437609192E+04  0.16437609192E+04  0.50400001928E-02 0. -1.
    10030    2    1    2    0    0  0.00000000000E+00  0.00000000000E+00  0.11064570295E+03  0.33981675413E+04  0.33963657293E+04 0.  0.
        1    1    3    3  502    0  0.12926855200E+04 -0.49383096063E+03 -0.92953677830E+03  0.16670163447E+04  0.50400001928E-02 0. -1.
       -1    1    3    3    0  502 -0.12926855200E+04  0.49383096063E+03  0.10401824813E+04  0.17311511966E+04  0.50400001928E-02 0.  1.
</event>
<event>
 5   0  0.1520084E-07  0.3396609E+04  0.7818609E-02  0.8138739E-01
        1   -1    0    0  501    0  0.00000000000E+00  0.00000000000E+00  0.17031202223E+04  0.17031202223E+04  0.50400001928E-02 0. -1.
       -1   -1    0    0    0  501  0.00000000000E+00  0.00000000000E+00 -0.16935025300E+04  0.16935025300E+04  0.50400001928E-02 0.  1.
    10030    2    1    2    0    0  0.00000000000E+00  0.00000000000E+00  0.96176923651E+01  0.33966227523E+04  0.33966091358E+04 0.  0.
        2    1    3    3  502    0 -0.10420064763E+04 -0.72150339581E+03  0.11352530086E+04  0.17015122804E+04  0.25500000920E-02 0. -1.
       -2    1    3    3    0  502  0.10420064763E+04  0.72150339581E+03 -0.11256353162E+04  0.16951104719E+04  0.25500000920E-02 0.  1.
</event>
<event>
 5   0  0.1523259E-07  0.3388836E+04  0.7818609E-02  0.8140652E-01
        1   -1    0    0  501    0  0.00000000000E+00  0.00000000000E+00  0.10842024741E+04  0.10842024741E+04  0.50400001928E-02 0. -1.
       -1   -1    0    0    0  501  0.00000000000E+00  0.00000000000E+00 -0.26480768908E+04  0.26480768908E+04  0.50400001928E-02 0.  1.
    10030    2    1    2    0    0  0.00000000000E+00  0.00000000000E+00 -0.15638744167E+04  0.37322793649E+04  0.33888355030E+04 0.  0.
        4    1    3    3  502    0  0.44308944040E+03 -0.76614599363E+03  0.80939944534E+03  0.11993485777E+04  0.12699999809E+01 0. -1.
       -4    1    3    3    0  502 -0.44308944040E+03  0.76614599363E+03 -0.23732738621E+04  0.25329307873E+04  0.12699999809E+01 0.  1.
</event>
<event>
 5   0  0.1435806E-07  0.3386846E+04  0.7818609E-02  0.8141142E-01
        1   -1    0    0  501    0  0.00000000000E+00  0.00000000000E+00  0.10185178876E+04  0.10185178876E+04  0.50400001928E-02 0. -1.
       -1   -1    0    0    0  501  0.00000000000E+00  0.00000000000E+00 -0.28155439964E+04  0.28155439964E+04  0.50400001928E-02 0.  1.
    10030    2    1    2    0    0  0.00000000000E+00  0.00000000000E+00 -0.17970261088E+04  0.38340618840E+04  0.33868462756E+04 0.  0.
        3    1    3    3  502    0  0.22876961162E+03  0.51111372647E+03 -0.27076996387E+04  0.27649973093E+04  0.10100000352E+00 0.  1.
       -3    1    3    3    0  502 -0.22876961162E+03 -0.51111372647E+03  0.91067352992E+03  0.10690645747E+04  0.10100000352E+00 0. -1.
</event>
<event>
 5   0  0.1473755E-07  0.3411892E+04  0.7818609E-02  0.8134994E-01
       -1   -1    0    0    0  501  0.00000000000E+00  0.00000000000E+00  0.17575050754E+04  0.17575050755E+04  0.50400001928E-02 0.  1.
        1   -1    0    0  501    0  0.00000000000E+00  0.00000000000E+00 -0.16558996905E+04  0.16558996905E+04  0.50400001928E-02 0. -1.
    10030    2    1    2    0    0  0.00000000000E+00  0.00000000000E+00  0.10160538492E+03  0.34134047660E+04  0.34118922085E+04 0.  0.
        1    1    3    3  502    0  0.11131935604E+04 -0.11991096250E+04  0.53391252912E+03  0.17210829104E+04  0.50400001928E-02 0.  1.
       -1    1    3    3    0  502 -0.11131935604E+04  0.11991096250E+04 -0.43230714421E+03  0.16923218555E+04  0.50400001928E-02 0. -1.
</event>
<event>
 5   0  0.4521737E-07  0.3386658E+04  0.7818609E-02  0.8141189E-01
        2   -1    0    0  501    0  0.00000000000E+00  0.00000000000E+00  0.15872161918E+04  0.15872161918E+04  0.25500000920E-02 0.  1.
       -2   -1    0    0    0  501  0.00000000000E+00  0.00000000000E+00 -0.18065356588E+04  0.18065356588E+04  0.25500000920E-02 0. -1.
    10030    2    1    2    0    0  0.00000000000E+00  0.00000000000E+00 -0.21931946695E+03  0.33937518506E+04  0.33866577322E+04 0.  0.
        4    1    3    3  502    0  0.19842199931E+03 -0.95094029871E+03  0.12802215535E+04  0.16070555623E+04  0.12699999809E+01 0.  1.
       -4    1    3    3    0  502 -0.19842199931E+03  0.95094029871E+03 -0.14995410205E+04  0.17866962883E+04  0.12699999809E+01 0. -1.
</event>
<event>
 5   0  0.4521737E-07  0.3407806E+04  0.7818609E-02  0.8135993E-01
       -2   -1    0    0    0  501  0.00000000000E+00  0.00000000000E+00  0.18166561246E+04  0.18166561246E+04  0.25500000920E-02 0. -1.
        2   -1    0    0  501    0  0.00000000000E+00  0.00000000000E+00 -0.15981480072E+04  0.15981480072E+04  0.25500000920E-02 0.  1.
    10030    2    1    2    0    0  0.00000000000E+00  0.00000000000E+00  0.21850811739E+03  0.34148041318E+04  0.34078059600E+04 0.  0.
        4    1    3    3  502    0 -0.92448735195E+03  0.11861960215E+04 -0.69335637769E+03  0.16560442460E+04  0.12699999809E+01 0.  1.
       -4    1    3    3    0  502  0.92448735195E+03 -0.11861960215E+04  0.91186449508E+03  0.17587598857E+04  0.12699999809E+01 0. -1.
</event>
<event>
 5   0  0.1435806E-07  0.3455347E+04  0.7818609E-02  0.8124454E-01
        1   -1    0    0  501    0  0.00000000000E+00  0.00000000000E+00  0.18017785727E+04  0.18017785727E+04  0.50400001928E-02 0.  1.
       -1   -1    0    0    0  501  0.00000000000E+00  0.00000000000E+00 -0.16566162406E+04  0.16566162406E+04  0.50400001928E-02 0. -1.
    10030    2    1    2    0    0  0.00000000000E+00  0.00000000000E+00  0.14516233207E+03  0.34583948133E+04  0.34553469554E+04 0.  0.
        3    1    3    3  502    0 -0.61608840652E+02 -0.42662545773E+03 -0.16019309420E+04  0.16589115961E+04  0.10100000352E+00 0. -1.
       -3    1    3    3    0  502  0.61608840652E+02  0.42662545773E+03  0.17470932741E+04  0.17994832172E+04  0.10100000352E+00 0.  1.
</event>
<event>
 5   0  0.1523259E-07  0.3398162E+04  0.7818609E-02  0.8138358E-01
       -1   -1    0    0    0  501  0.00000000000E+00  0.00000000000E+00  0.22563910496E+04  0.22563910496E+04  0.50400001928E-02 0.  1.
        1   -1    0    0  501    0  0.00000000000E+00  0.00000000000E+00 -0.12794219013E+04  0.12794219014E+04  0.50400001928E-02 0. -1.
    10030    2    1    2    0    0  0.00000000000E+00  0.00000000000E+00  0.97696914822E+03  0.35358129509E+04  0.33981619307E+04 0.  0.
        4    1    3    3  502    0  0.54081528024E+03  0.10026593175E+04 -0.82316071506E+03  0.14054899679E+04  0.12699999809E+01 0. -1.
       -4    1    3    3    0  502 -0.54081528024E+03 -0.10026593175E+04  0.18001298633E+04  0.21303229830E+04  0.12699999809E+01 0.  1.
</event>
<event>
 5   0  0.4521737E-07  0.3403309E+04  0.7818609E-02  0.8137095E-01
       -2   -1    0    0    0  501  0.00000000000E+00  0.00000000000E+00  0.18256282065E+04  0.18256282065E+04  0.25500000920E-02 0. -1.
        2   -1    0    0  501    0  0.00000000000E+00  0.00000000000E+00 -0.15860993943E+04  0.15860993943E+04  0.25500000920E-02 0.  1.
    10030    2    1    2    0    0  0.00000000000E+00  0.00000000000E+00  0.23952881227E+03  0.34117276008E+04  0.34033088561E+04 0.  0.
        4    1    3    3  502    0 -0.10500195420E+04  0.86509244504E+03 -0.90486973956E+03  0.16339268146E+04  0.12699999809E+01 0.  1.
       -4    1    3    3    0  502  0.10500195420E+04 -0.86509244504E+03  0.11443985518E+04  0.17778007862E+04  0.12699999809E+01 0. -1.
</event>
<event>
 5   0  0.4521737E-07  0.3487978E+04  0.7818609E-02  0.8116645E-01
       -2   -1    0    0    0  501  0.00000000000E+00  0.00000000000E+00  0.18659132815E+04  0.18659132815E+04  0.25500000920E-02 0. -1.
        2   -1    0    0  501    0  0.00000000000E+00  0.00000000000E+00 -0.16300316947E+04  0.16300316947E+04  0.25500000920E-02 0.  1.
    10030    2    1    2    0    0  0.00000000000E+00  0.00000000000E+00  0.23588158678E+03  0.34959449762E+04  0.34879780897E+04 0.  0.
        4    1    3    3  502    0  0.16649401476E+04 -0.29309600063E+03 -0.31148293061E+03  0.17189980191E+04  0.12699999809E+01 0. -1.
       -4    1    3    3    0  502 -0.16649401476E+04  0.29309600063E+03  0.54736451739E+03  0.17769469571E+04  0.12699999809E+01 0.  1.
</event>
<event>
 5   0  0.4447909E-07  0.3415323E+04  0.7818609E-02  0.8134156E-01
       -2   -1    0    0    0  501  0.00000000000E+00  0.00000000000E+00  0.24182439598E+04  0.24182439598E+04  0.25500000920E-02 0. -1.
        2   -1    0    0  501    0  0.00000000000E+00  0.00000000000E+00 -0.12058785675E+04  0.12058785676E+04  0.25500000920E-02 0.  1.
    10030    2    1    2    0    0  0.00000000000E+00  0.00000000000E+00  0.12123653923E+04  0.36241225274E+04  0.34153234472E+04 0.  0.
        5    1    3    3  502    0  0.13307128985E+04  0.44454290829E+03  0.16391816620E+04  0.21576268970E+04  0.46999998093E+01 0. -1.
       -5    1    3    3    0  502 -0.13307128985E+04 -0.44454290829E+03 -0.42681626976E+03  0.14664956303E+04  0.46999998093E+01 0.  1.
</event>
<event>
 5   0  0.4486226E-07  0.3401795E+04  0.7818609E-02  0.8137466E-01
       -2   -1    0    0    0  501  0.00000000000E+00  0.00000000000E+00  0.10850236906E+04  0.10850236906E+04  0.25500000920E-02 0. -1.
        2   -1    0    0  501    0  0.00000000000E+00  0.00000000000E+00 -0.26663489731E+04  0.26663489731E+04  0.25500000920E-02 0.  1.
    10030    2    1    2    0    0  0.00000000000E+00  0.00000000000E+00 -0.15813252825E+04  0.37513726637E+04  0.34017947047E+04 0.  0.
        1    1    3    3  502    0 -0.82311718707E+03  0.14871602187E+04 -0.85939213671E+03  0.19046580440E+04  0.50400001928E-02 0.  1.
       -1    1    3    3    0  502  0.82311718707E+03 -0.14871602187E+04 -0.72193314574E+03  0.18467146197E+04  0.50400001928E-02 0. -1.
</event>
<event>
 5   0  0.1421875E-07  0.3400688E+04  0.7818609E-02  0.8137737E-01
        3   -1    0    0  501    0  0.00000000000E+00  0.00000000000E+00  0.20718516565E+04  0.20718516590E+04  0.10100000352E+00 0.  1.
       -3   -1    0    0    0  501  0.00000000000E+00  0.00000000000E+00 -0.13954522693E+04  0.13954522729E+04  0.10100000352E+00 0. -1.
    10030    2    1    2    0    0  0.00000000000E+00  0.00000000000E+00  0.67639938727E+03  0.34673039319E+04  0.34006882282E+04 0.  0.
        2    1    3    3  502    0  0.59187669733E+03 -0.10016246776E+04  0.16024899515E+04  0.19802888840E+04  0.25500000920E-02 0.  1.
       -2    1    3    3    0  502 -0.59187669733E+03  0.10016246776E+04 -0.92609056422E+03  0.14870150479E+04  0.25500000920E-02 0. -1.
</event>
<event>
 5   0  0.4447909E-07  0.3398462E+04  0.7818609E-02  0.8138284E-01
        2   -1    0    0  501    0  0.00000000000E+00  0.00000000000E+00  0.20613525722E+04  0.20613525722E+04  0.25500000920E-02 0.  1.
       -2   -1    0    0    0  501  0.00000000000E+00  0.00000000000E+00 -0.14007243121E+04  0.14007243121E+04  0.25500000920E-02 0. -1.
    10030    2    1    2    0    0  0.00000000000E+00  0.00000000000E+00  0.66062826014E+03  0.34620768843E+04  0.33984623956E+04 0.  0.
        5    1    3    3  502    0  0.29073329961E+02 -0.62277830347E+03 -0.12799917790E+04  0.14237623109E+04  0.46999998093E+01 0. -1.
       -5    1    3    3    0  502 -0.29073329961E+02  0.62277830347E+03  0.19406200391E+04  0.20383145734E+04  0.46999998093E+01 0.  1.
</event>
<event>
 5   0  0.1520084E-07  0.3402934E+04  0.7818609E-02  0.8137187E-01
        1   -1    0    0  501    0  0.00000000000E+00  0.00000000000E+00  0.19210157565E+04  0.19210157565E+04  0.50400001928E-02 0.  1.
       -1   -1    0    0    0  501  0.00000000000E+00  0.00000000000E+00 -0.15070097925E+04  0.15070097925E+04  0.50400001928E-02 0. -1.
    10030    2    1    2    0    0  0.00000000000E+00  0.00000000000E+00  0.41400596396E+03  0.34280255491E+04  0.34029337676E+04 0.  0.
        2    1    3    3  502    0 -0.14263055763E+04  0.38502349931E+03  0.10572637937E+04  0.18166995958E+04  0.25500000920E-02 0.  1.
       -2    1    3    3    0  502  0.14263055763E+04 -0.38502349931E+03 -0.64325782978E+03  0.16113259532E+04  0.25500000920E-02 0. -1.
</event>
<event>
 5   0  0.4447909E-07  0.3390045E+04  0.7818609E-02  0.8140354E-01
       -2   -1    0    0    0  501  0.00000000000E+00  0.00000000000E+00  0.17568317214E+04  0.17568317214E+04  0.25500000920E-02 0. -1.
        2   -1    0    0  501    0  0.00000000000E+00  0.00000000000E+00 -0.16353876705E+04  0.16353876705E+04  0.25500000920E-02 0.  1.
    10030    2    1    2    0    0  0.00000000000E+00  0.00000000000E+00  0.12144405082E+03  0.33922193919E+04  0.33900447999E+04 0.  0.
        5    1    3    3  502    0  0.11603436652E+03  0.16776456727E+03 -0.16230545808E+04  0.16358292046E+04  0.46999998093E+01 0.  1.
       -5    1    3    3    0  502 -0.11603436652E+03 -0.16776456727E+03  0.17444986317E+04  0.17563901873E+04  0.46999998093E+01 0. -1.
</event>
<event>
 5   0  0.1435806E-07  0.3381165E+04  0.7818609E-02  0.8142545E-01
       -1   -1    0    0    0  501  0.00000000000E+00  0.00000000000E+00  0.14856315703E+04  0.14856315703E+04  0.50400001928E-02 0.  1.
        1   -1    0    0  501    0  0.00000000000E+00  0.00000000000E+00 -0.19238072895E+04  0.19238072895E+04  0.50400001928E-02 0. -1.
    10030    2    1    2    0    0  0.00000000000E+00  0.00000000000E+00 -0.43817571915E+03  0.34094388598E+04  0.33811647960E+04 0.  0.
        3    1    3    3  502    0 -0.80194246547E+02  0.11221160773E+04  0.10534050324E+04  0.15411806451E+04  0.10100000352E+00 0.  1.
       -3    1    3    3    0  502  0.80194246547E+02 -0.11221160773E+04 -0.14915807516E+04  0.18682582147E+04  0.10100000352E+00 0. -1.
</event>
<event>
 5   0  0.1523259E-07  0.3346011E+04  0.7818609E-02  0.8151286E-01
        1   -1    0    0  501    0  0.00000000000E+00  0.00000000000E+00  0.23188418711E+04  0.23188418711E+04  0.50400001928E-02 0. -1.
       -1   -1    0    0    0  501  0.00000000000E+00  0.00000000000E+00 -0.12070453824E+04  0.12070453824E+04  0.50400001928E-02 0.  1.
    10030    2    1    2    0    0  0.00000000000E+00  0.00000000000E+00  0.11117964887E+04  0.35258872536E+04  0.33460109821E+04 0.  0.
        4    1    3    3  502    0  0.40701562233E+03  0.11033746245E+04  0.18097594006E+04  0.21583160056E+04  0.12699999809E+01 0. -1.
       -4    1    3    3    0  502 -0.40701562233E+03 -0.11033746245E+04 -0.69796291193E+03  0.13675712480E+04  0.12699999809E+01 0.  1.
</event>
<event>
 5   0  0.1435806E-07  0.3398002E+04  0.7818609E-02  0.8138397E-01
        1   -1    0    0  501    0  0.00000000000E+00  0.00000000000E+00  0.18670813963E+04  0.18670813963E+04  0.50400001928E-02 0. -1.
       -1   -1    0    0    0  501  0.00000000000E+00  0.00000000000E+00 -0.15460518207E+04  0.15460518207E+04  0.50400001928E-02 0.  1.
    10030    2    1    2    0    0  0.00000000000E+00  0.00000000000E+00  0.32102957560E+03  0.34131332170E+04  0.33980021142E+04 0.  0.
        3    1    3    3  502    0 -0.32743738939E+03 -0.31811341386E+03 -0.14832911530E+04  0.15519549101E+04  0.10100000352E+00 0.  1.
       -3    1    3    3    0  502  0.32743738939E+03  0.31811341386E+03  0.18043207286E+04  0.18611783069E+04  0.10100000352E+00 0. -1.
</event>
<event>
 5   0  0.1435806E-07  0.3399515E+04  0.7818609E-02  0.8138025E-01
        1   -1    0    0  501    0  0.00000000000E+00  0.00000000000E+00  0.18896998006E+04  0.18896998006E+04  0.50400001928E-02 0.  1.
       -1   -1    0    0    0  501  0.00000000000E+00  0.00000000000E+00 -0.15289067751E+04  0.15289067751E+04  0.50400001928E-02 0. -1.
    10030    2    1    2    0    0  0.00000000000E+00  0.00000000000E+00  0.36079302552E+03  0.34186065756E+04  0.33995145700E+04 0.  0.
        3    1    3    3  502    0 -0.11234256046E+04 -0.87659607972E+03 -0.75145157730E+03  0.16109578701E+04  0.10100000352E+00 0. -1.
       -3    1    3    3    0  502  0.11234256046E+04  0.87659607972E+03  0.11122446028E+04  0.18076487056E+04  0.10100000352E+00 0.  1.
</event>
<event>
 5   0  0.4396257E-07  0.3375576E+04  0.7818609E-02  0.8143927E-01
       -2   -1    0    0    0  501  0.00000000000E+00  0.00000000000E+00  0.14282004087E+04  0.14282004087E+04  0.25500000920E-02 0.  1.
        2   -1    0    0  501    0  0.00000000000E+00  0.00000000000E+00 -0.19945580416E+04  0.19945580416E+04  0.25500000920E-02 0. -1.
    10030    2    1    2    0    0  0.00000000000E+00  0.00000000000E+00 -0.56635763285E+03  0.34227584503E+04  0.33755761643E+04 0.  0.
        2    1    3    3  502    0 -0.56536249720E+03  0.13322307373E+04  0.59738063232E+03  0.15656746503E+04  0.25500000920E-02 0.  1.
       -2    1    3    3    0  502  0.56536249720E+03 -0.13322307373E+04 -0.11637382652E+04  0.18570838001E+04  0.25500000920E-02 0. -1.
</event>
<event>
 5   0  0.1421875E-07  0.3393775E+04  0.7818609E-02  0.8139436E-01
        1   -1    0    0  501    0  0.00000000000E+00  0.00000000000E+00  0.22737625076E+04  0.22737625076E+04  0.50400001928E-02 0. -1.
       -1   -1    0    0    0  501  0.00000000000E+00  0.00000000000E+00 -0.12663712845E+04  0.12663712845E+04  0.50400001928E-02 0.  1.
    10030    2    1    2    0    0  0.00000000000E+00  0.00000000000E+00  0.10073912231E+04  0.35401337921E+04  0.33937752120E+04 0.  0.
        5    1    3    3  502    0 -0.10598547762E+04  0.20931945408E+03  0.18686758468E+04  0.21584898172E+04  0.46999998093E+01 0. -1.
       -5    1    3    3    0  502  0.10598547762E+04 -0.20931945408E+03 -0.86128462363E+03  0.13816439749E+04  0.46999998093E+01 0.  1.
</event>
<event>
 5   0  0.1520084E-07  0.3415414E+04  0.7818609E-02  0.8134133E-01
        1   -1    0    0  501    0  0.00000000000E+00  0.00000000000E+00  0.24571107968E+04  0.24571107968E+04  0.50400001928E-02 0. -1.
       -1   -1    0    0    0  501  0.00000000000E+00  0.00000000000E+00 -0.11868669782E+04  0.11868669782E+04  0.50400001928E-02 0.  1.
    10030    2    1    2    0    0  0.00000000000E+00  0.00000000000E+00  0.12702438186E+04  0.36439777751E+04  0.34154142745E+04 0.  0.
        2    1    3    3  502    0 -0.16175414702E+04  0.52361182709E+03  0.46423486375E+03  0.17624198598E+04  0.25500000920E-02 0. -1.
       -2    1    3    3    0  502  0.16175414702E+04 -0.52361182709E+03  0.80600895485E+03  0.18815579153E+04  0.25500000920E-02 0.  1.
</event>
<event>
 5   0  0.1435806E-07  0.3395388E+04  0.7818609E-02  0.8139039E-01
       -1   -1    0    0    0  501  0.00000000000E+00  0.00000000000E+00  0.10682800944E+04  0.10682800944E+04  0.50400001928E-02 0.  1.
        1   -1    0    0  501    0  0.00000000000E+00  0.00000000000E+00 -0.26979482807E+04  0.26979482807E+04  0.50400001928E-02 0. -1.
    10030    2    1    2    0    0  0.00000000000E+00  0.00000000000E+00 -0.16296681864E+04  0.37662283751E+04  0.33953877210E+04 0.  0.
        3    1    3    3  502    0  0.20820034215E+03  0.46488829791E+03 -0.26111852905E+04  0.26604054472E+04  0.10100000352E+00 0. -1.
       -3    1    3    3    0  502 -0.20820034215E+03 -0.46488829791E+03  0.98151710412E+03  0.11058229279E+04  0.10100000352E+00 0.  1.
</event>
<event>
 5   0  0.4486226E-07  0.3360482E+04  0.7818609E-02  0.8147674E-01
       -2   -1    0    0    0  501  0.00000000000E+00  0.00000000000E+00  0.23998189842E+04  0.23998189843E+04  0.25500000920E-02 0.  1.
        2   -1    0    0  501    0  0.00000000000E+00  0.00000000000E+00 -0.11764261571E+04  0.11764261571E+04  0.25500000920E-02 0. -1.
    10030    2    1    2    0    0  0.00000000000E+00  0.00000000000E+00  0.12233928271E+04  0.35762451414E+04  0.33604820044E+04 0.  0.
        1    1    3    3  502    0 -0.62084079763E+03 -0.66904918148E+03 -0.88960360777E+03  0.12745448922E+04  0.50400001928E-02 0. -1.
       -1    1    3    3    0  502  0.62084079763E+03  0.66904918148E+03  0.21129964349E+04  0.23017002492E+04  0.50400001928E-02 0.  1.
</event>
<event>
 5   0  0.4396257E-07  0.3404059E+04  0.7818609E-02  0.8136911E-01
        2   -1    0    0  501    0  0.00000000000E+00  0.00000000000E+00  0.17125370668E+04  0.17125370668E+04  0.25500000920E-02 0.  1.
       -2   -1    0    0    0  501  0.00000000000E+00  0.00000000000E+00 -0.16915860488E+04  0.16915860488E+04  0.25500000920E-02 0. -1.
    10030    2    1    2    0    0  0.00000000000E+00  0.00000000000E+00  0.20951018087E+02  0.34041231156E+04  0.34040586424E+04 0.  0.
        2    1    3    3  502    0 -0.21732729377E+03 -0.28222734657E+03 -0.16538938347E+04  0.16918180293E+04  0.25500000920E-02 0. -1.
       -2    1    3    3    0  502  0.21732729377E+03  0.28222734657E+03  0.16748448528E+04  0.17123050863E+04  0.25500000920E-02 0.  1.
</event>
<event>
 5   0  0.1435806E-07  0.3406178E+04  0.7818609E-02  0.8136392E-01
        1   -1    0    0  501    0  0.00000000000E+00  0.00000000000E+00  0.11033654556E+04  0.11033654556E+04  0.50400001928E-02 0. -1.
       -1   -1    0    0    0  501  0.00000000000E+00  0.00000000000E+00 -0.26287857970E+04  0.26287857970E+04  0.50400001928E-02 0.  1.
    10030    2    1    2    0    0  0.00000000000E+00  0.00000000000E+00 -0.15254203414E+04  0.37321512526E+04  0.34061775870E+04 0.  0.
        3    1    3    3  502    0  0.74326429325E+03 -0.19331432899E+03 -0.24282831057E+04  0.25468355053E+04  0.10100000352E+00 0.  1.
       -3    1    3    3    0  502 -0.74326429325E+03  0.19331432899E+03  0.90286276431E+03  0.11853157473E+04  0.10100000352E+00 0. -1.
</event>
<event>
 5   0  0.4486226E-07  0.3405419E+04  0.7818609E-02  0.8136578E-01
       -2   -1    0    0    0  501  0.00000000000E+00  0.00000000000E+00  0.15307599793E+04  0.15307599793E+04  0.25500000920E-02 0.  1.
        2   -1    0    0  501    0  0.00000000000E+00  0.00000000000E+00 -0.18939741911E+04  0.18939741911E+04  0.25500000920E-02 0. -1.
    10030    2    1    2    0    0  0.00000000000E+00  0.00000000000E+00 -0.36321421174E+03  0.34247341704E+04  0.34054191481E+04 0.  0.
        1    1    3    3  502    0  0.21155023237E+03  0.45359339828E+03 -0.18183266611E+04  0.18859513033E+04  0.50400001928E-02 0. -1.
       -1    1    3    3    0  502 -0.21155023237E+03 -0.45359339828E+03  0.14551124494E+04  0.15387828671E+04  0.50400001928E-02 0.  1.
</event>
<event>
 5   0  0.1473755E-07  0.3402885E+04  0.7818609E-02  0.8137199E-01
       -1   -1    0    0    0  501  0.00000000000E+00  0.00000000000E+00  0.16687499191E+04  0.16687499191E+04  0.50400001928E-02 0.  1.
        1   -1    0    0  501    0  0.00000000000E+00  0.00000000000E+00 -0.17347754294E+04  0.17347754294E+04  0.50400001928E-02 0. -1.
    10030    2    1    2    0    0  0.00000000000E+00  0.00000000000E+00 -0.66025510326E+02  0.34035253485E+04  0.34028848688E+04 0.  0.
        1    1    3    3  502    0 -0.16275850177E+04  0.43238721311E+02  0.46104760589E+03  0.16921783215E+04  0.50400001928E-02 0.  1.
       -1    1    3    3    0  502  0.16275850177E+04 -0.43238721311E+02 -0.52707311622E+03  0.17113470270E+04  0.50400001928E-02 0. -1.
</event>
<event>
 5   0  0.1435806E-07  0.3416300E+04  0.7818609E-02  0.8133917E-01
       -1   -1    0    0    0  501  0.00000000000E+00  0.00000000000E+00  0.20898824531E+04  0.20898824531E+04  0.50400001928E-02 0.  1.
        1   -1    0    0  501    0  0.00000000000E+00  0.00000000000E+00 -0.13961437811E+04  0.13961437812E+04  0.50400001928E-02 0. -1.
    10030    2    1    2    0    0  0.00000000000E+00  0.00000000000E+00  0.69373867198E+03  0.34860262343E+04  0.34162999811E+04 0.  0.
        3    1    3    3  502    0  0.14770942770E+04  0.37102332694E+02  0.12214459024E+04  0.19170587338E+04  0.10100000352E+00 0.  1.
       -3    1    3    3    0  502 -0.14770942770E+04 -0.37102332694E+02 -0.52770723040E+03  0.15689675005E+04  0.10100000352E+00 0. -1.
</event>
<event>
 5   0  0.4521737E-07  0.3423409E+04  0.7818609E-02  0.8132185E-01
        2   -1    0    0  501    0  0.00000000000E+00  0.00000000000E+00  0.16671895574E+04  0.16671895574E+04  0.25500000920E-02 0. -1.
       -2   -1    0    0    0  501  0.00000000000E+00  0.00000000000E+00 -0.17574082082E+04  0.17574082082E+04  0.25500000920E-02 0.  1.
    10030    2    1    2    0    0  0.00000000000E+00  0.00000000000E+00 -0.90218650775E+02  0.34245977656E+04  0.34234091855E+04 0.  0.
        4    1    3    3  502    0  0.47893040442E+03  0.16386706585E+04 -0.16890664774E+03  0.17155602373E+04  0.12699999809E+01 0.  1.
       -4    1    3    3    0  502 -0.47893040442E+03 -0.16386706585E+04  0.78687996968E+02  0.17090375283E+04  0.12699999809E+01 0. -1.
</event>
<event>
 5   0  0.1421875E-07  0.3442438E+04  0.7818609E-02  0.8127568E-01
       -4   -1    0    0    0  501  0.00000000000E+00  0.00000000000E+00  0.14638626097E+04  0.14638631606E+04  0.12699999809E+01 0.  1.
        4   -1    0    0  501    0  0.00000000000E+00  0.00000000000E+00 -0.20238197384E+04  0.20238201369E+04  0.12699999809E+01 0. -1.
    10030    2    1    2    0    0  0.00000000000E+00  0.00000000000E+00 -0.55995712870E+03  0.34876832976E+04  0.34424384959E+04 0.  0.
        2    1    3    3  502    0  0.95658098961E+03 -0.13735602833E+04 -0.68634962157E+03  0.18090856377E+04  0.25500000920E-02 0. -1.
       -2    1    3    3    0  502 -0.95658098961E+03  0.13735602833E+04  0.12639249287E+03  0.16785976599E+04  0.25500000920E-02 0.  1.
</event>
<event>
 5   0  0.4486226E-07  0.3392889E+04  0.7818609E-02  0.8139654E-01
        2   -1    0    0  501    0  0.00000000000E+00  0.00000000000E+00  0.25954497533E+04  0.25954497533E+04  0.25500000920E-02 0. -1.
       -2   -1    0    0    0  501  0.00000000000E+00  0.00000000000E+00 -0.11088343455E+04  0.11088343455E+04  0.25500000920E-02 0.  1.
    10030    2    1    2    0    0  0.00000000000E+00  0.00000000000E+00  0.14866154078E+04  0.37042840988E+04  0.33928889333E+04 0.  0.
        1    1    3    3  502    0 -0.45984985366E+03  0.94700455344E+03 -0.70906352459E+03  0.12692716786E+04  0.50400001928E-02 0.  1.
       -1    1    3    3    0  502  0.45984985366E+03 -0.94700455344E+03  0.21956789324E+04  0.24350124202E+04  0.50400001928E-02 0. -1.
</event>
<event>
 5   0  0.4447909E-07  0.3400197E+04  0.7818609E-02  0.8137858E-01
        2   -1    0    0  501    0  0.00000000000E+00  0.00000000000E+00  0.15897268414E+04  0.15897268414E+04  0.25500000920E-02 0. -1.
       -2   -1    0    0    0  501  0.00000000000E+00  0.00000000000E+00 -0.18181325692E+04  0.18181325692E+04  0.25500000920E-02 0.  1.
    10030    2    1    2    0    0  0.00000000000E+00  0.00000000000E+00 -0.22840572785E+03  0.34078594106E+04  0.34001965510E+04 0.  0.
        5    1    3    3  502    0 -0.56678998960E+03 -0.10852957497E+04 -0.12963500211E+04  0.17831610201E+04  0.46999998093E+01 0.  1.
       -5    1    3    3    0  502  0.56678998960E+03  0.10852957497E+04  0.10679442932E+04  0.16246983905E+04  0.46999998093E+01 0. -1.
</event>
<event>
 5   0  0.4521737E-07  0.3403763E+04  0.7818609E-02  0.8136983E-01
        2   -1    0    0  501    0  0.00000000000E+00  0.00000000000E+00  0.23285994557E+04  0.23285994557E+04  0.25500000920E-02 0. -1.
       -2   -1    0    0    0  501  0.00000000000E+00  0.00000000000E+00 -0.12438377051E+04  0.12438377051E+04  0.25500000920E-02 0.  1.
    10030    2    1    2    0    0  0.00000000000E+00  0.00000000000E+00  0.10847617506E+04  0.35724371607E+04  0.34037625082E+04 0.  0.
        4    1    3    3  502    0 -0.11801673594E+03  0.13160154583E+04 -0.58342248783E+03  0.14443711602E+04  0.12699999809E+01 0.  1.
       -4    1    3    3    0  502  0.11801673594E+03 -0.13160154583E+04  0.16681842384E+04  0.21280660005E+04  0.12699999809E+01 0. -1.
</event>
<event>
 5   0  0.1435806E-07  0.3363591E+04  0.7818609E-02  0.8146901E-01
        1   -1    0    0  501    0  0.00000000000E+00  0.00000000000E+00  0.10246655900E+04  0.10246655901E+04  0.50400001928E-02 0. -1.
       -1   -1    0    0    0  501  0.00000000000E+00  0.00000000000E+00 -0.27603496739E+04  0.27603496739E+04  0.50400001928E-02 0.  1.
    10030    2    1    2    0    0  0.00000000000E+00  0.00000000000E+00 -0.17356840838E+04  0.37850152639E+04  0.33635905383E+04 0.  0.
        3    1    3    3  502    0  0.45028880140E+03 -0.68085141987E+02 -0.26896446303E+04  0.27279266557E+04  0.10100000352E+00 0.  1.
       -3    1    3    3    0  502 -0.45028880140E+03  0.68085141987E+02  0.95396054649E+03  0.10570886082E+04  0.10100000352E+00 0. -1.
</event>
<event>
 5   0  0.1435806E-07  0.3405460E+04  0.7818609E-02  0.8136568E-01
       -1   -1    0    0    0  501  0.00000000000E+00  0.00000000000E+00  0.95396729537E+03  0.95396729538E+03  0.50400001928E-02 0.  1.
        1   -1    0    0  501    0  0.00000000000E+00  0.00000000000E+00 -0.30391913970E+04  0.30391913970E+04  0.50400001928E-02 0. -1.
    10030    2    1    2    0    0  0.00000000000E+00  0.00000000000E+00 -0.20852241016E+04  0.39931586924E+04  0.34054598498E+04 0.  0.
        3    1    3    3  502    0  0.48335097411E+03  0.16326409606E+04 -0.10285159235E+04  0.19892183604E+04  0.10100000352E+00 0.  1.
       -3    1    3    3    0  502 -0.48335097411E+03 -0.16326409606E+04 -0.10567081782E+04  0.20039403320E+04  0.10100000352E+00 0. -1.
</event>
<event>
 5   0  0.4381939E-07  0.3396395E+04  0.7818609E-02  0.8138792E-01
        2   -1    0    0  501    0  0.00000000000E+00  0.00000000000E+00  0.17899081192E+04  0.17899081192E+04  0.25500000920E-02 0.  1.
       -2   -1    0    0    0  501  0.00000000000E+00  0.00000000000E+00 -0.16111859380E+04  0.16111859380E+04  0.25500000920E-02 0. -1.
    10030    2    1    2    0    0  0.00000000000E+00  0.00000000000E+00  0.17872218117E+03  0.34010940572E+04  0.33963950253E+04 0.  0.
        3    1    3    3  502    0 -0.26682747339E+03  0.17382403654E+03  0.17597405932E+04  0.17883228628E+04  0.10100000352E+00 0.  1.
       -3    1    3    3    0  502  0.26682747339E+03 -0.17382403654E+03 -0.15810184120E+04  0.16127711944E+04  0.10100000352E+00 0. -1.
</event>
<event>
 5   0  0.4521737E-07  0.3391084E+04  0.7818609E-02  0.8140098E-01
       -2   -1    0    0    0  501  0.00000000000E+00  0.00000000000E+00  0.26730177037E+04  0.26730177037E+04  0.25500000920E-02 0. -1.
        2   -1    0    0  501    0  0.00000000000E+00  0.00000000000E+00 -0.10755121042E+04  0.10755121042E+04  0.25500000920E-02 0.  1.
    10030    2    1    2    0    0  0.00000000000E+00  0.00000000000E+00  0.15975055995E+04  0.37485298079E+04  0.33910841305E+04 0.  0.
        4    1    3    3  502    0  0.16256296585E+04 -0.30721206278E+03  0.38839456275E+03  0.16993831196E+04  0.12699999809E+01 0.  1.
       -4    1    3    3    0  502 -0.16256296585E+04  0.30721206278E+03  0.12091110367E+04  0.20491466882E+04  0.12699999809E+01 0. -1.
</event>
<event>
 5   0  0.1523259E-07  0.3406837E+04  0.7818609E-02  0.8136230E-01
        1   -1    0    0  501    0  0.00000000000E+00  0.00000000000E+00  0.22670180420E+04  0.22670180420E+04  0.50400001928E-02 0. -1.
       -1   -1    0    0    0  501  0.00000000000E+00  0.00000000000E+00 -0.12799348069E+04  0.12799348069E+04  0.50400001928E-02 0.  1.
    10030    2    1    2    0    0  0.00000000000E+00  0.00000000000E+00  0.98708323512E+03  0.35469528489E+04  0.34068374190E+04 0.  0.
        4    1    3    3  502    0  0.92161660682E+03  0.11132668797E+04  0.14322286054E+04  0.20347040833E+04  0.12699999809E+01 0. -1.
       -4    1    3    3    0  502 -0.92161660682E+03 -0.11132668797E+04 -0.44514537031E+03  0.15122487656E+04  0.12699999809E+01 0.  1.
</event>
<event>
 5   0  0.1473755E-07  0.3411566E+04  0.7818609E-02  0.8135073E-01
       -1   -1    0    0    0  501  0.00000000000E+00  0.00000000000E+00  0.22760126584E+04  0.22760126584E+04  0.50400001928E-02 0. -1.
        1   -1    0    0  501    0  0.00000000000E+00  0.00000000000E+00 -0.12784183960E+04  0.12784183960E+04  0.50400001928E-02 0.  1.
    10030    2    1    2    0    0  0.00000000000E+00  0.00000000000E+00  0.99759426242E+03  0.35544310544E+04  0.34115664742E+04 0.  0.
        1    1    3    3  502    0  0.53295853839E+03 -0.60629735661E+03  0.20644069285E+04  0.22166229393E+04  0.50400001928E-02 0. -1.
       -1    1    3    3    0  502 -0.53295853839E+03  0.60629735661E+03 -0.10668126661E+04  0.13378081151E+04  0.50400001928E-02 0.  1.
</event>
<event>
 5   0  0.1520084E-07  0.3402832E+04  0.7818609E-02  0.8137212E-01
        1   -1    0    0  501    0  0.00000000000E+00  0.00000000000E+00  0.24204124761E+04  0.24204124761E+04  0.50400001928E-02 0.  1.
       -1   -1    0    0    0  501  0.00000000000E+00  0.00000000000E+00 -0.11960013725E+04  0.11960013725E+04  0.50400001928E-02 0. -1.
    10030    2    1    2    0    0  0.00000000000E+00  0.00000000000E+00  0.12244111037E+04  0.36164138486E+04  0.34028321401E+04 0.  0.
        2    1    3    3  502    0  0.11254160565E+04 -0.62221873436E+03 -0.57176484467E+03  0.14073494559E+04  0.25500000920E-02 0. -1.
       -2    1    3    3    0  502 -0.11254160565E+04  0.62221873436E+03  0.17961759483E+04  0.22090643927E+04  0.25500000920E-02 0.  1.
</event>
<event>
 5   0  0.4521737E-07  0.3398642E+04  0.7818609E-02  0.8138240E-01
       -2   -1    0    0    0  501  0.00000000000E+00  0.00000000000E+00  0.25700560629E+04  0.25700560630E+04  0.25500000920E-02 0.  1.
        2   -1    0    0  501    0  0.00000000000E+00  0.00000000000E+00 -0.11235908102E+04  0.11235908102E+04  0.25500000920E-02 0. -1.
    10030    2    1    2    0    0  0.00000000000E+00  0.00000000000E+00  0.14464652528E+04  0.36936468731E+04  0.33986417134E+04 0.  0.
        4    1    3    3  502    0  0.49106363728E+03  0.14611707109E+04  0.15005243146E+04  0.21512178351E+04  0.12699999809E+01 0. -1.
       -4    1    3    3    0  502 -0.49106363728E+03 -0.14611707109E+04 -0.54059061823E+02  0.15424290380E+04  0.12699999809E+01 0.  1.
</event>
<event>
 5   0  0.4521737E-07  0.3406968E+04  0.7818609E-02  0.8136198E-01
        2   -1    0    0  501    0  0.00000000000E+00  0.00000000000E+00  0.14546719383E+04  0.14546719383E+04  0.25500000920E-02 0.  1.
       -2   -1    0    0    0  501  0.00000000000E+00  0.00000000000E+00 -0.19948538695E+04  0.19948538695E+04  0.25500000920E-02 0. -1.
    10030    2    1    2    0    0  0.00000000000E+00  0.00000000000E+00 -0.54018193119E+03  0.34495258079E+04  0.34069681214E+04 0.  0.
        4    1    3    3  502    0  0.51580837779E+03  0.10787076122E+04 -0.14985847287E+04  0.19171401089E+04  0.12699999809E+01 0. -1.
       -4    1    3    3    0  502 -0.51580837779E+03 -0.10787076122E+04  0.95840279749E+03  0.15323856990E+04  0.12699999809E+01 0.  1.
</event>
<event>
 5   0  0.4447909E-07  0.3401787E+04  0.7818609E-02  0.8137468E-01
        2   -1    0    0  501    0  0.00000000000E+00  0.00000000000E+00  0.10330578029E+04  0.10330578029E+04  0.25500000920E-02 0. -1.
       -2   -1    0    0    0  501  0.00000000000E+00  0.00000000000E+00 -0.28004619084E+04  0.28004619084E+04  0.25500000920E-02 0.  1.
    10030    2    1    2    0    0  0.00000000000E+00  0.00000000000E+00 -0.17674041055E+04  0.38335197114E+04  0.34017871929E+04 0.  0.
        5    1    3    3  502    0  0.15692549933E+04  0.65578190923E+03 -0.86100125034E+03  0.19062938885E+04  0.46999998093E+01 0. -1.
       -5    1    3    3    0  502 -0.15692549933E+04 -0.65578190923E+03 -0.90640285517E+03  0.19272258229E+04  0.46999998093E+01 0.  1.
</event>
<event>
 5   0  0.1435806E-07  0.3410702E+04  0.7818609E-02  0.8135285E-01
       -1   -1    0    0    0  501  0.00000000000E+00  0.00000000000E+00  0.10704541834E+04  0.10704541834E+04  0.50400001928E-02 0. -1.
        1   -1    0    0  501    0  0.00000000000E+00  0.00000000000E+00 -0.27168110429E+04  0.27168110429E+04  0.50400001928E-02 0.  1.
    10030    2    1    2    0    0  0.00000000000E+00  0.00000000000E+00 -0.16463568595E+04  0.37872652263E+04  0.34107018318E+04 0.  0.
        3    1    3    3  502    0  0.24186507669E+03 -0.16880759608E+04 -0.83547195310E+03  0.18989767138E+04  0.10100000352E+00 0. -1.
       -3    1    3    3    0  502 -0.24186507669E+03  0.16880759608E+04 -0.81088490645E+03  0.18882885125E+04  0.10100000352E+00 0.  1.
</event>
<event>
 5   0  0.1520084E-07  0.3401265E+04  0.7818609E-02  0.8137596E-01
        1   -1    0    0  501    0  0.00000000000E+00  0.00000000000E+00  0.14810626627E+04  0.14810626627E+04  0.50400001928E-02 0.  1.
       -1   -1    0    0    0  501  0.00000000000E+00  0.00000000000E+00 -0.19527538573E+04  0.19527538573E+04  0.50400001928E-02 0. -1.
    10030    2    1    2    0    0  0.00000000000E+00  0.00000000000E+00 -0.47169119452E+03  0.34338165200E+04  0.34012649574E+04 0.  0.
        2    1    3    3  502    0  0.80720984073E+03  0.14597071552E+04 -0.57040529778E+03  0.17628655393E+04  0.25500000920E-02 0.  1.
       -2    1    3    3    0  502 -0.80720984073E+03 -0.14597071552E+04  0.98714103268E+02  0.16709509807E+04  0.25500000920E-02 0. -1.
</event>
<event>
 5   0  0.4486226E-07  0.3363248E+04  0.7818609E-02  0.8146986E-01
        2   -1    0    0  501    0  0.00000000000E+00  0.00000000000E+00  0.27734211679E+04  0.27734211679E+04  0.25500000920E-02 0.  1.
       -2   -1    0    0    0  501  0.00000000000E+00  0.00000000000E+00 -0.10196284399E+04  0.10196284399E+04  0.25500000920E-02 0. -1.
    10030    2    1    2    0    0  0.00000000000E+00  0.00000000000E+00  0.17537927280E+04  0.37930496078E+04  0.33632478937E+04 0.  0.
        1    1    3    3  502    0 -0.13416376354E+04  0.72733603796E+03  0.80343573774E+02  0.15282226103E+04  0.50400001928E-02 0. -1.
       -1    1    3    3    0  502  0.13416376354E+04 -0.72733603796E+03  0.16734491543E+04  0.22648269975E+04  0.50400001928E-02 0.  1.
</event>
<event>
 5   0  0.1523259E-07  0.3400276E+04  0.7818609E-02  0.8137839E-01
        1   -1    0    0  501    0  0.00000000000E+00  0.00000000000E+00  0.19520635172E+04  0.19520635172E+04  0.50400001928E-02 0.  1.
       -1   -1    0    0    0  501  0.00000000000E+00  0.00000000000E+00 -0.14807246433E+04  0.14807246433E+04  0.50400001928E-02 0. -1.
    10030    2    1    2    0    0  0.00000000000E+00  0.00000000000E+00  0.47133887391E+03  0.34327881605E+04  0.34002756095E+04 0.  0.
        4    1    3    3  502    0 -0.13825412367E+04 -0.86347478789E+03  0.72346430649E+03  0.17833707400E+04  0.12699999809E+01 0. -1.
       -4    1    3    3    0  502  0.13825412367E+04  0.86347478789E+03 -0.25212543258E+03  0.16494174205E+04  0.12699999809E+01 0.  1.
</event>
<event>
 5   0  0.4521737E-07  0.3412263E+04  0.7818609E-02  0.8134903E-01
        2   -1    0    0  501    0  0.00000000000E+00  0.00000000000E+00  0.17466010411E+04  0.17466010411E+04  0.25500000920E-02 0.  1.
       -2   -1    0    0    0  501  0.00000000000E+00  0.00000000000E+00 -0.16665998451E+04  0.16665998451E+04  0.25500000920E-02 0. -1.
    10030    2    1    2    0    0  0.00000000000E+00  0.00000000000E+00  0.80001195992E+02  0.34132008862E+04  0.34122631930E+04 0.  0.
        4    1    3    3  502    0  0.12319167663E+04 -0.93842041505E+03  0.75618032358E+03  0.17233868077E+04  0.12699999809E+01 0.  1.
       -4    1    3    3    0  502 -0.12319167663E+04  0.93842041505E+03 -0.67617912758E+03  0.16898140785E+04  0.12699999809E+01 0. -1.
</event>
<event>
 5   0  0.4396257E-07  0.3408916E+04  0.7818609E-02  0.8135721E-01
       -2   -1    0    0    0  501  0.00000000000E+00  0.00000000000E+00  0.32301702965E+04  0.32301702965E+04  0.25500000920E-02 0.  1.
        2   -1    0    0  501    0  0.00000000000E+00  0.00000000000E+00 -0.89938836126E+03  0.89938836126E+03  0.25500000920E-02 0. -1.
    10030    2    1    2    0    0  0.00000000000E+00  0.00000000000E+00  0.23307819353E+04  0.41295586578E+04  0.34089162909E+04 0.  0.
        2    1    3    3  502    0  0.71011008218E+03  0.14375217028E+04  0.46481604513E+03  0.16693648285E+04  0.25500000920E-02 0.  1.
       -2    1    3    3    0  502 -0.71011008218E+03 -0.14375217028E+04  0.18659658901E+04  0.24601938293E+04  0.25500000920E-02 0. -1.
</event>
<event>
 5   0  0.1473755E-07  0.3361776E+04  0.7818609E-02  0.8147352E-01
       -1   -1    0    0    0  501  0.00000000000E+00  0.00000000000E+00  0.18390431501E+04  0.18390431501E+04  0.50400001928E-02 0.  1.
        1   -1    0    0  501    0  0.00000000000E+00  0.00000000000E+00 -0.15363335974E+04  0.15363335974E+04  0.50400001928E-02 0. -1.
    10030    2    1    2    0    0  0.00000000000E+00  0.00000000000E+00  0.30270955269E+03  0.33753767475E+04  0.33617755895E+04 0.  0.
        1    1    3    3  502    0  0.14022765126E+04 -0.87561392648E+03  0.45640070767E+03  0.17150454140E+04  0.50400001928E-02 0.  1.
       -1    1    3    3    0  502 -0.14022765126E+04  0.87561392648E+03 -0.15369115498E+03  0.16603313335E+04  0.50400001928E-02 0. -1.
</event>
<event>
 5   0  0.4521737E-07  0.3401008E+04  0.7818609E-02  0.8137659E-01
        2   -1    0    0  501    0  0.00000000000E+00  0.00000000000E+00  0.23394297772E+04  0.23394297772E+04  0.25500000920E-02 0. -1.
       -2   -1    0    0    0  501  0.00000000000E+00  0.00000000000E+00 -0.12360762382E+04  0.12360762382E+04  0.25500000920E-02 0.  1.
    10030    2    1    2    0    0  0.00000000000E+00  0.00000000000E+00  0.11033535390E+04  0.35755060154E+04  0.34010078263E+04 0.  0.
        4    1    3    3  502    0  0.90204340053E+03  0.72713164590E+03 -0.75689918053E+03  0.13839438967E+04  0.12699999809E+01 0.  1.
       -4    1    3    3    0  502 -0.90204340053E+03 -0.72713164590E+03  0.18602527195E+04  0.21915621187E+04  0.12699999809E+01 0. -1.
</event>
<event>
 5   0  0.1435806E-07  0.3400831E+04  0.7818609E-02  0.8137702E-01
        1   -1    0    0  501    0  0.00000000000E+00  0.00000000000E+00  0.27371997423E+04  0.27371997424E+04  0.50400001928E-02 0.  1.
       -1   -1    0    0    0  501  0.00000000000E+00  0.00000000000E+00 -0.10563399833E+04  0.10563399833E+04  0.50400001928E-02 0. -1.
    10030    2    1    2    0    0  0.00000000000E+00  0.00000000000E+00  0.16808597591E+04  0.37935397256E+04  0.34008313866E+04 0.  0.
        3    1    3    3  502    0  0.11312242816E+04  0.42137558246E+03 -0.49543503168E+03  0.13048684369E+04  0.10100000352E+00 0. -1.
       -3    1    3    3    0  502 -0.11312242816E+04 -0.42137558246E+03  0.21762947908E+04  0.24886712887E+04  0.10100000352E+00 0.  1.
</event>
<event>
 5   0  0.4447909E-07  0.3403493E+04  0.7818609E-02  0.8137049E-01
       -2   -1    0    0    0  501  0.00000000000E+00  0.00000000000E+00  0.12179591700E+04  0.12179591700E+04  0.25500000920E-02 0.  1.
        2   -1    0    0  501    0  0.00000000000E+00  0.00000000000E+00 -0.23777003486E+04  0.23777003486E+04  0.25500000920E-02 0. -1.
    10030    2    1    2    0    0  0.00000000000E+00  0.00000000000E+00 -0.11597411786E+04  0.35956595185E+04  0.34034934658E+04 0.  0.
        5    1    3    3  502    0 -0.15042236561E+04 -0.78246906754E+03 -0.42687249294E+03  0.17484818742E+04  0.46999998093E+01 0. -1.
       -5    1    3    3    0  502  0.15042236561E+04  0.78246906754E+03 -0.73286868567E+03  0.18471776443E+04  0.46999998093E+01 0.  1.
</event>
<event>
 5   0  0.4447909E-07  0.3399761E+04  0.7818609E-02  0.8137965E-01
        2   -1    0    0  501    0  0.00000000000E+00  0.00000000000E+00  0.26957768468E+04  0.26957768468E+04  0.25500000920E-02 0.  1.
       -2   -1    0    0    0  501  0.00000000000E+00  0.00000000000E+00 -0.10718963959E+04  0.10718963959E+04  0.25500000920E-02 0. -1.
    10030    2    1    2    0    0  0.00000000000E+00  0.00000000000E+00  0.16238804509E+04  0.37676732427E+04  0.33997608659E+04 0.  0.
        5    1    3    3  502    0 -0.13163999687E+04 -0.10721796055E+04  0.90527692933E+03  0.19240650698E+04  0.46999998093E+01 0. -1.
       -5    1    3    3    0  502  0.13163999687E+04  0.10721796055E+04  0.71860352154E+03  0.18436081729E+04  0.46999998093E+01 0.  1.
</event>
<event>
 5   0  0.4486226E-07  0.3398233E+04  0.7818609E-02  0.8138340E-01
        2   -1    0    0  501    0  0.00000000000E+00  0.00000000000E+00  0.19502740617E+04  0.19502740617E+04  0.25500000920E-02 0.  1.
       -2   -1    0    0    0  501  0.00000000000E+00  0.00000000000E+00 -0.14803034603E+04  0.14803034603E+04  0.25500000920E-02 0. -1.
    10030    2    1    2    0    0  0.00000000000E+00  0.00000000000E+00  0.46997060145E+03  0.34305775220E+04  0.33982333305E+04 0.  0.
        1    1    3    3  502    0 -0.35492524096E+03 -0.15938446665E+04 -0.23925684750E+03  0.16503201468E+04  0.50400001928E-02 0.  1.
       -1    1    3    3    0  502  0.35492524096E+03  0.15938446665E+04  0.70922744895E+03  0.17802573752E+04  0.50400001928E-02 0. -1.
</event>
<event>
 5   0  0.1523259E-07  0.3397508E+04  0.7818609E-02  0.8138518E-01
        1   -1    0    0  501    0  0.00000000000E+00  0.00000000000E+00  0.13865691689E+04  0.13865691689E+04  0.50400001928E-02 0.  1.
       -1   -1    0    0    0  501  0.00000000000E+00  0.00000000000E+00 -0.20812263915E+04  0.20812263915E+04  0.50400001928E-02 0. -1.
    10030    2    1    2    0    0  0.00000000000E+00  0.00000000000E+00 -0.69465722257E+03  0.34677955604E+04  0.33975075264E+04 0.  0.
        4    1    3    3  502    0 -0.85758292282E+03 -0.66770357988E+03 -0.16798979087E+04  0.20008336104E+04  0.12699999809E+01 0. -1.
       -4    1    3    3    0  502  0.85758292282E+03  0.66770357988E+03  0.98524068612E+03  0.14669619499E+04  0.12699999809E+01 0.  1.
</event>
<event>
 5   0  0.1435806E-07  0.3359261E+04  0.7818609E-02  0.8147978E-01
       -1   -1    0    0    0  501  0.00000000000E+00  0.00000000000E+00  0.13840727800E+04  0.13840727800E+04  0.50400001928E-02 0. -1.
        1   -1    0    0  501    0  0.00000000000E+00  0.00000000000E+00 -0.20383026570E+04  0.20383026570E+04  0.50400001928E-02 0.  1.
    10030    2    1    2    0    0  0.00000000000E+00  0.00000000000E+00 -0.65422987696E+03  0.34223754370E+04  0.33592613622E+04 0.  0.
        3    1    3    3  502    0  0.89836335759E+03  0.14114982650E+04 -0.17677847256E+03  0.16824490224E+04  0.10100000352E+00 0.  1.
       -3    1    3    3    0  502 -0.89836335759E+03 -0.14114982650E+04 -0.47745140439E+03  0.17399264146E+04  0.10100000352E+00 0. -1.
</event>
<event>
 5   0  0.1435806E-07  0.3407884E+04  0.7818609E-02  0.8135974E-01
        1   -1    0    0  501    0  0.00000000000E+00  0.00000000000E+00  0.16934694236E+04  0.16934694236E+04  0.50400001928E-02 0. -1.
       -1   -1    0    0    0  501  0.00000000000E+00  0.00000000000E+00 -0.17144795188E+04  0.17144795188E+04  0.50400001928E-02 0.  1.
    10030    2    1    2    0    0  0.00000000000E+00  0.00000000000E+00 -0.21010095260E+02  0.34079489424E+04  0.34078841779E+04 0.  0.
        3    1    3    3  502    0 -0.86671556015E+03 -0.30394477867E+03 -0.14457467116E+04  0.17128227740E+04  0.10100000352E+00 0.  1.
       -3    1    3    3    0  502  0.86671556015E+03  0.30394477867E+03  0.14247366164E+04  0.16951261684E+04  0.10100000352E+00 0. -1.
</event>
<event>
 5   0  0.4521737E-07  0.3363479E+04  0.7818609E-02  0.8146928E-01
        2   -1    0    0  501    0  0.00000000000E+00  0.00000000000E+00  0.24010806715E+04  0.24010806715E+04  0.25500000920E-02 0. -1.
       -2   -1    0    0    0  501  0.00000000000E+00  0.00000000000E+00 -0.11779060670E+04  0.11779060670E+04  0.25500000920E-02 0.  1.
    10030    2    1    2    0    0  0.00000000000E+00  0.00000000000E+00  0.12231746044E+04  0.35789867385E+04  0.33634788481E+04 0.  0.
        4    1    3    3  502    0  0.10147151146E+04  0.19469530861E+03  0.20235173758E+04  0.22720425194E+04  0.12699999809E+01 0. -1.
       -4    1    3    3    0  502 -0.10147151146E+04 -0.19469530861E+03 -0.80034277138E+03  0.13069442190E+04  0.12699999809E+01 0.  1.
</event>
<event>
 5   0  0.1421875E-07  0.3400553E+04  0.7818609E-02  0.8137771E-01
        1   -1    0    0  501    0  0.00000000000E+00  0.00000000000E+00  0.31200498209E+04  0.31200498209E+04  0.50400001928E-02 0. -1.
       -1   -1    0    0    0  501  0.00000000000E+00  0.00000000000E+00 -0.92656865339E+03  0.92656865341E+03  0.50400001928E-02 0.  1.
    10030    2    1    2    0    0  0.00000000000E+00  0.00000000000E+00  0.21934811675E+04  0.40466184743E+04  0.34005531086E+04 0.  0.
        5    1    3    3  502    0 -0.15626178962E+04  0.28650696597E+03  0.18176980680E+04  0.24141063124E+04  0.46999998093E+01 0. -1.
       -5    1    3    3    0  502  0.15626178962E+04 -0.28650696597E+03  0.37578309959E+03  0.16325121620E+04  0.46999998093E+01 0.  1.
</event>
<event>
 5   0  0.1473755E-07  0.3393555E+04  0.7818609E-02  0.8139490E-01
        1   -1    0    0  501    0  0.00000000000E+00  0.00000000000E+00  0.24366589090E+04  0.24366589090E+04  0.50400001928E-02 0.  1.
       -1   -1    0    0    0  501  0.00000000000E+00  0.00000000000E+00 -0.11815583494E+04  0.11815583494E+04  0.50400001928E-02 0. -1.
    10030    2    1    2    0    0  0.00000000000E+00  0.00000000000E+00  0.12551005596E+04  0.36182172585E+04  0.33935554680E+04 0.  0.
        1    1    3    3  502    0  0.82937516446E+03  0.12536371876E+04  0.14667981491E+04  0.21002300283E+04  0.50400001928E-02 0.  1.
       -1    1    3    3    0  502 -0.82937516446E+03 -0.12536371876E+04 -0.21169758952E+03  0.15179872302E+04  0.50400001928E-02 0. -1.
</event>
<event>
 5   0  0.1520084E-07  0.3390284E+04  0.7818609E-02  0.8140295E-01
       -1   -1    0    0    0  501  0.00000000000E+00  0.00000000000E+00  0.11168394334E+04  0.11168394334E+04  0.50400001928E-02 0.  1.
        1   -1    0    0  501    0  0.00000000000E+00  0.00000000000E+00 -0.25728916919E+04  0.25728916919E+04  0.50400001928E-02 0. -1.
    10030    2    1    2    0    0  0.00000000000E+00  0.00000000000E+00 -0.14560522585E+04  0.36897311254E+04  0.33902842946E+04 0.  0.
        2    1    3    3  502    0  0.12034844171E+04 -0.14173814663E+03  0.56201431343E+03  0.13357861105E+04  0.25500000920E-02 0.  1.
       -2    1    3    3    0  502 -0.12034844171E+04  0.14173814663E+03 -0.20180665719E+04  0.23539450149E+04  0.25500000920E-02 0. -1.
</event>
<event>
 5   0  0.4381939E-07  0.3398102E+04  0.7818609E-02  0.8138372E-01
        2   -1    0    0  501    0  0.00000000000E+00  0.00000000000E+00  0.11223799255E+04  0.11223799255E+04  0.25500000920E-02 0.  1.
       -2   -1    0    0    0  501  0.00000000000E+00  0.00000000000E+00 -0.25720119387E+04  0.25720119387E+04  0.25500000920E-02 0. -1.
    10030    2    1    2    0    0  0.00000000000E+00  0.00000000000E+00 -0.14496320132E+04  0.36943918642E+04  0.33981021575E+04 0.  0.
        3    1    3    3  502    0 -0.39868761550E+03 -0.12325435026E+04  0.47043321510E+03  0.13781954581E+04  0.10100000352E+00 0.  1.
       -3    1    3    3    0  502  0.39868761550E+03  0.12325435026E+04 -0.19200652283E+04  0.23161964061E+04  0.10100000352E+00 0. -1.
</event>
<event>
 5   0  0.4521737E-07  0.3434019E+04  0.7818609E-02  0.8129607E-01
        2   -1    0    0  501    0  0.00000000000E+00  0.00000000000E+00  0.15621801028E+04  0.15621801028E+04  0.25500000920E-02 0. -1.
       -2   -1    0    0    0  501  0.00000000000E+00  0.00000000000E+00 -0.18871843518E+04  0.18871843518E+04  0.25500000920E-02 0.  1.
    10030    2    1    2    0    0  0.00000000000E+00  0.00000000000E+00 -0.32500424897E+03  0.34493644546E+04  0.34340191290E+04 0.  0.
        4    1    3    3  502    0  0.87394029868E+03 -0.84064224767E+03 -0.13835283272E+04  0.18397291321E+04  0.12699999809E+01 0.  1.
       -4    1    3    3    0  502 -0.87394029868E+03  0.84064224767E+03  0.10585240783E+04  0.16096353225E+04  0.12699999809E+01 0. -1.
</event>
<event>
 5   0  0.4486226E-07  0.3396464E+04  0.7818609E-02  0.8138775E-01
        2   -1    0    0  501    0  0.00000000000E+00  0.00000000000E+00  0.17431549511E+04  0.17431549511E+04  0.25500000920E-02 0.  1.
       -2   -1    0    0    0  501  0.00000000000E+00  0.00000000000E+00 -0.16544667077E+04  0.16544667077E+04  0.25500000920E-02 0. -1.
    10030    2    1    2    0    0  0.00000000000E+00  0.00000000000E+00  0.88688243425E+02  0.33976216588E+04  0.33964639453E+04 0.  0.
        1    1    3    3  502    0 -0.42866338360E+03  0.10150602258E+04 -0.12483394677E+04  0.16650678620E+04  0.50400001928E-02 0. -1.
       -1    1    3    3    0  502  0.42866338360E+03 -0.10150602258E+04  0.13370277111E+04  0.17325537968E+04  0.50400001928E-02 0.  1.
</event>
<event>
 5   0  0.4381939E-07  0.3382144E+04  0.7818609E-02  0.8142303E-01
        2   -1    0    0  501    0  0.00000000000E+00  0.00000000000E+00  0.22090621054E+04  0.22090621054E+04  0.25500000920E-02 0.  1.
       -2   -1    0    0    0  501  0.00000000000E+00  0.00000000000E+00 -0.12945427235E+04  0.12945427235E+04  0.25500000920E-02 0. -1.
    10030    2    1    2    0    0  0.00000000000E+00  0.00000000000E+00  0.91451938188E+03  0.35036048289E+04  0.33821444524E+04 0.  0.
        3    1    3    3  502    0  0.70638014173E+03 -0.10959699869E+04 -0.65826058664E+03  0.14606266214E+04  0.10100000352E+00 0. -1.
       -3    1    3    3    0  502 -0.70638014173E+03  0.10959699869E+04  0.15727799685E+04  0.20429782075E+04  0.10100000352E+00 0.  1.
</event>
<event>
 5   0  0.1421875E-07  0.3239325E+04  0.7818609E-02  0.8178508E-01
       -1   -1    0    0    0  501  0.00000000000E+00  0.00000000000E+00  0.16731559889E+04  0.16731559889E+04  0.50400001928E-02 0.  1.
        1   -1    0    0  501    0  0.00000000000E+00  0.00000000000E+00 -0.15678788918E+04  0.15678788918E+04  0.50400001928E-02 0. -1.
    10030    2    1    2    0    0  0.00000000000E+00  0.00000000000E+00  0.10527709709E+03  0.32410348807E+04  0.32393245948E+04 0.  0.
        5    1    3    3  502    0 -0.11354968210E+04  0.60898241892E+03 -0.92924152371E+03  0.15886234659E+04  0.46999998093E+01 0. -1.
       -5    1    3    3    0  502  0.11354968210E+04 -0.60898241892E+03  0.10345186208E+04  0.16524114148E+04  0.46999998093E+01 0.  1.
</event>
<event>
 5   0  0.1523259E-07  0.3404826E+04  0.7818609E-02  0.8136723E-01
        1   -1    0    0  501    0  0.00000000000E+00  0.00000000000E+00  0.13846905394E+04  0.13846905395E+04  0.50400001928E-02 0.  1.
       -1   -1    0    0    0  501  0.00000000000E+00  0.00000000000E+00 -0.20930378175E+04  0.20930378175E+04  0.50400001928E-02 0. -1.
    10030    2    1    2    0    0  0.00000000000E+00  0.00000000000E+00 -0.70834727802E+03  0.34777283569E+04  0.34048257897E+04 0.  0.
        4    1    3    3  502    0 -0.15138545441E+04  0.61826308114E+03 -0.83781306442E+03  0.18373723526E+04  0.12699999809E+01 0.  1.
       -4    1    3    3    0  502  0.15138545441E+04 -0.61826308114E+03  0.12946578640E+03  0.16403560043E+04  0.12699999809E+01 0. -1.
</event>
<event>
 5   0  0.1421875E-07  0.3403399E+04  0.7818609E-02  0.8137073E-01
       -1   -1    0    0    0  501  0.00000000000E+00  0.00000000000E+00  0.28450268478E+04  0.28450268478E+04  0.50400001928E-02 0.  1.
        1   -1    0    0  501    0  0.00000000000E+00  0.00000000000E+00 -0.10178393821E+04  0.10178393821E+04  0.50400001928E-02 0. -1.
    10030    2    1    2    0    0  0.00000000000E+00  0.00000000000E+00  0.18271874657E+04  0.38628662299E+04  0.34033985185E+04 0.  0.
        5    1    3    3  502    0  0.12576185988E+04 -0.10493055926E+04  0.38963109632E+03  0.16835917700E+04  0.46999998093E+01 0.  1.
       -5    1    3    3    0  502 -0.12576185988E+04  0.10493055926E+04  0.14375563694E+04  0.21792744600E+04  0.46999998093E+01 0. -1.
</event>
<event>
 5   0  0.1435806E-07  0.3381257E+04  0.7818609E-02  0.8142522E-01
       -1   -1    0    0    0  501  0.00000000000E+00  0.00000000000E+00  0.24135220754E+04  0.24135220754E+04  0.50400001928E-02 0. -1.
        1   -1    0    0  501    0  0.00000000000E+00  0.00000000000E+00 -0.11842545703E+04  0.11842545703E+04  0.50400001928E-02 0.  1.
    10030    2    1    2    0    0  0.00000000000E+00  0.00000000000E+00  0.12292675051E+04  0.35977766456E+04  0.33812568954E+04 0.  0.
        3    1    3    3  502    0 -0.85003897065E+03  0.12051422706E+04 -0.26491251073E+03  0.14983700452E+04  0.10100000352E+00 0.  1.
       -3    1    3    3    0  502  0.85003897065E+03 -0.12051422706E+04  0.14941800158E+04  0.20994066004E+04  0.10100000352E+00 0. -1.
</event>
<event>
 5   0  0.4521737E-07  0.3407397E+04  0.7818609E-02  0.8136093E-01
        2   -1    0    0  501    0  0.00000000000E+00  0.00000000000E+00  0.15102825453E+04  0.15102825453E+04  0.25500000920E-02 0.  1.
       -2   -1    0    0    0  501  0.00000000000E+00  0.00000000000E+00 -0.19218845390E+04  0.19218845390E+04  0.25500000920E-02 0. -1.
    10030    2    1    2    0    0  0.00000000000E+00  0.00000000000E+00 -0.41160199368E+03  0.34321670843E+04  0.34073970555E+04 0.  0.
        4    1    3    3  502    0  0.49060726171E+03 -0.91484392047E+03 -0.15665293126E+04  0.18792686302E+04  0.12699999809E+01 0. -1.
       -4    1    3    3    0  502 -0.49060726171E+03  0.91484392047E+03  0.11549273189E+04  0.15528984542E+04  0.12699999809E+01 0.  1.
</event>
<event>
 5   0  0.4486226E-07  0.3404229E+04  0.7818609E-02  0.8136869E-01
        2   -1    0    0  501    0  0.00000000000E+00  0.00000000000E+00  0.21011632341E+04  0.21011632341E+04  0.25500000920E-02 0. -1.
       -2   -1    0    0    0  501  0.00000000000E+00  0.00000000000E+00 -0.13788522885E+04  0.13788522885E+04  0.25500000920E-02 0.  1.
    10030    2    1    2    0    0  0.00000000000E+00  0.00000000000E+00  0.72231094559E+03  0.34800155225E+04  0.34042289780E+04 0.  0.
        1    1    3    3  502    0  0.15486385475E+04 -0.64246881339E+03  0.61114547631E+02  0.16777313596E+04  0.50400001928E-02 0.  1.
       -1    1    3    3    0  502 -0.15486385475E+04  0.64246881339E+03  0.66119639796E+03  0.18022841629E+04  0.50400001928E-02 0. -1.
</event>
<event>
 5   0  0.4396257E-07  0.3386929E+04  0.7818609E-02  0.8141122E-01
        2   -1    0    0  501    0  0.00000000000E+00  0.00000000000E+00  0.16399967600E+04  0.16399967600E+04  0.25500000920E-02 0.  1.
       -2   -1    0    0    0  501  0.00000000000E+00  0.00000000000E+00 -0.17486758995E+04  0.17486758995E+04  0.25500000920E-02 0. -1.
    10030    2    1    2    0    0  0.00000000000E+00  0.00000000000E+00 -0.10867913952E+03  0.33886726596E+04  0.33869294705E+04 0.  0.
        2    1    3    3  502    0  0.24299785791E+03 -0.10436713638E+04  0.12576419106E+04  0.16522593773E+04  0.25500000920E-02 0.  1.
       -2    1    3    3    0  502 -0.24299785791E+03  0.10436713638E+04 -0.13663210501E+04  0.17364132822E+04  0.25500000920E-02 0. -1.
</event>
<event>
 5   0  0.1435806E-07  0.3400408E+04  0.7818609E-02  0.8137806E-01
       -1   -1    0    0    0  501  0.00000000000E+00  0.00000000000E+00  0.98835146712E+03  0.98835146713E+03  0.50400001928E-02 0.  1.
        1   -1    0    0  501    0  0.00000000000E+00  0.00000000000E+00 -0.29247635035E+04  0.29247635035E+04  0.50400001928E-02 0. -1.
    10030    2    1    2    0    0  0.00000000000E+00  0.00000000000E+00 -0.19364120364E+04  0.39131149706E+04  0.34004083871E+04 0.  0.
        3    1    3    3  502    0  0.67797529329E+03 -0.99637831399E+03  0.41189968705E+03  0.12736096754E+04  0.10100000352E+00 0.  1.
       -3    1    3    3    0  502 -0.67797529329E+03  0.99637831399E+03 -0.23483117234E+04  0.26395052952E+04  0.10100000352E+00 0. -1.
</event>
<event>
 5   0  0.4381939E-07  0.3396616E+04  0.7818609E-02  0.8138737E-01
       -2   -1    0    0    0  501  0.00000000000E+00  0.00000000000E+00  0.15154014014E+04  0.15154014014E+04  0.25500000920E-02 0.  1.
        2   -1    0    0  501    0  0.00000000000E+00  0.00000000000E+00 -0.19032909394E+04  0.19032909394E+04  0.25500000920E-02 0. -1.
    10030    2    1    2    0    0  0.00000000000E+00  0.00000000000E+00 -0.38788953802E+03  0.34186923407E+04  0.33966158197E+04 0.  0.
        3    1    3    3  502    0  0.13100387910E+04  0.38174263934E+03 -0.12116152137E+04  0.18248124596E+04  0.10100000352E+00 0. -1.
       -3    1    3    3    0  502 -0.13100387910E+04 -0.38174263934E+03  0.82372567565E+03  0.15938798811E+04  0.10100000352E+00 0.  1.
</event>
<event>
 5   0  0.4447909E-07  0.3400233E+04  0.7818609E-02  0.8137849E-01
       -2   -1    0    0    0  501  0.00000000000E+00  0.00000000000E+00  0.31721593992E+04  0.31721593992E+04  0.25500000920E-02 0.  1.
        2   -1    0    0  501    0  0.00000000000E+00  0.00000000000E+00 -0.91117641050E+03  0.91117641050E+03  0.25500000920E-02 0. -1.
    10030    2    1    2    0    0  0.00000000000E+00  0.00000000000E+00  0.22609829887E+04  0.40833358097E+04  0.34002334125E+04 0.  0.
        5    1    3    3  502    0 -0.19062486332E+03 -0.13784382432E+04 -0.42427477723E+02  0.13922111943E+04  0.46999998093E+01 0. -1.
       -5    1    3    3    0  502  0.19062486332E+03  0.13784382432E+04  0.23034104664E+04  0.26911246154E+04  0.46999998093E+01 0.  1.
</event>
<event>
 5   0  0.4486226E-07  0.3401373E+04  0.7818609E-02  0.8137569E-01
       -2   -1    0    0    0  501  0.00000000000E+00  0.00000000000E+00  0.15324349282E+04  0.15324349282E+04  0.25500000920E-02 0. -1.
        2   -1    0    0  501    0  0.00000000000E+00  0.00000000000E+00 -0.18874109210E+04  0.18874109210E+04  0.25500000920E-02 0.  1.
    10030    2    1    2    0    0  0.00000000000E+00  0.00000000000E+00 -0.35497599284E+03  0.34198458492E+04  0.34013729106E+04 0.  0.
        1    1    3    3  502    0 -0.38763928983E+03 -0.13120974152E+04  0.83818176977E+03  0.16044975927E+04  0.50400001928E-02 0. -1.
       -1    1    3    3    0  502  0.38763928983E+03  0.13120974152E+04 -0.11931577626E+04  0.18153482565E+04  0.50400001928E-02 0.  1.
</event>
<event>
 5   0  0.1435806E-07  0.3396045E+04  0.7818609E-02  0.8138878E-01
       -1   -1    0    0    0  501  0.00000000000E+00  0.00000000000E+00  0.19411608094E+04  0.19411608094E+04  0.50400001928E-02 0. -1.
        1   -1    0    0  501    0  0.00000000000E+00  0.00000000000E+00 -0.14853385597E+04  0.14853385597E+04  0.50400001928E-02 0.  1.
    10030    2    1    2    0    0  0.00000000000E+00  0.00000000000E+00  0.45582224977E+03  0.34264993691E+04  0.33960453476E+04 0.  0.
        3    1    3    3  502    0 -0.11335568953E+04 -0.20479314165E+03  0.14866519702E+04  0.18806981566E+04  0.10100000352E+00 0. -1.
       -3    1    3    3    0  502  0.11335568953E+04  0.20479314165E+03 -0.10308297204E+04  0.15458012125E+04  0.10100000352E+00 0.  1.
</event>
<event>
 5   0  0.1523259E-07  0.3283676E+04  0.7818609E-02  0.8167061E-01
        1   -1    0    0  501    0  0.00000000000E+00  0.00000000000E+00  0.26476319276E+04  0.26476319276E+04  0.50400001928E-02 0. -1.
       -1   -1    0    0    0  501  0.00000000000E+00  0.00000000000E+00 -0.10181295243E+04  0.10181295244E+04  0.50400001928E-02 0.  1.
    10030    2    1    2    0    0  0.00000000000E+00  0.00000000000E+00  0.16295024032E+04  0.36657614519E+04  0.32836761321E+04 0.  0.
        4    1    3    3  502    0 -0.51790600984E+03 -0.15360357515E+03  0.25455793365E+04  0.26022675620E+04  0.12699999809E+01 0. -1.
       -4    1    3    3    0  502  0.51790600984E+03  0.15360357515E+03 -0.91607693324E+03  0.10634938899E+04  0.12699999809E+01 0.  1.
</event>
<event>
 5   0  0.1435806E-07  0.3412129E+04  0.7818609E-02  0.8134936E-01
       -1   -1    0    0    0  501  0.00000000000E+00  0.00000000000E+00  0.14230683777E+04  0.14230683777E+04  0.50400001928E-02 0. -1.
        1   -1    0    0  501    0  0.00000000000E+00  0.00000000000E+00 -0.20453385854E+04  0.20453385854E+04  0.50400001928E-02 0.  1.
    10030    2    1    2    0    0  0.00000000000E+00  0.00000000000E+00 -0.62227020775E+03  0.34684069631E+04  0.34121293425E+04 0.  0.
        3    1    3    3  502    0  0.11120121359E+04  0.12726351584E+04 -0.73864083743E+02  0.16916344611E+04  0.10100000352E+00 0.  1.
       -3    1    3    3    0  502 -0.11120121359E+04 -0.12726351584E+04 -0.54840612401E+03  0.17767725020E+04  0.10100000352E+00 0. -1.
</event>
<event>
 5   0  0.4521737E-07  0.3220580E+04  0.7818609E-02  0.8183403E-01
       -2   -1    0    0    0  501  0.00000000000E+00  0.00000000000E+00  0.14299132520E+04  0.14299132520E+04  0.25500000920E-02 0. -1.
        2   -1    0    0  501    0  0.00000000000E+00  0.00000000000E+00 -0.18134201335E+04  0.18134201335E+04  0.25500000920E-02 0.  1.
    10030    2    1    2    0    0  0.00000000000E+00  0.00000000000E+00 -0.38350688148E+03  0.32433333855E+04  0.32205797492E+04 0.  0.
        4    1    3    3  502    0  0.47416452532E+03 -0.81609013278E+03 -0.15056537511E+04  0.17770283996E+04  0.12699999809E+01 0.  1.
       -4    1    3    3    0  502 -0.47416452532E+03  0.81609013278E+03  0.11221468696E+04  0.14663049859E+04  0.12699999809E+01 0. -1.
</event>
<event>
 5   0  0.4447909E-07  0.3395863E+04  0.7818609E-02  0.8138923E-01
       -2   -1    0    0    0  501  0.00000000000E+00  0.00000000000E+00  0.14483534922E+04  0.14483534922E+04  0.25500000920E-02 0. -1.
        2   -1    0    0  501    0  0.00000000000E+00  0.00000000000E+00 -0.19905159460E+04  0.19905159460E+04  0.25500000920E-02 0.  1.
    10030    2    1    2    0    0  0.00000000000E+00  0.00000000000E+00 -0.54216245379E+03  0.34388694381E+04  0.33958626130E+04 0.  0.
        5    1    3    3  502    0 -0.92943075321E+03  0.14209360762E+04 -0.26408182961E+03  0.17183312138E+04  0.46999998093E+01 0. -1.
       -5    1    3    3    0  502  0.92943075321E+03 -0.14209360762E+04 -0.27808062417E+03  0.17205382243E+04  0.46999998093E+01 0.  1.
</event>
<event>
 5   0  0.4396257E-07  0.3424369E+04  0.7818609E-02  0.8131951E-01
       -2   -1    0    0    0  501  0.00000000000E+00  0.00000000000E+00  0.15935345339E+04  0.15935345339E+04  0.25500000920E-02 0.  1.
        2   -1    0    0  501    0  0.00000000000E+00  0.00000000000E+00 -0.18396689151E+04  0.18396689151E+04  0.25500000920E-02 0. -1.
    10030    2    1    2    0    0  0.00000000000E+00  0.00000000000E+00 -0.24613438118E+03  0.34332034490E+04  0.34243691082E+04 0.  0.
        2    1    3    3  502    0  0.21264169601E+03 -0.40612065087E+03 -0.17769974481E+04  0.18351758511E+04  0.25500000920E-02 0. -1.
       -2    1    3    3    0  502 -0.21264169601E+03  0.40612065087E+03  0.15308630669E+04  0.15980275979E+04  0.25500000920E-02 0.  1.
</event>
<event>
 5   0  0.4381939E-07  0.3430799E+04  0.7818609E-02  0.8130388E-01
       -2   -1    0    0    0  501  0.00000000000E+00  0.00000000000E+00  0.13515453590E+04  0.13515453590E+04  0.25500000920E-02 0. -1.
        2   -1    0    0  501    0  0.00000000000E+00  0.00000000000E+00 -0.21772083845E+04  0.21772083845E+04  0.25500000920E-02 0.  1.
    10030    2    1    2    0    0  0.00000000000E+00  0.00000000000E+00 -0.82566302545E+03  0.35287537435E+04  0.34307992583E+04 0.  0.
        3    1    3    3  502    0 -0.44712026523E+03 -0.46342830036E+02  0.12898893543E+04  0.13659717223E+04  0.10100000352E+00 0. -1.
       -3    1    3    3    0  502  0.44712026523E+03  0.46342830036E+02 -0.21155523798E+04  0.21627820212E+04  0.10100000352E+00 0.  1.
</event>
<event>
 5   0  0.4396257E-07  0.3615266E+04  0.7818609E-02  0.8087004E-01
       -2   -1    0    0    0  501  0.00000000000E+00  0.00000000000E+00  0.14651787593E+04  0.14651787593E+04  0.25500000920E-02 0. -1.
        2   -1    0    0  501    0  0.00000000000E+00  0.00000000000E+00 -0.22301286942E+04  0.22301286942E+04  0.25500000920E-02 0.  1.
    10030    2    1    2    0    0  0.00000000000E+00  0.00000000000E+00 -0.76494993495E+03  0.36953074535E+04  0.36152660722E+04 0.  0.
        2    1    3    3  502    0 -0.22959213011E+02 -0.15353048845E+04  0.59250337487E+03  0.16458275921E+04  0.25500000920E-02 0. -1.
       -2    1    3    3    0  502  0.22959213011E+02  0.15353048845E+04 -0.13574533098E+04  0.20494798614E+04  0.25500000920E-02 0.  1.
</event>
<event>
 5   0  0.4381939E-07  0.3399638E+04  0.7818609E-02  0.8137995E-01
        2   -1    0    0  501    0  0.00000000000E+00  0.00000000000E+00  0.28437959866E+04  0.28437959866E+04  0.25500000920E-02 0. -1.
       -2   -1    0    0    0  501  0.00000000000E+00  0.00000000000E+00 -0.10160310327E+04  0.10160310327E+04  0.25500000920E-02 0.  1.
    10030    2    1    2    0    0  0.00000000000E+00  0.00000000000E+00  0.18277649539E+04  0.38598270193E+04  0.33996382002E+04 0.  0.
        3    1    3    3  502    0 -0.12432051237E+04 -0.22995677351E+03  0.22038808330E+04  0.25407734715E+04  0.10100000352E+00 0. -1.
       -3    1    3    3    0  502  0.12432051237E+04  0.22995677351E+03 -0.37611587915E+03  0.13190535478E+04  0.10100000352E+00 0.  1.
</event>
<event>
 5   0  0.4381939E-07  0.3393004E+04  0.7818609E-02  0.8139626E-01
       -2   -1    0    0    0  501  0.00000000000E+00  0.00000000000E+00  0.16690148065E+04  0.16690148065E+04  0.25500000920E-02 0.  1.
        2   -1    0    0  501    0  0.00000000000E+00  0.00000000000E+00 -0.17244418028E+04  0.17244418028E+04  0.25500000920E-02 0. -1.
    10030    2    1    2    0    0  0.00000000000E+00  0.00000000000E+00 -0.55426996308E+02  0.33934566094E+04  0.33930039210E+04 0.  0.
        3    1    3    3  502    0 -0.23529516860E+03  0.14731869596E+04  0.78015367738E+03  0.16835330127E+04  0.10100000352E+00 0.  1.
       -3    1    3    3    0  502  0.23529516860E+03 -0.14731869596E+04 -0.83558067369E+03  0.17099235967E+04  0.10100000352E+00 0. -1.
</event>
<event>
 5   0  0.4521737E-07  0.3402498E+04  0.7818609E-02  0.8137293E-01
        2   -1    0    0  501    0  0.00000000000E+00  0.00000000000E+00  0.20086383726E+04  0.20086383726E+04  0.25500000920E-02 0. -1.
       -2   -1    0    0    0  501  0.00000000000E+00  0.00000000000E+00 -0.14409007597E+04  0.14409007597E+04  0.25500000920E-02 0.  1.
    10030    2    1    2    0    0  0.00000000000E+00  0.00000000000E+00  0.56773761287E+03  0.34495391323E+04  0.34024982334E+04 0.  0.
        4    1    3    3  502    0  0.67703830171E+03 -0.14333187312E+04 -0.34229745052E+03  0.16217128614E+04  0.12699999809E+01 0.  1.
       -4    1    3    3    0  502 -0.67703830171E+03  0.14333187312E+04  0.91003506339E+03  0.18278262709E+04  0.12699999809E+01 0. -1.
</event>
<event>
 5   0  0.1421875E-07  0.3396213E+04  0.7818609E-02  0.8138836E-01
        1   -1    0    0  501    0  0.00000000000E+00  0.00000000000E+00  0.21569439213E+04  0.21569439213E+04  0.50400001928E-02 0. -1.
       -1   -1    0    0    0  501  0.00000000000E+00  0.00000000000E+00 -0.13368756108E+04  0.13368756108E+04  0.50400001928E-02 0.  1.
    10030    2    1    2    0    0  0.00000000000E+00  0.00000000000E+00  0.82006831047E+03  0.34938195321E+04  0.33962130217E+04 0.  0.
        5    1    3    3  502    0  0.86667027178E+03  0.70596096438E+03 -0.90500172787E+03  0.14382449237E+04  0.46999998093E+01 0.  1.
       -5    1    3    3    0  502 -0.86667027178E+03 -0.70596096438E+03  0.17250700383E+04  0.20555746083E+04  0.46999998093E+01 0. -1.
</event>
<event>
 5   0  0.1520084E-07  0.3402722E+04  0.7818609E-02  0.8137239E-01
       -1   -1    0    0    0  501  0.00000000000E+00  0.00000000000E+00  0.90323367091E+03  0.90323367092E+03  0.50400001928E-02 0.  1.
        1   -1    0    0  501    0  0.00000000000E+00  0.00000000000E+00 -0.32047403006E+04  0.32047403006E+04  0.50400001928E-02 0. -1.
    10030    2    1    2    0    0  0.00000000000E+00  0.00000000000E+00 -0.23015066297E+04  0.41079739715E+04  0.34027220551E+04 0.  0.
        2    1    3    3  502    0 -0.35816257273E+03 -0.24467994578E+03 -0.31368650145E+04  0.31667129367E+04  0.25500000920E-02 0. -1.
       -2    1    3    3    0  502  0.35816257273E+03  0.24467994578E+03  0.83535838487E+03  0.94126103475E+03  0.25500000920E-02 0.  1.
</event>
<event>
 5   0  0.1520084E-07  0.3411927E+04  0.7818609E-02  0.8134985E-01
       -1   -1    0    0    0  501  0.00000000000E+00  0.00000000000E+00  0.14186951282E+04  0.14186951282E+04  0.50400001928E-02 0.  1.
        1   -1    0    0  501    0  0.00000000000E+00  0.00000000000E+00 -0.20514004010E+04  0.20514004010E+04  0.50400001928E-02 0. -1.
    10030    2    1    2    0    0  0.00000000000E+00  0.00000000000E+00 -0.63270527288E+03  0.34700955292E+04  0.34119271709E+04 0.  0.
        2    1    3    3  502    0  0.10384424229E+04 -0.15514792561E+03 -0.16838492628E+04  0.19843845102E+04  0.25500000920E-02 0. -1.
       -2    1    3    3    0  502 -0.10384424229E+04  0.15514792561E+03  0.10511439899E+04  0.14857110190E+04  0.25500000920E-02 0.  1.
</event>
<event>
 5   0  0.1435806E-07  0.3408230E+04  0.7818609E-02  0.8135889E-01
       -1   -1    0    0    0  501  0.00000000000E+00  0.00000000000E+00  0.13927951387E+04  0.13927951388E+04  0.50400001928E-02 0.  1.
        1   -1    0    0  501    0  0.00000000000E+00  0.00000000000E+00 -0.20850214725E+04  0.20850214725E+04  0.50400001928E-02 0. -1.
    10030    2    1    2    0    0  0.00000000000E+00  0.00000000000E+00 -0.69222633371E+03  0.34778166112E+04  0.34082299048E+04 0.  0.
        3    1    3    3  502    0  0.11785270047E+04  0.28925148255E+03  0.87473215517E+03  0.14959106505E+04  0.10100000352E+00 0.  1.
       -3    1    3    3    0  502 -0.11785270047E+04 -0.28925148255E+03 -0.15669584889E+04  0.19819059607E+04  0.10100000352E+00 0. -1.
</event>
<event>
 5   0  0.4486226E-07  0.3405884E+04  0.7818609E-02  0.8136464E-01
       -2   -1    0    0    0  501  0.00000000000E+00  0.00000000000E+00  0.11269977325E+04  0.11269977325E+04  0.25500000920E-02 0. -1.
        2   -1    0    0  501    0  0.00000000000E+00  0.00000000000E+00 -0.25732187520E+04  0.25732187520E+04  0.25500000920E-02 0.  1.
    10030    2    1    2    0    0  0.00000000000E+00  0.00000000000E+00 -0.14462210196E+04  0.37002164845E+04  0.34058841429E+04 0.  0.
        1    1    3    3  502    0  0.11278221806E+04 -0.26402079423E+03 -0.20793170762E+04  0.23801784291E+04  0.50400001928E-02 0.  1.
       -1    1    3    3    0  502 -0.11278221806E+04  0.26402079423E+03  0.63309605664E+03  0.13200380554E+04  0.50400001928E-02 0. -1.
</event>
<event>
 5   0  0.1435806E-07  0.3432417E+04  0.7818609E-02  0.8129996E-01
        1   -1    0    0  501    0  0.00000000000E+00  0.00000000000E+00  0.17963833555E+04  0.17963833555E+04  0.50400001928E-02 0.  1.
       -1   -1    0    0    0  501  0.00000000000E+00  0.00000000000E+00 -0.16396122273E+04  0.16396122273E+04  0.50400001928E-02 0. -1.
    10030    2    1    2    0    0  0.00000000000E+00  0.00000000000E+00  0.15677112824E+03  0.34359955828E+04  0.34324172908E+04 0.  0.
        3    1    3    3  502    0  0.55982635455E+03  0.12827761221E+04  0.10726238657E+04  0.17633610221E+04  0.10100000352E+00 0.  1.
       -3    1    3    3    0  502 -0.55982635455E+03 -0.12827761221E+04 -0.91585273746E+03  0.16726345607E+04  0.10100000352E+00 0. -1.
</event>
<event>
 5   0  0.4381939E-07  0.3396812E+04  0.7818609E-02  0.8138689E-01
       -2   -1    0    0    0  501  0.00000000000E+00  0.00000000000E+00  0.15302644654E+04  0.15302644654E+04  0.25500000920E-02 0. -1.
        2   -1    0    0  501    0  0.00000000000E+00  0.00000000000E+00 -0.18850219946E+04  0.18850219946E+04  0.25500000920E-02 0.  1.
    10030    2    1    2    0    0  0.00000000000E+00  0.00000000000E+00 -0.35475752918E+03  0.34152864601E+04  0.33968115491E+04 0.  0.
        3    1    3    3  502    0  0.16046439419E+04 -0.46605965692E+03 -0.48315186092E+03  0.17394049313E+04  0.10100000352E+00 0.  1.
       -3    1    3    3    0  502 -0.16046439419E+04  0.46605965692E+03  0.12839433174E+03  0.16758815288E+04  0.10100000352E+00 0. -1.
</event>
<event>
 5   0  0.1473755E-07  0.3405840E+04  0.7818609E-02  0.8136474E-01
       -1   -1    0    0    0  501  0.00000000000E+00  0.00000000000E+00  0.14538249926E+04  0.14538249926E+04  0.50400001928E-02 0. -1.
        1   -1    0    0  501    0  0.00000000000E+00  0.00000000000E+00 -0.19946945711E+04  0.19946945711E+04  0.50400001928E-02 0.  1.
    10030    2    1    2    0    0  0.00000000000E+00  0.00000000000E+00 -0.54086957855E+03  0.34485195637E+04  0.34058401724E+04 0.  0.
        1    1    3    3  502    0  0.98630650142E+03 -0.26152984871E+03 -0.16508749037E+04  0.19407695186E+04  0.50400001928E-02 0.  1.
       -1    1    3    3    0  502 -0.98630650142E+03  0.26152984871E+03  0.11100053252E+04  0.15077500451E+04  0.50400001928E-02 0. -1.
</event>
<event>
 5   0  0.4521737E-07  0.3404127E+04  0.7818609E-02  0.8136894E-01
       -2   -1    0    0    0  501  0.00000000000E+00  0.00000000000E+00  0.10170992731E+04  0.10170992731E+04  0.25500000920E-02 0. -1.
        2   -1    0    0  501    0  0.00000000000E+00  0.00000000000E+00 -0.28483164217E+04  0.28483164217E+04  0.25500000920E-02 0.  1.
    10030    2    1    2    0    0  0.00000000000E+00  0.00000000000E+00 -0.18312171486E+04  0.38654156949E+04  0.34041272375E+04 0.  0.
        4    1    3    3  502    0  0.58137262589E+03 -0.72877890984E+03  0.70140752593E+03  0.11666563161E+04  0.12699999809E+01 0. -1.
       -4    1    3    3    0  502 -0.58137262589E+03  0.72877890984E+03 -0.25326246745E+04  0.26987593788E+04  0.12699999809E+01 0.  1.
</event>
<event>
 5   0  0.4521737E-07  0.3392636E+04  0.7818609E-02  0.8139716E-01
       -2   -1    0    0    0  501  0.00000000000E+00  0.00000000000E+00  0.11279128782E+04  0.11279128782E+04  0.25500000920E-02 0.  1.
        2   -1    0    0  501    0  0.00000000000E+00  0.00000000000E+00 -0.25511679510E+04  0.25511679510E+04  0.25500000920E-02 0. -1.
    10030    2    1    2    0    0  0.00000000000E+00  0.00000000000E+00 -0.14232550729E+04  0.36790808292E+04  0.33926362530E+04 0.  0.
        4    1    3    3  502    0 -0.14686537669E+04  0.51416668399E+03 -0.14440661800E+04  0.21228848322E+04  0.12699999809E+01 0. -1.
       -4    1    3    3    0  502  0.14686537669E+04 -0.51416668399E+03  0.20811107083E+02  0.15561959970E+04  0.12699999809E+01 0.  1.
</event>
<event>
 5   0  0.1421875E-07  0.3400713E+04  0.7818609E-02  0.8137731E-01
        1   -1    0    0  501    0  0.00000000000E+00  0.00000000000E+00  0.14790472029E+04  0.14790472029E+04  0.50400001928E-02 0.  1.
       -1   -1    0    0    0  501  0.00000000000E+00  0.00000000000E+00 -0.19547805114E+04  0.19547805114E+04  0.50400001928E-02 0. -1.
    10030    2    1    2    0    0  0.00000000000E+00  0.00000000000E+00 -0.47573330857E+03  0.34338277143E+04  0.34007132473E+04 0.  0.
        5    1    3    3  502    0 -0.27872443141E+02  0.16983300364E+04 -0.15907624640E+03  0.17059979858E+04  0.46999998093E+01 0.  1.
       -5    1    3    3    0  502  0.27872443141E+02 -0.16983300364E+04 -0.31665706217E+03  0.17278297285E+04  0.46999998093E+01 0. -1.
</event>
<event>
 5   0  0.1435806E-07  0.3383676E+04  0.7818609E-02  0.8141924E-01
       -1   -1    0    0    0  501  0.00000000000E+00  0.00000000000E+00  0.15110557820E+04  0.15110557820E+04  0.50400001928E-02 0. -1.
        1   -1    0    0  501    0  0.00000000000E+00  0.00000000000E+00 -0.18942493334E+04  0.18942493334E+04  0.50400001928E-02 0.  1.
    10030    2    1    2    0    0  0.00000000000E+00  0.00000000000E+00 -0.38319355140E+03  0.34053051154E+04  0.33836763485E+04 0.  0.
        3    1    3    3  502    0  0.19857393470E+03  0.15479277282E+04 -0.84907553892E+03  0.17766375939E+04  0.10100000352E+00 0. -1.
       -3    1    3    3    0  502 -0.19857393470E+03 -0.15479277282E+04  0.46588198752E+03  0.16286675215E+04  0.10100000352E+00 0.  1.
</event>
<event>
 5   0  0.1520084E-07  0.3428459E+04  0.7818609E-02  0.8130957E-01
        1   -1    0    0  501    0  0.00000000000E+00  0.00000000000E+00  0.10467590094E+04  0.10467590095E+04  0.50400001928E-02 0.  1.
       -1   -1    0    0    0  501  0.00000000000E+00  0.00000000000E+00 -0.28073153599E+04  0.28073153599E+04  0.50400001928E-02 0. -1.
    10030    2    1    2    0    0  0.00000000000E+00  0.00000000000E+00 -0.17605563504E+04  0.38540743693E+04  0.34284589222E+04 0.  0.
        2    1    3    3  502    0 -0.33290345002E+03  0.49388795871E+03 -0.26872581051E+04  0.27524727331E+04  0.25500000920E-02 0. -1.
       -2    1    3    3    0  502  0.33290345002E+03 -0.49388795871E+03  0.92670175471E+03  0.11016016362E+04  0.25500000920E-02 0.  1.
</event>
<event>
 5   0  0.4521737E-07  0.3403934E+04  0.7818609E-02  0.8136941E-01
        2   -1    0    0  501    0  0.00000000000E+00  0.00000000000E+00  0.12656878238E+04  0.12656878238E+04  0.25500000920E-02 0.  1.
       -2   -1    0    0    0  501  0.00000000000E+00  0.00000000000E+00 -0.22886309219E+04  0.22886309219E+04  0.25500000920E-02 0. -1.
    10030    2    1    2    0    0  0.00000000000E+00  0.00000000000E+00 -0.10229430981E+04  0.35543187456E+04  0.34039343653E+04 0.  0.
        4    1    3    3  502    0  0.74329068830E+03 -0.12777823979E+04  0.36928744008E+03  0.15236744173E+04  0.12699999809E+01 0.  1.
       -4    1    3    3    0  502 -0.74329068830E+03  0.12777823979E+04 -0.13922305382E+04  0.20306443283E+04  0.12699999809E+01 0. -1.
</event>
<event>
 5   0  0.1435806E-07  0.3395512E+04  0.7818609E-02  0.8139009E-01
        1   -1    0    0  501    0  0.00000000000E+00  0.00000000000E+00  0.25289256024E+04  0.25289256024E+04  0.50400001928E-02 0. -1.
       -1   -1    0    0    0  501  0.00000000000E+00  0.00000000000E+00 -0.11397625870E+04  0.11397625870E+04  0.50400001928E-02 0.  1.
    10030    2    1    2    0    0  0.00000000000E+00  0.00000000000E+00  0.13891630154E+04  0.36686881894E+04  0.33955116180E+04 0.  0.
        3    1    3    3  502    0 -0.15318707200E+04 -0.67574637675E+03  0.39068098186E+03  0.17192709816E+04  0.10100000352E+00 0. -1.
       -3    1    3    3    0  502  0.15318707200E+04  0.67574637675E+03  0.99848203349E+03  0.19494172078E+04  0.10100000352E+00 0.  1.
</event>
<event>
 5   0  0.4396257E-07  0.3404000E+04  0.7818609E-02  0.8136925E-01
       -2   -1    0    0    0  501  0.00000000000E+00  0.00000000000E+00  0.13605208436E+04  0.13605208436E+04  0.25500000920E-02 0. -1.
        2   -1    0    0  501    0  0.00000000000E+00  0.00000000000E+00 -0.21291868978E+04  0.21291868978E+04  0.25500000920E-02 0.  1.
    10030    2    1    2    0    0  0.00000000000E+00  0.00000000000E+00 -0.76866605425E+03  0.34897077414E+04  0.34039995032E+04 0.  0.
        2    1    3    3  502    0 -0.54809899508E+03  0.13610160922E+04 -0.12686207167E+04  0.19396329123E+04  0.25500000920E-02 0.  1.
       -2    1    3    3    0  502  0.54809899508E+03 -0.13610160922E+04  0.49995466241E+03  0.15500748292E+04  0.25500000920E-02 0. -1.
</event>
<event>
 5   0  0.4521737E-07  0.3406967E+04  0.7818609E-02  0.8136198E-01
        2   -1    0    0  501    0  0.00000000000E+00  0.00000000000E+00  0.26239288857E+04  0.26239288857E+04  0.25500000920E-02 0.  1.
       -2   -1    0    0    0  501  0.00000000000E+00  0.00000000000E+00 -0.11059204624E+04  0.11059204624E+04  0.25500000920E-02 0. -1.
    10030    2    1    2    0    0  0.00000000000E+00  0.00000000000E+00  0.15180084233E+04  0.37298493481E+04  0.34069673592E+04 0.  0.
        4    1    3    3  502    0  0.15014912240E+04 -0.53420569610E+03  0.14176920576E+04  0.21330035173E+04  0.12699999809E+01 0.  1.
       -4    1    3    3    0  502 -0.15014912240E+04  0.53420569610E+03  0.10031636565E+03  0.15968458309E+04  0.12699999809E+01 0. -1.
</event>
<event>
 5   0  0.1421875E-07  0.3409036E+04  0.7818609E-02  0.8135692E-01
       -1   -1    0    0    0  501  0.00000000000E+00  0.00000000000E+00  0.33054838986E+04  0.33054838986E+04  0.50400001928E-02 0.  1.
        1   -1    0    0  501    0  0.00000000000E+00  0.00000000000E+00 -0.87895816783E+03  0.87895816785E+03  0.50400001928E-02 0. -1.
    10030    2    1    2    0    0  0.00000000000E+00  0.00000000000E+00  0.24265257308E+04  0.41844420665E+04  0.34090362693E+04 0.  0.
        5    1    3    3  502    0  0.89094410606E+03 -0.57784226383E+03  0.28498244478E+04  0.30412504921E+04  0.46999998093E+01 0.  1.
       -5    1    3    3    0  502 -0.89094410606E+03  0.57784226383E+03 -0.42329871703E+03  0.11431915744E+04  0.46999998093E+01 0. -1.
</event>
<event>
 5   0  0.1520084E-07  0.3393343E+04  0.7818609E-02  0.8139542E-01
        1   -1    0    0  501    0  0.00000000000E+00  0.00000000000E+00  0.19603923769E+04  0.19603923769E+04  0.50400001928E-02 0. -1.
       -1   -1    0    0    0  501  0.00000000000E+00  0.00000000000E+00 -0.14684275594E+04  0.14684275594E+04  0.50400001928E-02 0.  1.
    10030    2    1    2    0    0  0.00000000000E+00  0.00000000000E+00  0.49196481745E+03  0.34288199363E+04  0.33933430086E+04 0.  0.
        2    1    3    3  502    0 -0.12726041247E+04 -0.38017891473E+03  0.13127839411E+04  0.18674739467E+04  0.25500000920E-02 0. -1.
       -2    1    3    3    0  502  0.12726041247E+04  0.38017891473E+03 -0.82081912364E+03  0.15613459896E+04  0.25500000920E-02 0.  1.
</event>
<event>
 5   0  0.4396257E-07  0.3407391E+04  0.7818609E-02  0.8136095E-01
       -2   -1    0    0    0  501  0.00000000000E+00  0.00000000000E+00  0.13526165648E+04  0.13526165648E+04  0.25500000920E-02 0. -1.
        2   -1    0    0  501    0  0.00000000000E+00  0.00000000000E+00 -0.21458984149E+04  0.21458984149E+04  0.25500000920E-02 0.  1.
    10030    2    1    2    0    0  0.00000000000E+00  0.00000000000E+00 -0.79328185019E+03  0.34985149797E+04  0.34073906394E+04 0.  0.
        2    1    3    3  502    0 -0.43845515997E+03  0.16352835713E+04 -0.59194478943E+03  0.17935422826E+04  0.25500000920E-02 0. -1.
       -2    1    3    3    0  502  0.43845515997E+03 -0.16352835713E+04 -0.20133706076E+03  0.17049726971E+04  0.25500000920E-02 0.  1.
</event>
<event>
 5   0  0.4381939E-07  0.3394174E+04  0.7818609E-02  0.8139338E-01
        2   -1    0    0  501    0  0.00000000000E+00  0.00000000000E+00  0.84122666367E+03  0.84122666367E+03  0.25500000920E-02 0. -1.
       -2   -1    0    0    0  501  0.00000000000E+00  0.00000000000E+00 -0.34236949846E+04  0.34236949846E+04  0.25500000920E-02 0.  1.
    10030    2    1    2    0    0  0.00000000000E+00  0.00000000000E+00 -0.25824683209E+04  0.42649216482E+04  0.33941735426E+04 0.  0.
        3    1    3    3  502    0  0.65330904713E+03  0.14937041946E+04 -0.69900607925E+03  0.17738586306E+04  0.10100000352E+00 0. -1.
       -3    1    3    3    0  502 -0.65330904713E+03 -0.14937041946E+04 -0.18834622417E+04  0.24910630177E+04  0.10100000352E+00 0.  1.
</event>
<event>
 5   0  0.4447909E-07  0.3421168E+04  0.7818609E-02  0.8132730E-01
        2   -1    0    0  501    0  0.00000000000E+00  0.00000000000E+00  0.13653729383E+04  0.13653729383E+04  0.25500000920E-02 0. -1.
       -2   -1    0    0    0  501  0.00000000000E+00  0.00000000000E+00 -0.21430756955E+04  0.21430756955E+04  0.25500000920E-02 0.  1.
    10030    2    1    2    0    0  0.00000000000E+00  0.00000000000E+00 -0.77770275728E+03  0.35084486338E+04  0.34211679639E+04 0.  0.
        5    1    3    3  502    0  0.15082232508E+03  0.15566055937E+04 -0.10995741639E+04  0.19117671877E+04  0.46999998093E+01 0.  1.
       -5    1    3    3    0  502 -0.15082232508E+03 -0.15566055937E+04  0.32187140660E+03  0.15966814461E+04  0.46999998093E+01 0. -1.
</event>
<event>
 5   0  0.1520084E-07  0.3378747E+04  0.7818609E-02  0.8143142E-01
       -1   -1    0    0    0  501  0.00000000000E+00  0.00000000000E+00  0.10481671883E+04  0.10481671884E+04  0.50400001928E-02 0.  1.
        1   -1    0    0  501    0  0.00000000000E+00  0.00000000000E+00 -0.27228319518E+04  0.27228319518E+04  0.50400001928E-02 0. -1.
    10030    2    1    2    0    0  0.00000000000E+00  0.00000000000E+00 -0.16746647635E+04  0.37709991402E+04  0.33787471710E+04 0.  0.
        2    1    3    3  502    0 -0.37167607342E+03  0.14945607321E+04 -0.62367509642E+02  0.15413450593E+04  0.25500000920E-02 0.  1.
       -2    1    3    3    0  502  0.37167607342E+03 -0.14945607321E+04 -0.16122972539E+04  0.22296540809E+04  0.25500000920E-02 0. -1.
</event>
<event>
 5   0  0.4396257E-07  0.3185132E+04  0.7818609E-02  0.8192755E-01
       -2   -1    0    0    0  501  0.00000000000E+00  0.00000000000E+00  0.92239860487E+03  0.92239860488E+03  0.25500000920E-02 0. -1.
        2   -1    0    0  501    0  0.00000000000E+00  0.00000000000E+00 -0.27496427690E+04  0.27496427690E+04  0.25500000920E-02 0.  1.
    10030    2    1    2    0    0  0.00000000000E+00  0.00000000000E+00 -0.18272441641E+04  0.36720413739E+04  0.31851321191E+04 0.  0.
        2    1    3    3  502    0  0.44507796231E+03 -0.18889970678E+03 -0.26629809530E+04  0.27065189909E+04  0.25500000920E-02 0.  1.
       -2    1    3    3    0  502 -0.44507796231E+03  0.18889970678E+03  0.83573678890E+03  0.96552238300E+03  0.25500000920E-02 0. -1.
</event>
<event>
 5   0  0.1520084E-07  0.3370379E+04  0.7818609E-02  0.8145215E-01
       -1   -1    0    0    0  501  0.00000000000E+00  0.00000000000E+00  0.14874060237E+04  0.14874060237E+04  0.50400001928E-02 0.  1.
        1   -1    0    0  501    0  0.00000000000E+00  0.00000000000E+00 -0.19092731904E+04  0.19092731904E+04  0.50400001928E-02 0. -1.
    10030    2    1    2    0    0  0.00000000000E+00  0.00000000000E+00 -0.42186716675E+03  0.33966792141E+04  0.33703794708E+04 0.  0.
        2    1    3    3  502    0  0.11891927289E+04 -0.11867376533E+04 -0.78229051164E+02  0.16818577195E+04  0.25500000920E-02 0. -1.
       -2    1    3    3    0  502 -0.11891927289E+04  0.11867376533E+04 -0.34363811559E+03  0.17148214947E+04  0.25500000920E-02 0.  1.
</event>
<event>
 5   0  0.4447909E-07  0.3414803E+04  0.7818609E-02  0.8134283E-01
       -2   -1    0    0    0  501  0.00000000000E+00  0.00000000000E+00  0.11246172006E+04  0.11246172006E+04  0.25500000920E-02 0. -1.
        2   -1    0    0  501    0  0.00000000000E+00  0.00000000000E+00 -0.25921886435E+04  0.25921886435E+04  0.25500000920E-02 0.  1.
    10030    2    1    2    0    0  0.00000000000E+00  0.00000000000E+00 -0.14675714428E+04  0.37168058441E+04  0.34148030313E+04 0.  0.
        5    1    3    3  502    0  0.29674633879E+03 -0.23337101356E+03  0.10786135977E+04  0.11427816076E+04  0.46999998093E+01 0. -1.
       -5    1    3    3    0  502 -0.29674633879E+03  0.23337101356E+03 -0.25461850405E+04  0.25740242365E+04  0.46999998093E+01 0.  1.
</event>
<event>
 5   0  0.1473755E-07  0.3370048E+04  0.7818609E-02  0.8145297E-01
        1   -1    0    0  501    0  0.00000000000E+00  0.00000000000E+00  0.19058386117E+04  0.19058386117E+04  0.50400001928E-02 0. -1.
       -1   -1    0    0    0  501  0.00000000000E+00  0.00000000000E+00 -0.14897938288E+04  0.14897938288E+04  0.50400001928E-02 0.  1.
    10030    2    1    2    0    0  0.00000000000E+00  0.00000000000E+00  0.41604478286E+03  0.33956324406E+04  0.33700484284E+04 0.  0.
        1    1    3    3  502    0 -0.16429429683E+04  0.27479259844E+03  0.46398641956E+03  0.17291778297E+04  0.50400001928E-02 0.  1.
       -1    1    3    3    0  502  0.16429429683E+04 -0.27479259844E+03 -0.47941636703E+02  0.16664546108E+04  0.50400001928E-02 0. -1.
</event>
<event>
 5   0  0.1523259E-07  0.3401665E+04  0.7818609E-02  0.8137498E-01
       -1   -1    0    0    0  501  0.00000000000E+00  0.00000000000E+00  0.12776715490E+04  0.12776715490E+04  0.50400001928E-02 0.  1.
        1   -1    0    0  501    0  0.00000000000E+00  0.00000000000E+00 -0.22641430821E+04  0.22641430821E+04  0.50400001928E-02 0. -1.
    10030    2    1    2    0    0  0.00000000000E+00  0.00000000000E+00 -0.98647153310E+03  0.35418146311E+04  0.34016650034E+04 0.  0.
        4    1    3    3  502    0 -0.13716692746E+04 -0.59703984561E+03  0.34936255659E+03  0.15362255645E+04  0.12699999809E+01 0.  1.
       -4    1    3    3    0  502  0.13716692746E+04  0.59703984561E+03 -0.13358340897E+04  0.20055890666E+04  0.12699999809E+01 0. -1.
</event>
<event>
 5   0  0.1473755E-07  0.3306960E+04  0.7818609E-02  0.8161127E-01
        1   -1    0    0  501    0  0.00000000000E+00  0.00000000000E+00  0.20456673675E+04  0.20456673675E+04  0.50400001928E-02 0. -1.
       -1   -1    0    0    0  501  0.00000000000E+00  0.00000000000E+00 -0.13364814235E+04  0.13364814235E+04  0.50400001928E-02 0.  1.
    10030    2    1    2    0    0  0.00000000000E+00  0.00000000000E+00  0.70918594401E+03  0.33821487911E+04  0.33069601966E+04 0.  0.
        1    1    3    3  502    0 -0.44199191362E+02  0.19321881455E+03 -0.13242872275E+04  0.13390383638E+04  0.50400001928E-02 0.  1.
       -1    1    3    3    0  502  0.44199191362E+02 -0.19321881455E+03  0.20334731715E+04  0.20431104273E+04  0.50400001928E-02 0. -1.
</event>
<event>
 5   0  0.4447909E-07  0.3404601E+04  0.7818609E-02  0.8136778E-01
       -2   -1    0    0    0  501  0.00000000000E+00  0.00000000000E+00  0.11036106930E+04  0.11036106930E+04  0.25500000920E-02 0.  1.
        2   -1    0    0  501    0  0.00000000000E+00  0.00000000000E+00 -0.26257695535E+04  0.26257695535E+04  0.25500000920E-02 0. -1.
    10030    2    1    2    0    0  0.00000000000E+00  0.00000000000E+00 -0.15221588605E+04  0.37293802465E+04  0.34046012140E+04 0.  0.
        5    1    3    3  502    0 -0.10785509802E+04 -0.87098072471E+03 -0.18432077869E+04  0.23063643848E+04  0.46999998093E+01 0. -1.
       -5    1    3    3    0  502  0.10785509802E+04  0.87098072471E+03  0.32104892643E+03  0.14230158618E+04  0.46999998093E+01 0.  1.
</event>
<event>
 5   0  0.1421875E-07  0.3391532E+04  0.7818609E-02  0.8139988E-01
        1   -1    0    0  501    0  0.00000000000E+00  0.00000000000E+00  0.10337968082E+04  0.10337968082E+04  0.50400001928E-02 0.  1.
       -1   -1    0    0    0  501  0.00000000000E+00  0.00000000000E+00 -0.27816121948E+04  0.27816121948E+04  0.50400001928E-02 0. -1.
    10030    2    1    2    0    0  0.00000000000E+00  0.00000000000E+00 -0.17478153866E+04  0.38154090030E+04  0.33915316944E+04 0.  0.
        5    1    3    3  502    0  0.22916457611E+03  0.32438453470E+03  0.98072794357E+03  0.10581073285E+04  0.46999998093E+01 0.  1.
       -5    1    3    3    0  502 -0.22916457611E+03 -0.32438453470E+03 -0.27285433302E+04  0.27573016745E+04  0.46999998093E+01 0. -1.
</event>
<event>
 5   0  0.1435806E-07  0.3406509E+04  0.7818609E-02  0.8136311E-01
        1   -1    0    0  501    0  0.00000000000E+00  0.00000000000E+00  0.18225855262E+04  0.18225855262E+04  0.50400001928E-02 0. -1.
       -1   -1    0    0    0  501  0.00000000000E+00  0.00000000000E+00 -0.15917368094E+04  0.15917368094E+04  0.50400001928E-02 0.  1.
    10030    2    1    2    0    0  0.00000000000E+00  0.00000000000E+00  0.23084871680E+03  0.34143223356E+04  0.34065093397E+04 0.  0.
        3    1    3    3  502    0  0.16817490230E+03 -0.30434836985E+02  0.18139696263E+04  0.18220029891E+04  0.10100000352E+00 0. -1.
       -3    1    3    3    0  502 -0.16817490230E+03  0.30434836985E+02 -0.15831209095E+04  0.15923193465E+04  0.10100000352E+00 0.  1.
</event>
<event>
 5   0  0.4486226E-07  0.3388526E+04  0.7818609E-02  0.8140728E-01
        2   -1    0    0  501    0  0.00000000000E+00  0.00000000000E+00  0.31475612889E+04  0.31475612889E+04  0.25500000920E-02 0.  1.
       -2   -1    0    0    0  501  0.00000000000E+00  0.00000000000E+00 -0.91198469471E+03  0.91198469472E+03  0.25500000920E-02 0. -1.
    10030    2    1    2    0    0  0.00000000000E+00  0.00000000000E+00  0.22355765942E+04  0.40595459836E+04  0.33885263588E+04 0.  0.
        1    1    3    3  502    0 -0.15186539602E+03 -0.14608876347E+04  0.21295871131E+04  0.25869667668E+04  0.50400001928E-02 0.  1.
       -1    1    3    3    0  502  0.15186539602E+03  0.14608876347E+04  0.10598948104E+03  0.14725792169E+04  0.50400001928E-02 0. -1.
</event>
<event>
 5   0  0.1435806E-07  0.3299191E+04  0.7818609E-02  0.8163101E-01
        1   -1    0    0  501    0  0.00000000000E+00  0.00000000000E+00  0.23917010127E+04  0.23917010128E+04  0.50400001928E-02 0. -1.
       -1   -1    0    0    0  501  0.00000000000E+00  0.00000000000E+00 -0.11377531312E+04  0.11377531312E+04  0.50400001928E-02 0.  1.
    10030    2    1    2    0    0  0.00000000000E+00  0.00000000000E+00  0.12539478816E+04  0.35294541440E+04  0.32991910015E+04 0.  0.
        3    1    3    3  502    0  0.11437316541E+03 -0.58729823420E+03  0.22715239918E+04  0.23490044045E+04  0.10100000352E+00 0. -1.
       -3    1    3    3    0  502 -0.11437316541E+03  0.58729823420E+03 -0.10175761103E+04  0.11804497394E+04  0.10100000352E+00 0.  1.
</event>
<event>
 5   0  0.4381939E-07  0.3394496E+04  0.7818609E-02  0.8139259E-01
       -2   -1    0    0    0  501  0.00000000000E+00  0.00000000000E+00  0.28156761356E+04  0.28156761356E+04  0.25500000920E-02 0.  1.
        2   -1    0    0  501    0  0.00000000000E+00  0.00000000000E+00 -0.10230758578E+04  0.10230758578E+04  0.25500000920E-02 0. -1.
    10030    2    1    2    0    0  0.00000000000E+00  0.00000000000E+00  0.17926002778E+04  0.38387519934E+04  0.33944957079E+04 0.  0.
        3    1    3    3  502    0  0.60602479014E+03  0.49855650276E+03  0.25981928454E+04  0.27141169291E+04  0.10100000352E+00 0.  1.
       -3    1    3    3    0  502 -0.60602479014E+03 -0.49855650276E+03 -0.80559256759E+03  0.11246350643E+04  0.10100000352E+00 0. -1.
</event>
<event>
 5   0  0.1435806E-07  0.3336634E+04  0.7818609E-02  0.8153636E-01
        1   -1    0    0  501    0  0.00000000000E+00  0.00000000000E+00  0.18543487858E+04  0.18543487858E+04  0.50400001928E-02 0. -1.
       -1   -1    0    0    0  501  0.00000000000E+00  0.00000000000E+00 -0.15009481252E+04  0.15009481253E+04  0.50400001928E-02 0.  1.
    10030    2    1    2    0    0  0.00000000000E+00  0.00000000000E+00  0.35340066052E+03  0.33552969110E+04  0.33366338328E+04 0.  0.
        3    1    3    3  502    0  0.14773412924E+04  0.49118385912E+03  0.77962249774E+03  0.17411519540E+04  0.10100000352E+00 0.  1.
       -3    1    3    3    0  502 -0.14773412924E+04 -0.49118385912E+03 -0.42622183721E+03  0.16141449571E+04  0.10100000352E+00 0. -1.
</event>
<event>
 5   0  0.1473755E-07  0.3397719E+04  0.7818609E-02  0.8138466E-01
       -1   -1    0    0    0  501  0.00000000000E+00  0.00000000000E+00  0.16788360399E+04  0.16788360399E+04  0.50400001928E-02 0. -1.
        1   -1    0    0  501    0  0.00000000000E+00  0.00000000000E+00 -0.17191222850E+04  0.17191222850E+04  0.50400001928E-02 0.  1.
    10030    2    1    2    0    0  0.00000000000E+00  0.00000000000E+00 -0.40286245128E+02  0.33979583249E+04  0.33977194993E+04 0.  0.
        1    1    3    3  502    0 -0.92317600906E+03  0.43112081705E+02 -0.14457298522E+04  0.17158809402E+04  0.50400001928E-02 0.  1.
       -1    1    3    3    0  502  0.92317600906E+03 -0.43112081705E+02  0.14054436071E+04  0.16820773847E+04  0.50400001928E-02 0. -1.
</event>
<event>
 5   0  0.4486226E-07  0.3408668E+04  0.7818609E-02  0.8135782E-01
       -2   -1    0    0    0  501  0.00000000000E+00  0.00000000000E+00  0.11139212085E+04  0.11139212085E+04  0.25500000920E-02 0. -1.
        2   -1    0    0  501    0  0.00000000000E+00  0.00000000000E+00 -0.26076839143E+04  0.26076839143E+04  0.25500000920E-02 0.  1.
    10030    2    1    2    0    0  0.00000000000E+00  0.00000000000E+00 -0.14937627057E+04  0.37216051228E+04  0.34086680197E+04 0.  0.
        1    1    3    3  502    0 -0.83740144707E+03 -0.14047196461E+04 -0.12708072621E+04  0.20710938088E+04  0.50400001928E-02 0. -1.
       -1    1    3    3    0  502  0.83740144707E+03  0.14047196461E+04 -0.22295544361E+03  0.16505113139E+04  0.50400001928E-02 0.  1.
</event>
<event>
 5   0  0.1435806E-07  0.3394544E+04  0.7818609E-02  0.8139247E-01
       -1   -1    0    0    0  501  0.00000000000E+00  0.00000000000E+00  0.33278037343E+04  0.33278037343E+04  0.50400001928E-02 0.  1.
        1   -1    0    0  501    0  0.00000000000E+00  0.00000000000E+00 -0.86565559154E+03  0.86565559155E+03  0.50400001928E-02 0. -1.
    10030    2    1    2    0    0  0.00000000000E+00  0.00000000000E+00  0.24621481427E+04  0.41934593258E+04  0.33945438045E+04 0.  0.
        3    1    3    3  502    0 -0.12208709903E+04 -0.10593234742E+04  0.59150039481E+03  0.17212103082E+04  0.10100000352E+00 0.  1.
       -3    1    3    3    0  502  0.12208709903E+04  0.10593234742E+04  0.18706477479E+04  0.24722490176E+04  0.10100000352E+00 0. -1.
</event>
<event>
 5   0  0.1435806E-07  0.3411400E+04  0.7818609E-02  0.8135114E-01
       -1   -1    0    0    0  501  0.00000000000E+00  0.00000000000E+00  0.15921864467E+04  0.15921864467E+04  0.50400001928E-02 0.  1.
        1   -1    0    0  501    0  0.00000000000E+00  0.00000000000E+00 -0.18273060788E+04  0.18273060788E+04  0.50400001928E-02 0. -1.
    10030    2    1    2    0    0  0.00000000000E+00  0.00000000000E+00 -0.23511963210E+03  0.34194925256E+04  0.34113996968E+04 0.  0.
        3    1    3    3  502    0 -0.47443722313E+03  0.17836899007E+03  0.15149553416E+04  0.15974967520E+04  0.10100000352E+00 0.  1.
       -3    1    3    3    0  502  0.47443722313E+03 -0.17836899007E+03 -0.17500749737E+04  0.18219957736E+04  0.10100000352E+00 0. -1.
</event>
<event>
 5   0  0.4381939E-07  0.3400163E+04  0.7818609E-02  0.8137866E-01
       -2   -1    0    0    0  501  0.00000000000E+00  0.00000000000E+00  0.15223532805E+04  0.15223532805E+04  0.25500000920E-02 0. -1.
        2   -1    0    0  501    0  0.00000000000E+00  0.00000000000E+00 -0.18985591861E+04  0.18985591861E+04  0.25500000920E-02 0.  1.
    10030    2    1    2    0    0  0.00000000000E+00  0.00000000000E+00 -0.37620590555E+03  0.34209124666E+04  0.34001634109E+04 0.  0.
        3    1    3    3  502    0  0.13297868470E+04  0.58361192711E+03 -0.10774324901E+04  0.18082579243E+04  0.10100000352E+00 0.  1.
       -3    1    3    3    0  502 -0.13297868470E+04 -0.58361192711E+03  0.70122658454E+03  0.16126545423E+04  0.10100000352E+00 0. -1.
</event>
<event>
 5   0  0.4447909E-07  0.3387744E+04  0.7818609E-02  0.8140921E-01
        2   -1    0    0  501    0  0.00000000000E+00  0.00000000000E+00  0.17204305030E+04  0.17204305030E+04  0.25500000920E-02 0.  1.
       -2   -1    0    0    0  501  0.00000000000E+00  0.00000000000E+00 -0.16677236815E+04  0.16677236815E+04  0.25500000920E-02 0. -1.
    10030    2    1    2    0    0  0.00000000000E+00  0.00000000000E+00  0.52706821459E+02  0.33881541845E+04  0.33877442007E+04 0.  0.
        5    1    3    3  502    0 -0.10855904185E+04 -0.93092140962E+03 -0.88153360960E+03  0.16799538156E+04  0.46999998093E+01 0. -1.
       -5    1    3    3    0  502  0.10855904185E+04  0.93092140962E+03  0.93424043106E+03  0.17082003690E+04  0.46999998093E+01 0.  1.
</event>
<event>
 5   0  0.4396257E-07  0.3392106E+04  0.7818609E-02  0.8139847E-01
       -2   -1    0    0    0  501  0.00000000000E+00  0.00000000000E+00  0.15414821629E+04  0.15414821629E+04  0.25500000920E-02 0.  1.
        2   -1    0    0  501    0  0.00000000000E+00  0.00000000000E+00 -0.18661230562E+04  0.18661230562E+04  0.25500000920E-02 0. -1.
    10030    2    1    2    0    0  0.00000000000E+00  0.00000000000E+00 -0.32464089328E+03  0.34076052191E+04  0.33921057795E+04 0.  0.
        2    1    3    3  502    0  0.12277005102E+04 -0.10443237511E+04  0.36804528754E+03  0.16532749238E+04  0.25500000920E-02 0.  1.
       -2    1    3    3    0  502 -0.12277005102E+04  0.10443237511E+04 -0.69268618083E+03  0.17543302953E+04  0.25500000920E-02 0. -1.
</event>
<event>
 5   0  0.4396257E-07  0.3209807E+04  0.7818609E-02  0.8186232E-01
        2   -1    0    0  501    0  0.00000000000E+00  0.00000000000E+00  0.17950332566E+04  0.17950332566E+04  0.25500000920E-02 0. -1.
       -2   -1    0    0    0  501  0.00000000000E+00  0.00000000000E+00 -0.14349125362E+04  0.14349125362E+04  0.25500000920E-02 0.  1.
    10030    2    1    2    0    0  0.00000000000E+00  0.00000000000E+00  0.36012072036E+03  0.32299457928E+04  0.32098072982E+04 0.  0.
        2    1    3    3  502    0  0.73269644475E+03 -0.14073084224E+04 -0.63022309091E+02  0.15878705512E+04  0.25500000920E-02 0. -1.
       -2    1    3    3    0  502 -0.73269644475E+03  0.14073084224E+04  0.42314302945E+03  0.16420752417E+04  0.25500000920E-02 0.  1.
</event>
<event>
 5   0  0.4381939E-07  0.3400940E+04  0.7818609E-02  0.8137676E-01
       -2   -1    0    0    0  501  0.00000000000E+00  0.00000000000E+00  0.12369577597E+04  0.12369577597E+04  0.25500000920E-02 0.  1.
        2   -1    0    0  501    0  0.00000000000E+00  0.00000000000E+00 -0.23376694702E+04  0.23376694702E+04  0.25500000920E-02 0. -1.
    10030    2    1    2    0    0  0.00000000000E+00  0.00000000000E+00 -0.11007117105E+04  0.35746272299E+04  0.34009400999E+04 0.  0.
        3    1    3    3  502    0  0.12960521718E+04 -0.34743170909E+03  0.54756665090E+03  0.14492374794E+04  0.10100000352E+00 0.  1.
       -3    1    3    3    0  502 -0.12960521718E+04  0.34743170909E+03 -0.16482783614E+04  0.21253897504E+04  0.10100000352E+00 0. -1.
</event>
<event>
 5   0  0.1520084E-07  0.3397485E+04  0.7818609E-02  0.8138524E-01
       -1   -1    0    0    0  501  0.00000000000E+00  0.00000000000E+00  0.15838196522E+04  0.15838196523E+04  0.50400001928E-02 0. -1.
        1   -1    0    0  501    0  0.00000000000E+00  0.00000000000E+00 -0.18220043262E+04  0.18220043262E+04  0.50400001928E-02 0.  1.
    10030    2    1    2    0    0  0.00000000000E+00  0.00000000000E+00 -0.23818467395E+03  0.34058239785E+04  0.33974851042E+04 0.  0.
        2    1    3    3  502    0 -0.50549875646E+03 -0.97767750399E+03 -0.14162327132E+04  0.17936268822E+04  0.25500000920E-02 0.  1.
       -2    1    3    3    0  502  0.50549875646E+03  0.97767750399E+03  0.11780480392E+04  0.16121970963E+04  0.25500000920E-02 0. -1.
</event>
<event>
 5   0  0.4486226E-07  0.3400617E+04  0.7818609E-02  0.8137755E-01
       -2   -1    0    0    0  501  0.00000000000E+00  0.00000000000E+00  0.26685411899E+04  0.26685411899E+04  0.25500000920E-02 0. -1.
        2   -1    0    0  501    0  0.00000000000E+00  0.00000000000E+00 -0.10833816143E+04  0.10833816143E+04  0.25500000920E-02 0.  1.
    10030    2    1    2    0    0  0.00000000000E+00  0.00000000000E+00  0.15851595756E+04  0.37519228042E+04  0.34006166864E+04 0.  0.
        1    1    3    3  502    0 -0.14489922507E+04  0.82829489750E+02  0.17698685602E+04  0.22888586648E+04  0.50400001928E-02 0.  1.
       -1    1    3    3    0  502  0.14489922507E+04 -0.82829489750E+02 -0.18470898453E+03  0.14630641394E+04  0.50400001928E-02 0. -1.
</event>
<event>
 5   0  0.1435806E-07  0.3403868E+04  0.7818609E-02  0.8136958E-01
        1   -1    0    0  501    0  0.00000000000E+00  0.00000000000E+00  0.24758761618E+04  0.24758761618E+04  0.50400001928E-02 0.  1.
       -1   -1    0    0    0  501  0.00000000000E+00  0.00000000000E+00 -0.11699208161E+04  0.11699208162E+04  0.50400001928E-02 0. -1.
    10030    2    1    2    0    0  0.00000000000E+00  0.00000000000E+00  0.13059553456E+04  0.36457969779E+04  0.34038678352E+04 0.  0.
        3    1    3    3  502    0 -0.10304508288E+04  0.13066914836E+04  0.10351390527E+04  0.19597919309E+04  0.10100000352E+00 0.  1.
       -3    1    3    3    0  502  0.10304508288E+04 -0.13066914836E+04  0.27081629295E+03  0.16860050470E+04  0.10100000352E+00 0. -1.
</event>
<event>
 5   0  0.1435806E-07  0.3561227E+04  0.7818609E-02  0.8099431E-01
       -1   -1    0    0    0  501  0.00000000000E+00  0.00000000000E+00  0.20892793919E+04  0.20892793919E+04  0.50400001928E-02 0.  1.
        1   -1    0    0  501    0  0.00000000000E+00  0.00000000000E+00 -0.15175490711E+04  0.15175490711E+04  0.50400001928E-02 0. -1.
    10030    2    1    2    0    0  0.00000000000E+00  0.00000000000E+00  0.57173032086E+03  0.36068284630E+04  0.35612267552E+04 0.  0.
        3    1    3    3  502    0  0.94625985811E+03 -0.55968887258E+03  0.17044882402E+04  0.20282848725E+04  0.10100000352E+00 0.  1.
       -3    1    3    3    0  502 -0.94625985811E+03  0.55968887258E+03 -0.11327579193E+04  0.15785435905E+04  0.10100000352E+00 0. -1.
</event>
<event>
 5   0  0.1523259E-07  0.3420936E+04  0.7818609E-02  0.8132787E-01
       -1   -1    0    0    0  501  0.00000000000E+00  0.00000000000E+00  0.13610120239E+04  0.13610120239E+04  0.50400001928E-02 0. -1.
        1   -1    0    0  501    0  0.00000000000E+00  0.00000000000E+00 -0.21496506577E+04  0.21496506577E+04  0.50400001928E-02 0.  1.
    10030    2    1    2    0    0  0.00000000000E+00  0.00000000000E+00 -0.78863863387E+03  0.35106626816E+04  0.34209357739E+04 0.  0.
        4    1    3    3  502    0 -0.15730197422E+04  0.10763746117E+03 -0.10748272679E+04  0.19082013000E+04  0.12699999809E+01 0.  1.
       -4    1    3    3    0  502  0.15730197422E+04 -0.10763746117E+03  0.28618863404E+03  0.16024613816E+04  0.12699999809E+01 0. -1.
</event>
<event>
 5   0  0.4521737E-07  0.3213987E+04  0.7818609E-02  0.8185133E-01
        2   -1    0    0  501    0  0.00000000000E+00  0.00000000000E+00  0.11699547551E+04  0.11699547551E+04  0.25500000920E-02 0. -1.
       -2   -1    0    0    0  501  0.00000000000E+00  0.00000000000E+00 -0.22072889502E+04  0.22072889502E+04  0.25500000920E-02 0.  1.
    10030    2    1    2    0    0  0.00000000000E+00  0.00000000000E+00 -0.10373341951E+04  0.33772437054E+04  0.32139870586E+04 0.  0.
        4    1    3    3  502    0  0.34291507612E+02 -0.15694949278E+04 -0.87952990774E+03  0.17994623384E+04  0.12699999809E+01 0. -1.
       -4    1    3    3    0  502 -0.34291507612E+02  0.15694949278E+04 -0.15780428737E+03  0.15777813670E+04  0.12699999809E+01 0.  1.
</event>
<event>
 5   0  0.1435806E-07  0.3401084E+04  0.7818609E-02  0.8137640E-01
       -1   -1    0    0    0  501  0.00000000000E+00  0.00000000000E+00  0.27975501475E+04  0.27975501476E+04  0.50400001928E-02 0. -1.
        1   -1    0    0  501    0  0.00000000000E+00  0.00000000000E+00 -0.10337056781E+04  0.10337056782E+04  0.50400001928E-02 0.  1.
    10030    2    1    2    0    0  0.00000000000E+00  0.00000000000E+00  0.17638444694E+04  0.38312558257E+04  0.34010842227E+04 0.  0.
        3    1    3    3  502    0  0.14338575457E+04 -0.64020448964E+02 -0.14546115598E+03  0.14426382212E+04  0.10100000352E+00 0.  1.
       -3    1    3    3    0  502 -0.14338575457E+04  0.64020448964E+02  0.19093056254E+04  0.23886176045E+04  0.10100000352E+00 0. -1.
</event>
<event>
 5   0  0.4447909E-07  0.3416859E+04  0.7818609E-02  0.8133781E-01
       -2   -1    0    0    0  501  0.00000000000E+00  0.00000000000E+00  0.15085114935E+04  0.15085114935E+04  0.25500000920E-02 0. -1.
        2   -1    0    0  501    0  0.00000000000E+00  0.00000000000E+00 -0.19348417567E+04  0.19348417567E+04  0.25500000920E-02 0.  1.
    10030    2    1    2    0    0  0.00000000000E+00  0.00000000000E+00 -0.42633026321E+03  0.34433532502E+04  0.34168588078E+04 0.  0.
        5    1    3    3  502    0 -0.14298319696E+03 -0.16852135619E+04 -0.45653302463E+03  0.17518086187E+04  0.46999998093E+01 0.  1.
       -5    1    3    3    0  502  0.14298319696E+03  0.16852135619E+04  0.30202761412E+02  0.16915446316E+04  0.46999998093E+01 0. -1.
</event>
<event>
 5   0  0.1435806E-07  0.3396364E+04  0.7818609E-02  0.8138799E-01
       -1   -1    0    0    0  501  0.00000000000E+00  0.00000000000E+00  0.12871218999E+04  0.12871218999E+04  0.50400001928E-02 0.  1.
        1   -1    0    0  501    0  0.00000000000E+00  0.00000000000E+00 -0.22405197639E+04  0.22405197639E+04  0.50400001928E-02 0. -1.
    10030    2    1    2    0    0  0.00000000000E+00  0.00000000000E+00 -0.95339786401E+03  0.35276416638E+04  0.33963639706E+04 0.  0.
        3    1    3    3  502    0  0.17445133854E+03  0.49591455174E+03 -0.21538757853E+04  0.22171029342E+04  0.10100000352E+00 0. -1.
       -3    1    3    3    0  502 -0.17445133854E+03 -0.49591455174E+03  0.12004779213E+04  0.13105387296E+04  0.10100000352E+00 0.  1.
</event>
<event>
 5   0  0.4486226E-07  0.3421345E+04  0.7818609E-02  0.8132687E-01
        2   -1    0    0  501    0  0.00000000000E+00  0.00000000000E+00  0.26812164870E+04  0.26812164870E+04  0.25500000920E-02 0.  1.
       -2   -1    0    0    0  501  0.00000000000E+00  0.00000000000E+00 -0.10914447730E+04  0.10914447730E+04  0.25500000920E-02 0. -1.
    10030    2    1    2    0    0  0.00000000000E+00  0.00000000000E+00  0.15897717139E+04  0.37726612600E+04  0.34213446012E+04 0.  0.
        1    1    3    3  502    0 -0.89407932973E+03  0.10364036981E+04  0.19263540206E+04  0.23631229943E+04  0.50400001928E-02 0.  1.
       -1    1    3    3    0  502  0.89407932973E+03 -0.10364036981E+04 -0.33658230666E+03  0.14095382657E+04  0.50400001928E-02 0. -1.
</event>
<event>
 5   0  0.1435806E-07  0.3353593E+04  0.7818609E-02  0.8149391E-01
        1   -1    0    0  501    0  0.00000000000E+00  0.00000000000E+00  0.14927951012E+04  0.14927951012E+04  0.50400001928E-02 0. -1.
       -1   -1    0    0    0  501  0.00000000000E+00  0.00000000000E+00 -0.18834772882E+04  0.18834772882E+04  0.50400001928E-02 0.  1.
    10030    2    1    2    0    0  0.00000000000E+00  0.00000000000E+00 -0.39068218700E+03  0.33762723894E+04  0.33535925030E+04 0.  0.
        3    1    3    3  502    0  0.70511966354E+03 -0.14940886684E+04  0.93217182271E+02  0.16547459449E+04  0.10100000352E+00 0.  1.
       -3    1    3    3    0  502 -0.70511966354E+03  0.14940886684E+04 -0.48389936927E+03  0.17215264444E+04  0.10100000352E+00 0. -1.
</event>
<event>
 5   0  0.4447909E-07  0.3395784E+04  0.7818609E-02  0.8138942E-01
       -2   -1    0    0    0  501  0.00000000000E+00  0.00000000000E+00  0.27797312435E+04  0.27797312435E+04  0.25500000920E-02 0. -1.
        2   -1    0    0  501    0  0.00000000000E+00  0.00000000000E+00 -0.10370918644E+04  0.10370918644E+04  0.25500000920E-02 0.  1.
    10030    2    1    2    0    0  0.00000000000E+00  0.00000000000E+00  0.17426393791E+04  0.38168231078E+04  0.33957836549E+04 0.  0.
        5    1    3    3  502    0  0.11629426160E+04  0.61744254930E+03  0.20762146743E+04  0.24585280746E+04  0.46999998093E+01 0. -1.
       -5    1    3    3    0  502 -0.11629426160E+04 -0.61744254930E+03 -0.33357529520E+03  0.13582950333E+04  0.46999998093E+01 0.  1.
</event>
<event>
 5   0  0.4381939E-07  0.3406100E+04  0.7818609E-02  0.8136411E-01
        2   -1    0    0  501    0  0.00000000000E+00  0.00000000000E+00  0.27008743680E+04  0.27008743680E+04  0.25500000920E-02 0. -1.
       -2   -1    0    0    0  501  0.00000000000E+00  0.00000000000E+00 -0.10738669894E+04  0.10738669894E+04  0.25500000920E-02 0.  1.
    10030    2    1    2    0    0  0.00000000000E+00  0.00000000000E+00  0.16270073786E+04  0.37747413574E+04  0.34061003076E+04 0.  0.
        3    1    3    3  502    0  0.16443881677E+04 -0.26552120588E+03  0.42033064173E+03  0.17179033195E+04  0.10100000352E+00 0. -1.
       -3    1    3    3    0  502 -0.16443881677E+04  0.26552120588E+03  0.12066767369E+04  0.20568380379E+04  0.10100000352E+00 0.  1.
</event>
<event>
 5   0  0.4381939E-07  0.3400097E+04  0.7818609E-02  0.8137882E-01
       -2   -1    0    0    0  501  0.00000000000E+00  0.00000000000E+00  0.12683155719E+04  0.12683155719E+04  0.25500000920E-02 0. -1.
        2   -1    0    0  501    0  0.00000000000E+00  0.00000000000E+00 -0.22787430885E+04  0.22787430885E+04  0.25500000920E-02 0.  1.
    10030    2    1    2    0    0  0.00000000000E+00  0.00000000000E+00 -0.10104275166E+04  0.35470586604E+04  0.34000972595E+04 0.  0.
        3    1    3    3  502    0 -0.12902291331E+04  0.63326279152E+03  0.44202576789E+03  0.15036953709E+04  0.10100000352E+00 0. -1.
       -3    1    3    3    0  502  0.12902291331E+04 -0.63326279152E+03 -0.14524532845E+04  0.20433632895E+04  0.10100000352E+00 0.  1.
</event>
<event>
 5   0  0.1473755E-07  0.3375156E+04  0.7818609E-02  0.8144031E-01
        1   -1    0    0  501    0  0.00000000000E+00  0.00000000000E+00  0.20059138924E+04  0.20059138924E+04  0.50400001928E-02 0. -1.
       -1   -1    0    0    0  501  0.00000000000E+00  0.00000000000E+00 -0.14197618733E+04  0.14197618734E+04  0.50400001928E-02 0.  1.
    10030    2    1    2    0    0  0.00000000000E+00  0.00000000000E+00  0.58615201902E+03  0.34256757657E+04  0.33751563316E+04 0.  0.
        1    1    3    3  502    0  0.21025693484E+03  0.16458151869E+04 -0.19765486133E+02  0.16593089774E+04  0.50400001928E-02 0.  1.
       -1    1    3    3    0  502 -0.21025693484E+03 -0.16458151869E+04  0.60591750515E+03  0.17663667884E+04  0.50400001928E-02 0. -1.
</event>
<event>
 5   0  0.1523259E-07  0.3400466E+04  0.7818609E-02  0.8137792E-01
       -1   -1    0    0    0  501  0.00000000000E+00  0.00000000000E+00  0.14941780299E+04  0.14941780300E+04  0.50400001928E-02 0.  1.
        1   -1    0    0  501    0  0.00000000000E+00  0.00000000000E+00 -0.19347035096E+04  0.19347035096E+04  0.50400001928E-02 0. -1.
    10030    2    1    2    0    0  0.00000000000E+00  0.00000000000E+00 -0.44052547965E+03  0.34288815395E+04  0.34004655437E+04 0.  0.
        4    1    3    3  502    0 -0.56041727042E+03 -0.20108438772E+03  0.13856181740E+04  0.15081252550E+04  0.12699999809E+01 0.  1.
       -4    1    3    3    0  502  0.56041727042E+03  0.20108438772E+03 -0.18261436536E+04  0.19207562845E+04  0.12699999809E+01 0. -1.
</event>
<event>
 5   0  0.1473755E-07  0.3301151E+04  0.7818609E-02  0.8162603E-01
        1   -1    0    0  501    0  0.00000000000E+00  0.00000000000E+00  0.17810951284E+04  0.17810951284E+04  0.50400001928E-02 0. -1.
       -1   -1    0    0    0  501  0.00000000000E+00  0.00000000000E+00 -0.15296206581E+04  0.15296206581E+04  0.50400001928E-02 0.  1.
    10030    2    1    2    0    0  0.00000000000E+00  0.00000000000E+00  0.25147447036E+03  0.33107157865E+04  0.33011512552E+04 0.  0.
        1    1    3    3  502    0  0.48971756415E+02  0.14844562089E+04 -0.59634287748E+03  0.16005103238E+04  0.50400001928E-02 0.  1.
       -1    1    3    3    0  502 -0.48971756415E+02 -0.14844562089E+04  0.84781734785E+03  0.17102054627E+04  0.50400001928E-02 0. -1.
</event>
<event>
 5   0  0.1421875E-07  0.3414276E+04  0.7818609E-02  0.8134411E-01
        3   -1    0    0  501    0  0.00000000000E+00  0.00000000000E+00  0.15199871638E+04  0.15199871672E+04  0.10100000352E+00 0. -1.
       -3   -1    0    0    0  501  0.00000000000E+00  0.00000000000E+00 -0.19173322521E+04  0.19173322548E+04  0.10100000352E+00 0.  1.
    10030    2    1    2    0    0  0.00000000000E+00  0.00000000000E+00 -0.39734508827E+03  0.34373194219E+04  0.34142761589E+04 0.  0.
        3    1    3    3  502    0 -0.16208392260E+04 -0.49924392810E+03 -0.39481071787E+03  0.17413327682E+04  0.10100000352E+00 0.  1.
       -3    1    3    3    0  502  0.16208392260E+04  0.49924392810E+03 -0.25343703954E+01  0.16959866537E+04  0.10100000352E+00 0. -1.
</event>
<event>
 5   0  0.1421875E-07  0.3331203E+04  0.7818609E-02  0.8155001E-01
       -1   -1    0    0    0  501  0.00000000000E+00  0.00000000000E+00  0.16693408384E+04  0.16693408384E+04  0.50400001928E-02 0.  1.
        1   -1    0    0  501    0  0.00000000000E+00  0.00000000000E+00 -0.16618705730E+04  0.16618705730E+04  0.50400001928E-02 0. -1.
    10030    2    1    2    0    0  0.00000000000E+00  0.00000000000E+00  0.74702654167E+01  0.33312114115E+04  0.33312030354E+04 0.  0.
        5    1    3    3  502    0  0.43228751928E+02  0.11948657680E+04 -0.11558510690E+04  0.16630053254E+04  0.46999998093E+01 0. -1.
       -5    1    3    3    0  502 -0.43228751928E+02 -0.11948657680E+04  0.11633213345E+04  0.16682060861E+04  0.46999998093E+01 0.  1.
</event>
<event>
 5   0  0.1523259E-07  0.3403400E+04  0.7818609E-02  0.8137072E-01
       -1   -1    0    0    0  501  0.00000000000E+00  0.00000000000E+00  0.13578799423E+04  0.13578799423E+04  0.50400001928E-02 0. -1.
        1   -1    0    0  501    0  0.00000000000E+00  0.00000000000E+00 -0.21325760707E+04  0.21325760707E+04  0.50400001928E-02 0.  1.
    10030    2    1    2    0    0  0.00000000000E+00  0.00000000000E+00 -0.77469612848E+03  0.34904560130E+04  0.34033996367E+04 0.  0.
        4    1    3    3  502    0  0.24546224431E+03  0.85175036539E+03  0.11024095756E+04  0.14145808155E+04  0.12699999809E+01 0. -1.
       -4    1    3    3    0  502 -0.24546224431E+03 -0.85175036539E+03 -0.18771057041E+04  0.20758751975E+04  0.12699999809E+01 0.  1.
</event>
<event>
 5   0  0.1520084E-07  0.3397451E+04  0.7818609E-02  0.8138532E-01
       -1   -1    0    0    0  501  0.00000000000E+00  0.00000000000E+00  0.11997284208E+04  0.11997284208E+04  0.50400001928E-02 0.  1.
        1   -1    0    0  501    0  0.00000000000E+00  0.00000000000E+00 -0.24052674290E+04  0.24052674290E+04  0.50400001928E-02 0. -1.
    10030    2    1    2    0    0  0.00000000000E+00  0.00000000000E+00 -0.12055390082E+04  0.36049958498E+04  0.33974506290E+04 0.  0.
        2    1    3    3  502    0 -0.30459651824E+03 -0.14828329358E+04  0.21509171297E+03  0.15289986917E+04  0.25500000920E-02 0.  1.
       -2    1    3    3    0  502  0.30459651824E+03  0.14828329358E+04 -0.14206307212E+04  0.20759971581E+04  0.25500000920E-02 0. -1.
</event>
<event>
 5   0  0.4396257E-07  0.3371067E+04  0.7818609E-02  0.8145044E-01
       -2   -1    0    0    0  501  0.00000000000E+00  0.00000000000E+00  0.17701590645E+04  0.17701590645E+04  0.25500000920E-02 0. -1.
        2   -1    0    0  501    0  0.00000000000E+00  0.00000000000E+00 -0.16049535855E+04  0.16049535855E+04  0.25500000920E-02 0.  1.
    10030    2    1    2    0    0  0.00000000000E+00  0.00000000000E+00  0.16520547894E+03  0.33751126500E+04  0.33710669750E+04 0.  0.
        2    1    3    3  502    0 -0.71045257471E+03  0.52884776871E+03 -0.13532035143E+04  0.16172762827E+04  0.25500000920E-02 0.  1.
       -2    1    3    3    0  502  0.71045257471E+03 -0.52884776871E+03  0.15184089932E+04  0.17578363673E+04  0.25500000920E-02 0. -1.
</event>
<event>
 5   0  0.1421875E-07  0.3396026E+04  0.7818609E-02  0.8138882E-01
       -1   -1    0    0    0  501  0.00000000000E+00  0.00000000000E+00  0.17174108949E+04  0.17174108949E+04  0.50400001928E-02 0. -1.
        1   -1    0    0  501    0  0.00000000000E+00  0.00000000000E+00 -0.16788343906E+04  0.16788343906E+04  0.50400001928E-02 0.  1.
    10030    2    1    2    0    0  0.00000000000E+00  0.00000000000E+00  0.38576504317E+02  0.33962452854E+04  0.33960261913E+04 0.  0.
        5    1    3    3  502    0 -0.14827180543E+04 -0.81044904591E+03 -0.14789280098E+03  0.16962237043E+04  0.46999998093E+01 0.  1.
       -5    1    3    3    0  502  0.14827180543E+04  0.81044904591E+03  0.18646930530E+03  0.17000215811E+04  0.46999998093E+01 0. -1.
</event>
<event>
 5   0  0.1435806E-07  0.3393259E+04  0.7818609E-02  0.8139563E-01
       -1   -1    0    0    0  501  0.00000000000E+00  0.00000000000E+00  0.22756904178E+04  0.22756904178E+04  0.50400001928E-02 0.  1.
        1   -1    0    0  501    0  0.00000000000E+00  0.00000000000E+00 -0.12649135849E+04  0.12649135849E+04  0.50400001928E-02 0. -1.
    10030    2    1    2    0    0  0.00000000000E+00  0.00000000000E+00  0.10107768329E+04  0.35406040027E+04  0.33932590378E+04 0.  0.
        3    1    3    3  502    0 -0.10919095921E+04 -0.12849077518E+04  0.30935476444E+03  0.17143380263E+04  0.10100000352E+00 0.  1.
       -3    1    3    3    0  502  0.10919095921E+04  0.12849077518E+04  0.70142206845E+03  0.18262659763E+04  0.10100000352E+00 0. -1.
</event>
<event>
 5   0  0.4396257E-07  0.3398756E+04  0.7818609E-02  0.8138212E-01
       -2   -1    0    0    0  501  0.00000000000E+00  0.00000000000E+00  0.10574106043E+04  0.10574106043E+04  0.25500000920E-02 0.  1.
        2   -1    0    0  501    0  0.00000000000E+00  0.00000000000E+00 -0.27310925848E+04  0.27310925848E+04  0.25500000920E-02 0. -1.
    10030    2    1    2    0    0  0.00000000000E+00  0.00000000000E+00 -0.16736819805E+04  0.37885031891E+04  0.33987563963E+04 0.  0.
        2    1    3    3  502    0 -0.14914008506E+04 -0.59470661117E+03 -0.14573985873E+04  0.21684010452E+04  0.25500000920E-02 0.  1.
       -2    1    3    3    0  502  0.14914008506E+04  0.59470661117E+03 -0.21628339320E+03  0.16201021439E+04  0.25500000920E-02 0. -1.
</event>
<event>
 5   0  0.1520084E-07  0.3265823E+04  0.7818609E-02  0.8171647E-01
       -1   -1    0    0    0  501  0.00000000000E+00  0.00000000000E+00  0.10851890889E+04  0.10851890889E+04  0.50400001928E-02 0. -1.
        1   -1    0    0  501    0  0.00000000000E+00  0.00000000000E+00 -0.24570825379E+04  0.24570825380E+04  0.50400001928E-02 0.  1.
    10030    2    1    2    0    0  0.00000000000E+00  0.00000000000E+00 -0.13718934490E+04  0.35422716269E+04  0.32658225064E+04 0.  0.
        2    1    3    3  502    0 -0.11122338759E+04  0.27696356751E+03 -0.19474203424E+04  0.22596944489E+04  0.25500000920E-02 0.  1.
       -2    1    3    3    0  502  0.11122338759E+04 -0.27696356751E+03  0.57552689337E+03  0.12825771780E+04  0.25500000920E-02 0. -1.
</event>
<event>
 5   0  0.1421875E-07  0.3431071E+04  0.7818609E-02  0.8130322E-01
       -1   -1    0    0    0  501  0.00000000000E+00  0.00000000000E+00  0.13835021630E+04  0.13835021630E+04  0.50400001928E-02 0.  1.
        1   -1    0    0  501    0  0.00000000000E+00  0.00000000000E+00 -0.21272548631E+04  0.21272548631E+04  0.50400001928E-02 0. -1.
    10030    2    1    2    0    0  0.00000000000E+00  0.00000000000E+00 -0.74375270010E+03  0.35107570262E+04  0.34310707975E+04 0.  0.
        5    1    3    3  502    0  0.11127700660E+04 -0.67244149884E+03 -0.15170678989E+04  0.19979869591E+04  0.46999998093E+01 0. -1.
       -5    1    3    3    0  502 -0.11127700660E+04  0.67244149884E+03  0.77331519876E+03  0.15127700670E+04  0.46999998093E+01 0.  1.
</event>
<event>
 5   0  0.4486226E-07  0.3392569E+04  0.7818609E-02  0.8139733E-01
        2   -1    0    0  501    0  0.00000000000E+00  0.00000000000E+00  0.19479672422E+04  0.19479672422E+04  0.25500000920E-02 0.  1.
       -2   -1    0    0    0  501  0.00000000000E+00  0.00000000000E+00 -0.14771194704E+04  0.14771194704E+04  0.25500000920E-02 0. -1.
    10030    2    1    2    0    0  0.00000000000E+00  0.00000000000E+00  0.47084777181E+03  0.34250867126E+04  0.33925685497E+04 0.  0.
        1    1    3    3  502    0  0.83593705992E+03 -0.85687682096E+03 -0.97790745483E+03  0.15457463067E+04  0.50400001928E-02 0. -1.
       -1    1    3    3    0  502 -0.83593705992E+03  0.85687682096E+03  0.14487552266E+04  0.18793404059E+04  0.50400001928E-02 0.  1.
</event>
<event>
 5   0  0.4396257E-07  0.3388017E+04  0.7818609E-02  0.8140854E-01
        2   -1    0    0  501    0  0.00000000000E+00  0.00000000000E+00  0.15798370770E+04  0.15798370770E+04  0.25500000920E-02 0. -1.
       -2   -1    0    0    0  501  0.00000000000E+00  0.00000000000E+00 -0.18164309321E+04  0.18164309321E+04  0.25500000920E-02 0.  1.
    10030    2    1    2    0    0  0.00000000000E+00  0.00000000000E+00 -0.23659385514E+03  0.33962680091E+04  0.33880170805E+04 0.  0.
        2    1    3    3  502    0 -0.23015932280E+03  0.10704847833E+04 -0.14140212507E+04  0.17883979095E+04  0.25500000920E-02 0.  1.
       -2    1    3    3    0  502  0.23015932280E+03 -0.10704847833E+04  0.11774273956E+04  0.16078700996E+04  0.25500000920E-02 0. -1.
</event>
<event>
 5   0  0.4521737E-07  0.3400773E+04  0.7818609E-02  0.8137717E-01
        2   -1    0    0  501    0  0.00000000000E+00  0.00000000000E+00  0.98943514643E+03  0.98943514643E+03  0.25500000920E-02 0.  1.
       -2   -1    0    0    0  501  0.00000000000E+00  0.00000000000E+00 -0.29221875263E+04  0.29221875263E+04  0.25500000920E-02 0. -1.
    10030    2    1    2    0    0  0.00000000000E+00  0.00000000000E+00 -0.19327523799E+04  0.39116226727E+04  0.34007734667E+04 0.  0.
        4    1    3    3  502    0  0.37592157839E+03 -0.10476089944E+03  0.93722941942E+03  0.10152302580E+04  0.12699999809E+01 0.  1.
       -4    1    3    3    0  502 -0.37592157839E+03  0.10476089944E+03 -0.28699817993E+04  0.28963924148E+04  0.12699999809E+01 0. -1.
</event>
<event>
 5   0  0.4447909E-07  0.3421209E+04  0.7818609E-02  0.8132720E-01
        2   -1    0    0  501    0  0.00000000000E+00  0.00000000000E+00  0.15784629450E+04  0.15784629450E+04  0.25500000920E-02 0.  1.
       -2   -1    0    0    0  501  0.00000000000E+00  0.00000000000E+00 -0.18538088451E+04  0.18538088451E+04  0.25500000920E-02 0. -1.
    10030    2    1    2    0    0  0.00000000000E+00  0.00000000000E+00 -0.27534590015E+03  0.34322717901E+04  0.34212094756E+04 0.  0.
        5    1    3    3  502    0 -0.10682941712E+04 -0.91216375129E+03 -0.11169702965E+04  0.17946977124E+04  0.46999998093E+01 0. -1.
       -5    1    3    3    0  502  0.10682941712E+04  0.91216375129E+03  0.84162439638E+03  0.16375740777E+04  0.46999998093E+01 0.  1.
</event>
<event>
 5   0  0.4521737E-07  0.3361979E+04  0.7818609E-02  0.8147301E-01
       -2   -1    0    0    0  501  0.00000000000E+00  0.00000000000E+00  0.27428502368E+04  0.27428502368E+04  0.25500000920E-02 0.  1.
        2   -1    0    0  501    0  0.00000000000E+00  0.00000000000E+00 -0.10302151457E+04  0.10302151457E+04  0.25500000920E-02 0. -1.
    10030    2    1    2    0    0  0.00000000000E+00  0.00000000000E+00  0.17126350911E+04  0.37730653825E+04  0.33619790936E+04 0.  0.
        4    1    3    3  502    0  0.10010745600E+04  0.28197660970E+03 -0.62579241823E+03  0.12137869857E+04  0.12699999809E+01 0. -1.
       -4    1    3    3    0  502 -0.10010745600E+04 -0.28197660970E+03  0.23384275093E+04  0.25592783968E+04  0.12699999809E+01 0.  1.
</event>
<event>
 5   0  0.4486226E-07  0.3392121E+04  0.7818609E-02  0.8139843E-01
        2   -1    0    0  501    0  0.00000000000E+00  0.00000000000E+00  0.15624170867E+04  0.15624170867E+04  0.25500000920E-02 0.  1.
       -2   -1    0    0    0  501  0.00000000000E+00  0.00000000000E+00 -0.18411357396E+04  0.18411357396E+04  0.25500000920E-02 0. -1.
    10030    2    1    2    0    0  0.00000000000E+00  0.00000000000E+00 -0.27871865295E+03  0.34035528263E+04  0.33921214238E+04 0.  0.
        1    1    3    3  502    0 -0.42502360159E+03  0.10000494771E+04  0.11672880438E+04  0.15947744028E+04  0.50400001928E-02 0.  1.
       -1    1    3    3    0  502  0.42502360159E+03 -0.10000494771E+04 -0.14460066967E+04  0.18087784235E+04  0.50400001928E-02 0. -1.
</event>
<event>
 5   0  0.1523259E-07  0.3406931E+04  0.7818609E-02  0.8136207E-01
        1   -1    0    0  501    0  0.00000000000E+00  0.00000000000E+00  0.12996517016E+04  0.12996517016E+04  0.50400001928E-02 0. -1.
       -1   -1    0    0    0  501  0.00000000000E+00  0.00000000000E+00 -0.22327473264E+04  0.22327473264E+04  0.50400001928E-02 0.  1.
    10030    2    1    2    0    0  0.00000000000E+00  0.00000000000E+00 -0.93309562485E+03  0.35323990280E+04  0.34069305024E+04 0.  0.
        4    1    3    3  502    0  0.65701076996E+03 -0.67206941796E+02 -0.20946020842E+04  0.21962557749E+04  0.12699999809E+01 0.  1.
       -4    1    3    3    0  502 -0.65701076996E+03  0.67206941796E+02  0.11615064593E+04  0.13361432531E+04  0.12699999809E+01 0. -1.
</event>
<event>
 5   0  0.4396257E-07  0.3402099E+04  0.7818609E-02  0.8137391E-01
        2   -1    0    0  501    0  0.00000000000E+00  0.00000000000E+00  0.23986106940E+04  0.23986106940E+04  0.25500000920E-02 0.  1.
       -2   -1    0    0    0  501  0.00000000000E+00  0.00000000000E+00 -0.12063519304E+04  0.12063519304E+04  0.25500000920E-02 0. -1.
    10030    2    1    2    0    0  0.00000000000E+00  0.00000000000E+00  0.11922587636E+04  0.36049626244E+04  0.34020985529E+04 0.  0.
        2    1    3    3  502    0  0.74427361086E+02  0.16576920855E+04  0.19953049656E+03  0.16713153208E+04  0.25500000920E-02 0. -1.
       -2    1    3    3    0  502 -0.74427361086E+02 -0.16576920855E+04  0.99272826702E+03  0.19336473036E+04  0.25500000920E-02 0.  1.
</event>
<event>
 5   0  0.4381939E-07  0.3353949E+04  0.7818609E-02  0.8149302E-01
       -2   -1    0    0    0  501  0.00000000000E+00  0.00000000000E+00  0.11493686218E+04  0.11493686218E+04  0.25500000920E-02 0. -1.
        2   -1    0    0  501    0  0.00000000000E+00  0.00000000000E+00 -0.24467718024E+04  0.24467718024E+04  0.25500000920E-02 0.  1.
    10030    2    1    2    0    0  0.00000000000E+00  0.00000000000E+00 -0.12974031806E+04  0.35961404242E+04  0.33539485592E+04 0.  0.
        3    1    3    3  502    0  0.14102435178E+04  0.26028308279E+03  0.28338754240E+03  0.14617942988E+04  0.10100000352E+00 0. -1.
       -3    1    3    3    0  502 -0.14102435178E+04 -0.26028308279E+03 -0.15807907230E+04  0.21343461254E+04  0.10100000352E+00 0.  1.
</event>
<event>
 5   0  0.4447909E-07  0.3411915E+04  0.7818609E-02  0.8134988E-01
        2   -1    0    0  501    0  0.00000000000E+00  0.00000000000E+00  0.16416963099E+04  0.16416963099E+04  0.25500000920E-02 0.  1.
       -2   -1    0    0    0  501  0.00000000000E+00  0.00000000000E+00 -0.17727343533E+04  0.17727343533E+04  0.25500000920E-02 0. -1.
    10030    2    1    2    0    0  0.00000000000E+00  0.00000000000E+00 -0.13103804340E+03  0.34144306632E+04  0.34119152664E+04 0.  0.
        5    1    3    3  502    0 -0.14241252110E+04 -0.21670622166E+03  0.84903390418E+03  0.16721168810E+04  0.46999998093E+01 0.  1.
       -5    1    3    3    0  502  0.14241252110E+04  0.21670622166E+03 -0.98007194758E+03  0.17423137822E+04  0.46999998093E+01 0. -1.
</event>
<event>
 5   0  0.4486226E-07  0.3367304E+04  0.7818609E-02  0.8145978E-01
        2   -1    0    0  501    0  0.00000000000E+00  0.00000000000E+00  0.14841446319E+04  0.14841446319E+04  0.25500000920E-02 0. -1.
       -2   -1    0    0    0  501  0.00000000000E+00  0.00000000000E+00 -0.19099784872E+04  0.19099784872E+04  0.25500000920E-02 0.  1.
    10030    2    1    2    0    0  0.00000000000E+00  0.00000000000E+00 -0.42583385524E+03  0.33941231191E+04  0.33673041555E+04 0.  0.
        1    1    3    3  502    0 -0.54328846021E+03 -0.98514485438E+03 -0.14754952271E+04  0.18554672997E+04  0.50400001928E-02 0.  1.
       -1    1    3    3    0  502  0.54328846021E+03  0.98514485438E+03  0.10496613718E+04  0.15386558194E+04  0.50400001928E-02 0. -1.
</event>
<event>
 5   0  0.1473755E-07  0.3407135E+04  0.7818609E-02  0.8136157E-01
        1   -1    0    0  501    0  0.00000000000E+00  0.00000000000E+00  0.19860471781E+04  0.19860471781E+04  0.50400001928E-02 0. -1.
       -1   -1    0    0    0  501  0.00000000000E+00  0.00000000000E+00 -0.14612653678E+04  0.14612653678E+04  0.50400001928E-02 0.  1.
    10030    2    1    2    0    0  0.00000000000E+00  0.00000000000E+00  0.52478181028E+03  0.34473125460E+04  0.34071348434E+04 0.  0.
        1    1    3    3  502    0  0.28850032306E+03  0.10167061283E+04 -0.10894854980E+04  0.15178611393E+04  0.50400001928E-02 0.  1.
       -1    1    3    3    0  502 -0.28850032306E+03 -0.10167061283E+04  0.16142673083E+04  0.19294514066E+04  0.50400001928E-02 0. -1.
</event>
<event>
 5   0  0.4396257E-07  0.3429470E+04  0.7818609E-02  0.8130711E-01
       -2   -1    0    0    0  501  0.00000000000E+00  0.00000000000E+00  0.11800133124E+04  0.11800133124E+04  0.25500000920E-02 0. -1.
        2   -1    0    0  501    0  0.00000000000E+00  0.00000000000E+00 -0.24917652397E+04  0.24917652397E+04  0.25500000920E-02 0.  1.
    10030    2    1    2    0    0  0.00000000000E+00  0.00000000000E+00 -0.13117519273E+04  0.36717785521E+04  0.34294700199E+04 0.  0.
        2    1    3    3  502    0  0.15460138416E+04  0.64611942883E+03 -0.26587675812E+03  0.16965610997E+04  0.25500000920E-02 0. -1.
       -2    1    3    3    0  502 -0.15460138416E+04 -0.64611942883E+03 -0.10458751692E+04  0.19752174524E+04  0.25500000920E-02 0.  1.
</event>
<event>
 5   0  0.1421875E-07  0.3377792E+04  0.7818609E-02  0.8143379E-01
       -1   -1    0    0    0  501  0.00000000000E+00  0.00000000000E+00  0.14642321831E+04  0.14642321831E+04  0.50400001928E-02 0.  1.
        1   -1    0    0  501    0  0.00000000000E+00  0.00000000000E+00 -0.19480308886E+04  0.19480308886E+04  0.50400001928E-02 0. -1.
    10030    2    1    2    0    0  0.00000000000E+00  0.00000000000E+00 -0.48379870548E+03  0.34122630717E+04  0.33777918945E+04 0.  0.
        5    1    3    3  502    0 -0.15894722682E+04 -0.56858172108E+03 -0.29380626636E+03  0.17134910205E+04  0.46999998093E+01 0.  1.
       -5    1    3    3    0  502  0.15894722682E+04  0.56858172108E+03 -0.18999243912E+03  0.16987720512E+04  0.46999998093E+01 0. -1.
</event>
<event>
 5   0  0.4447909E-07  0.3404255E+04  0.7818609E-02  0.8136863E-01
        2   -1    0    0  501    0  0.00000000000E+00  0.00000000000E+00  0.15499054814E+04  0.15499054815E+04  0.25500000920E-02 0. -1.
       -2   -1    0    0    0  501  0.00000000000E+00  0.00000000000E+00 -0.18692997210E+04  0.18692997210E+04  0.25500000920E-02 0.  1.
    10030    2    1    2    0    0  0.00000000000E+00  0.00000000000E+00 -0.31939423951E+03  0.34192052024E+04  0.34042549164E+04 0.  0.
        5    1    3    3  502    0 -0.57711836990E+03  0.14613131224E+04 -0.81733526500E+03  0.17710337885E+04  0.46999998093E+01 0.  1.
       -5    1    3    3    0  502  0.57711836990E+03 -0.14613131224E+04  0.49794102549E+03  0.16481714139E+04  0.46999998093E+01 0. -1.
</event>
<event>
 5   0  0.1523259E-07  0.3418297E+04  0.7818609E-02  0.8133430E-01
        1   -1    0    0  501    0  0.00000000000E+00  0.00000000000E+00  0.11976466222E+04  0.11976466222E+04  0.50400001928E-02 0. -1.
       -1   -1    0    0    0  501  0.00000000000E+00  0.00000000000E+00 -0.24391069627E+04  0.24391069627E+04  0.50400001928E-02 0.  1.
    10030    2    1    2    0    0  0.00000000000E+00  0.00000000000E+00 -0.12414603405E+04  0.36367535849E+04  0.34182967776E+04 0.  0.
        4    1    3    3  502    0  0.78116690534E+03  0.12976111244E+04 -0.14632823964E+04  0.21059946222E+04  0.12699999809E+01 0.  1.
       -4    1    3    3    0  502 -0.78116690534E+03 -0.12976111244E+04  0.22182205592E+03  0.15307589626E+04  0.12699999809E+01 0. -1.
</event>
<event>
 5   0  0.4521737E-07  0.3399659E+04  0.7818609E-02  0.8137990E-01
       -2   -1    0    0    0  501  0.00000000000E+00  0.00000000000E+00  0.13790138337E+04  0.13790138337E+04  0.25500000920E-02 0. -1.
        2   -1    0    0  501    0  0.00000000000E+00  0.00000000000E+00 -0.20952805389E+04  0.20952805389E+04  0.25500000920E-02 0.  1.
    10030    2    1    2    0    0  0.00000000000E+00  0.00000000000E+00 -0.71626670515E+03  0.34742943726E+04  0.33996593057E+04 0.  0.
        4    1    3    3  502    0  0.29112433001E+03  0.16401373323E+04 -0.12152004067E+02  0.16658190563E+04  0.12699999809E+01 0. -1.
       -4    1    3    3    0  502 -0.29112433001E+03 -0.16401373323E+04 -0.70411470108E+03  0.18084753163E+04  0.12699999809E+01 0.  1.
</event>
<event>
 5   0  0.1473755E-07  0.3402791E+04  0.7818609E-02  0.8137222E-01
       -1   -1    0    0    0  501  0.00000000000E+00  0.00000000000E+00  0.21952592838E+04  0.21952592839E+04  0.50400001928E-02 0.  1.
        1   -1    0    0  501    0  0.00000000000E+00  0.00000000000E+00 -0.13186354031E+04  0.13186354031E+04  0.50400001928E-02 0. -1.
    10030    2    1    2    0    0  0.00000000000E+00  0.00000000000E+00  0.87662388075E+03  0.35138946870E+04  0.34027909784E+04 0.  0.
        1    1    3    3  502    0  0.12964032164E+04  0.87670077264E+03 -0.25092428277E+03  0.15850011167E+04  0.50400001928E-02 0. -1.
       -1    1    3    3    0  502 -0.12964032164E+04 -0.87670077264E+03  0.11275481635E+04  0.19288935703E+04  0.50400001928E-02 0.  1.
</event>
<event>
 5   0  0.4486226E-07  0.3423862E+04  0.7818609E-02  0.8132075E-01
       -2   -1    0    0    0  501  0.00000000000E+00  0.00000000000E+00  0.13661725015E+04  0.13661725015E+04  0.25500000920E-02 0.  1.
        2   -1    0    0  501    0  0.00000000000E+00  0.00000000000E+00 -0.21451960153E+04  0.21451960153E+04  0.25500000920E-02 0. -1.
    10030    2    1    2    0    0  0.00000000000E+00  0.00000000000E+00 -0.77902351381E+03  0.35113685167E+04  0.34238620336E+04 0.  0.
        1    1    3    3  502    0  0.76329476665E+03 -0.63974855266E+03 -0.18175106080E+04  0.20724965432E+04  0.50400001928E-02 0. -1.
       -1    1    3    3    0  502 -0.76329476665E+03  0.63974855266E+03  0.10384870942E+04  0.14388719735E+04  0.50400001928E-02 0.  1.
</event>
<event>
 5   0  0.1523259E-07  0.3405436E+04  0.7818609E-02  0.8136574E-01
        1   -1    0    0  501    0  0.00000000000E+00  0.00000000000E+00  0.20192528122E+04  0.20192528122E+04  0.50400001928E-02 0.  1.
       -1   -1    0    0    0  501  0.00000000000E+00  0.00000000000E+00 -0.14358023975E+04  0.14358023975E+04  0.50400001928E-02 0. -1.
    10030    2    1    2    0    0  0.00000000000E+00  0.00000000000E+00  0.58345041464E+03  0.34550552097E+04  0.34054356720E+04 0.  0.
        4    1    3    3  502    0  0.14148264120E+04  0.91450620478E+03  0.40752651952E+02  0.16851462151E+04  0.12699999809E+01 0. -1.
       -4    1    3    3    0  502 -0.14148264120E+04 -0.91450620478E+03  0.54269776269E+03  0.17699089946E+04  0.12699999809E+01 0.  1.
</event>
<event>
 5   0  0.4381939E-07  0.3403249E+04  0.7818609E-02  0.8137109E-01
        2   -1    0    0  501    0  0.00000000000E+00  0.00000000000E+00  0.25535359990E+04  0.25535359990E+04  0.25500000920E-02 0.  1.
       -2   -1    0    0    0  501  0.00000000000E+00  0.00000000000E+00 -0.11339282889E+04  0.11339282889E+04  0.25500000920E-02 0. -1.
    10030    2    1    2    0    0  0.00000000000E+00  0.00000000000E+00  0.14196077101E+04  0.36874642879E+04  0.34032494507E+04 0.  0.
        3    1    3    3  502    0  0.16260456742E+04 -0.48125914056E+03  0.86262065158E+03  0.19025638737E+04  0.10100000352E+00 0. -1.
       -3    1    3    3    0  502 -0.16260456742E+04  0.48125914056E+03  0.55698705855E+03  0.17849004142E+04  0.10100000352E+00 0.  1.
</event>
<event>
 5   0  0.1435806E-07  0.3388778E+04  0.7818609E-02  0.8140666E-01
       -1   -1    0    0    0  501  0.00000000000E+00  0.00000000000E+00  0.13921565882E+04  0.13921565883E+04  0.50400001928E-02 0.  1.
        1   -1    0    0  501    0  0.00000000000E+00  0.00000000000E+00 -0.20622351463E+04  0.20622351463E+04  0.50400001928E-02 0. -1.
    10030    2    1    2    0    0  0.00000000000E+00  0.00000000000E+00 -0.67007855801E+03  0.34543917345E+04  0.33887780957E+04 0.  0.
        3    1    3    3  502    0  0.16058156227E+04 -0.37261406652E+03  0.64297250124E+02  0.16497330703E+04  0.10100000352E+00 0. -1.
       -3    1    3    3    0  502 -0.16058156227E+04  0.37261406652E+03 -0.73437580814E+03  0.18046586642E+04  0.10100000352E+00 0.  1.
</event>
<event>
 5   0  0.4486226E-07  0.3386224E+04  0.7818609E-02  0.8141296E-01
       -2   -1    0    0    0  501  0.00000000000E+00  0.00000000000E+00  0.12247473066E+04  0.12247473066E+04  0.25500000920E-02 0.  1.
        2   -1    0    0  501    0  0.00000000000E+00  0.00000000000E+00 -0.23405875199E+04  0.23405875199E+04  0.25500000920E-02 0. -1.
    10030    2    1    2    0    0  0.00000000000E+00  0.00000000000E+00 -0.11158402133E+04  0.35653348265E+04  0.33862240097E+04 0.  0.
        1    1    3    3  502    0  0.84340309469E+03  0.27642649137E+03  0.96017915803E+03  0.13075490051E+04  0.50400001928E-02 0.  1.
       -1    1    3    3    0  502 -0.84340309469E+03 -0.27642649137E+03 -0.20760193713E+04  0.22577858214E+04  0.50400001928E-02 0. -1.
</event>
<event>
 5   0  0.1523259E-07  0.3409130E+04  0.7818609E-02  0.8135669E-01
       -1   -1    0    0    0  501  0.00000000000E+00  0.00000000000E+00  0.18072469885E+04  0.18072469885E+04  0.50400001928E-02 0. -1.
        1   -1    0    0  501    0  0.00000000000E+00  0.00000000000E+00 -0.16077175378E+04  0.16077175379E+04  0.50400001928E-02 0.  1.
    10030    2    1    2    0    0  0.00000000000E+00  0.00000000000E+00  0.19952945068E+03  0.34149645264E+04  0.34091304925E+04 0.  0.
        4    1    3    3  502    0  0.38118259875E+03  0.14891830895E+04  0.83762190635E+03  0.17505937617E+04  0.12699999809E+01 0. -1.
       -4    1    3    3    0  502 -0.38118259875E+03 -0.14891830895E+04 -0.63809245567E+03  0.16643707647E+04  0.12699999809E+01 0.  1.
</event>
<event>
 5   0  0.4381939E-07  0.3409297E+04  0.7818609E-02  0.8135628E-01
       -2   -1    0    0    0  501  0.00000000000E+00  0.00000000000E+00  0.16549018309E+04  0.16549018309E+04  0.25500000920E-02 0.  1.
        2   -1    0    0  501    0  0.00000000000E+00  0.00000000000E+00 -0.17558904788E+04  0.17558904788E+04  0.25500000920E-02 0. -1.
    10030    2    1    2    0    0  0.00000000000E+00  0.00000000000E+00 -0.10098864794E+03  0.34107923097E+04  0.34092969177E+04 0.  0.
        3    1    3    3  502    0 -0.17784380614E+03  0.15766951157E+04 -0.67384903704E+03  0.17238527901E+04  0.10100000352E+00 0. -1.
       -3    1    3    3    0  502  0.17784380614E+03 -0.15766951157E+04  0.57286038910E+03  0.16869395196E+04  0.10100000352E+00 0.  1.
</event>
<event>
 5   0  0.1523259E-07  0.3393827E+04  0.7818609E-02  0.8139423E-01
       -1   -1    0    0    0  501  0.00000000000E+00  0.00000000000E+00  0.29997154156E+04  0.29997154156E+04  0.50400001928E-02 0.  1.
        1   -1    0    0  501    0  0.00000000000E+00  0.00000000000E+00 -0.95992970976E+03  0.95992970978E+03  0.50400001928E-02 0. -1.
    10030    2    1    2    0    0  0.00000000000E+00  0.00000000000E+00  0.20397857059E+04  0.39596451254E+04  0.33938273075E+04 0.  0.
        4    1    3    3  502    0 -0.13145876919E+04  0.99621140420E+03  0.14850269482E+04  0.22194333987E+04  0.12699999809E+01 0. -1.
       -4    1    3    3    0  502  0.13145876919E+04 -0.99621140420E+03  0.55475875770E+03  0.17402117267E+04  0.12699999809E+01 0.  1.
</event>
<event>
 5   0  0.1421875E-07  0.3409453E+04  0.7818609E-02  0.8135590E-01
       -3   -1    0    0    0  501  0.00000000000E+00  0.00000000000E+00  0.26553110697E+04  0.26553110716E+04  0.10100000352E+00 0.  1.
        3   -1    0    0  501    0  0.00000000000E+00  0.00000000000E+00 -0.10944451830E+04  0.10944451877E+04  0.10100000352E+00 0. -1.
    10030    2    1    2    0    0  0.00000000000E+00  0.00000000000E+00  0.15608658867E+04  0.37497562593E+04  0.34094529896E+04 0.  0.
        5    1    3    3  502    0 -0.16120896348E+04 -0.55040131145E+03  0.70834922086E+03  0.18448727065E+04  0.46999998093E+01 0. -1.
       -5    1    3    3    0  502  0.16120896348E+04  0.55040131145E+03  0.85251666580E+03  0.19048835528E+04  0.46999998093E+01 0.  1.
</event>
<event>
 5   0  0.1523259E-07  0.3381581E+04  0.7818609E-02  0.8142442E-01
       -1   -1    0    0    0  501  0.00000000000E+00  0.00000000000E+00  0.90115268623E+03  0.90115268624E+03  0.50400001928E-02 0. -1.
        1   -1    0    0  501    0  0.00000000000E+00  0.00000000000E+00 -0.31723511857E+04  0.31723511857E+04  0.50400001928E-02 0.  1.
    10030    2    1    2    0    0  0.00000000000E+00  0.00000000000E+00 -0.22711984994E+04  0.40735038719E+04  0.33815811643E+04 0.  0.
        4    1    3    3  502    0  0.43719901990E+03 -0.14105613584E+04 -0.14375038413E+03  0.14837426039E+04  0.12699999809E+01 0. -1.
       -4    1    3    3    0  502 -0.43719901990E+03  0.14105613584E+04 -0.21274481153E+04  0.25897612680E+04  0.12699999809E+01 0.  1.
</event>
<event>
 5   0  0.1421875E-07  0.3400312E+04  0.7818609E-02  0.8137830E-01
       -1   -1    0    0    0  501  0.00000000000E+00  0.00000000000E+00  0.11337486009E+04  0.11337486009E+04  0.50400001928E-02 0. -1.
        1   -1    0    0  501    0  0.00000000000E+00  0.00000000000E+00 -0.25495337582E+04  0.25495337582E+04  0.50400001928E-02 0.  1.
    10030    2    1    2    0    0  0.00000000000E+00  0.00000000000E+00 -0.14157851573E+04  0.36832823590E+04  0.34003119452E+04 0.  0.
        5    1    3    3  502    0  0.26379713690E+03 -0.13225630255E+04 -0.18292969883E+04  0.22726881544E+04  0.46999998093E+01 0.  1.
       -5    1    3    3    0  502 -0.26379713690E+03  0.13225630255E+04  0.41351183097E+03  0.14105942046E+04  0.46999998093E+01 0. -1.
</event>
<event>
 5   0  0.4396257E-07  0.3380481E+04  0.7818609E-02  0.8142714E-01
       -2   -1    0    0    0  501  0.00000000000E+00  0.00000000000E+00  0.10755123313E+04  0.10755123313E+04  0.25500000920E-02 0. -1.
        2   -1    0    0  501    0  0.00000000000E+00  0.00000000000E+00 -0.26563278207E+04  0.26563278207E+04  0.25500000920E-02 0.  1.
    10030    2    1    2    0    0  0.00000000000E+00  0.00000000000E+00 -0.15808154894E+04  0.37318401521E+04  0.33804812245E+04 0.  0.
        2    1    3    3  502    0  0.11502438487E+04 -0.51597881299E+03 -0.20333150817E+04  0.23924182888E+04  0.25500000920E-02 0.  1.
       -2    1    3    3    0  502 -0.11502438487E+04  0.51597881299E+03  0.45249959231E+03  0.13394218633E+04  0.25500000920E-02 0. -1.
</event>
<event>
 5   0  0.4521737E-07  0.3398692E+04  0.7818609E-02  0.8138228E-01
        2   -1    0    0  501    0  0.00000000000E+00  0.00000000000E+00  0.15409216080E+04  0.15409216080E+04  0.25500000920E-02 0.  1.
       -2   -1    0    0    0  501  0.00000000000E+00  0.00000000000E+00 -0.18740578517E+04  0.18740578517E+04  0.25500000920E-02 0. -1.
    10030    2    1    2    0    0  0.00000000000E+00  0.00000000000E+00 -0.33313624363E+03  0.34149794597E+04  0.33986916532E+04 0.  0.
        4    1    3    3  502    0  0.14388808229E+02  0.65497580946E+03  0.14089303912E+04  0.15537975444E+04  0.12699999809E+01 0.  1.
       -4    1    3    3    0  502 -0.14388808229E+02 -0.65497580946E+03 -0.17420666348E+04  0.18611819153E+04  0.12699999809E+01 0. -1.
</event>
<event>
 5   0  0.4447909E-07  0.3341764E+04  0.7818609E-02  0.8152349E-01
       -2   -1    0    0    0  501  0.00000000000E+00  0.00000000000E+00  0.15533961401E+04  0.15533961401E+04  0.25500000920E-02 0. -1.
        2   -1    0    0  501    0  0.00000000000E+00  0.00000000000E+00 -0.17972530773E+04  0.17972530773E+04  0.25500000920E-02 0.  1.
    10030    2    1    2    0    0  0.00000000000E+00  0.00000000000E+00 -0.24385693720E+03  0.33506492174E+04  0.33417636020E+04 0.  0.
        5    1    3    3  502    0  0.48934638053E+03  0.11596879834E+04 -0.12237077860E+04  0.17555110181E+04  0.46999998093E+01 0.  1.
       -5    1    3    3    0  502 -0.48934638053E+03 -0.11596879834E+04  0.97985084877E+03  0.15951381993E+04  0.46999998093E+01 0. -1.
</event>
<event>
 5   0  0.4447909E-07  0.3399720E+04  0.7818609E-02  0.8137975E-01
        2   -1    0    0  501    0  0.00000000000E+00  0.00000000000E+00  0.25780395251E+04  0.25780395251E+04  0.25500000920E-02 0. -1.
       -2   -1    0    0    0  501  0.00000000000E+00  0.00000000000E+00 -0.11208219635E+04  0.11208219635E+04  0.25500000920E-02 0.  1.
    10030    2    1    2    0    0  0.00000000000E+00  0.00000000000E+00  0.14572175616E+04  0.36988614886E+04  0.33997195899E+04 0.  0.
        5    1    3    3  502    0  0.14141108776E+04 -0.56790970272E+03 -0.90836514887E+02  0.15265989542E+04  0.46999998093E+01 0.  1.
       -5    1    3    3    0  502 -0.14141108776E+04  0.56790970272E+03  0.15480540765E+04  0.21722625344E+04  0.46999998093E+01 0. -1.
</event>
<event>
 5   0  0.1523259E-07  0.3380786E+04  0.7818609E-02  0.8142638E-01
        1   -1    0    0  501    0  0.00000000000E+00  0.00000000000E+00  0.27237388693E+04  0.27237388693E+04  0.50400001928E-02 0.  1.
       -1   -1    0    0    0  501  0.00000000000E+00  0.00000000000E+00 -0.10490834213E+04  0.10490834213E+04  0.50400001928E-02 0. -1.
    10030    2    1    2    0    0  0.00000000000E+00  0.00000000000E+00  0.16746554479E+04  0.37728222906E+04  0.33807864717E+04 0.  0.
        4    1    3    3  502    0  0.52700592894E+03 -0.63043664044E+03 -0.81121447911E+03  0.11546671169E+04  0.12699999809E+01 0. -1.
       -4    1    3    3    0  502 -0.52700592894E+03  0.63043664044E+03  0.24858699271E+04  0.26181551738E+04  0.12699999809E+01 0.  1.
</event>
<event>
 5   0  0.1473755E-07  0.3408106E+04  0.7818609E-02  0.8135920E-01
        1   -1    0    0  501    0  0.00000000000E+00  0.00000000000E+00  0.11267593158E+04  0.11267593158E+04  0.50400001928E-02 0. -1.
       -1   -1    0    0    0  501  0.00000000000E+00  0.00000000000E+00 -0.25771229171E+04  0.25771229171E+04  0.50400001928E-02 0.  1.
    10030    2    1    2    0    0  0.00000000000E+00  0.00000000000E+00 -0.14503636014E+04  0.37038822329E+04  0.34081063685E+04 0.  0.
        1    1    3    3  502    0 -0.68279046579E+03  0.14618862252E+04 -0.12944551447E+03  0.16186631202E+04  0.50400001928E-02 0. -1.
       -1    1    3    3    0  502  0.68279046579E+03 -0.14618862252E+04 -0.13209180869E+04  0.20852191127E+04  0.50400001928E-02 0.  1.
</event>
<event>
 5   0  0.4381939E-07  0.3415251E+04  0.7818609E-02  0.8134173E-01
       -2   -1    0    0    0  501  0.00000000000E+00  0.00000000000E+00  0.11148142636E+04  0.11148142636E+04  0.25500000920E-02 0. -1.
        2   -1    0    0  501    0  0.00000000000E+00  0.00000000000E+00 -0.26156690181E+04  0.26156690181E+04  0.25500000920E-02 0.  1.
    10030    2    1    2    0    0  0.00000000000E+00  0.00000000000E+00 -0.15008547545E+04  0.37304832818E+04  0.34152511652E+04 0.  0.
        3    1    3    3  502    0 -0.14652136589E+03  0.34691795557E+03  0.10688903785E+04  0.11332904438E+04  0.10100000352E+00 0. -1.
       -3    1    3    3    0  502  0.14652136589E+03 -0.34691795557E+03 -0.25697451330E+04  0.25971928379E+04  0.10100000352E+00 0.  1.
</event>
<event>
 5   0  0.4486226E-07  0.3421776E+04  0.7818609E-02  0.8132582E-01
       -2   -1    0    0    0  501  0.00000000000E+00  0.00000000000E+00  0.18333692061E+04  0.18333692061E+04  0.25500000920E-02 0.  1.
        2   -1    0    0  501    0  0.00000000000E+00  0.00000000000E+00 -0.15965894845E+04  0.15965894846E+04  0.25500000920E-02 0. -1.
    10030    2    1    2    0    0  0.00000000000E+00  0.00000000000E+00  0.23677972157E+03  0.34299586907E+04  0.34217761445E+04 0.  0.
        1    1    3    3  502    0  0.40381031943E+03  0.33907130735E+03  0.17498893902E+04  0.18276063590E+04  0.50400001928E-02 0.  1.
       -1    1    3    3    0  502 -0.40381031943E+03 -0.33907130735E+03 -0.15131096686E+04  0.16023523317E+04  0.50400001928E-02 0. -1.
</event>
<event>
 5   0  0.4447909E-07  0.3379175E+04  0.7818609E-02  0.8143036E-01
       -2   -1    0    0    0  501  0.00000000000E+00  0.00000000000E+00  0.15709833842E+04  0.15709833842E+04  0.25500000920E-02 0. -1.
        2   -1    0    0  501    0  0.00000000000E+00  0.00000000000E+00 -0.18171463359E+04  0.18171463359E+04  0.25500000920E-02 0.  1.
    10030    2    1    2    0    0  0.00000000000E+00  0.00000000000E+00 -0.24616295169E+03  0.33881297202E+04  0.33791754618E+04 0.  0.
        5    1    3    3  502    0 -0.12803921309E+04  0.37988843560E+03  0.91453534245E+03  0.16186773042E+04  0.46999998093E+01 0. -1.
       -5    1    3    3    0  502  0.12803921309E+04 -0.37988843560E+03 -0.11606982941E+04  0.17694524160E+04  0.46999998093E+01 0.  1.
</event>
<event>
 5   0  0.1435806E-07  0.3434365E+04  0.7818609E-02  0.8129523E-01
       -1   -1    0    0    0  501  0.00000000000E+00  0.00000000000E+00  0.14535278983E+04  0.14535278983E+04  0.50400001928E-02 0. -1.
        1   -1    0    0  501    0  0.00000000000E+00  0.00000000000E+00 -0.20286608368E+04  0.20286608368E+04  0.50400001928E-02 0.  1.
    10030    2    1    2    0    0  0.00000000000E+00  0.00000000000E+00 -0.57513293847E+03  0.34821887351E+04  0.34343646414E+04 0.  0.
        3    1    3    3  502    0  0.57765519164E+03 -0.10394441470E+04 -0.15436006009E+04  0.19485462479E+04  0.10100000352E+00 0.  1.
       -3    1    3    3    0  502 -0.57765519164E+03  0.10394441470E+04  0.96846766242E+03  0.15336424872E+04  0.10100000352E+00 0. -1.
</event>
<event>
 5   0  0.4396257E-07  0.3382930E+04  0.7818609E-02  0.8142109E-01
       -2   -1    0    0    0  501  0.00000000000E+00  0.00000000000E+00  0.12762254570E+04  0.12762254570E+04  0.25500000920E-02 0.  1.
        2   -1    0    0  501    0  0.00000000000E+00  0.00000000000E+00 -0.22418086039E+04  0.22418086039E+04  0.25500000920E-02 0. -1.
    10030    2    1    2    0    0  0.00000000000E+00  0.00000000000E+00 -0.96558314692E+03  0.35180340609E+04  0.33829296239E+04 0.  0.
        2    1    3    3  502    0 -0.16476233902E+03 -0.63599157685E+02 -0.22321938392E+04  0.22391696713E+04  0.25500000920E-02 0. -1.
       -2    1    3    3    0  502  0.16476233902E+03  0.63599157685E+02  0.12666106923E+04  0.12788643896E+04  0.25500000920E-02 0.  1.
</event>
<event>
 5   0  0.1473755E-07  0.3400890E+04  0.7818609E-02  0.8137688E-01
       -1   -1    0    0    0  501  0.00000000000E+00  0.00000000000E+00  0.15771765320E+04  0.15771765321E+04  0.50400001928E-02 0. -1.
        1   -1    0    0  501    0  0.00000000000E+00  0.00000000000E+00 -0.18333481239E+04  0.18333481239E+04  0.50400001928E-02 0.  1.
    10030    2    1    2    0    0  0.00000000000E+00  0.00000000000E+00 -0.25617159185E+03  0.34105246560E+04  0.34008902576E+04 0.  0.
        1    1    3    3  502    0  0.11121383009E+03  0.12827514111E+04 -0.12419501113E+04  0.17889269906E+04  0.50400001928E-02 0.  1.
       -1    1    3    3    0  502 -0.11121383009E+03 -0.12827514111E+04  0.98577851948E+03  0.16215976653E+04  0.50400001928E-02 0. -1.
</event>
<event>
 5   0  0.4381939E-07  0.3410589E+04  0.7818609E-02  0.8135312E-01
        2   -1    0    0  501    0  0.00000000000E+00  0.00000000000E+00  0.22595984756E+04  0.22595984756E+04  0.25500000920E-02 0.  1.
       -2   -1    0    0    0  501  0.00000000000E+00  0.00000000000E+00 -0.12869669360E+04  0.12869669360E+04  0.25500000920E-02 0. -1.
    10030    2    1    2    0    0  0.00000000000E+00  0.00000000000E+00  0.97263153960E+03  0.35465654116E+04  0.34105885279E+04 0.  0.
        3    1    3    3  502    0 -0.28525063820E+03 -0.85928309334E+03  0.19890230133E+04  0.21853942250E+04  0.10100000352E+00 0.  1.
       -3    1    3    3    0  502  0.28525063820E+03  0.85928309334E+03 -0.10163914737E+04  0.13611711865E+04  0.10100000352E+00 0. -1.
</event>
<event>
 5   0  0.4396257E-07  0.3397758E+04  0.7818609E-02  0.8138457E-01
        2   -1    0    0  501    0  0.00000000000E+00  0.00000000000E+00  0.18658297228E+04  0.18658297228E+04  0.25500000920E-02 0.  1.
       -2   -1    0    0    0  501  0.00000000000E+00  0.00000000000E+00 -0.15468670057E+04  0.15468670057E+04  0.25500000920E-02 0. -1.
    10030    2    1    2    0    0  0.00000000000E+00  0.00000000000E+00  0.31896271713E+03  0.34126967285E+04  0.33977583413E+04 0.  0.
        2    1    3    3  502    0 -0.10934141498E+04  0.13002438012E+04  0.15806417370E+03  0.17062159091E+04  0.25500000920E-02 0.  1.
       -2    1    3    3    0  502  0.10934141498E+04 -0.13002438012E+04  0.16089854343E+03  0.17064808194E+04  0.25500000920E-02 0. -1.
</event>
<event>
 5   0  0.1435806E-07  0.3405545E+04  0.7818609E-02  0.8136547E-01
        1   -1    0    0  501    0  0.00000000000E+00  0.00000000000E+00  0.15161631239E+04  0.15161631239E+04  0.50400001928E-02 0. -1.
       -1   -1    0    0    0  501  0.00000000000E+00  0.00000000000E+00 -0.19123499377E+04  0.19123499377E+04  0.50400001928E-02 0.  1.
    10030    2    1    2    0    0  0.00000000000E+00  0.00000000000E+00 -0.39618681380E+03  0.34285130615E+04  0.34055451578E+04 0.  0.
        3    1    3    3  502    0 -0.41074733475E+02  0.16945029364E+04 -0.36169201455E+03  0.17331614058E+04  0.10100000352E+00 0. -1.
       -3    1    3    3    0  502  0.41074733475E+02 -0.16945029364E+04 -0.34494799250E+02  0.16953516557E+04  0.10100000352E+00 0.  1.
</event>
<event>
 5   0  0.4447909E-07  0.3404931E+04  0.7818609E-02  0.8136697E-01
        2   -1    0    0  501    0  0.00000000000E+00  0.00000000000E+00  0.95460604723E+03  0.95460604724E+03  0.25500000920E-02 0.  1.
       -2   -1    0    0    0  501  0.00000000000E+00  0.00000000000E+00 -0.30362147718E+04  0.30362147718E+04  0.25500000920E-02 0. -1.
    10030    2    1    2    0    0  0.00000000000E+00  0.00000000000E+00 -0.20816087246E+04  0.39908208190E+04  0.34049311193E+04 0.  0.
        5    1    3    3  502    0 -0.10834990181E+03  0.89901122255E+03 -0.27305412829E+04  0.28767757415E+04  0.46999998093E+01 0. -1.
       -5    1    3    3    0  502  0.10834990181E+03 -0.89901122255E+03  0.64893255832E+03  0.11140450775E+04  0.46999998093E+01 0.  1.
</event>
<event>
 5   0  0.4396257E-07  0.3396728E+04  0.7818609E-02  0.8138710E-01
        2   -1    0    0  501    0  0.00000000000E+00  0.00000000000E+00  0.17523332262E+04  0.17523332262E+04  0.25500000920E-02 0.  1.
       -2   -1    0    0    0  501  0.00000000000E+00  0.00000000000E+00 -0.16460571771E+04  0.16460571771E+04  0.25500000920E-02 0. -1.
    10030    2    1    2    0    0  0.00000000000E+00  0.00000000000E+00  0.10627604912E+03  0.33983904033E+04  0.33967282397E+04 0.  0.
        2    1    3    3  502    0 -0.14414158806E+04  0.22976477272E+03 -0.81560081467E+03  0.16720275956E+04  0.25500000920E-02 0. -1.
       -2    1    3    3    0  502  0.14414158806E+04 -0.22976477272E+03  0.92187686379E+03  0.17263628076E+04  0.25500000920E-02 0.  1.
</event>
<event>
 5   0  0.4447909E-07  0.3397390E+04  0.7818609E-02  0.8138547E-01
        2   -1    0    0  501    0  0.00000000000E+00  0.00000000000E+00  0.15698696033E+04  0.15698696033E+04  0.25500000920E-02 0. -1.
       -2   -1    0    0    0  501  0.00000000000E+00  0.00000000000E+00 -0.18380923757E+04  0.18380923757E+04  0.25500000920E-02 0.  1.
    10030    2    1    2    0    0  0.00000000000E+00  0.00000000000E+00 -0.26822277240E+03  0.34079619790E+04  0.33973903801E+04 0.  0.
        5    1    3    3  502    0  0.11547978749E+02 -0.11825241224E+04 -0.13573511150E+04  0.18002557583E+04  0.46999998093E+01 0.  1.
       -5    1    3    3    0  502 -0.11547978749E+02  0.11825241224E+04  0.10891283426E+04  0.16077062208E+04  0.46999998093E+01 0. -1.
</event>
<event>
 5   0  0.1473755E-07  0.3393400E+04  0.7818609E-02  0.8139528E-01
       -1   -1    0    0    0  501  0.00000000000E+00  0.00000000000E+00  0.14361639381E+04  0.14361639381E+04  0.50400001928E-02 0.  1.
        1   -1    0    0  501    0  0.00000000000E+00  0.00000000000E+00 -0.20045006536E+04  0.20045006536E+04  0.50400001928E-02 0. -1.
    10030    2    1    2    0    0  0.00000000000E+00  0.00000000000E+00 -0.56833671548E+03  0.34406645917E+04  0.33934003905E+04 0.  0.
        1    1    3    3  502    0  0.15242141243E+04  0.70325364079E+03 -0.33752351475E+02  0.16789680167E+04  0.50400001928E-02 0.  1.
       -1    1    3    3    0  502 -0.15242141243E+04 -0.70325364079E+03 -0.53458436400E+03  0.17616965750E+04  0.50400001928E-02 0. -1.
</event>
<event>
 5   0  0.4521737E-07  0.3414403E+04  0.7818609E-02  0.8134380E-01
        2   -1    0    0  501    0  0.00000000000E+00  0.00000000000E+00  0.19559139834E+04  0.19559139834E+04  0.25500000920E-02 0.  1.
       -2   -1    0    0    0  501  0.00000000000E+00  0.00000000000E+00 -0.14901149531E+04  0.14901149531E+04  0.25500000920E-02 0. -1.
    10030    2    1    2    0    0  0.00000000000E+00  0.00000000000E+00  0.46579903033E+03  0.34460289364E+04  0.34144028313E+04 0.  0.
        4    1    3    3  502    0  0.11321740588E+04 -0.12772619393E+04  0.26955255895E+03  0.17279688527E+04  0.12699999809E+01 0. -1.
       -4    1    3    3    0  502 -0.11321740588E+04  0.12772619393E+04  0.19624647138E+03  0.17180600838E+04  0.12699999809E+01 0.  1.
</event>
<event>
 5   0  0.4381939E-07  0.3388573E+04  0.7818609E-02  0.8140717E-01
       -2   -1    0    0    0  501  0.00000000000E+00  0.00000000000E+00  0.29292441561E+04  0.29292441561E+04  0.25500000920E-02 0.  1.
        2   -1    0    0  501    0  0.00000000000E+00  0.00000000000E+00 -0.97998222609E+03  0.97998222609E+03  0.25500000920E-02 0. -1.
    10030    2    1    2    0    0  0.00000000000E+00  0.00000000000E+00  0.19492619300E+04  0.39092263822E+04  0.33885732743E+04 0.  0.
        3    1    3    3  502    0  0.97087615736E+03 -0.10976858579E+04  0.19556351299E+04  0.24437723967E+04  0.10100000352E+00 0.  1.
       -3    1    3    3    0  502 -0.97087615736E+03  0.10976858579E+04 -0.63731998779E+01  0.14654539855E+04  0.10100000352E+00 0. -1.
</event>
<event>
 5   0  0.4447909E-07  0.3389582E+04  0.7818609E-02  0.8140468E-01
       -2   -1    0    0    0  501  0.00000000000E+00  0.00000000000E+00  0.11769072897E+04  0.11769072898E+04  0.25500000920E-02 0. -1.
        2   -1    0    0  501    0  0.00000000000E+00  0.00000000000E+00 -0.24405635884E+04  0.24405635884E+04  0.25500000920E-02 0.  1.
    10030    2    1    2    0    0  0.00000000000E+00  0.00000000000E+00 -0.12636562987E+04  0.36174708782E+04  0.33895823214E+04 0.  0.
        5    1    3    3  502    0 -0.63151580610E+03 -0.12951285788E+04 -0.15840747205E+04  0.21413745724E+04  0.46999998093E+01 0.  1.
       -5    1    3    3    0  502  0.63151580610E+03  0.12951285788E+04  0.32041842181E+03  0.14760963058E+04  0.46999998093E+01 0. -1.
</event>
<event>
 5   0  0.4381939E-07  0.3396353E+04  0.7818609E-02  0.8138802E-01
       -2   -1    0    0    0  501  0.00000000000E+00  0.00000000000E+00  0.13390308517E+04  0.13390308517E+04  0.25500000920E-02 0.  1.
        2   -1    0    0  501    0  0.00000000000E+00  0.00000000000E+00 -0.21536497614E+04  0.21536497614E+04  0.25500000920E-02 0. -1.
    10030    2    1    2    0    0  0.00000000000E+00  0.00000000000E+00 -0.81461890967E+03  0.34926806132E+04  0.33963530290E+04 0.  0.
        3    1    3    3  502    0  0.77332691240E+03  0.12818898196E+04  0.41700304915E+03  0.15540809426E+04  0.10100000352E+00 0.  1.
       -3    1    3    3    0  502 -0.77332691240E+03 -0.12818898196E+04 -0.12316219588E+04  0.19385996705E+04  0.10100000352E+00 0. -1.
</event>
<event>
 5   0  0.1435806E-07  0.3401323E+04  0.7818609E-02  0.8137582E-01
        1   -1    0    0  501    0  0.00000000000E+00  0.00000000000E+00  0.21461580922E+04  0.21461580922E+04  0.50400001928E-02 0.  1.
       -1   -1    0    0    0  501  0.00000000000E+00  0.00000000000E+00 -0.13476405092E+04  0.13476405092E+04  0.50400001928E-02 0. -1.
    10030    2    1    2    0    0  0.00000000000E+00  0.00000000000E+00  0.79851758303E+03  0.34937986014E+04  0.34013230274E+04 0.  0.
        3    1    3    3  502    0  0.12008102914E+04  0.51144523081E+03 -0.72067212143E+03  0.14909359131E+04  0.10100000352E+00 0. -1.
       -3    1    3    3    0  502 -0.12008102914E+04 -0.51144523081E+03  0.15191897045E+04  0.20028626884E+04  0.10100000352E+00 0.  1.
</event>
<event>
 5   0  0.1435806E-07  0.3393914E+04  0.7818609E-02  0.8139402E-01
        1   -1    0    0  501    0  0.00000000000E+00  0.00000000000E+00  0.10287443960E+04  0.10287443960E+04  0.50400001928E-02 0. -1.
       -1   -1    0    0    0  501  0.00000000000E+00  0.00000000000E+00 -0.27992017688E+04  0.27992017688E+04  0.50400001928E-02 0.  1.
    10030    2    1    2    0    0  0.00000000000E+00  0.00000000000E+00 -0.17704573728E+04  0.38279461648E+04  0.33939140431E+04 0.  0.
        3    1    3    3  502    0 -0.10294611504E+04 -0.54904988884E+01  0.63630618424E+03  0.12102503774E+04  0.10100000352E+00 0. -1.
       -3    1    3    3    0  502  0.10294611504E+04  0.54904988884E+01 -0.24067635570E+04  0.26176957874E+04  0.10100000352E+00 0.  1.
</event>
<event>
 5   0  0.4521737E-07  0.3397410E+04  0.7818609E-02  0.8138542E-01
       -2   -1    0    0    0  501  0.00000000000E+00  0.00000000000E+00  0.13481756240E+04  0.13481756240E+04  0.25500000920E-02 0.  1.
        2   -1    0    0  501    0  0.00000000000E+00  0.00000000000E+00 -0.21403733787E+04  0.21403733787E+04  0.25500000920E-02 0. -1.
    10030    2    1    2    0    0  0.00000000000E+00  0.00000000000E+00 -0.79219775460E+03  0.34885490027E+04  0.33974103170E+04 0.  0.
        4    1    3    3  502    0 -0.80590851183E+03  0.10899833984E+04 -0.14473024941E+04  0.19829872568E+04  0.12699999809E+01 0. -1.
       -4    1    3    3    0  502  0.80590851183E+03 -0.10899833984E+04  0.65510473950E+03  0.15055617459E+04  0.12699999809E+01 0.  1.
</event>
<event>
 5   0  0.1421875E-07  0.3462057E+04  0.7818609E-02  0.8122841E-01
       -1   -1    0    0    0  501  0.00000000000E+00  0.00000000000E+00  0.13697619436E+04  0.13697619436E+04  0.50400001928E-02 0.  1.
        1   -1    0    0  501    0  0.00000000000E+00  0.00000000000E+00 -0.21875770128E+04  0.21875770128E+04  0.50400001928E-02 0. -1.
    10030    2    1    2    0    0  0.00000000000E+00  0.00000000000E+00 -0.81781506924E+03  0.35573389564E+04  0.34620570422E+04 0.  0.
        5    1    3    3  502    0 -0.14228778084E+04 -0.85018211681E+03  0.10387293820E+03  0.16607837206E+04  0.46999998093E+01 0.  1.
       -5    1    3    3    0  502  0.14228778084E+04  0.85018211681E+03 -0.92168800744E+03  0.18965552358E+04  0.46999998093E+01 0. -1.
</event>
<event>
 5   0  0.1421875E-07  0.3422656E+04  0.7818609E-02  0.8132368E-01
       -1   -1    0    0    0  501  0.00000000000E+00  0.00000000000E+00  0.12516882159E+04  0.12516882159E+04  0.50400001928E-02 0.  1.
        1   -1    0    0  501    0  0.00000000000E+00  0.00000000000E+00 -0.23397545261E+04  0.23397545261E+04  0.50400001928E-02 0. -1.
    10030    2    1    2    0    0  0.00000000000E+00  0.00000000000E+00 -0.10880663102E+04  0.35914427421E+04  0.34226557925E+04 0.  0.
        5    1    3    3  502    0  0.11698665199E+04  0.11633924064E+04 -0.10209250174E+04  0.19402009037E+04  0.46999998093E+01 0.  1.
       -5    1    3    3    0  502 -0.11698665199E+04 -0.11633924064E+04 -0.67141292758E+02  0.16512418384E+04  0.46999998093E+01 0. -1.
</event>
<event>
 5   0  0.1435806E-07  0.3391835E+04  0.7818609E-02  0.8139913E-01
       -1   -1    0    0    0  501  0.00000000000E+00  0.00000000000E+00  0.19642697364E+04  0.19642697364E+04  0.50400001928E-02 0.  1.
        1   -1    0    0  501    0  0.00000000000E+00  0.00000000000E+00 -0.14642269685E+04  0.14642269685E+04  0.50400001928E-02 0. -1.
    10030    2    1    2    0    0  0.00000000000E+00  0.00000000000E+00  0.50004276796E+03  0.34284967049E+04  0.33918353271E+04 0.  0.
        3    1    3    3  502    0  0.16152219465E+04 -0.28620679935E+03 -0.18507329028E+03  0.16507902354E+04  0.10100000352E+00 0. -1.
       -3    1    3    3    0  502 -0.16152219465E+04  0.28620679935E+03  0.68511605824E+03  0.17777064695E+04  0.10100000352E+00 0.  1.
</event>
<event>
 5   0  0.4486226E-07  0.3404798E+04  0.7818609E-02  0.8136730E-01
        2   -1    0    0  501    0  0.00000000000E+00  0.00000000000E+00  0.16425453802E+04  0.16425453802E+04  0.25500000920E-02 0.  1.
       -2   -1    0    0    0  501  0.00000000000E+00  0.00000000000E+00 -0.17644340010E+04  0.17644340010E+04  0.25500000920E-02 0. -1.
    10030    2    1    2    0    0  0.00000000000E+00  0.00000000000E+00 -0.12188862078E+03  0.34069793812E+04  0.34047983300E+04 0.  0.
        1    1    3    3  502    0 -0.11540022090E+04  0.58681595140E+03 -0.11671337402E+04  0.17430648946E+04  0.50400001928E-02 0. -1.
       -1    1    3    3    0  502  0.11540022090E+04 -0.58681595140E+03  0.10452451194E+04  0.16639144866E+04  0.50400001928E-02 0.  1.
</event>
<event>
 5   0  0.1520084E-07  0.3405097E+04  0.7818609E-02  0.8136657E-01
        1   -1    0    0  501    0  0.00000000000E+00  0.00000000000E+00  0.19483743561E+04  0.19483743561E+04  0.50400001928E-02 0. -1.
       -1   -1    0    0    0  501  0.00000000000E+00  0.00000000000E+00 -0.14877382128E+04  0.14877382128E+04  0.50400001928E-02 0.  1.
    10030    2    1    2    0    0  0.00000000000E+00  0.00000000000E+00  0.46063614334E+03  0.34361125689E+04  0.34050967578E+04 0.  0.
        2    1    3    3  502    0  0.74675108529E+02  0.77204491093E+03  0.17597224341E+04  0.19230841795E+04  0.25500000920E-02 0. -1.
       -2    1    3    3    0  502 -0.74675108529E+02 -0.77204491093E+03 -0.12990862908E+04  0.15130283894E+04  0.25500000920E-02 0.  1.
</event>
<event>
 5   0  0.1435806E-07  0.3387706E+04  0.7818609E-02  0.8140930E-01
        1   -1    0    0  501    0  0.00000000000E+00  0.00000000000E+00  0.16374217620E+04  0.16374217620E+04  0.50400001928E-02 0.  1.
       -1   -1    0    0    0  501  0.00000000000E+00  0.00000000000E+00 -0.17522289537E+04  0.17522289537E+04  0.50400001928E-02 0. -1.
    10030    2    1    2    0    0  0.00000000000E+00  0.00000000000E+00 -0.11480719171E+03  0.33896507156E+04  0.33877059026E+04 0.  0.
        3    1    3    3  502    0 -0.33613746517E+03 -0.15577075075E+04 -0.63192547452E+03  0.17142843667E+04  0.10100000352E+00 0.  1.
       -3    1    3    3    0  502  0.33613746517E+03  0.15577075075E+04  0.51711828281E+03  0.16753663489E+04  0.10100000352E+00 0. -1.
</event>
<event>
 5   0  0.1520084E-07  0.3389521E+04  0.7818609E-02  0.8140483E-01
       -1   -1    0    0    0  501  0.00000000000E+00  0.00000000000E+00  0.14786583912E+04  0.14786583912E+04  0.50400001928E-02 0. -1.
        1   -1    0    0  501    0  0.00000000000E+00  0.00000000000E+00 -0.19424450489E+04  0.19424450490E+04  0.50400001928E-02 0.  1.
    10030    2    1    2    0    0  0.00000000000E+00  0.00000000000E+00 -0.46378665771E+03  0.34211034402E+04  0.33895207161E+04 0.  0.
        2    1    3    3  502    0 -0.32795260170E+02 -0.16484903195E+04 -0.62748513004E+03  0.17641806742E+04  0.25500000920E-02 0. -1.
       -2    1    3    3    0  502  0.32795260170E+02  0.16484903195E+04  0.16369847232E+03  0.16569227660E+04  0.25500000920E-02 0.  1.
</event>
<event>
 5   0  0.1435806E-07  0.3385640E+04  0.7818609E-02  0.8141440E-01
        1   -1    0    0  501    0  0.00000000000E+00  0.00000000000E+00  0.15831853565E+04  0.15831853566E+04  0.50400001928E-02 0. -1.
       -1   -1    0    0    0  501  0.00000000000E+00  0.00000000000E+00 -0.18100468383E+04  0.18100468383E+04  0.50400001928E-02 0.  1.
    10030    2    1    2    0    0  0.00000000000E+00  0.00000000000E+00 -0.22686148175E+03  0.33932321949E+04  0.33856400571E+04 0.  0.
        3    1    3    3  502    0 -0.45170715107E+03 -0.12641964529E+04  0.92009828493E+03  0.16275173996E+04  0.10100000352E+00 0. -1.
       -3    1    3    3    0  502  0.45170715107E+03  0.12641964529E+04 -0.11469597667E+04  0.17657147953E+04  0.10100000352E+00 0.  1.
</event>
<event>
 5   0  0.4447909E-07  0.3432586E+04  0.7818609E-02  0.8129955E-01
       -2   -1    0    0    0  501  0.00000000000E+00  0.00000000000E+00  0.16010188049E+04  0.16010188049E+04  0.25500000920E-02 0.  1.
        2   -1    0    0  501    0  0.00000000000E+00  0.00000000000E+00 -0.18398664783E+04  0.18398664783E+04  0.25500000920E-02 0. -1.
    10030    2    1    2    0    0  0.00000000000E+00  0.00000000000E+00 -0.23884767337E+03  0.34408852832E+04  0.34325855154E+04 0.  0.
        5    1    3    3  502    0  0.14978639123E+04 -0.65440567996E+03 -0.64394389089E+03  0.17568519910E+04  0.46999998093E+01 0. -1.
       -5    1    3    3    0  502 -0.14978639123E+04  0.65440567996E+03  0.40509621752E+03  0.16840332922E+04  0.46999998093E+01 0.  1.
</event>
<event>
 5   0  0.4486226E-07  0.3404099E+04  0.7818609E-02  0.8136901E-01
       -2   -1    0    0    0  501  0.00000000000E+00  0.00000000000E+00  0.11060956972E+04  0.11060956972E+04  0.25500000920E-02 0.  1.
        2   -1    0    0  501    0  0.00000000000E+00  0.00000000000E+00 -0.26190977747E+04  0.26190977747E+04  0.25500000920E-02 0. -1.
    10030    2    1    2    0    0  0.00000000000E+00  0.00000000000E+00 -0.15130020775E+04  0.37251934718E+04  0.34040991637E+04 0.  0.
        1    1    3    3  502    0 -0.86479098501E+02  0.10589308951E+04 -0.22116496534E+04  0.24536111071E+04  0.50400001928E-02 0. -1.
       -1    1    3    3    0  502  0.86479098501E+02 -0.10589308951E+04  0.69864757590E+03  0.12715823648E+04  0.50400001928E-02 0.  1.
</event>
<event>
 5   0  0.1473755E-07  0.3426573E+04  0.7818609E-02  0.8131415E-01
        1   -1    0    0  501    0  0.00000000000E+00  0.00000000000E+00  0.17941159618E+04  0.17941159618E+04  0.50400001928E-02 0. -1.
       -1   -1    0    0    0  501  0.00000000000E+00  0.00000000000E+00 -0.16360984775E+04  0.16360984775E+04  0.50400001928E-02 0.  1.
    10030    2    1    2    0    0  0.00000000000E+00  0.00000000000E+00  0.15801748430E+03  0.34302144393E+04  0.34265728614E+04 0.  0.
        1    1    3    3  502    0 -0.47251352427E+03 -0.10695995079E+04  0.13325528701E+04  0.17728534315E+04  0.50400001928E-02 0.  1.
       -1    1    3    3    0  502  0.47251352427E+03  0.10695995079E+04 -0.11745353858E+04  0.16573610079E+04  0.50400001928E-02 0. -1.
</event>
<event>
 5   0  0.4396257E-07  0.3400125E+04  0.7818609E-02  0.8137876E-01
       -2   -1    0    0    0  501  0.00000000000E+00  0.00000000000E+00  0.28522804618E+04  0.28522804618E+04  0.25500000920E-02 0. -1.
        2   -1    0    0  501    0  0.00000000000E+00  0.00000000000E+00 -0.10132989248E+04  0.10132989248E+04  0.25500000920E-02 0.  1.
    10030    2    1    2    0    0  0.00000000000E+00  0.00000000000E+00  0.18389815369E+04  0.38655793866E+04  0.34001251302E+04 0.  0.
        2    1    3    3  502    0  0.29584506955E+03 -0.39418940407E+03 -0.93029542453E+03  0.10527863831E+04  0.25500000920E-02 0.  1.
       -2    1    3    3    0  502 -0.29584506955E+03  0.39418940407E+03  0.27692769615E+04  0.28127930035E+04  0.25500000920E-02 0. -1.
</event>
<event>
 5   0  0.4447909E-07  0.3404654E+04  0.7818609E-02  0.8136765E-01
       -2   -1    0    0    0  501  0.00000000000E+00  0.00000000000E+00  0.15435291432E+04  0.15435291432E+04  0.25500000920E-02 0.  1.
        2   -1    0    0  501    0  0.00000000000E+00  0.00000000000E+00 -0.18774616127E+04  0.18774616127E+04  0.25500000920E-02 0. -1.
    10030    2    1    2    0    0  0.00000000000E+00  0.00000000000E+00 -0.33393246952E+03  0.34209907559E+04  0.34046537060E+04 0.  0.
        5    1    3    3  502    0 -0.74931978819E+03  0.25084073365E+03 -0.16820121838E+04  0.18583832477E+04  0.46999998093E+01 0. -1.
       -5    1    3    3    0  502  0.74931978819E+03 -0.25084073365E+03  0.13480797143E+04  0.15626075082E+04  0.46999998093E+01 0.  1.
</event>
<event>
 5   0  0.1520084E-07  0.3353040E+04  0.7818609E-02  0.8149529E-01
       -1   -1    0    0    0  501  0.00000000000E+00  0.00000000000E+00  0.32481020278E+04  0.32481020278E+04  0.50400001928E-02 0.  1.
        1   -1    0    0  501    0  0.00000000000E+00  0.00000000000E+00 -0.86534198256E+03  0.86534198257E+03  0.50400001928E-02 0. -1.
    10030    2    1    2    0    0  0.00000000000E+00  0.00000000000E+00  0.23827600452E+04  0.41134440104E+04  0.33530398437E+04 0.  0.
        2    1    3    3  502    0 -0.10481566049E+04 -0.11435274728E+04  0.41120962079E+03  0.16047992715E+04  0.25500000920E-02 0. -1.
       -2    1    3    3    0  502  0.10481566049E+04  0.11435274728E+04  0.19715504244E+04  0.25086447389E+04  0.25500000920E-02 0.  1.
</event>
<event>
 5   0  0.4396257E-07  0.3395506E+04  0.7818609E-02  0.8139010E-01
       -2   -1    0    0    0  501  0.00000000000E+00  0.00000000000E+00  0.18421400511E+04  0.18421400511E+04  0.25500000920E-02 0. -1.
        2   -1    0    0  501    0  0.00000000000E+00  0.00000000000E+00 -0.15646825825E+04  0.15646825825E+04  0.25500000920E-02 0.  1.
    10030    2    1    2    0    0  0.00000000000E+00  0.00000000000E+00  0.27745746862E+03  0.34068226336E+04  0.33955055309E+04 0.  0.
        2    1    3    3  502    0 -0.12843244092E+04 -0.26237647713E+03 -0.94377121893E+03  0.16152506671E+04  0.25500000920E-02 0.  1.
       -2    1    3    3    0  502  0.12843244092E+04  0.26237647713E+03  0.12212286876E+04  0.17915719665E+04  0.25500000920E-02 0. -1.
</event>
<event>
 5   0  0.4381939E-07  0.3396830E+04  0.7818609E-02  0.8138685E-01
       -2   -1    0    0    0  501  0.00000000000E+00  0.00000000000E+00  0.14828123024E+04  0.14828123024E+04  0.25500000920E-02 0.  1.
        2   -1    0    0  501    0  0.00000000000E+00  0.00000000000E+00 -0.19453664221E+04  0.19453664221E+04  0.25500000920E-02 0. -1.
    10030    2    1    2    0    0  0.00000000000E+00  0.00000000000E+00 -0.46255411974E+03  0.34281787245E+04  0.33968298535E+04 0.  0.
        3    1    3    3  502    0  0.19453084477E+03 -0.75586100092E+03  0.12911021601E+04  0.15086791907E+04  0.10100000352E+00 0.  1.
       -3    1    3    3    0  502 -0.19453084477E+03  0.75586100092E+03 -0.17536562799E+04  0.19194995338E+04  0.10100000352E+00 0. -1.
</event>
<event>
 5   0  0.1421875E-07  0.3402852E+04  0.7818609E-02  0.8137207E-01
       -3   -1    0    0    0  501  0.00000000000E+00  0.00000000000E+00  0.27554350263E+04  0.27554350281E+04  0.10100000352E+00 0.  1.
        3   -1    0    0  501    0  0.00000000000E+00  0.00000000000E+00 -0.10505966556E+04  0.10505966605E+04  0.10100000352E+00 0. -1.
    10030    2    1    2    0    0  0.00000000000E+00  0.00000000000E+00  0.17048383707E+04  0.38060316886E+04  0.34028522367E+04 0.  0.
        3    1    3    3  502    0  0.14205187985E+03  0.18963070998E+03 -0.10320541529E+04  0.10589024164E+04  0.10100000352E+00 0. -1.
       -3    1    3    3    0  502 -0.14205187985E+03 -0.18963070998E+03  0.27368925236E+04  0.27471292722E+04  0.10100000352E+00 0.  1.
</event>
<event>
 5   0  0.1421875E-07  0.3384941E+04  0.7818609E-02  0.8141612E-01
       -1   -1    0    0    0  501  0.00000000000E+00  0.00000000000E+00  0.16978678164E+04  0.16978678164E+04  0.50400001928E-02 0.  1.
        1   -1    0    0  501    0  0.00000000000E+00  0.00000000000E+00 -0.16870902110E+04  0.16870902110E+04  0.50400001928E-02 0. -1.
    10030    2    1    2    0    0  0.00000000000E+00  0.00000000000E+00  0.10777605414E+02  0.33849580275E+04  0.33849408696E+04 0.  0.
        5    1    3    3  502    0  0.33905062187E+03 -0.16217962252E+04 -0.33994722440E+03  0.16913794741E+04  0.46999998093E+01 0. -1.
       -5    1    3    3    0  502 -0.33905062187E+03  0.16217962252E+04  0.35072482981E+03  0.16935785534E+04  0.46999998093E+01 0.  1.
</event>
<event>
 5   0  0.4486226E-07  0.3394171E+04  0.7818609E-02  0.8139338E-01
        2   -1    0    0  501    0  0.00000000000E+00  0.00000000000E+00  0.85130939063E+03  0.85130939064E+03  0.25500000920E-02 0.  1.
       -2   -1    0    0    0  501  0.00000000000E+00  0.00000000000E+00 -0.33831410105E+04  0.33831410105E+04  0.25500000920E-02 0. -1.
    10030    2    1    2    0    0  0.00000000000E+00  0.00000000000E+00 -0.25318316199E+04  0.42344504012E+04  0.33941713051E+04 0.  0.
        1    1    3    3  502    0 -0.14605309247E+04 -0.84647243915E+03 -0.10482754039E+04  0.19870952405E+04  0.50400001928E-02 0.  1.
       -1    1    3    3    0  502  0.14605309247E+04  0.84647243915E+03 -0.14835562160E+04  0.22473551607E+04  0.50400001928E-02 0. -1.
</event>
<event>
 5   0  0.1523259E-07  0.3401185E+04  0.7818609E-02  0.8137615E-01
       -1   -1    0    0    0  501  0.00000000000E+00  0.00000000000E+00  0.13697255491E+04  0.13697255491E+04  0.50400001928E-02 0. -1.
        1   -1    0    0  501    0  0.00000000000E+00  0.00000000000E+00 -0.21113831866E+04  0.21113831866E+04  0.50400001928E-02 0.  1.
    10030    2    1    2    0    0  0.00000000000E+00  0.00000000000E+00 -0.74165763756E+03  0.34811087357E+04  0.34011853785E+04 0.  0.
        4    1    3    3  502    0 -0.14114622616E+04 -0.16617063809E+03 -0.13266776719E+04  0.19442000038E+04  0.12699999809E+01 0.  1.
       -4    1    3    3    0  502  0.14114622616E+04  0.16617063809E+03  0.58502003436E+03  0.15369087319E+04  0.12699999809E+01 0. -1.
</event>
<event>
 5   0  0.1520084E-07  0.3409243E+04  0.7818609E-02  0.8135642E-01
        1   -1    0    0  501    0  0.00000000000E+00  0.00000000000E+00  0.81619948936E+03  0.81619948937E+03  0.50400001928E-02 0. -1.
       -1   -1    0    0    0  501  0.00000000000E+00  0.00000000000E+00 -0.35600783991E+04  0.35600783991E+04  0.50400001928E-02 0.  1.
    10030    2    1    2    0    0  0.00000000000E+00  0.00000000000E+00 -0.27438789098E+04  0.43762778885E+04  0.34092428318E+04 0.  0.
        2    1    3    3  502    0 -0.44233954077E+03  0.10675517590E+04  0.23667709814E+03  0.11795537615E+04  0.25500000920E-02 0. -1.
       -2    1    3    3    0  502  0.44233954077E+03 -0.10675517590E+04 -0.29805560079E+04  0.31967241270E+04  0.25500000920E-02 0.  1.
</event>
<event>
 5   0  0.4521737E-07  0.3409735E+04  0.7818609E-02  0.8135521E-01
       -2   -1    0    0    0  501  0.00000000000E+00  0.00000000000E+00  0.13281749388E+04  0.13281749388E+04  0.25500000920E-02 0. -1.
        2   -1    0    0  501    0  0.00000000000E+00  0.00000000000E+00 -0.21883958144E+04  0.21883958144E+04  0.25500000920E-02 0.  1.
    10030    2    1    2    0    0  0.00000000000E+00  0.00000000000E+00 -0.86022087557E+03  0.35165707532E+04  0.34097345802E+04 0.  0.
        4    1    3    3  502    0  0.50385965042E+03 -0.11523586405E+04 -0.16171586352E+04  0.20486602080E+04  0.12699999809E+01 0.  1.
       -4    1    3    3    0  502 -0.50385965042E+03  0.11523586405E+04  0.75693775961E+03  0.14679105452E+04  0.12699999809E+01 0. -1.
</event>
<event>
 5   0  0.4396257E-07  0.3384731E+04  0.7818609E-02  0.8141664E-01
       -2   -1    0    0    0  501  0.00000000000E+00  0.00000000000E+00  0.18837893691E+04  0.18837893691E+04  0.25500000920E-02 0. -1.
        2   -1    0    0  501    0  0.00000000000E+00  0.00000000000E+00 -0.15203933183E+04  0.15203933183E+04  0.25500000920E-02 0.  1.
    10030    2    1    2    0    0  0.00000000000E+00  0.00000000000E+00  0.36339605075E+03  0.34041826874E+04  0.33847308725E+04 0.  0.
        2    1    3    3  502    0 -0.77752132229E+03  0.56438683554E+03 -0.12195167647E+04  0.15525118505E+04  0.25500000920E-02 0.  1.
       -2    1    3    3    0  502  0.77752132229E+03 -0.56438683554E+03  0.15829128154E+04  0.18516708368E+04  0.25500000920E-02 0. -1.
</event>
<event>
 5   0  0.4381939E-07  0.3367670E+04  0.7818609E-02  0.8145887E-01
        2   -1    0    0  501    0  0.00000000000E+00  0.00000000000E+00  0.11846229954E+04  0.11846229954E+04  0.25500000920E-02 0. -1.
       -2   -1    0    0    0  501  0.00000000000E+00  0.00000000000E+00 -0.23934205887E+04  0.23934205887E+04  0.25500000920E-02 0.  1.
    10030    2    1    2    0    0  0.00000000000E+00  0.00000000000E+00 -0.12087975932E+04  0.35780435841E+04  0.33676704512E+04 0.  0.
        3    1    3    3  502    0 -0.13810093192E+04 -0.10908570079E+03 -0.16213840380E+04  0.21325976271E+04  0.10100000352E+00 0.  1.
       -3    1    3    3    0  502  0.13810093192E+04  0.10908570079E+03  0.41258644479E+03  0.14454459570E+04  0.10100000352E+00 0. -1.
</event>
<event>
 5   0  0.1520084E-07  0.3403921E+04  0.7818609E-02  0.8136945E-01
       -1   -1    0    0    0  501  0.00000000000E+00  0.00000000000E+00  0.17871465921E+04  0.17871465921E+04  0.50400001928E-02 0.  1.
        1   -1    0    0  501    0  0.00000000000E+00  0.00000000000E+00 -0.16208348943E+04  0.16208348943E+04  0.50400001928E-02 0. -1.
    10030    2    1    2    0    0  0.00000000000E+00  0.00000000000E+00  0.16631169776E+03  0.34079814864E+04  0.34039210083E+04 0.  0.
        2    1    3    3  502    0  0.11413304723E+04 -0.84622076267E+01  0.13471842467E+04  0.17656761455E+04  0.25500000920E-02 0.  1.
       -2    1    3    3    0  502 -0.11413304723E+04  0.84622076267E+01 -0.11808725489E+04  0.16423053409E+04  0.25500000920E-02 0. -1.
</event>
<event>
 5   0  0.4521737E-07  0.3392004E+04  0.7818609E-02  0.8139871E-01
        2   -1    0    0  501    0  0.00000000000E+00  0.00000000000E+00  0.10733046013E+04  0.10733046013E+04  0.25500000920E-02 0. -1.
       -2   -1    0    0    0  501  0.00000000000E+00  0.00000000000E+00 -0.26799694377E+04  0.26799694377E+04  0.25500000920E-02 0.  1.
    10030    2    1    2    0    0  0.00000000000E+00  0.00000000000E+00 -0.16066648365E+04  0.37532740390E+04  0.33920044391E+04 0.  0.
        4    1    3    3  502    0 -0.36355853827E+03 -0.73063031114E+03  0.84176604856E+03  0.11724193600E+04  0.12699999809E+01 0. -1.
       -4    1    3    3    0  502  0.36355853827E+03  0.73063031114E+03 -0.24484308850E+04  0.25808546790E+04  0.12699999809E+01 0.  1.
</event>
<event>
 5   0  0.4381939E-07  0.3330065E+04  0.7818609E-02  0.8155287E-01
       -2   -1    0    0    0  501  0.00000000000E+00  0.00000000000E+00  0.17192368894E+04  0.17192368894E+04  0.25500000920E-02 0. -1.
        2   -1    0    0  501    0  0.00000000000E+00  0.00000000000E+00 -0.16125366664E+04  0.16125366664E+04  0.25500000920E-02 0.  1.
    10030    2    1    2    0    0  0.00000000000E+00  0.00000000000E+00  0.10670022306E+03  0.33317735558E+04  0.33300645774E+04 0.  0.
        3    1    3    3  502    0 -0.10731953234E+04 -0.10191545522E+04  0.81657074089E+03  0.16903289586E+04  0.10100000352E+00 0. -1.
       -3    1    3    3    0  502  0.10731953234E+04  0.10191545522E+04 -0.70987051783E+03  0.16414445972E+04  0.10100000352E+00 0.  1.
</event>
<event>
 5   0  0.1421875E-07  0.3409985E+04  0.7818609E-02  0.8135460E-01
       -1   -1    0    0    0  501  0.00000000000E+00  0.00000000000E+00  0.24132682451E+04  0.24132682451E+04  0.50400001928E-02 0.  1.
        1   -1    0    0  501    0  0.00000000000E+00  0.00000000000E+00 -0.12045906140E+04  0.12045906140E+04  0.50400001928E-02 0. -1.
    10030    2    1    2    0    0  0.00000000000E+00  0.00000000000E+00  0.12086776311E+04  0.36178588591E+04  0.34099854998E+04 0.  0.
        5    1    3    3  502    0  0.15300156820E+04  0.41082957301E+03  0.12730377595E+04  0.20323326874E+04  0.46999998093E+01 0.  1.
       -5    1    3    3    0  502 -0.15300156820E+04 -0.41082957301E+03 -0.64360128388E+02  0.15855261717E+04  0.46999998093E+01 0. -1.
</event>
<event>
 5   0  0.4381939E-07  0.3397233E+04  0.7818609E-02  0.8138586E-01
       -2   -1    0    0    0  501  0.00000000000E+00  0.00000000000E+00  0.16256986210E+04  0.16256986210E+04  0.25500000920E-02 0. -1.
        2   -1    0    0  501    0  0.00000000000E+00  0.00000000000E+00 -0.17748051625E+04  0.17748051625E+04  0.25500000920E-02 0.  1.
    10030    2    1    2    0    0  0.00000000000E+00  0.00000000000E+00 -0.14910654155E+03  0.34005037835E+04  0.33972331714E+04 0.  0.
        3    1    3    3  502    0 -0.78907429612E+02 -0.16958870742E+04 -0.12973296055E+03  0.17026714311E+04  0.10100000352E+00 0. -1.
       -3    1    3    3    0  502  0.78907429612E+02  0.16958870742E+04 -0.19373580996E+02  0.16978323524E+04  0.10100000352E+00 0.  1.
</event>
<event>
 5   0  0.1520084E-07  0.3363569E+04  0.7818609E-02  0.8146906E-01
        1   -1    0    0  501    0  0.00000000000E+00  0.00000000000E+00  0.21605464484E+04  0.21605464484E+04  0.50400001928E-02 0.  1.
       -1   -1    0    0    0  501  0.00000000000E+00  0.00000000000E+00 -0.13091124555E+04  0.13091124555E+04  0.50400001928E-02 0. -1.
    10030    2    1    2    0    0  0.00000000000E+00  0.00000000000E+00  0.85143399286E+03  0.34696589039E+04  0.33635685016E+04 0.  0.
        2    1    3    3  502    0  0.93802306368E+03 -0.13760554995E+04  0.18383819856E+03  0.16754738103E+04  0.25500000920E-02 0.  1.
       -2    1    3    3    0  502 -0.93802306368E+03  0.13760554995E+04  0.66759579429E+03  0.17941850936E+04  0.25500000920E-02 0. -1.
</event>
<event>
 5   0  0.1473755E-07  0.3400547E+04  0.7818609E-02  0.8137772E-01
       -1   -1    0    0    0  501  0.00000000000E+00  0.00000000000E+00  0.17555209673E+04  0.17555209673E+04  0.50400001928E-02 0. -1.
        1   -1    0    0  501    0  0.00000000000E+00  0.00000000000E+00 -0.16467650922E+04  0.16467650922E+04  0.50400001928E-02 0.  1.
    10030    2    1    2    0    0  0.00000000000E+00  0.00000000000E+00  0.10875587510E+03  0.34022860596E+04  0.34005473957E+04 0.  0.
        1    1    3    3  502    0 -0.13287204150E+04 -0.75552519135E+03 -0.69072720504E+03  0.16773253494E+04  0.50400001928E-02 0.  1.
       -1    1    3    3    0  502  0.13287204150E+04  0.75552519135E+03  0.79948308013E+03  0.17249607101E+04  0.50400001928E-02 0. -1.
</event>
<event>
 5   0  0.4521737E-07  0.3375749E+04  0.7818609E-02  0.8143884E-01
       -2   -1    0    0    0  501  0.00000000000E+00  0.00000000000E+00  0.21325531197E+04  0.21325531197E+04  0.25500000920E-02 0.  1.
        2   -1    0    0  501    0  0.00000000000E+00  0.00000000000E+00 -0.13359201938E+04  0.13359201938E+04  0.25500000920E-02 0. -1.
    10030    2    1    2    0    0  0.00000000000E+00  0.00000000000E+00  0.79663292590E+03  0.34684733135E+04  0.33757492661E+04 0.  0.
        4    1    3    3  502    0  0.15273937962E+04 -0.68306352704E+03  0.62670932000E+03  0.17866935314E+04  0.12699999809E+01 0.  1.
       -4    1    3    3    0  502 -0.15273937962E+04  0.68306352704E+03  0.16992360590E+03  0.16817797820E+04  0.12699999809E+01 0. -1.
</event>
<event>
 5   0  0.4521737E-07  0.3383830E+04  0.7818609E-02  0.8141886E-01
        2   -1    0    0  501    0  0.00000000000E+00  0.00000000000E+00  0.20167697571E+04  0.20167697571E+04  0.25500000920E-02 0.  1.
       -2   -1    0    0    0  501  0.00000000000E+00  0.00000000000E+00 -0.14193866933E+04  0.14193866933E+04  0.25500000920E-02 0. -1.
    10030    2    1    2    0    0  0.00000000000E+00  0.00000000000E+00  0.59738306380E+03  0.34361564503E+04  0.33838298755E+04 0.  0.
        4    1    3    3  502    0 -0.90669788099E+03  0.23148148207E+03  0.17300595232E+04  0.19669245767E+04  0.12699999809E+01 0.  1.
       -4    1    3    3    0  502  0.90669788099E+03 -0.23148148207E+03 -0.11326764594E+04  0.14692318736E+04  0.12699999809E+01 0. -1.
</event>
<event>
 5   0  0.4521737E-07  0.3410518E+04  0.7818609E-02  0.8135330E-01
        2   -1    0    0  501    0  0.00000000000E+00  0.00000000000E+00  0.18695422078E+04  0.18695422078E+04  0.25500000920E-02 0. -1.
       -2   -1    0    0    0  501  0.00000000000E+00  0.00000000000E+00 -0.15554122381E+04  0.15554122381E+04  0.25500000920E-02 0.  1.
    10030    2    1    2    0    0  0.00000000000E+00  0.00000000000E+00  0.31412996978E+03  0.34249544459E+04  0.34105183358E+04 0.  0.
        4    1    3    3  502    0  0.68679238956E+03  0.14154917216E+04  0.81757740658E+03  0.17730581008E+04  0.12699999809E+01 0. -1.
       -4    1    3    3    0  502 -0.68679238956E+03 -0.14154917216E+04 -0.50344743680E+03  0.16518963451E+04  0.12699999809E+01 0.  1.
</event>
<event>
 5   0  0.1435806E-07  0.3401132E+04  0.7818609E-02  0.8137628E-01
       -1   -1    0    0    0  501  0.00000000000E+00  0.00000000000E+00  0.12760743353E+04  0.12760743353E+04  0.50400001928E-02 0. -1.
        1   -1    0    0  501    0  0.00000000000E+00  0.00000000000E+00 -0.22662671951E+04  0.22662671952E+04  0.50400001928E-02 0.  1.
    10030    2    1    2    0    0  0.00000000000E+00  0.00000000000E+00 -0.99019285990E+03  0.35423415304E+04  0.34011324024E+04 0.  0.
        3    1    3    3  502    0  0.71730675456E+03 -0.61598078217E+03  0.97708295209E+03  0.13596515765E+04  0.10100000352E+00 0. -1.
       -3    1    3    3    0  502 -0.71730675456E+03  0.61598078217E+03 -0.19672758120E+04  0.21826899539E+04  0.10100000352E+00 0.  1.
</event>
<event>
 5   0  0.4381939E-07  0.3394502E+04  0.7818609E-02  0.8139257E-01
       -2   -1    0    0    0  501  0.00000000000E+00  0.00000000000E+00  0.18322945120E+04  0.18322945120E+04  0.25500000920E-02 0. -1.
        2   -1    0    0  501    0  0.00000000000E+00  0.00000000000E+00 -0.15721603063E+04  0.15721603063E+04  0.25500000920E-02 0.  1.
    10030    2    1    2    0    0  0.00000000000E+00  0.00000000000E+00  0.26013420570E+03  0.34044548182E+04  0.33945018492E+04 0.  0.
        3    1    3    3  502    0 -0.10085385161E+04 -0.17851916278E+03 -0.12272826925E+04  0.15985123858E+04  0.10100000352E+00 0.  1.
       -3    1    3    3    0  502  0.10085385161E+04  0.17851916278E+03  0.14874168982E+04  0.18059424324E+04  0.10100000352E+00 0. -1.
</event>
<event>
 5   0  0.4486226E-07  0.3301592E+04  0.7818609E-02  0.8162490E-01
        2   -1    0    0  501    0  0.00000000000E+00  0.00000000000E+00  0.12543517340E+04  0.12543517340E+04  0.25500000920E-02 0.  1.
       -2   -1    0    0    0  501  0.00000000000E+00  0.00000000000E+00 -0.21725391330E+04  0.21725391330E+04  0.25500000920E-02 0. -1.
    10030    2    1    2    0    0  0.00000000000E+00  0.00000000000E+00 -0.91818739897E+03  0.34268908670E+04  0.33015924816E+04 0.  0.
        1    1    3    3  502    0 -0.24173602482E+03 -0.17323381828E+03 -0.21445041469E+04  0.21650275512E+04  0.50400001928E-02 0. -1.
       -1    1    3    3    0  502  0.24173602482E+03  0.17323381828E+03  0.12263167479E+04  0.12618633158E+04  0.50400001928E-02 0.  1.
</event>
<event>
 5   0  0.1520084E-07  0.3401440E+04  0.7818609E-02  0.8137553E-01
        1   -1    0    0  501    0  0.00000000000E+00  0.00000000000E+00  0.13465057919E+04  0.13465057919E+04  0.50400001928E-02 0.  1.
       -1   -1    0    0    0  501  0.00000000000E+00  0.00000000000E+00 -0.21481140956E+04  0.21481140956E+04  0.50400001928E-02 0. -1.
    10030    2    1    2    0    0  0.00000000000E+00  0.00000000000E+00 -0.80160830371E+03  0.34946198874E+04  0.34014397371E+04 0.  0.
        2    1    3    3  502    0 -0.52956132037E+03 -0.35466132081E+02  0.12592422398E+04  0.13665226149E+04  0.25500000920E-02 0.  1.
       -2    1    3    3    0  502  0.52956132037E+03  0.35466132081E+02 -0.20608505435E+04  0.21280972725E+04  0.25500000920E-02 0. -1.
</event>
<event>
 5   0  0.1473755E-07  0.3397368E+04  0.7818609E-02  0.8138553E-01
        1   -1    0    0  501    0  0.00000000000E+00  0.00000000000E+00  0.14665433339E+04  0.14665433339E+04  0.50400001928E-02 0. -1.
       -1   -1    0    0    0  501  0.00000000000E+00  0.00000000000E+00 -0.19675700680E+04  0.19675700680E+04  0.50400001928E-02 0.  1.
    10030    2    1    2    0    0  0.00000000000E+00  0.00000000000E+00 -0.50102673408E+03  0.34341134019E+04  0.33973676676E+04 0.  0.
        1    1    3    3  502    0 -0.23038001039E+03 -0.10722887256E+04 -0.15617129762E+04  0.19083567487E+04  0.50400001928E-02 0.  1.
       -1    1    3    3    0  502  0.23038001039E+03  0.10722887256E+04  0.10606862421E+04  0.15257566531E+04  0.50400001928E-02 0. -1.
</event>
<event>
 5   0  0.1520084E-07  0.3409020E+04  0.7818609E-02  0.8135696E-01
        1   -1    0    0  501    0  0.00000000000E+00  0.00000000000E+00  0.11969408784E+04  0.11969408784E+04  0.50400001928E-02 0. -1.
       -1   -1    0    0    0  501  0.00000000000E+00  0.00000000000E+00 -0.24273167920E+04  0.24273167920E+04  0.50400001928E-02 0.  1.
    10030    2    1    2    0    0  0.00000000000E+00  0.00000000000E+00 -0.12303759135E+04  0.36242576704E+04  0.34090202072E+04 0.  0.
        2    1    3    3  502    0 -0.18733396402E+03 -0.15927388791E+04 -0.12836975335E+01  0.16037184289E+04  0.25500000920E-02 0. -1.
       -2    1    3    3    0  502  0.18733396402E+03  0.15927388791E+04 -0.12290922160E+04  0.20205392416E+04  0.25500000920E-02 0.  1.
</event>
<event>
 5   0  0.4381939E-07  0.3407854E+04  0.7818609E-02  0.8135981E-01
        2   -1    0    0  501    0  0.00000000000E+00  0.00000000000E+00  0.20446921416E+04  0.20446921416E+04  0.25500000920E-02 0.  1.
       -2   -1    0    0    0  501  0.00000000000E+00  0.00000000000E+00 -0.14199532821E+04  0.14199532821E+04  0.25500000920E-02 0. -1.
    10030    2    1    2    0    0  0.00000000000E+00  0.00000000000E+00  0.62473885953E+03  0.34646454237E+04  0.34078540563E+04 0.  0.
        3    1    3    3  502    0 -0.15752893027E+04 -0.37272567722E+03  0.85312283421E+03  0.18298304288E+04  0.10100000352E+00 0. -1.
       -3    1    3    3    0  502  0.15752893027E+04  0.37272567722E+03 -0.22838397467E+03  0.16348149949E+04  0.10100000352E+00 0.  1.
</event>
<event>
 5   0  0.1520084E-07  0.3403194E+04  0.7818609E-02  0.8137123E-01
       -1   -1    0    0    0  501  0.00000000000E+00  0.00000000000E+00  0.31365901314E+04  0.31365901314E+04  0.50400001928E-02 0. -1.
        1   -1    0    0  501    0  0.00000000000E+00  0.00000000000E+00 -0.92311493193E+03  0.92311493194E+03  0.50400001928E-02 0.  1.
    10030    2    1    2    0    0  0.00000000000E+00  0.00000000000E+00  0.22134751995E+04  0.40597050634E+04  0.34031944909E+04 0.  0.
        2    1    3    3  502    0 -0.11552540840E+04 -0.12160848762E+04  0.76522604195E+03  0.18436499993E+04  0.25500000920E-02 0. -1.
       -2    1    3    3    0  502  0.11552540840E+04  0.12160848762E+04  0.14482491576E+04  0.22160550641E+04  0.25500000920E-02 0.  1.
</event>
<event>
 5   0  0.4396257E-07  0.3300946E+04  0.7818609E-02  0.8162655E-01
       -2   -1    0    0    0  501  0.00000000000E+00  0.00000000000E+00  0.12485970496E+04  0.12485970496E+04  0.25500000920E-02 0. -1.
        2   -1    0    0  501    0  0.00000000000E+00  0.00000000000E+00 -0.21816977680E+04  0.21816977680E+04  0.25500000920E-02 0.  1.
    10030    2    1    2    0    0  0.00000000000E+00  0.00000000000E+00 -0.93310071842E+03  0.34302948175E+04  0.33009461650E+04 0.  0.
        2    1    3    3  502    0 -0.23662627092E+03  0.11329680264E+03 -0.21598910466E+04  0.21757659550E+04  0.25500000920E-02 0.  1.
       -2    1    3    3    0  502  0.23662627092E+03 -0.11329680264E+03  0.12267903282E+04  0.12545288625E+04  0.25500000920E-02 0. -1.
</event>
<event>
 5   0  0.1435806E-07  0.3401143E+04  0.7818609E-02  0.8137626E-01
        1   -1    0    0  501    0  0.00000000000E+00  0.00000000000E+00  0.16962565681E+04  0.16962565681E+04  0.50400001928E-02 0.  1.
       -1   -1    0    0    0  501  0.00000000000E+00  0.00000000000E+00 -0.17048975559E+04  0.17048975559E+04  0.50400001928E-02 0. -1.
    10030    2    1    2    0    0  0.00000000000E+00  0.00000000000E+00 -0.86409878210E+01  0.34011541240E+04  0.34011431474E+04 0.  0.
        3    1    3    3  502    0  0.14538033696E+03 -0.16885689291E+04  0.13547693990E+03  0.17002218920E+04  0.10100000352E+00 0.  1.
       -3    1    3    3    0  502 -0.14538033696E+03  0.16885689291E+04 -0.14411792772E+03  0.17009322320E+04  0.10100000352E+00 0. -1.
</event>
<event>
 5   0  0.1473755E-07  0.3445452E+04  0.7818609E-02  0.8126840E-01
       -1   -1    0    0    0  501  0.00000000000E+00  0.00000000000E+00  0.22488014679E+04  0.22488014679E+04  0.50400001928E-02 0.  1.
        1   -1    0    0  501    0  0.00000000000E+00  0.00000000000E+00 -0.13197183727E+04  0.13197183727E+04  0.50400001928E-02 0. -1.
    10030    2    1    2    0    0  0.00000000000E+00  0.00000000000E+00  0.92908309524E+03  0.35685198406E+04  0.34454518506E+04 0.  0.
        1    1    3    3  502    0  0.10136116774E+04 -0.40925507601E+03 -0.91451593229E+03  0.14252149803E+04  0.50400001928E-02 0. -1.
       -1    1    3    3    0  502 -0.10136116774E+04  0.40925507601E+03  0.18435990275E+04  0.21433048603E+04  0.50400001928E-02 0.  1.
</event>
<event>
 5   0  0.4521737E-07  0.3398870E+04  0.7818609E-02  0.8138184E-01
        2   -1    0    0  501    0  0.00000000000E+00  0.00000000000E+00  0.19262884399E+04  0.19262884399E+04  0.25500000920E-02 0.  1.
       -2   -1    0    0    0  501  0.00000000000E+00  0.00000000000E+00 -0.14992976024E+04  0.14992976024E+04  0.25500000920E-02 0. -1.
    10030    2    1    2    0    0  0.00000000000E+00  0.00000000000E+00  0.42699083754E+03  0.34255860423E+04  0.33988701884E+04 0.  0.
        4    1    3    3  502    0 -0.63876873031E+03  0.15503548549E+04 -0.65178130461E+02  0.16780570517E+04  0.12699999809E+01 0. -1.
       -4    1    3    3    0  502  0.63876873031E+03 -0.15503548549E+04  0.49216896800E+03  0.17475289906E+04  0.12699999809E+01 0.  1.
</event>
<event>
 5   0  0.4447909E-07  0.3410672E+04  0.7818609E-02  0.8135292E-01
       -2   -1    0    0    0  501  0.00000000000E+00  0.00000000000E+00  0.20867857775E+04  0.20867857775E+04  0.25500000920E-02 0.  1.
        2   -1    0    0  501    0  0.00000000000E+00  0.00000000000E+00 -0.13936124924E+04  0.13936124924E+04  0.25500000920E-02 0. -1.
    10030    2    1    2    0    0  0.00000000000E+00  0.00000000000E+00  0.69317328510E+03  0.34803982700E+04  0.34106719154E+04 0.  0.
        5    1    3    3  502    0  0.82733894403E+03  0.89956906191E+03 -0.86702687782E+03  0.14984898806E+04  0.46999998093E+01 0. -1.
       -5    1    3    3    0  502 -0.82733894403E+03 -0.89956906191E+03  0.15602001629E+04  0.19819083894E+04  0.46999998093E+01 0.  1.
</event>
<event>
 5   0  0.1520084E-07  0.3391673E+04  0.7818609E-02  0.8139953E-01
        1   -1    0    0  501    0  0.00000000000E+00  0.00000000000E+00  0.24215008544E+04  0.24215008544E+04  0.50400001928E-02 0.  1.
       -1   -1    0    0    0  501  0.00000000000E+00  0.00000000000E+00 -0.11876356050E+04  0.11876356050E+04  0.50400001928E-02 0. -1.
    10030    2    1    2    0    0  0.00000000000E+00  0.00000000000E+00  0.12338652495E+04  0.36091364594E+04  0.33916725268E+04 0.  0.
        2    1    3    3  502    0 -0.14162835362E+04  0.88689599703E+03  0.92427104125E+03  0.19096388460E+04  0.25500000920E-02 0.  1.
       -2    1    3    3    0  502  0.14162835362E+04 -0.88689599703E+03  0.30959420821E+03  0.16994976135E+04  0.25500000920E-02 0. -1.
</event>
<event>
 5   0  0.1523259E-07  0.3281121E+04  0.7818609E-02  0.8167716E-01
        1   -1    0    0  501    0  0.00000000000E+00  0.00000000000E+00  0.19183107066E+04  0.19183107066E+04  0.50400001928E-02 0.  1.
       -1   -1    0    0    0  501  0.00000000000E+00  0.00000000000E+00 -0.14030254892E+04  0.14030254892E+04  0.50400001928E-02 0. -1.
    10030    2    1    2    0    0  0.00000000000E+00  0.00000000000E+00  0.51528521740E+03  0.33213361959E+04  0.32811210387E+04 0.  0.
        4    1    3    3  502    0  0.42941612071E+01  0.73322198518E+03  0.17432146087E+04  0.18911456063E+04  0.12699999809E+01 0.  1.
       -4    1    3    3    0  502 -0.42941612071E+01 -0.73322198518E+03 -0.12279293913E+04  0.14301905895E+04  0.12699999809E+01 0. -1.
</event>
<event>
 5   0  0.1473755E-07  0.3387747E+04  0.7818609E-02  0.8140920E-01
        1   -1    0    0  501    0  0.00000000000E+00  0.00000000000E+00  0.11006773434E+04  0.11006773434E+04  0.50400001928E-02 0.  1.
       -1   -1    0    0    0  501  0.00000000000E+00  0.00000000000E+00 -0.26067659832E+04  0.26067659832E+04  0.50400001928E-02 0. -1.
    10030    2    1    2    0    0  0.00000000000E+00  0.00000000000E+00 -0.15060886398E+04  0.37074433266E+04  0.33877474861E+04 0.  0.
        1    1    3    3  502    0 -0.48768393948E+03 -0.52427964236E+03  0.92691023201E+03  0.11712674103E+04  0.50400001928E-02 0.  1.
       -1    1    3    3    0  502  0.48768393948E+03  0.52427964236E+03 -0.24329988718E+04  0.25361759163E+04  0.50400001928E-02 0. -1.
</event>
<event>
 5   0  0.1421875E-07  0.3301695E+04  0.7818609E-02  0.8162464E-01
        1   -1    0    0  501    0  0.00000000000E+00  0.00000000000E+00  0.17579848842E+04  0.17579848842E+04  0.50400001928E-02 0. -1.
       -1   -1    0    0    0  501  0.00000000000E+00  0.00000000000E+00 -0.15502394401E+04  0.15502394401E+04  0.50400001928E-02 0.  1.
    10030    2    1    2    0    0  0.00000000000E+00  0.00000000000E+00  0.20774544413E+03  0.33082243242E+04  0.33016950207E+04 0.  0.
        5    1    3    3  502    0 -0.66527566749E+02 -0.11386726735E+04  0.12996623297E+04  0.17292037577E+04  0.46999998093E+01 0. -1.
       -5    1    3    3    0  502  0.66527566749E+02  0.11386726735E+04 -0.10919168856E+04  0.15790205665E+04  0.46999998093E+01 0.  1.
</event>
<event>
 5   0  0.1435806E-07  0.3386070E+04  0.7818609E-02  0.8141334E-01
       -1   -1    0    0    0  501  0.00000000000E+00  0.00000000000E+00  0.19043655722E+04  0.19043655722E+04  0.50400001928E-02 0.  1.
        1   -1    0    0  501    0  0.00000000000E+00  0.00000000000E+00 -0.15051563109E+04  0.15051563109E+04  0.50400001928E-02 0. -1.
    10030    2    1    2    0    0  0.00000000000E+00  0.00000000000E+00  0.39920926130E+03  0.34095218831E+04  0.33860702056E+04 0.  0.
        3    1    3    3  502    0 -0.70519385781E+03 -0.63566718745E+03  0.16110966805E+04  0.18700277203E+04  0.10100000352E+00 0.  1.
       -3    1    3    3    0  502  0.70519385781E+03  0.63566718745E+03 -0.12118874192E+04  0.15394941628E+04  0.10100000352E+00 0. -1.
</event>
<event>
 5   0  0.4486226E-07  0.3396714E+04  0.7818609E-02  0.8138713E-01
       -2   -1    0    0    0  501  0.00000000000E+00  0.00000000000E+00  0.11054790754E+04  0.11054790754E+04  0.25500000920E-02 0.  1.
        2   -1    0    0  501    0  0.00000000000E+00  0.00000000000E+00 -0.26092008421E+04  0.26092008421E+04  0.25500000920E-02 0. -1.
    10030    2    1    2    0    0  0.00000000000E+00  0.00000000000E+00 -0.15037217667E+04  0.37146799176E+04  0.33967142562E+04 0.  0.
        1    1    3    3  502    0 -0.12463067301E+04 -0.44450110757E+03  0.41248959859E+03  0.13860048229E+04  0.50400001928E-02 0.  1.
       -1    1    3    3    0  502  0.12463067301E+04  0.44450110757E+03 -0.19162113653E+04  0.23286750947E+04  0.50400001928E-02 0. -1.
</event>
<event>
 5   0  0.1421875E-07  0.3412639E+04  0.7818609E-02  0.8134811E-01
       -1   -1    0    0    0  501  0.00000000000E+00  0.00000000000E+00  0.13386568793E+04  0.13386568793E+04  0.50400001928E-02 0. -1.
        1   -1    0    0  501    0  0.00000000000E+00  0.00000000000E+00 -0.21749601808E+04  0.21749601808E+04  0.50400001928E-02 0.  1.
    10030    2    1    2    0    0  0.00000000000E+00  0.00000000000E+00 -0.83630330144E+03  0.35136170601E+04  0.34126385148E+04 0.  0.
        5    1    3    3  502    0 -0.86113620294E+03  0.18249113950E+02  0.10983938656E+04  0.13958437463E+04  0.46999998093E+01 0. -1.
       -5    1    3    3    0  502  0.86113620294E+03 -0.18249113950E+02 -0.19346971671E+04  0.21177733137E+04  0.46999998093E+01 0.  1.
</event>
<event>
 5   0  0.1473755E-07  0.3415481E+04  0.7818609E-02  0.8134117E-01
        1   -1    0    0  501    0  0.00000000000E+00  0.00000000000E+00  0.15158776670E+04  0.15158776670E+04  0.50400001928E-02 0. -1.
       -1   -1    0    0    0  501  0.00000000000E+00  0.00000000000E+00 -0.19238876216E+04  0.19238876216E+04  0.50400001928E-02 0.  1.
    10030    2    1    2    0    0  0.00000000000E+00  0.00000000000E+00 -0.40800995455E+03  0.34397652886E+04  0.34154813889E+04 0.  0.
        1    1    3    3  502    0 -0.13703619121E+04 -0.94226058298E+03  0.18686722999E+03  0.16735190880E+04  0.50400001928E-02 0.  1.
       -1    1    3    3    0  502  0.13703619121E+04  0.94226058298E+03 -0.59487718454E+03  0.17662462006E+04  0.50400001928E-02 0. -1.
</event>
<event>
 5   0  0.1435806E-07  0.3397856E+04  0.7818609E-02  0.8138433E-01
       -1   -1    0    0    0  501  0.00000000000E+00  0.00000000000E+00  0.18529253340E+04  0.18529253340E+04  0.50400001928E-02 0.  1.
        1   -1    0    0  501    0  0.00000000000E+00  0.00000000000E+00 -0.15577291394E+04  0.15577291394E+04  0.50400001928E-02 0. -1.
    10030    2    1    2    0    0  0.00000000000E+00  0.00000000000E+00  0.29519619462E+03  0.34106544734E+04  0.33978556685E+04 0.  0.
        3    1    3    3  502    0  0.12435841051E+04  0.11569454407E+04  0.11096959748E+03  0.17021569966E+04  0.10100000352E+00 0.  1.
       -3    1    3    3    0  502 -0.12435841051E+04 -0.11569454407E+04  0.18422659714E+03  0.17084974769E+04  0.10100000352E+00 0. -1.
</event>
<event>
 5   0  0.1523259E-07  0.3367859E+04  0.7818609E-02  0.8145840E-01
        1   -1    0    0  501    0  0.00000000000E+00  0.00000000000E+00  0.22668676348E+04  0.22668676348E+04  0.50400001928E-02 0.  1.
       -1   -1    0    0    0  501  0.00000000000E+00  0.00000000000E+00 -0.12508971792E+04  0.12508971792E+04  0.50400001928E-02 0. -1.
    10030    2    1    2    0    0  0.00000000000E+00  0.00000000000E+00  0.10159704556E+04  0.35177648140E+04  0.33678588628E+04 0.  0.
        4    1    3    3  502    0 -0.92729977139E+03  0.94526722373E+03  0.15945785425E+04  0.20727029048E+04  0.12699999809E+01 0.  1.
       -4    1    3    3    0  502  0.92729977139E+03 -0.94526722373E+03 -0.57860808692E+03  0.14450619092E+04  0.12699999809E+01 0. -1.
</event>
<event>
 5   0  0.1435806E-07  0.3397797E+04  0.7818609E-02  0.8138447E-01
       -1   -1    0    0    0  501  0.00000000000E+00  0.00000000000E+00  0.16791333343E+04  0.16791333343E+04  0.50400001928E-02 0.  1.
        1   -1    0    0  501    0  0.00000000000E+00  0.00000000000E+00 -0.17188964709E+04  0.17188964709E+04  0.50400001928E-02 0. -1.
    10030    2    1    2    0    0  0.00000000000E+00  0.00000000000E+00 -0.39763136665E+02  0.33980298052E+04  0.33977971467E+04 0.  0.
        3    1    3    3  502    0 -0.16069060759E+03  0.52549869654E+01 -0.17112712345E+04  0.17188072418E+04  0.10100000352E+00 0. -1.
       -3    1    3    3    0  502  0.16069060759E+03 -0.52549869654E+01  0.16715080978E+04  0.16792225634E+04  0.10100000352E+00 0.  1.
</event>
<event>
 5   0  0.4486226E-07  0.3401511E+04  0.7818609E-02  0.8137536E-01
        2   -1    0    0  501    0  0.00000000000E+00  0.00000000000E+00  0.11545120724E+04  0.11545120724E+04  0.25500000920E-02 0.  1.
       -2   -1    0    0    0  501  0.00000000000E+00  0.00000000000E+00 -0.25054475081E+04  0.25054475081E+04  0.25500000920E-02 0. -1.
    10030    2    1    2    0    0  0.00000000000E+00  0.00000000000E+00 -0.13509354357E+04  0.36599595805E+04  0.34015110730E+04 0.  0.
        1    1    3    3  502    0  0.15436833731E+04  0.66526397724E+03 -0.95405084912E+03  0.19328082001E+04  0.50400001928E-02 0. -1.
       -1    1    3    3    0  502 -0.15436833731E+04 -0.66526397724E+03 -0.39688458655E+03  0.17271513804E+04  0.50400001928E-02 0.  1.
</event>
<event>
 5   0  0.4381939E-07  0.3404505E+04  0.7818609E-02  0.8136802E-01
        2   -1    0    0  501    0  0.00000000000E+00  0.00000000000E+00  0.15406879588E+04  0.15406879588E+04  0.25500000920E-02 0.  1.
       -2   -1    0    0    0  501  0.00000000000E+00  0.00000000000E+00 -0.18807593961E+04  0.18807593961E+04  0.25500000920E-02 0. -1.
    10030    2    1    2    0    0  0.00000000000E+00  0.00000000000E+00 -0.34007143734E+03  0.34214473549E+04  0.34045048715E+04 0.  0.
        3    1    3    3  502    0 -0.40489462268E+03 -0.16425075758E+04  0.20360393338E+02  0.16917994408E+04  0.10100000352E+00 0. -1.
       -3    1    3    3    0  502  0.40489462268E+03  0.16425075758E+04 -0.36043183068E+03  0.17296479141E+04  0.10100000352E+00 0.  1.
</event>
<event>
 5   0  0.1435806E-07  0.3401388E+04  0.7818609E-02  0.8137566E-01
       -1   -1    0    0    0  501  0.00000000000E+00  0.00000000000E+00  0.27082842775E+04  0.27082842775E+04  0.50400001928E-02 0.  1.
        1   -1    0    0  501    0  0.00000000000E+00  0.00000000000E+00 -0.10679676043E+04  0.10679676043E+04  0.50400001928E-02 0. -1.
    10030    2    1    2    0    0  0.00000000000E+00  0.00000000000E+00  0.16403166733E+04  0.37762518818E+04  0.34013878765E+04 0.  0.
        3    1    3    3  502    0 -0.90816910042E+03 -0.14152441834E+04  0.53782307886E+03  0.17654860204E+04  0.10100000352E+00 0.  1.
       -3    1    3    3    0  502  0.90816910042E+03  0.14152441834E+04  0.11024935944E+04  0.20107658615E+04  0.10100000352E+00 0. -1.
</event>
<event>
 5   0  0.1421875E-07  0.3370563E+04  0.7818609E-02  0.8145169E-01
        4   -1    0    0  501    0  0.00000000000E+00  0.00000000000E+00  0.23531820546E+04  0.23531823973E+04  0.12699999809E+01 0. -1.
       -4   -1    0    0    0  501  0.00000000000E+00  0.00000000000E+00 -0.12069497518E+04  0.12069504199E+04  0.12699999809E+01 0.  1.
    10030    2    1    2    0    0  0.00000000000E+00  0.00000000000E+00  0.11462323028E+04  0.35601328173E+04  0.33705633334E+04 0.  0.
        4    1    3    3  502    0  0.16118771006E+02  0.15795930433E+04 -0.47104909246E+02  0.15803779557E+04  0.12699999809E+01 0.  1.
       -4    1    3    3    0  502 -0.16118771006E+02 -0.15795930433E+04  0.11933372121E+04  0.19797548616E+04  0.12699999809E+01 0. -1.
</event>
<event>
 5   0  0.1523259E-07  0.3408126E+04  0.7818609E-02  0.8135915E-01
       -1   -1    0    0    0  501  0.00000000000E+00  0.00000000000E+00  0.13860301686E+04  0.13860301687E+04  0.50400001928E-02 0. -1.
        1   -1    0    0  501    0  0.00000000000E+00  0.00000000000E+00 -0.20950699869E+04  0.20950699869E+04  0.50400001928E-02 0.  1.
    10030    2    1    2    0    0  0.00000000000E+00  0.00000000000E+00 -0.70903981830E+03  0.34811001556E+04  0.34081257062E+04 0.  0.
        4    1    3    3  502    0 -0.75282483931E+03 -0.70067946951E+03  0.10332972281E+04  0.14578757602E+04  0.12699999809E+01 0. -1.
       -4    1    3    3    0  502  0.75282483931E+03  0.70067946951E+03 -0.17423370464E+04  0.20232243954E+04  0.12699999809E+01 0.  1.
</event>
<event>
 5   0  0.1520084E-07  0.3432374E+04  0.7818609E-02  0.8130006E-01
        1   -1    0    0  501    0  0.00000000000E+00  0.00000000000E+00  0.17956927629E+04  0.17956927629E+04  0.50400001928E-02 0.  1.
       -1   -1    0    0    0  501  0.00000000000E+00  0.00000000000E+00 -0.16402014789E+04  0.16402014789E+04  0.50400001928E-02 0. -1.
    10030    2    1    2    0    0  0.00000000000E+00  0.00000000000E+00  0.15549128406E+03  0.34358942418E+04  0.34323740620E+04 0.  0.
        2    1    3    3  502    0  0.84629568080E+03  0.12464128760E+04  0.90049884611E+03  0.17551807909E+04  0.25500000920E-02 0.  1.
       -2    1    3    3    0  502 -0.84629568080E+03 -0.12464128760E+04 -0.74500756206E+03  0.16807134510E+04  0.25500000920E-02 0. -1.
</event>
<event>
 5   0  0.1473755E-07  0.3393939E+04  0.7818609E-02  0.8139395E-01
        1   -1    0    0  501    0  0.00000000000E+00  0.00000000000E+00  0.15806518371E+04  0.15806518371E+04  0.50400001928E-02 0.  1.
       -1   -1    0    0    0  501  0.00000000000E+00  0.00000000000E+00 -0.18218471287E+04  0.18218471287E+04  0.50400001928E-02 0. -1.
    10030    2    1    2    0    0  0.00000000000E+00  0.00000000000E+00 -0.24119529159E+03  0.34024989658E+04  0.33939393106E+04 0.  0.
        1    1    3    3  502    0  0.13514825785E+04 -0.98160446947E+03 -0.42077477084E+03  0.17225283459E+04  0.50400001928E-02 0. -1.
       -1    1    3    3    0  502 -0.13514825785E+04  0.98160446947E+03  0.17957947925E+03  0.16799706200E+04  0.50400001928E-02 0.  1.
</event>
<event>
 5   0  0.1421875E-07  0.3312606E+04  0.7818609E-02  0.8159695E-01
       -1   -1    0    0    0  501  0.00000000000E+00  0.00000000000E+00  0.14351925919E+04  0.14351925920E+04  0.50400001928E-02 0.  1.
        1   -1    0    0  501    0  0.00000000000E+00  0.00000000000E+00 -0.19114781813E+04  0.19114781813E+04  0.50400001928E-02 0. -1.
    10030    2    1    2    0    0  0.00000000000E+00  0.00000000000E+00 -0.47628558932E+03  0.33466707732E+04  0.33126058174E+04 0.  0.
        5    1    3    3  502    0 -0.71281846703E+02  0.73593516944E+03  0.12592034431E+04  0.14602387053E+04  0.46999998093E+01 0.  1.
       -5    1    3    3    0  502  0.71281846703E+02 -0.73593516944E+03 -0.17354890324E+04  0.18864320679E+04  0.46999998093E+01 0. -1.
</event>
<event>
 5   0  0.4447909E-07  0.3399945E+04  0.7818609E-02  0.8137920E-01
        2   -1    0    0  501    0  0.00000000000E+00  0.00000000000E+00  0.24621865586E+04  0.24621865586E+04  0.25500000920E-02 0.  1.
       -2   -1    0    0    0  501  0.00000000000E+00  0.00000000000E+00 -0.11737156972E+04  0.11737156972E+04  0.25500000920E-02 0. -1.
    10030    2    1    2    0    0  0.00000000000E+00  0.00000000000E+00  0.12884708613E+04  0.36359022558E+04  0.33999453015E+04 0.  0.
        5    1    3    3  502    0 -0.16904548224E+04  0.74670929319E+02  0.46958672763E+03  0.17560600899E+04  0.46999998093E+01 0. -1.
       -5    1    3    3    0  502  0.16904548224E+04 -0.74670929319E+02  0.81888413371E+03  0.18798421659E+04  0.46999998093E+01 0.  1.
</event>
<event>
 5   0  0.4521737E-07  0.3413463E+04  0.7818609E-02  0.8134610E-01
       -2   -1    0    0    0  501  0.00000000000E+00  0.00000000000E+00  0.12297324416E+04  0.12297324416E+04  0.25500000920E-02 0. -1.
        2   -1    0    0  501    0  0.00000000000E+00  0.00000000000E+00 -0.23687535869E+04  0.23687535869E+04  0.25500000920E-02 0.  1.
    10030    2    1    2    0    0  0.00000000000E+00  0.00000000000E+00 -0.11390211453E+04  0.35984860285E+04  0.34134634212E+04 0.  0.
        4    1    3    3  502    0  0.63416206324E+03 -0.13328406266E+04  0.33385402084E+03  0.15133029367E+04  0.12699999809E+01 0. -1.
       -4    1    3    3    0  502 -0.63416206324E+03  0.13328406266E+04 -0.14728751661E+04  0.20851830917E+04  0.12699999809E+01 0.  1.
</event>
<event>
 5   0  0.1421875E-07  0.3398867E+04  0.7818609E-02  0.8138185E-01
       -1   -1    0    0    0  501  0.00000000000E+00  0.00000000000E+00  0.12415740579E+04  0.12415740579E+04  0.50400001928E-02 0.  1.
        1   -1    0    0  501    0  0.00000000000E+00  0.00000000000E+00 -0.23261386786E+04  0.23261386786E+04  0.50400001928E-02 0. -1.
    10030    2    1    2    0    0  0.00000000000E+00  0.00000000000E+00 -0.10845646207E+04  0.35677127365E+04  0.33988665395E+04 0.  0.
        5    1    3    3  502    0 -0.15363955340E+04 -0.56248411079E+03 -0.10246221068E+04  0.19304849555E+04  0.46999998093E+01 0. -1.
       -5    1    3    3    0  502  0.15363955340E+04  0.56248411079E+03 -0.59942513877E+02  0.16372277809E+04  0.46999998093E+01 0.  1.
</event>
<event>
 5   0  0.1421875E-07  0.3390369E+04  0.7818609E-02  0.8140274E-01
       -3   -1    0    0    0  501  0.00000000000E+00  0.00000000000E+00  0.18273028313E+04  0.18273028340E+04  0.10100000352E+00 0.  1.
        3   -1    0    0  501    0  0.00000000000E+00  0.00000000000E+00 -0.15726190083E+04  0.15726190115E+04  0.10100000352E+00 0. -1.
    10030    2    1    2    0    0  0.00000000000E+00  0.00000000000E+00  0.25468382297E+03  0.33999218456E+04  0.33903694056E+04 0.  0.
        5    1    3    3  502    0  0.15461288070E+04 -0.55288111790E+03  0.54976177793E+03  0.17316038579E+04  0.46999998093E+01 0.  1.
       -5    1    3    3    0  502 -0.15461288070E+04  0.55288111790E+03 -0.29507795496E+03  0.16683179876E+04  0.46999998093E+01 0. -1.
</event>
<event>
 5   0  0.4486226E-07  0.3399270E+04  0.7818609E-02  0.8138086E-01
       -2   -1    0    0    0  501  0.00000000000E+00  0.00000000000E+00  0.13939596748E+04  0.13939596748E+04  0.25500000920E-02 0. -1.
        2   -1    0    0  501    0  0.00000000000E+00  0.00000000000E+00 -0.20723404192E+04  0.20723404192E+04  0.25500000920E-02 0.  1.
    10030    2    1    2    0    0  0.00000000000E+00  0.00000000000E+00 -0.67838074443E+03  0.34663000940E+04  0.33992699080E+04 0.  0.
        1    1    3    3  502    0 -0.57768237120E+03 -0.13170751607E+03 -0.19636175132E+04  0.20510625368E+04  0.50400001928E-02 0.  1.
       -1    1    3    3    0  502  0.57768237120E+03  0.13170751607E+03  0.12852367687E+04  0.14152375573E+04  0.50400001928E-02 0. -1.
</event>
<event>
 5   0  0.4521737E-07  0.3403371E+04  0.7818609E-02  0.8137079E-01
        2   -1    0    0  501    0  0.00000000000E+00  0.00000000000E+00  0.20970689707E+04  0.20970689707E+04  0.25500000920E-02 0. -1.
       -2   -1    0    0    0  501  0.00000000000E+00  0.00000000000E+00 -0.13808479127E+04  0.13808479127E+04  0.25500000920E-02 0.  1.
    10030    2    1    2    0    0  0.00000000000E+00  0.00000000000E+00  0.71622105799E+03  0.34779168835E+04  0.34033708649E+04 0.  0.
        4    1    3    3  502    0 -0.94541552848E+03  0.39808424427E+03  0.17455869667E+04  0.20246869038E+04  0.12699999809E+01 0. -1.
       -4    1    3    3    0  502  0.94541552848E+03 -0.39808424427E+03 -0.10293659087E+04  0.14532299797E+04  0.12699999809E+01 0.  1.
</event>
<event>
 5   0  0.4521737E-07  0.3398267E+04  0.7818609E-02  0.8138332E-01
       -2   -1    0    0    0  501  0.00000000000E+00  0.00000000000E+00  0.21722748341E+04  0.21722748341E+04  0.25500000920E-02 0.  1.
        2   -1    0    0  501    0  0.00000000000E+00  0.00000000000E+00 -0.13290466113E+04  0.13290466113E+04  0.25500000920E-02 0. -1.
    10030    2    1    2    0    0  0.00000000000E+00  0.00000000000E+00  0.84322822278E+03  0.35013214453E+04  0.33982669153E+04 0.  0.
        4    1    3    3  502    0 -0.12280395084E+04 -0.14695879280E+03  0.16220097677E+04  0.20397537156E+04  0.12699999809E+01 0.  1.
       -4    1    3    3    0  502  0.12280395084E+04  0.14695879280E+03 -0.77878154495E+03  0.14615677297E+04  0.12699999809E+01 0. -1.
</event>
<event>
 5   0  0.1473755E-07  0.3405792E+04  0.7818609E-02  0.8136486E-01
       -1   -1    0    0    0  501  0.00000000000E+00  0.00000000000E+00  0.15708229491E+04  0.15708229491E+04  0.50400001928E-02 0. -1.
        1   -1    0    0  501    0  0.00000000000E+00  0.00000000000E+00 -0.18460732869E+04  0.18460732869E+04  0.50400001928E-02 0.  1.
    10030    2    1    2    0    0  0.00000000000E+00  0.00000000000E+00 -0.27525033782E+03  0.34168962360E+04  0.34057917052E+04 0.  0.
        1    1    3    3  502    0  0.67166441726E+03  0.98267891136E+03 -0.13594067077E+04  0.18068695385E+04  0.50400001928E-02 0.  1.
       -1    1    3    3    0  502 -0.67166441726E+03 -0.98267891136E+03  0.10841563699E+04  0.16100266975E+04  0.50400001928E-02 0. -1.
</event>
<event>
 5   0  0.1421875E-07  0.3386513E+04  0.7818609E-02  0.8141224E-01
       -1   -1    0    0    0  501  0.00000000000E+00  0.00000000000E+00  0.19100386617E+04  0.19100386617E+04  0.50400001928E-02 0. -1.
        1   -1    0    0  501    0  0.00000000000E+00  0.00000000000E+00 -0.15010785063E+04  0.15010785063E+04  0.50400001928E-02 0.  1.
    10030    2    1    2    0    0  0.00000000000E+00  0.00000000000E+00  0.40896015544E+03  0.34111171680E+04  0.33865132401E+04 0.  0.
        5    1    3    3  502    0  0.91275364847E+03 -0.92461669194E+03  0.12982146257E+04  0.18366868416E+04  0.46999998093E+01 0.  1.
       -5    1    3    3    0  502 -0.91275364847E+03  0.92461669194E+03 -0.88925447028E+03  0.15744303264E+04  0.46999998093E+01 0. -1.
</event>
<event>
 5   0  0.1435806E-07  0.3383876E+04  0.7818609E-02  0.8141875E-01
       -1   -1    0    0    0  501  0.00000000000E+00  0.00000000000E+00  0.12284120273E+04  0.12284120273E+04  0.50400001928E-02 0.  1.
        1   -1    0    0  501    0  0.00000000000E+00  0.00000000000E+00 -0.23303691604E+04  0.23303691604E+04  0.50400001928E-02 0. -1.
    10030    2    1    2    0    0  0.00000000000E+00  0.00000000000E+00 -0.11019571331E+04  0.35587811877E+04  0.33838755915E+04 0.  0.
        3    1    3    3  502    0 -0.98364745825E+03  0.75935312435E+03 -0.17585773983E+04  0.21533169682E+04  0.10100000352E+00 0. -1.
       -3    1    3    3    0  502  0.98364745825E+03 -0.75935312435E+03  0.65662026517E+03  0.14054642195E+04  0.10100000352E+00 0.  1.
</event>
<event>
 5   0  0.4521737E-07  0.3319575E+04  0.7818609E-02  0.8157932E-01
        2   -1    0    0  501    0  0.00000000000E+00  0.00000000000E+00  0.16520328408E+04  0.16520328408E+04  0.25500000920E-02 0. -1.
       -2   -1    0    0    0  501  0.00000000000E+00  0.00000000000E+00 -0.16675786029E+04  0.16675786029E+04  0.25500000920E-02 0.  1.
    10030    2    1    2    0    0  0.00000000000E+00  0.00000000000E+00 -0.15545762105E+02  0.33196114437E+04  0.33195750431E+04 0.  0.
        4    1    3    3  502    0 -0.62073758704E+03 -0.72238273099E+03  0.13515584121E+04  0.16534399645E+04  0.12699999809E+01 0. -1.
       -4    1    3    3    0  502  0.62073758704E+03  0.72238273099E+03 -0.13671041742E+04  0.16661714792E+04  0.12699999809E+01 0.  1.
</event>
<event>
 5   0  0.1523259E-07  0.3369077E+04  0.7818609E-02  0.8145538E-01
       -1   -1    0    0    0  501  0.00000000000E+00  0.00000000000E+00  0.21757108479E+04  0.21757108480E+04  0.50400001928E-02 0.  1.
        1   -1    0    0  501    0  0.00000000000E+00  0.00000000000E+00 -0.13042494769E+04  0.13042494769E+04  0.50400001928E-02 0. -1.
    10030    2    1    2    0    0  0.00000000000E+00  0.00000000000E+00  0.87146137107E+03  0.34799603248E+04  0.33690768678E+04 0.  0.
        4    1    3    3  502    0  0.72356457546E+03 -0.98541205835E+03  0.16327887132E+04  0.20397507726E+04  0.12699999809E+01 0.  1.
       -4    1    3    3    0  502 -0.72356457546E+03  0.98541205835E+03 -0.76132734210E+03  0.14402095522E+04  0.12699999809E+01 0. -1.
</event>
<event>
 5   0  0.4486226E-07  0.3407946E+04  0.7818609E-02  0.8135959E-01
        2   -1    0    0  501    0  0.00000000000E+00  0.00000000000E+00  0.18060985822E+04  0.18060985822E+04  0.25500000920E-02 0. -1.
       -2   -1    0    0    0  501  0.00000000000E+00  0.00000000000E+00 -0.16076224983E+04  0.16076224983E+04  0.25500000920E-02 0.  1.
    10030    2    1    2    0    0  0.00000000000E+00  0.00000000000E+00  0.19847608391E+03  0.34137210805E+04  0.34079464285E+04 0.  0.
        1    1    3    3  502    0  0.13203916045E+04 -0.87525344956E+02 -0.97609393346E+03  0.16443400020E+04  0.50400001928E-02 0.  1.
       -1    1    3    3    0  502 -0.13203916045E+04  0.87525344956E+02  0.11745700174E+04  0.17693810785E+04  0.50400001928E-02 0. -1.
</event>
<event>
 5   0  0.1421875E-07  0.3403479E+04  0.7818609E-02  0.8137053E-01
        1   -1    0    0  501    0  0.00000000000E+00  0.00000000000E+00  0.11080880839E+04  0.11080880839E+04  0.50400001928E-02 0. -1.
       -1   -1    0    0    0  501  0.00000000000E+00  0.00000000000E+00 -0.26134360364E+04  0.26134360364E+04  0.50400001928E-02 0.  1.
    10030    2    1    2    0    0  0.00000000000E+00  0.00000000000E+00 -0.15053479525E+04  0.37215241203E+04  0.34034790024E+04 0.  0.
        5    1    3    3  502    0  0.14670744449E+04 -0.68469758847E+03 -0.17949801061E+03  0.16289136995E+04  0.46999998093E+01 0. -1.
       -5    1    3    3    0  502 -0.14670744449E+04  0.68469758847E+03 -0.13258499419E+04  0.20926104208E+04  0.46999998093E+01 0.  1.
</event>
<event>
 5   0  0.4381939E-07  0.3396366E+04  0.7818609E-02  0.8138799E-01
       -2   -1    0    0    0  501  0.00000000000E+00  0.00000000000E+00  0.93496426316E+03  0.93496426316E+03  0.25500000920E-02 0.  1.
        2   -1    0    0  501    0  0.00000000000E+00  0.00000000000E+00 -0.30844237639E+04  0.30844237639E+04  0.25500000920E-02 0. -1.
    10030    2    1    2    0    0  0.00000000000E+00  0.00000000000E+00 -0.21494595007E+04  0.40193880270E+04  0.33963662886E+04 0.  0.
        3    1    3    3  502    0 -0.70963090819E+03 -0.10390529307E+04 -0.24243775586E+04  0.27314489883E+04  0.10100000352E+00 0. -1.
       -3    1    3    3    0  502  0.70963090819E+03  0.10390529307E+04  0.27491805792E+03  0.12879390387E+04  0.10100000352E+00 0.  1.
</event>
<event>
 5   0  0.4486226E-07  0.3393334E+04  0.7818609E-02  0.8139544E-01
        2   -1    0    0  501    0  0.00000000000E+00  0.00000000000E+00  0.14028718965E+04  0.14028718965E+04  0.25500000920E-02 0.  1.
       -2   -1    0    0    0  501  0.00000000000E+00  0.00000000000E+00 -0.20519901215E+04  0.20519901215E+04  0.25500000920E-02 0. -1.
    10030    2    1    2    0    0  0.00000000000E+00  0.00000000000E+00 -0.64911822502E+03  0.34548620179E+04  0.33933342147E+04 0.  0.
        1    1    3    3  502    0  0.10786914924E+04 -0.13088599005E+04 -0.27914428325E+03  0.17188982244E+04  0.50400001928E-02 0. -1.
       -1    1    3    3    0  502 -0.10786914924E+04  0.13088599005E+04 -0.36997394177E+03  0.17359637936E+04  0.50400001928E-02 0.  1.
</event>
<event>
 5   0  0.1421875E-07  0.3394930E+04  0.7818609E-02  0.8139152E-01
       -1   -1    0    0    0  501  0.00000000000E+00  0.00000000000E+00  0.25140502733E+04  0.25140502733E+04  0.50400001928E-02 0.  1.
        1   -1    0    0  501    0  0.00000000000E+00  0.00000000000E+00 -0.11461135898E+04  0.11461135898E+04  0.50400001928E-02 0. -1.
    10030    2    1    2    0    0  0.00000000000E+00  0.00000000000E+00  0.13679366836E+04  0.36601638631E+04  0.33949298571E+04 0.  0.
        5    1    3    3  502    0 -0.36595391409E+03  0.33923938380E+03 -0.10652431451E+04  0.11763378235E+04  0.46999998093E+01 0. -1.
       -5    1    3    3    0  502  0.36595391409E+03 -0.33923938380E+03  0.24331798287E+04  0.24838260397E+04  0.46999998093E+01 0.  1.
</event>
<event>
 5   0  0.1520084E-07  0.3398165E+04  0.7818609E-02  0.8138357E-01
        1   -1    0    0  501    0  0.00000000000E+00  0.00000000000E+00  0.25206595553E+04  0.25206595554E+04  0.50400001928E-02 0. -1.
       -1   -1    0    0    0  501  0.00000000000E+00  0.00000000000E+00 -0.11452882803E+04  0.11452882803E+04  0.50400001928E-02 0.  1.
    10030    2    1    2    0    0  0.00000000000E+00  0.00000000000E+00  0.13753712750E+04  0.36659478357E+04  0.33981652976E+04 0.  0.
        2    1    3    3  502    0  0.16619144171E+04  0.30407422016E+03  0.88205328323E+03  0.19058957620E+04  0.25500000920E-02 0.  1.
       -2    1    3    3    0  502 -0.16619144171E+04 -0.30407422016E+03  0.49331799182E+03  0.17600520737E+04  0.25500000920E-02 0. -1.
</event>
<event>
 5   0  0.4396257E-07  0.3408429E+04  0.7818609E-02  0.8135841E-01
        2   -1    0    0  501    0  0.00000000000E+00  0.00000000000E+00  0.11670191411E+04  0.11670191411E+04  0.25500000920E-02 0. -1.
       -2   -1    0    0    0  501  0.00000000000E+00  0.00000000000E+00 -0.24886882794E+04  0.24886882794E+04  0.25500000920E-02 0.  1.
    10030    2    1    2    0    0  0.00000000000E+00  0.00000000000E+00 -0.13216691383E+04  0.36557074205E+04  0.34084288804E+04 0.  0.
        2    1    3    3  502    0  0.15422018388E+04 -0.71497925186E+03 -0.53050764158E+03  0.17807358591E+04  0.25500000920E-02 0. -1.
       -2    1    3    3    0  502 -0.15422018388E+04  0.71497925186E+03 -0.79116149676E+03  0.18749715614E+04  0.25500000920E-02 0.  1.
</event>
<event>
 5   0  0.4396257E-07  0.3395109E+04  0.7818609E-02  0.8139108E-01
        2   -1    0    0  501    0  0.00000000000E+00  0.00000000000E+00  0.23123173747E+04  0.23123173747E+04  0.25500000920E-02 0. -1.
       -2   -1    0    0    0  501  0.00000000000E+00  0.00000000000E+00 -0.12462351825E+04  0.12462351825E+04  0.25500000920E-02 0.  1.
    10030    2    1    2    0    0  0.00000000000E+00  0.00000000000E+00  0.10660821922E+04  0.35585525572E+04  0.33951089911E+04 0.  0.
        2    1    3    3  502    0  0.45582387160E+03 -0.22036947664E+02  0.22468172337E+04  0.22926946397E+04  0.25500000920E-02 0. -1.
       -2    1    3    3    0  502 -0.45582387160E+03  0.22036947664E+02 -0.11807350415E+04  0.12658579175E+04  0.25500000920E-02 0.  1.
</event>
<event>
 5   0  0.1435806E-07  0.3367569E+04  0.7818609E-02  0.8145912E-01
       -1   -1    0    0    0  501  0.00000000000E+00  0.00000000000E+00  0.12917032176E+04  0.12917032177E+04  0.50400001928E-02 0.  1.
        1   -1    0    0  501    0  0.00000000000E+00  0.00000000000E+00 -0.21948777079E+04  0.21948777079E+04  0.50400001928E-02 0. -1.
    10030    2    1    2    0    0  0.00000000000E+00  0.00000000000E+00 -0.90317449030E+03  0.34865809256E+04  0.33675692110E+04 0.  0.
        3    1    3    3  502    0 -0.79545826204E+03 -0.30277210079E+03 -0.19557577592E+04  0.21329353517E+04  0.10100000352E+00 0. -1.
       -3    1    3    3    0  502  0.79545826204E+03  0.30277210079E+03  0.10525832689E+04  0.13536455739E+04  0.10100000352E+00 0.  1.
</event>
<event>
 5   0  0.1520084E-07  0.3373819E+04  0.7818609E-02  0.8144362E-01
       -1   -1    0    0    0  501  0.00000000000E+00  0.00000000000E+00  0.13405784516E+04  0.13405784516E+04  0.50400001928E-02 0. -1.
        1   -1    0    0  501    0  0.00000000000E+00  0.00000000000E+00 -0.21227129188E+04  0.21227129188E+04  0.50400001928E-02 0.  1.
    10030    2    1    2    0    0  0.00000000000E+00  0.00000000000E+00 -0.78213446720E+03  0.34632913705E+04  0.33738187254E+04 0.  0.
        2    1    3    3  502    0 -0.13992627701E+04 -0.23471853247E+03 -0.13277540017E+04  0.19431828988E+04  0.25500000920E-02 0. -1.
       -2    1    3    3    0  502  0.13992627701E+04  0.23471853247E+03  0.54561953451E+03  0.15201084717E+04  0.25500000920E-02 0.  1.
</event>
<event>
 5   0  0.4486226E-07  0.3399857E+04  0.7818609E-02  0.8137941E-01
       -2   -1    0    0    0  501  0.00000000000E+00  0.00000000000E+00  0.18108514079E+04  0.18108514079E+04  0.25500000920E-02 0.  1.
        2   -1    0    0  501    0  0.00000000000E+00  0.00000000000E+00 -0.15957999752E+04  0.15957999752E+04  0.25500000920E-02 0. -1.
    10030    2    1    2    0    0  0.00000000000E+00  0.00000000000E+00  0.21505143270E+03  0.34066513832E+04  0.33998568393E+04 0.  0.
        1    1    3    3  502    0 -0.58723038534E+03  0.84431415660E+03 -0.12487119692E+04  0.16177105744E+04  0.50400001928E-02 0. -1.
       -1    1    3    3    0  502  0.58723038534E+03 -0.84431415660E+03  0.14637634019E+04  0.17889408088E+04  0.50400001928E-02 0.  1.
</event>
<event>
 5   0  0.1523259E-07  0.3421101E+04  0.7818609E-02  0.8132747E-01
       -1   -1    0    0    0  501  0.00000000000E+00  0.00000000000E+00  0.10356816922E+04  0.10356816922E+04  0.50400001928E-02 0.  1.
        1   -1    0    0  501    0  0.00000000000E+00  0.00000000000E+00 -0.28251764928E+04  0.28251764928E+04  0.50400001928E-02 0. -1.
    10030    2    1    2    0    0  0.00000000000E+00  0.00000000000E+00 -0.17894948006E+04  0.38608581850E+04  0.34211013261E+04 0.  0.
        4    1    3    3  502    0 -0.61952979087E+03  0.88343576868E+03 -0.23926536537E+04  0.26247036096E+04  0.12699999809E+01 0. -1.
       -4    1    3    3    0  502  0.61952979087E+03 -0.88343576868E+03  0.60315885309E+03  0.12361545753E+04  0.12699999809E+01 0.  1.
</event>
<event>
 5   0  0.4486226E-07  0.3403664E+04  0.7818609E-02  0.8137008E-01
        2   -1    0    0  501    0  0.00000000000E+00  0.00000000000E+00  0.15988253642E+04  0.15988253642E+04  0.25500000920E-02 0.  1.
       -2   -1    0    0    0  501  0.00000000000E+00  0.00000000000E+00 -0.18114748971E+04  0.18114748971E+04  0.25500000920E-02 0. -1.
    10030    2    1    2    0    0  0.00000000000E+00  0.00000000000E+00 -0.21264953292E+03  0.34103002613E+04  0.34036639153E+04 0.  0.
        1    1    3    3  502    0 -0.24160383274E+03  0.11822896401E+03 -0.17900421002E+04  0.18101384534E+04  0.50400001928E-02 0. -1.
       -1    1    3    3    0  502  0.24160383274E+03 -0.11822896401E+03  0.15773925673E+04  0.16001618079E+04  0.50400001928E-02 0.  1.
</event>
<event>
 5   0  0.1473755E-07  0.3383704E+04  0.7818609E-02  0.8141918E-01
       -1   -1    0    0    0  501  0.00000000000E+00  0.00000000000E+00  0.11363319360E+04  0.11363319360E+04  0.50400001928E-02 0. -1.
        1   -1    0    0  501    0  0.00000000000E+00  0.00000000000E+00 -0.25189491935E+04  0.25189491935E+04  0.50400001928E-02 0.  1.
    10030    2    1    2    0    0  0.00000000000E+00  0.00000000000E+00 -0.13826172576E+04  0.36552811295E+04  0.33837035412E+04 0.  0.
        1    1    3    3  502    0 -0.16400013403E+03 -0.96047563054E+03 -0.21854119144E+04  0.23927880634E+04  0.50400001928E-02 0.  1.
       -1    1    3    3    0  502  0.16400013403E+03  0.96047563054E+03  0.80279465686E+03  0.12624930661E+04  0.50400001928E-02 0. -1.
</event>
<event>
 5   0  0.4521737E-07  0.3395306E+04  0.7818609E-02  0.8139059E-01
        2   -1    0    0  501    0  0.00000000000E+00  0.00000000000E+00  0.19495627634E+04  0.19495627634E+04  0.25500000920E-02 0.  1.
       -2   -1    0    0    0  501  0.00000000000E+00  0.00000000000E+00 -0.14782934379E+04  0.14782934379E+04  0.25500000920E-02 0. -1.
    10030    2    1    2    0    0  0.00000000000E+00  0.00000000000E+00  0.47126932547E+03  0.34278562013E+04  0.33953060775E+04 0.  0.
        4    1    3    3  502    0  0.62095533966E+03  0.12462264743E+04 -0.74494299604E+03  0.15791160943E+04  0.12699999809E+01 0. -1.
       -4    1    3    3    0  502 -0.62095533966E+03 -0.12462264743E+04  0.12162123215E+04  0.18487401070E+04  0.12699999809E+01 0.  1.
</event>
<event>
 5   0  0.1421875E-07  0.3418472E+04  0.7818609E-02  0.8133388E-01
       -3   -1    0    0    0  501  0.00000000000E+00  0.00000000000E+00  0.19131608465E+04  0.19131608491E+04  0.10100000352E+00 0.  1.
        3   -1    0    0  501    0  0.00000000000E+00  0.00000000000E+00 -0.15270476643E+04  0.15270476676E+04  0.10100000352E+00 0. -1.
    10030    2    1    2    0    0  0.00000000000E+00  0.00000000000E+00  0.38611318220E+03  0.34402085167E+04  0.34184720635E+04 0.  0.
        5    1    3    3  502    0  0.24010396230E+03  0.10420168516E+04 -0.11488449396E+04  0.15694954020E+04  0.46999998093E+01 0. -1.
       -5    1    3    3    0  502 -0.24010396230E+03 -0.10420168516E+04  0.15349581218E+04  0.18707131147E+04  0.46999998093E+01 0.  1.
</event>
<event>
 5   0  0.4381939E-07  0.3399997E+04  0.7818609E-02  0.8137907E-01
        2   -1    0    0  501    0  0.00000000000E+00  0.00000000000E+00  0.19809493609E+04  0.19809493609E+04  0.25500000920E-02 0.  1.
       -2   -1    0    0    0  501  0.00000000000E+00  0.00000000000E+00 -0.14588939181E+04  0.14588939181E+04  0.25500000920E-02 0. -1.
    10030    2    1    2    0    0  0.00000000000E+00  0.00000000000E+00  0.52205544283E+03  0.34398432791E+04  0.33999970440E+04 0.  0.
        3    1    3    3  502    0  0.73863423782E+03 -0.13554065297E+04 -0.45956061099E+03  0.16105599534E+04  0.10100000352E+00 0. -1.
       -3    1    3    3    0  502 -0.73863423782E+03  0.13554065297E+04  0.98161605382E+03  0.18292833256E+04  0.10100000352E+00 0.  1.
</event>
<event>
 5   0  0.4396257E-07  0.3424559E+04  0.7818609E-02  0.8131905E-01
        2   -1    0    0  501    0  0.00000000000E+00  0.00000000000E+00  0.25254328655E+04  0.25254328655E+04  0.25500000920E-02 0.  1.
       -2   -1    0    0    0  501  0.00000000000E+00  0.00000000000E+00 -0.11609500711E+04  0.11609500711E+04  0.25500000920E-02 0. -1.
    10030    2    1    2    0    0  0.00000000000E+00  0.00000000000E+00  0.13644827944E+04  0.36863829365E+04  0.34245592210E+04 0.  0.
        2    1    3    3  502    0  0.87653416222E+03  0.60590640324E+03  0.21250388234E+04  0.23772304701E+04  0.25500000920E-02 0.  1.
       -2    1    3    3    0  502 -0.87653416222E+03 -0.60590640324E+03 -0.76055602900E+03  0.13091524664E+04  0.25500000920E-02 0. -1.
</event>
<event>
 5   0  0.4486226E-07  0.3496365E+04  0.7818609E-02  0.8114652E-01
        2   -1    0    0  501    0  0.00000000000E+00  0.00000000000E+00  0.16686708317E+04  0.16686708317E+04  0.25500000920E-02 0. -1.
       -2   -1    0    0    0  501  0.00000000000E+00  0.00000000000E+00 -0.18314830688E+04  0.18314830688E+04  0.25500000920E-02 0.  1.
    10030    2    1    2    0    0  0.00000000000E+00  0.00000000000E+00 -0.16281223710E+03  0.35001539006E+04  0.34963651844E+04 0.  0.
        1    1    3    3  502    0  0.31009930684E+01  0.60114293932E+03  0.15619451094E+04  0.16736352573E+04  0.50400001928E-02 0. -1.
       -1    1    3    3    0  502 -0.31009930684E+01 -0.60114293932E+03 -0.17247573465E+04  0.18265186432E+04  0.50400001928E-02 0.  1.
</event>
<event>
 5   0  0.1523259E-07  0.3401798E+04  0.7818609E-02  0.8137465E-01
        1   -1    0    0  501    0  0.00000000000E+00  0.00000000000E+00  0.16561888792E+04  0.16561888792E+04  0.50400001928E-02 0.  1.
       -1   -1    0    0    0  501  0.00000000000E+00  0.00000000000E+00 -0.17468158776E+04  0.17468158777E+04  0.50400001928E-02 0. -1.
    10030    2    1    2    0    0  0.00000000000E+00  0.00000000000E+00 -0.90626998466E+02  0.34030047568E+04  0.34017977780E+04 0.  0.
        4    1    3    3  502    0  0.21268502869E+03  0.16586220243E+03  0.16346602827E+04  0.16567622172E+04  0.12699999809E+01 0.  1.
       -4    1    3    3    0  502 -0.21268502869E+03 -0.16586220243E+03 -0.17252872812E+04  0.17462425396E+04  0.12699999809E+01 0. -1.
</event>
<event>
 5   0  0.4396257E-07  0.3419434E+04  0.7818609E-02  0.8133153E-01
       -2   -1    0    0    0  501  0.00000000000E+00  0.00000000000E+00  0.11684274536E+04  0.11684274536E+04  0.25500000920E-02 0. -1.
        2   -1    0    0  501    0  0.00000000000E+00  0.00000000000E+00 -0.25017668353E+04  0.25017668353E+04  0.25500000920E-02 0.  1.
    10030    2    1    2    0    0  0.00000000000E+00  0.00000000000E+00 -0.13333393817E+04  0.36701942889E+04  0.34194344871E+04 0.  0.
        2    1    3    3  502    0 -0.59546362292E+03 -0.13886562404E+03  0.10470622653E+04  0.12125180309E+04  0.25500000920E-02 0. -1.
       -2    1    3    3    0  502  0.59546362292E+03  0.13886562404E+03 -0.23804016470E+04  0.24576762580E+04  0.25500000920E-02 0.  1.
</event>
<event>
 5   0  0.1421875E-07  0.3408823E+04  0.7818609E-02  0.8135744E-01
       -1   -1    0    0    0  501  0.00000000000E+00  0.00000000000E+00  0.13999756945E+04  0.13999756945E+04  0.50400001928E-02 0.  1.
        1   -1    0    0  501    0  0.00000000000E+00  0.00000000000E+00 -0.20750489106E+04  0.20750489106E+04  0.50400001928E-02 0. -1.
    10030    2    1    2    0    0  0.00000000000E+00  0.00000000000E+00 -0.67507321615E+03  0.34750246051E+04  0.34088226940E+04 0.  0.
        5    1    3    3  502    0 -0.63161848661E+03 -0.54885463281E+03 -0.18512348811E+04  0.20315698353E+04  0.46999998093E+01 0. -1.
       -5    1    3    3    0  502  0.63161848661E+03  0.54885463281E+03  0.11761616649E+04  0.14434547699E+04  0.46999998093E+01 0.  1.
</event>
<event>
 5   0  0.1523259E-07  0.3417656E+04  0.7818609E-02  0.8133586E-01
        1   -1    0    0  501    0  0.00000000000E+00  0.00000000000E+00  0.19317020627E+04  0.19317020627E+04  0.50400001928E-02 0.  1.
       -1   -1    0    0    0  501  0.00000000000E+00  0.00000000000E+00 -0.15116685667E+04  0.15116685667E+04  0.50400001928E-02 0. -1.
    10030    2    1    2    0    0  0.00000000000E+00  0.00000000000E+00  0.42003349597E+03  0.34433706294E+04  0.34176560907E+04 0.  0.
        4    1    3    3  502    0 -0.66169817723E+03  0.75018879137E+03  0.16058881023E+04  0.18919582211E+04  0.12699999809E+01 0.  1.
       -4    1    3    3    0  502  0.66169817723E+03 -0.75018879137E+03 -0.11858546063E+04  0.15514124083E+04  0.12699999809E+01 0. -1.
</event>
<event>
 5   0  0.1520084E-07  0.3397472E+04  0.7818609E-02  0.8138527E-01
        1   -1    0    0  501    0  0.00000000000E+00  0.00000000000E+00  0.20406987972E+04  0.20406987972E+04  0.50400001928E-02 0. -1.
       -1   -1    0    0    0  501  0.00000000000E+00  0.00000000000E+00 -0.14140760434E+04  0.14140760434E+04  0.50400001928E-02 0.  1.
    10030    2    1    2    0    0  0.00000000000E+00  0.00000000000E+00  0.62662275385E+03  0.34547748407E+04  0.33974715781E+04 0.  0.
        2    1    3    3  502    0  0.94462887189E+03  0.69439602699E+03 -0.93672884658E+03  0.15006566829E+04  0.25500000920E-02 0.  1.
       -2    1    3    3    0  502 -0.94462887189E+03 -0.69439602699E+03  0.15633516004E+04  0.19541181578E+04  0.25500000920E-02 0. -1.
</event>
<event>
 5   0  0.1421875E-07  0.3391546E+04  0.7818609E-02  0.8139984E-01
       -1   -1    0    0    0  501  0.00000000000E+00  0.00000000000E+00  0.18028331027E+04  0.18028331027E+04  0.50400001928E-02 0. -1.
        1   -1    0    0  501    0  0.00000000000E+00  0.00000000000E+00 -0.15950702135E+04  0.15950702135E+04  0.50400001928E-02 0.  1.
    10030    2    1    2    0    0  0.00000000000E+00  0.00000000000E+00  0.20776288920E+03  0.33979033163E+04  0.33915455958E+04 0.  0.
        5    1    3    3  502    0  0.15316598906E+04  0.40311118127E+02  0.83189089338E+03  0.17434653869E+04  0.46999998093E+01 0. -1.
       -5    1    3    3    0  502 -0.15316598906E+04 -0.40311118127E+02 -0.62412800418E+03  0.16544379294E+04  0.46999998093E+01 0.  1.
</event>
<event>
 5   0  0.4381939E-07  0.3401954E+04  0.7818609E-02  0.8137427E-01
        2   -1    0    0  501    0  0.00000000000E+00  0.00000000000E+00  0.13457480207E+04  0.13457480207E+04  0.25500000920E-02 0. -1.
       -2   -1    0    0    0  501  0.00000000000E+00  0.00000000000E+00 -0.21499738586E+04  0.21499738586E+04  0.25500000920E-02 0.  1.
    10030    2    1    2    0    0  0.00000000000E+00  0.00000000000E+00 -0.80422583791E+03  0.34957218794E+04  0.34019541824E+04 0.  0.
        3    1    3    3  502    0 -0.79777891514E+03 -0.14974480455E+04 -0.52593833347E+03  0.17763482167E+04  0.10100000352E+00 0. -1.
       -3    1    3    3    0  502  0.79777891514E+03  0.14974480455E+04 -0.27828750444E+03  0.17193736626E+04  0.10100000352E+00 0.  1.
</event>
<event>
 5   0  0.4521737E-07  0.3405290E+04  0.7818609E-02  0.8136609E-01
        2   -1    0    0  501    0  0.00000000000E+00  0.00000000000E+00  0.23235040126E+04  0.23235040126E+04  0.25500000920E-02 0. -1.
       -2   -1    0    0    0  501  0.00000000000E+00  0.00000000000E+00 -0.12476848557E+04  0.12476848557E+04  0.25500000920E-02 0.  1.
    10030    2    1    2    0    0  0.00000000000E+00  0.00000000000E+00  0.10758191569E+04  0.35711888683E+04  0.34052904538E+04 0.  0.
        4    1    3    3  502    0  0.14618674712E+04  0.86011196788E+03  0.69398914933E+03  0.18326133398E+04  0.12699999809E+01 0. -1.
       -4    1    3    3    0  502 -0.14618674712E+04 -0.86011196788E+03  0.38183000762E+03  0.17385755285E+04  0.12699999809E+01 0.  1.
</event>
<event>
 5   0  0.4381939E-07  0.3440541E+04  0.7818609E-02  0.8128027E-01
       -2   -1    0    0    0  501  0.00000000000E+00  0.00000000000E+00  0.12932122736E+04  0.12932122736E+04  0.25500000920E-02 0. -1.
        2   -1    0    0  501    0  0.00000000000E+00  0.00000000000E+00 -0.22883566488E+04  0.22883566488E+04  0.25500000920E-02 0.  1.
    10030    2    1    2    0    0  0.00000000000E+00  0.00000000000E+00 -0.99514437515E+03  0.35815689224E+04  0.34405411811E+04 0.  0.
        3    1    3    3  502    0 -0.48210599358E+03  0.10820639262E+04 -0.17961179551E+04  0.21515873787E+04  0.10100000352E+00 0.  1.
       -3    1    3    3    0  502  0.48210599358E+03 -0.10820639262E+04  0.80097357995E+03  0.14299815437E+04  0.10100000352E+00 0. -1.
</event>
<event>
 5   0  0.1520084E-07  0.3413097E+04  0.7818609E-02  0.8134699E-01
       -1   -1    0    0    0  501  0.00000000000E+00  0.00000000000E+00  0.15415978072E+04  0.15415978072E+04  0.50400001928E-02 0. -1.
        1   -1    0    0  501    0  0.00000000000E+00  0.00000000000E+00 -0.18891488712E+04  0.18891488712E+04  0.50400001928E-02 0.  1.
    10030    2    1    2    0    0  0.00000000000E+00  0.00000000000E+00 -0.34755106408E+03  0.34307466784E+04  0.34130969850E+04 0.  0.
        2    1    3    3  502    0  0.73321706423E+03  0.14713906552E+04  0.28653363872E+03  0.16687418164E+04  0.25500000920E-02 0. -1.
       -2    1    3    3    0  502 -0.73321706423E+03 -0.14713906552E+04 -0.63408470281E+03  0.17620048621E+04  0.25500000920E-02 0.  1.
</event>
<event>
 5   0  0.1520084E-07  0.3483155E+04  0.7818609E-02  0.8117794E-01
        1   -1    0    0  501    0  0.00000000000E+00  0.00000000000E+00  0.25867692641E+04  0.25867692641E+04  0.50400001928E-02 0.  1.
       -1   -1    0    0    0  501  0.00000000000E+00  0.00000000000E+00 -0.11725404351E+04  0.11725404351E+04  0.50400001928E-02 0. -1.
    10030    2    1    2    0    0  0.00000000000E+00  0.00000000000E+00  0.14142288290E+04  0.37593096992E+04  0.34831546382E+04 0.  0.
        2    1    3    3  502    0 -0.14246285908E+04  0.81048827703E+03  0.71679996887E+02  0.16406083905E+04  0.25500000920E-02 0. -1.
       -2    1    3    3    0  502  0.14246285908E+04 -0.81048827703E+03  0.13425488321E+04  0.21187013087E+04  0.25500000920E-02 0.  1.
</event>
<event>
 5   0  0.1421875E-07  0.3397221E+04  0.7818609E-02  0.8138589E-01
        3   -1    0    0  501    0  0.00000000000E+00  0.00000000000E+00  0.16532147527E+04  0.16532147558E+04  0.10100000352E+00 0.  1.
       -3   -1    0    0    0  501  0.00000000000E+00  0.00000000000E+00 -0.17452526094E+04  0.17452526124E+04  0.10100000352E+00 0. -1.
    10030    2    1    2    0    0  0.00000000000E+00  0.00000000000E+00 -0.92037856712E+02  0.33984673682E+04  0.33972208473E+04 0.  0.
        5    1    3    3  502    0  0.11568842569E+04 -0.10711079230E+04 -0.67839161555E+03  0.17163597060E+04  0.46999998093E+01 0. -1.
       -5    1    3    3    0  502 -0.11568842569E+04  0.10711079230E+04  0.58635375884E+03  0.16821076621E+04  0.46999998093E+01 0.  1.
</event>
<event>
 5   0  0.1523259E-07  0.3401372E+04  0.7818609E-02  0.8137570E-01
       -1   -1    0    0    0  501  0.00000000000E+00  0.00000000000E+00  0.14386523455E+04  0.14386523456E+04  0.50400001928E-02 0. -1.
        1   -1    0    0  501    0  0.00000000000E+00  0.00000000000E+00 -0.20104465905E+04  0.20104465905E+04  0.50400001928E-02 0.  1.
    10030    2    1    2    0    0  0.00000000000E+00  0.00000000000E+00 -0.57179424492E+03  0.34490989360E+04  0.34013724894E+04 0.  0.
        4    1    3    3  502    0  0.89700442403E+03 -0.67639196681E+03 -0.15806089297E+04  0.19391877762E+04  0.12699999809E+01 0.  1.
       -4    1    3    3    0  502 -0.89700442403E+03  0.67639196681E+03  0.10088146848E+04  0.15099111599E+04  0.12699999809E+01 0. -1.
</event>
<event>
 5   0  0.1435806E-07  0.3389714E+04  0.7818609E-02  0.8140435E-01
        1   -1    0    0  501    0  0.00000000000E+00  0.00000000000E+00  0.15107076681E+04  0.15107076681E+04  0.50400001928E-02 0. -1.
       -1   -1    0    0    0  501  0.00000000000E+00  0.00000000000E+00 -0.19014537818E+04  0.19014537818E+04  0.50400001928E-02 0.  1.
    10030    2    1    2    0    0  0.00000000000E+00  0.00000000000E+00 -0.39074611371E+03  0.34121614499E+04  0.33897143294E+04 0.  0.
        3    1    3    3  502    0  0.60433398448E+03 -0.68343895453E+03  0.12424528217E+04  0.15414270641E+04  0.10100000352E+00 0. -1.
       -3    1    3    3    0  502 -0.60433398448E+03  0.68343895453E+03 -0.16331989355E+04  0.18707343858E+04  0.10100000352E+00 0.  1.
</event>
<event>
 5   0  0.4521737E-07  0.3392439E+04  0.7818609E-02  0.8139765E-01
        2   -1    0    0  501    0  0.00000000000E+00  0.00000000000E+00  0.26258838455E+04  0.26258838455E+04  0.25500000920E-02 0. -1.
       -2   -1    0    0    0  501  0.00000000000E+00  0.00000000000E+00 -0.10956921486E+04  0.10956921486E+04  0.25500000920E-02 0.  1.
    10030    2    1    2    0    0  0.00000000000E+00  0.00000000000E+00  0.15301916969E+04  0.37215759941E+04  0.33924388352E+04 0.  0.
        4    1    3    3  502    0  0.50743838831E+03 -0.65476057696E+03  0.23888917931E+04  0.25284403776E+04  0.12699999809E+01 0. -1.
       -4    1    3    3    0  502 -0.50743838831E+03  0.65476057696E+03 -0.85870009627E+03  0.11931356165E+04  0.12699999809E+01 0.  1.
</event>
<event>
 5   0  0.4447909E-07  0.3404950E+04  0.7818609E-02  0.8136692E-01
        2   -1    0    0  501    0  0.00000000000E+00  0.00000000000E+00  0.23826340494E+04  0.23826340494E+04  0.25500000920E-02 0.  1.
       -2   -1    0    0    0  501  0.00000000000E+00  0.00000000000E+00 -0.12164778379E+04  0.12164778379E+04  0.25500000920E-02 0. -1.
    10030    2    1    2    0    0  0.00000000000E+00  0.00000000000E+00  0.11661562114E+04  0.35991118873E+04  0.34049502299E+04 0.  0.
        5    1    3    3  502    0 -0.85468838084E+03  0.30166863438E+03  0.21064036019E+04  0.22931320105E+04  0.46999998093E+01 0.  1.
       -5    1    3    3    0  502  0.85468838084E+03 -0.30166863438E+03 -0.94024739051E+03  0.13059798768E+04  0.46999998093E+01 0. -1.
</event>
<event>
 5   0  0.1421875E-07  0.3402865E+04  0.7818609E-02  0.8137204E-01
        1   -1    0    0  501    0  0.00000000000E+00  0.00000000000E+00  0.17718347893E+04  0.17718347894E+04  0.50400001928E-02 0. -1.
       -1   -1    0    0    0  501  0.00000000000E+00  0.00000000000E+00 -0.16338275504E+04  0.16338275504E+04  0.50400001928E-02 0.  1.
    10030    2    1    2    0    0  0.00000000000E+00  0.00000000000E+00  0.13800723893E+03  0.34056623398E+04  0.34028649657E+04 0.  0.
        5    1    3    3  502    0 -0.10303833584E+04 -0.12365742657E+04  0.62085932322E+03  0.17251939512E+04  0.46999998093E+01 0. -1.
       -5    1    3    3    0  502  0.10303833584E+04  0.12365742657E+04 -0.48285208428E+03  0.16804683886E+04  0.46999998093E+01 0.  1.
</event>
<event>
 5   0  0.4486226E-07  0.3389915E+04  0.7818609E-02  0.8140386E-01
       -2   -1    0    0    0  501  0.00000000000E+00  0.00000000000E+00  0.30264746716E+04  0.30264746716E+04  0.25500000920E-02 0.  1.
        2   -1    0    0  501    0  0.00000000000E+00  0.00000000000E+00 -0.94925005256E+03  0.94925005256E+03  0.25500000920E-02 0. -1.
    10030    2    1    2    0    0  0.00000000000E+00  0.00000000000E+00  0.20772246190E+04  0.39757247242E+04  0.33899151854E+04 0.  0.
        1    1    3    3  502    0 -0.16625944466E+04  0.12280518389E+03  0.67984025379E+03  0.18004122244E+04  0.50400001928E-02 0. -1.
       -1    1    3    3    0  502  0.16625944466E+04 -0.12280518389E+03  0.13973843652E+04  0.21753124997E+04  0.50400001928E-02 0.  1.
</event>
<event>
 5   0  0.4396257E-07  0.3393270E+04  0.7818609E-02  0.8139560E-01
       -2   -1    0    0    0  501  0.00000000000E+00  0.00000000000E+00  0.15185507925E+04  0.15185507925E+04  0.25500000920E-02 0. -1.
        2   -1    0    0  501    0  0.00000000000E+00  0.00000000000E+00 -0.18956033917E+04  0.18956033917E+04  0.25500000920E-02 0.  1.
    10030    2    1    2    0    0  0.00000000000E+00  0.00000000000E+00 -0.37705259914E+03  0.34141541842E+04  0.33932698288E+04 0.  0.
        2    1    3    3  502    0  0.11726313042E+04  0.42020499564E+03  0.97048943840E+03  0.15790776308E+04  0.25500000920E-02 0. -1.
       -2    1    3    3    0  502 -0.11726313042E+04 -0.42020499564E+03 -0.13475420375E+04  0.18350765534E+04  0.25500000920E-02 0.  1.
</event>
<event>
 5   0  0.4396257E-07  0.3398760E+04  0.7818609E-02  0.8138211E-01
       -2   -1    0    0    0  501  0.00000000000E+00  0.00000000000E+00  0.10553657807E+04  0.10553657807E+04  0.25500000920E-02 0.  1.
        2   -1    0    0  501    0  0.00000000000E+00  0.00000000000E+00 -0.27363900901E+04  0.27363900901E+04  0.25500000920E-02 0. -1.
    10030    2    1    2    0    0  0.00000000000E+00  0.00000000000E+00 -0.16810243094E+04  0.37917558708E+04  0.33987600466E+04 0.  0.
        2    1    3    3  502    0 -0.14856182824E+04 -0.76331968198E+03 -0.49095534606E+03  0.17409065942E+04  0.25500000920E-02 0.  1.
       -2    1    3    3    0  502  0.14856182824E+04  0.76331968198E+03 -0.11900689634E+04  0.20508492766E+04  0.25500000920E-02 0. -1.
</event>
<event>
 5   0  0.1523259E-07  0.3407836E+04  0.7818609E-02  0.8135986E-01
        1   -1    0    0  501    0  0.00000000000E+00  0.00000000000E+00  0.15978738521E+04  0.15978738521E+04  0.50400001928E-02 0.  1.
       -1   -1    0    0    0  501  0.00000000000E+00  0.00000000000E+00 -0.18170001941E+04  0.18170001941E+04  0.50400001928E-02 0. -1.
    10030    2    1    2    0    0  0.00000000000E+00  0.00000000000E+00 -0.21912634202E+03  0.34148740463E+04  0.34078363221E+04 0.  0.
        4    1    3    3  502    0  0.12610987171E+03  0.98711696228E+03 -0.14955435024E+04  0.17963728949E+04  0.12699999809E+01 0. -1.
       -4    1    3    3    0  502 -0.12610987171E+03 -0.98711696228E+03  0.12764171604E+04  0.16185011514E+04  0.12699999809E+01 0.  1.
</event>
<event>
 5   0  0.1473755E-07  0.3377941E+04  0.7818609E-02  0.8143342E-01
        1   -1    0    0  501    0  0.00000000000E+00  0.00000000000E+00  0.26909221221E+04  0.26909221221E+04  0.50400001928E-02 0.  1.
       -1   -1    0    0    0  501  0.00000000000E+00  0.00000000000E+00 -0.10600903653E+04  0.10600903653E+04  0.50400001928E-02 0. -1.
    10030    2    1    2    0    0  0.00000000000E+00  0.00000000000E+00  0.16308317567E+04  0.37510124874E+04  0.33779405652E+04 0.  0.
        1    1    3    3  502    0 -0.53140521167E+03  0.11501797734E+04 -0.42476400930E+03  0.13363118924E+04  0.50400001928E-02 0. -1.
       -1    1    3    3    0  502  0.53140521167E+03 -0.11501797734E+04  0.20555957660E+04  0.24147005950E+04  0.50400001928E-02 0.  1.
</event>
<event>
 5   0  0.4447909E-07  0.3296398E+04  0.7818609E-02  0.8163812E-01
        2   -1    0    0  501    0  0.00000000000E+00  0.00000000000E+00  0.23070959215E+04  0.23070959215E+04  0.25500000920E-02 0.  1.
       -2   -1    0    0    0  501  0.00000000000E+00  0.00000000000E+00 -0.11774805223E+04  0.11774805223E+04  0.25500000920E-02 0. -1.
    10030    2    1    2    0    0  0.00000000000E+00  0.00000000000E+00  0.11296153992E+04  0.34845764438E+04  0.32963983440E+04 0.  0.
        5    1    3    3  502    0 -0.67204901638E+03 -0.13255296902E+04  0.13181322723E+04  0.19864978272E+04  0.46999998093E+01 0.  1.
       -5    1    3    3    0  502  0.67204901638E+03  0.13255296902E+04 -0.18851687309E+03  0.14980786166E+04  0.46999998093E+01 0. -1.
</event>
<event>
 5   0  0.1421875E-07  0.3380076E+04  0.7818609E-02  0.8142814E-01
        1   -1    0    0  501    0  0.00000000000E+00  0.00000000000E+00  0.27311868648E+04  0.27311868648E+04  0.50400001928E-02 0.  1.
       -1   -1    0    0    0  501  0.00000000000E+00  0.00000000000E+00 -0.10457830405E+04  0.10457830405E+04  0.50400001928E-02 0. -1.
    10030    2    1    2    0    0  0.00000000000E+00  0.00000000000E+00  0.16854038243E+04  0.37769699054E+04  0.33800762735E+04 0.  0.
        5    1    3    3  502    0 -0.70996904659E+03 -0.11937670248E+03  0.25512609361E+04  0.26508982060E+04  0.46999998093E+01 0.  1.
       -5    1    3    3    0  502  0.70996904659E+03  0.11937670248E+03 -0.86585711177E+03  0.11260716994E+04  0.46999998093E+01 0. -1.
</event>
<event>
 5   0  0.4396257E-07  0.3399185E+04  0.7818609E-02  0.8138106E-01
       -2   -1    0    0    0  501  0.00000000000E+00  0.00000000000E+00  0.13325122366E+04  0.13325122366E+04  0.25500000920E-02 0.  1.
        2   -1    0    0  501    0  0.00000000000E+00  0.00000000000E+00 -0.21677964985E+04  0.21677964985E+04  0.25500000920E-02 0. -1.
    10030    2    1    2    0    0  0.00000000000E+00  0.00000000000E+00 -0.83528426195E+03  0.35003087351E+04  0.33991854087E+04 0.  0.
        2    1    3    3  502    0 -0.82742977247E+03  0.11845661577E+04  0.50384157336E+03  0.15302592399E+04  0.25500000920E-02 0.  1.
       -2    1    3    3    0  502  0.82742977247E+03 -0.11845661577E+04 -0.13391258353E+04  0.19700494951E+04  0.25500000920E-02 0. -1.
</event>
<event>
 5   0  0.4521737E-07  0.3265518E+04  0.7818609E-02  0.8171725E-01
       -2   -1    0    0    0  501  0.00000000000E+00  0.00000000000E+00  0.15141575556E+04  0.15141575556E+04  0.25500000920E-02 0. -1.
        2   -1    0    0  501    0  0.00000000000E+00  0.00000000000E+00 -0.17606498918E+04  0.17606498918E+04  0.25500000920E-02 0.  1.
    10030    2    1    2    0    0  0.00000000000E+00  0.00000000000E+00 -0.24649233618E+03  0.32748074473E+04  0.32655176229E+04 0.  0.
        4    1    3    3  502    0 -0.52757642519E+03 -0.60748283453E+03 -0.15480368521E+04  0.17446466654E+04  0.12699999809E+01 0.  1.
       -4    1    3    3    0  502  0.52757642519E+03  0.60748283453E+03  0.13015445159E+04  0.15301607819E+04  0.12699999809E+01 0. -1.
</event>
<event>
 5   0  0.1523259E-07  0.3409155E+04  0.7818609E-02  0.8135663E-01
        1   -1    0    0  501    0  0.00000000000E+00  0.00000000000E+00  0.18668527847E+04  0.18668527847E+04  0.50400001928E-02 0.  1.
       -1   -1    0    0    0  501  0.00000000000E+00  0.00000000000E+00 -0.15564079081E+04  0.15564079081E+04  0.50400001928E-02 0. -1.
    10030    2    1    2    0    0  0.00000000000E+00  0.00000000000E+00  0.31044487660E+03  0.34232606929E+04  0.34091549906E+04 0.  0.
        4    1    3    3  502    0  0.10473265673E+04  0.84882567225E+03 -0.89225473560E+03  0.16166378959E+04  0.12699999809E+01 0. -1.
       -4    1    3    3    0  502 -0.10473265673E+04 -0.84882567225E+03  0.12026996122E+04  0.18066227970E+04  0.12699999809E+01 0.  1.
</event>
<event>
 5   0  0.4447909E-07  0.3387531E+04  0.7818609E-02  0.8140973E-01
        2   -1    0    0  501    0  0.00000000000E+00  0.00000000000E+00  0.26768386952E+04  0.26768386952E+04  0.25500000920E-02 0. -1.
       -2   -1    0    0    0  501  0.00000000000E+00  0.00000000000E+00 -0.10717277145E+04  0.10717277145E+04  0.25500000920E-02 0.  1.
    10030    2    1    2    0    0  0.00000000000E+00  0.00000000000E+00  0.16051109808E+04  0.37485664097E+04  0.33875313825E+04 0.  0.
        5    1    3    3  502    0  0.74917354296E+03  0.15151743881E+04  0.92278963264E+03  0.19257666577E+04  0.46999998093E+01 0.  1.
       -5    1    3    3    0  502 -0.74917354296E+03 -0.15151743881E+04  0.68232134811E+03  0.18227997520E+04  0.46999998093E+01 0. -1.
</event>
<event>
 5   0  0.4381939E-07  0.3399270E+04  0.7818609E-02  0.8138085E-01
       -2   -1    0    0    0  501  0.00000000000E+00  0.00000000000E+00  0.11299610359E+04  0.11299610359E+04  0.25500000920E-02 0. -1.
        2   -1    0    0  501    0  0.00000000000E+00  0.00000000000E+00 -0.25565125698E+04  0.25565125698E+04  0.25500000920E-02 0.  1.
    10030    2    1    2    0    0  0.00000000000E+00  0.00000000000E+00 -0.14265515339E+04  0.36864736057E+04  0.33992702698E+04 0.  0.
        3    1    3    3  502    0 -0.11389839473E+04 -0.88163717682E+03 -0.16918383181E+04  0.22219103152E+04  0.10100000352E+00 0.  1.
       -3    1    3    3    0  502  0.11389839473E+04  0.88163717682E+03  0.26528678425E+03  0.14645632905E+04  0.10100000352E+00 0. -1.
</event>
<event>
 5   0  0.4521737E-07  0.3401738E+04  0.7818609E-02  0.8137480E-01
        2   -1    0    0  501    0  0.00000000000E+00  0.00000000000E+00  0.19796446445E+04  0.19796446445E+04  0.25500000920E-02 0.  1.
       -2   -1    0    0    0  501  0.00000000000E+00  0.00000000000E+00 -0.14613510221E+04  0.14613510221E+04  0.25500000920E-02 0. -1.
    10030    2    1    2    0    0  0.00000000000E+00  0.00000000000E+00  0.51829362245E+03  0.34409956666E+04  0.34017382173E+04 0.  0.
        4    1    3    3  502    0 -0.75898892745E+03 -0.12039121557E+04 -0.68299078320E+03  0.15785900967E+04  0.12699999809E+01 0. -1.
       -4    1    3    3    0  502  0.75898892745E+03  0.12039121557E+04  0.12012844056E+04  0.18624055699E+04  0.12699999809E+01 0.  1.
</event>
<event>
 5   0  0.1520084E-07  0.3397340E+04  0.7818609E-02  0.8138560E-01
       -1   -1    0    0    0  501  0.00000000000E+00  0.00000000000E+00  0.25745055320E+04  0.25745055320E+04  0.50400001928E-02 0.  1.
        1   -1    0    0  501    0  0.00000000000E+00  0.00000000000E+00 -0.11207898185E+04  0.11207898185E+04  0.50400001928E-02 0. -1.
    10030    2    1    2    0    0  0.00000000000E+00  0.00000000000E+00  0.14537157135E+04  0.36952953505E+04  0.33973398934E+04 0.  0.
        2    1    3    3  502    0  0.10280667123E+04 -0.86058926476E+03  0.18613814590E+04  0.22939651226E+04  0.25500000920E-02 0.  1.
       -2    1    3    3    0  502 -0.10280667123E+04  0.86058926476E+03 -0.40766574559E+03  0.14013302279E+04  0.25500000920E-02 0. -1.
</event>
<event>
 5   0  0.4447909E-07  0.3404798E+04  0.7818609E-02  0.8136730E-01
       -2   -1    0    0    0  501  0.00000000000E+00  0.00000000000E+00  0.98294635460E+03  0.98294635460E+03  0.25500000920E-02 0.  1.
        2   -1    0    0  501    0  0.00000000000E+00  0.00000000000E+00 -0.29484447149E+04  0.29484447149E+04  0.25500000920E-02 0. -1.
    10030    2    1    2    0    0  0.00000000000E+00  0.00000000000E+00 -0.19654983603E+04  0.39313910695E+04  0.34047983695E+04 0.  0.
        5    1    3    3  502    0 -0.33167095710E+03 -0.76605588903E+03  0.73039469708E+03  0.11092095169E+04  0.46999998093E+01 0.  1.
       -5    1    3    3    0  502  0.33167095710E+03  0.76605588903E+03 -0.26958930574E+04  0.28221815526E+04  0.46999998093E+01 0. -1.
</event>
<event>
 5   0  0.1421875E-07  0.3397853E+04  0.7818609E-02  0.8138433E-01
        1   -1    0    0  501    0  0.00000000000E+00  0.00000000000E+00  0.25194185952E+04  0.25194185952E+04  0.50400001928E-02 0. -1.
       -1   -1    0    0    0  501  0.00000000000E+00  0.00000000000E+00 -0.11456417905E+04  0.11456417905E+04  0.50400001928E-02 0.  1.
    10030    2    1    2    0    0  0.00000000000E+00  0.00000000000E+00  0.13737768047E+04  0.36650603857E+04  0.33978529871E+04 0.  0.
        5    1    3    3  502    0  0.67774430364E+03  0.14350339259E+04  0.32846894181E+02  0.15873754181E+04  0.46999998093E+01 0.  1.
       -5    1    3    3    0  502 -0.67774430364E+03 -0.14350339259E+04  0.13409299106E+04  0.20776849676E+04  0.46999998093E+01 0. -1.
</event>
<event>
 5   0  0.4521737E-07  0.3425112E+04  0.7818609E-02  0.8131770E-01
       -2   -1    0    0    0  501  0.00000000000E+00  0.00000000000E+00  0.16885567415E+04  0.16885567415E+04  0.25500000920E-02 0.  1.
        2   -1    0    0  501    0  0.00000000000E+00  0.00000000000E+00 -0.17368963580E+04  0.17368963580E+04  0.25500000920E-02 0. -1.
    10030    2    1    2    0    0  0.00000000000E+00  0.00000000000E+00 -0.48339616527E+02  0.34254530996E+04  0.34251120009E+04 0.  0.
        4    1    3    3  502    0  0.56420111358E+02 -0.10190153478E+04  0.13512020130E+04  0.16933174543E+04  0.12699999809E+01 0.  1.
       -4    1    3    3    0  502 -0.56420111358E+02  0.10190153478E+04 -0.13995416295E+04  0.17321356453E+04  0.12699999809E+01 0. -1.
</event>
<event>
 5   0  0.1473755E-07  0.3410723E+04  0.7818609E-02  0.8135280E-01
        1   -1    0    0  501    0  0.00000000000E+00  0.00000000000E+00  0.18297296969E+04  0.18297296969E+04  0.50400001928E-02 0. -1.
       -1   -1    0    0    0  501  0.00000000000E+00  0.00000000000E+00 -0.15894466929E+04  0.15894466929E+04  0.50400001928E-02 0.  1.
    10030    2    1    2    0    0  0.00000000000E+00  0.00000000000E+00  0.24028300403E+03  0.34191763898E+04  0.34107229824E+04 0.  0.
        1    1    3    3  502    0 -0.93515958344E+03  0.97887460211E+03 -0.91951079165E+03  0.16365265134E+04  0.50400001928E-02 0.  1.
       -1    1    3    3    0  502  0.93515958344E+03 -0.97887460211E+03  0.11597937957E+04  0.17826498764E+04  0.50400001928E-02 0. -1.
</event>
<event>
 5   0  0.4447909E-07  0.3380572E+04  0.7818609E-02  0.8142691E-01
       -2   -1    0    0    0  501  0.00000000000E+00  0.00000000000E+00  0.14722855766E+04  0.14722855766E+04  0.25500000920E-02 0.  1.
        2   -1    0    0  501    0  0.00000000000E+00  0.00000000000E+00 -0.19405654350E+04  0.19405654350E+04  0.25500000920E-02 0. -1.
    10030    2    1    2    0    0  0.00000000000E+00  0.00000000000E+00 -0.46827985846E+03  0.34128510116E+04  0.33805718454E+04 0.  0.
        5    1    3    3  502    0  0.42930883280E+03  0.13099781904E+04 -0.12215874409E+04  0.18419139228E+04  0.46999998093E+01 0. -1.
       -5    1    3    3    0  502 -0.42930883280E+03 -0.13099781904E+04  0.75330758243E+03  0.15709370888E+04  0.46999998093E+01 0.  1.
</event>
<event>
 5   0  0.1421875E-07  0.3405374E+04  0.7818609E-02  0.8136589E-01
        1   -1    0    0  501    0  0.00000000000E+00  0.00000000000E+00  0.22609268218E+04  0.22609268218E+04  0.50400001928E-02 0.  1.
       -1   -1    0    0    0  501  0.00000000000E+00  0.00000000000E+00 -0.12822808330E+04  0.12822808331E+04  0.50400001928E-02 0. -1.
    10030    2    1    2    0    0  0.00000000000E+00  0.00000000000E+00  0.97864598877E+03  0.35432076549E+04  0.34053740638E+04 0.  0.
        5    1    3    3  502    0 -0.10467827676E+04  0.14727775366E+03 -0.89949764977E+03  0.13880068484E+04  0.46999998093E+01 0. -1.
       -5    1    3    3    0  502  0.10467827676E+04 -0.14727775366E+03  0.18781436385E+04  0.21552008065E+04  0.46999998093E+01 0.  1.
</event>
<event>
 5   0  0.1421875E-07  0.3390742E+04  0.7818609E-02  0.8140182E-01
        1   -1    0    0  501    0  0.00000000000E+00  0.00000000000E+00  0.19967022039E+04  0.19967022039E+04  0.50400001928E-02 0. -1.
       -1   -1    0    0    0  501  0.00000000000E+00  0.00000000000E+00 -0.14395148511E+04  0.14395148511E+04  0.50400001928E-02 0.  1.
    10030    2    1    2    0    0  0.00000000000E+00  0.00000000000E+00  0.55718735280E+03  0.34362170550E+04  0.33907417925E+04 0.  0.
        5    1    3    3  502    0 -0.64927596758E+03  0.49916073713E+03 -0.12257473710E+04  0.14741775440E+04  0.46999998093E+01 0.  1.
       -5    1    3    3    0  502  0.64927596758E+03 -0.49916073713E+03  0.17829347238E+04  0.19620395111E+04  0.46999998093E+01 0. -1.
</event>
<event>
 5   0  0.4447909E-07  0.3410748E+04  0.7818609E-02  0.8135273E-01
       -2   -1    0    0    0  501  0.00000000000E+00  0.00000000000E+00  0.13921783830E+04  0.13921783830E+04  0.25500000920E-02 0. -1.
        2   -1    0    0  501    0  0.00000000000E+00  0.00000000000E+00 -0.20890290062E+04  0.20890290062E+04  0.25500000920E-02 0.  1.
    10030    2    1    2    0    0  0.00000000000E+00  0.00000000000E+00 -0.69685062315E+03  0.34812073892E+04  0.34107483190E+04 0.  0.
        5    1    3    3  502    0  0.72773011336E+03  0.62980360018E+03 -0.17853562941E+04  0.20282413268E+04  0.46999998093E+01 0.  1.
       -5    1    3    3    0  502 -0.72773011336E+03 -0.62980360018E+03  0.10885056710E+04  0.14529660624E+04  0.46999998093E+01 0. -1.
</event>
<event>
 5   0  0.1473755E-07  0.3393457E+04  0.7818609E-02  0.8139514E-01
       -1   -1    0    0    0  501  0.00000000000E+00  0.00000000000E+00  0.14199038314E+04  0.14199038314E+04  0.50400001928E-02 0. -1.
        1   -1    0    0  501    0  0.00000000000E+00  0.00000000000E+00 -0.20275232662E+04  0.20275232662E+04  0.50400001928E-02 0.  1.
    10030    2    1    2    0    0  0.00000000000E+00  0.00000000000E+00 -0.60761943482E+03  0.34474270977E+04  0.33934572660E+04 0.  0.
        1    1    3    3  502    0 -0.49070457209E+03 -0.16136148796E+04 -0.49207869292E+03  0.17568965242E+04  0.50400001928E-02 0. -1.
       -1    1    3    3    0  502  0.49070457209E+03  0.16136148796E+04 -0.11554074190E+03  0.16905305734E+04  0.50400001928E-02 0.  1.
</event>
<event>
 5   0  0.1523259E-07  0.3394755E+04  0.7818609E-02  0.8139195E-01
        1   -1    0    0  501    0  0.00000000000E+00  0.00000000000E+00  0.19748590834E+04  0.19748590834E+04  0.50400001928E-02 0. -1.
       -1   -1    0    0    0  501  0.00000000000E+00  0.00000000000E+00 -0.14588837760E+04  0.14588837760E+04  0.50400001928E-02 0.  1.
    10030    2    1    2    0    0  0.00000000000E+00  0.00000000000E+00  0.51597530736E+03  0.34337428594E+04  0.33947547049E+04 0.  0.
        4    1    3    3  502    0 -0.23016064429E+03 -0.17806308332E+02 -0.14429308526E+04  0.14612809603E+04  0.12699999809E+01 0.  1.
       -4    1    3    3    0  502  0.23016064429E+03  0.17806308332E+02  0.19589061599E+04  0.19724618990E+04  0.12699999809E+01 0. -1.
</event>
<event>
 5   0  0.1421875E-07  0.3398121E+04  0.7818609E-02  0.8138368E-01
        1   -1    0    0  501    0  0.00000000000E+00  0.00000000000E+00  0.23701125791E+04  0.23701125791E+04  0.50400001928E-02 0. -1.
       -1   -1    0    0    0  501  0.00000000000E+00  0.00000000000E+00 -0.12180042459E+04  0.12180042459E+04  0.50400001928E-02 0.  1.
    10030    2    1    2    0    0  0.00000000000E+00  0.00000000000E+00  0.11521083332E+04  0.35881168250E+04  0.33981213543E+04 0.  0.
        5    1    3    3  502    0  0.87311069890E+03 -0.97689378039E+03 -0.56615818569E+03  0.14273054795E+04  0.46999998093E+01 0.  1.
       -5    1    3    3    0  502 -0.87311069890E+03  0.97689378039E+03  0.17182665189E+04  0.21608113454E+04  0.46999998093E+01 0. -1.
</event>
<event>
 5   0  0.1523259E-07  0.3192369E+04  0.7818609E-02  0.8190835E-01
        1   -1    0    0  501    0  0.00000000000E+00  0.00000000000E+00  0.18527320603E+04  0.18527320603E+04  0.50400001928E-02 0. -1.
       -1   -1    0    0    0  501  0.00000000000E+00  0.00000000000E+00 -0.13751611768E+04  0.13751611768E+04  0.50400001928E-02 0.  1.
    10030    2    1    2    0    0  0.00000000000E+00  0.00000000000E+00  0.47757088346E+03  0.32278932371E+04  0.31923691518E+04 0.  0.
        4    1    3    3  502    0 -0.12135861213E+04 -0.56235087980E+03 -0.64198396304E+03  0.14836356721E+04  0.12699999809E+01 0.  1.
       -4    1    3    3    0  502  0.12135861213E+04  0.56235087980E+03  0.11195548465E+04  0.17442575650E+04  0.12699999809E+01 0. -1.
</event>
<event>
 5   0  0.1523259E-07  0.3392381E+04  0.7818609E-02  0.8139779E-01
        1   -1    0    0  501    0  0.00000000000E+00  0.00000000000E+00  0.13416788770E+04  0.13416788770E+04  0.50400001928E-02 0.  1.
       -1   -1    0    0    0  501  0.00000000000E+00  0.00000000000E+00 -0.21443749344E+04  0.21443749344E+04  0.50400001928E-02 0. -1.
    10030    2    1    2    0    0  0.00000000000E+00  0.00000000000E+00 -0.80269605745E+03  0.34860538114E+04  0.33923812014E+04 0.  0.
        4    1    3    3  502    0  0.23960363352E+02 -0.68305834529E+03 -0.19966047533E+04  0.21103494867E+04  0.12699999809E+01 0. -1.
       -4    1    3    3    0  502 -0.23960363352E+02  0.68305834529E+03  0.11939086959E+04  0.13757043247E+04  0.12699999809E+01 0.  1.
</event>
<event>
 5   0  0.1523259E-07  0.3376550E+04  0.7818609E-02  0.8143686E-01
        1   -1    0    0  501    0  0.00000000000E+00  0.00000000000E+00  0.19268545724E+04  0.19268545724E+04  0.50400001928E-02 0. -1.
       -1   -1    0    0    0  501  0.00000000000E+00  0.00000000000E+00 -0.14792363314E+04  0.14792363314E+04  0.50400001928E-02 0.  1.
    10030    2    1    2    0    0  0.00000000000E+00  0.00000000000E+00  0.44761824099E+03  0.34060909039E+04  0.33765504818E+04 0.  0.
        4    1    3    3  502    0  0.12911740741E+04  0.89637463132E+03 -0.39774193691E+03  0.16213630780E+04  0.12699999809E+01 0.  1.
       -4    1    3    3    0  502 -0.12911740741E+04 -0.89637463132E+03  0.84536017790E+03  0.17847278259E+04  0.12699999809E+01 0. -1.
</event>
<event>
 5   0  0.1435806E-07  0.3390016E+04  0.7818609E-02  0.8140361E-01
        1   -1    0    0  501    0  0.00000000000E+00  0.00000000000E+00  0.16728479552E+04  0.16728479552E+04  0.50400001928E-02 0. -1.
       -1   -1    0    0    0  501  0.00000000000E+00  0.00000000000E+00 -0.17174615789E+04  0.17174615789E+04  0.50400001928E-02 0.  1.
    10030    2    1    2    0    0  0.00000000000E+00  0.00000000000E+00 -0.44613623767E+02  0.33903095341E+04  0.33900159825E+04 0.  0.
        3    1    3    3  502    0  0.52256758409E+03 -0.57187451454E+03  0.14854492683E+04  0.16753139644E+04  0.10100000352E+00 0. -1.
       -3    1    3    3    0  502 -0.52256758409E+03  0.57187451454E+03 -0.15300628921E+04  0.17149955697E+04  0.10100000352E+00 0.  1.
</event>
<event>
 5   0  0.4396257E-07  0.3389742E+04  0.7818609E-02  0.8140429E-01
        2   -1    0    0  501    0  0.00000000000E+00  0.00000000000E+00  0.16829972526E+04  0.16829972526E+04  0.25500000920E-02 0. -1.
       -2   -1    0    0    0  501  0.00000000000E+00  0.00000000000E+00 -0.17068283214E+04  0.17068283214E+04  0.25500000920E-02 0.  1.
    10030    2    1    2    0    0  0.00000000000E+00  0.00000000000E+00 -0.23831068837E+02  0.33898255740E+04  0.33897418047E+04 0.  0.
        2    1    3    3  502    0  0.65479764084E+03  0.35369524099E+03  0.15108588108E+04  0.16842074160E+04  0.25500000920E-02 0. -1.
       -2    1    3    3    0  502 -0.65479764084E+03 -0.35369524099E+03 -0.15346898797E+04  0.17056181580E+04  0.25500000920E-02 0.  1.
</event>
<event>
 5   0  0.1435806E-07  0.3398928E+04  0.7818609E-02  0.8138170E-01
       -1   -1    0    0    0  501  0.00000000000E+00  0.00000000000E+00  0.20747844164E+04  0.20747844164E+04  0.50400001928E-02 0. -1.
        1   -1    0    0  501    0  0.00000000000E+00  0.00000000000E+00 -0.13920371983E+04  0.13920371983E+04  0.50400001928E-02 0.  1.
    10030    2    1    2    0    0  0.00000000000E+00  0.00000000000E+00  0.68274721808E+03  0.34668216147E+04  0.33989275285E+04 0.  0.
        3    1    3    3  502    0 -0.11360850660E+04 -0.38935162371E+03 -0.88509852487E+03  0.14918724386E+04  0.10100000352E+00 0.  1.
       -3    1    3    3    0  502  0.11360850660E+04  0.38935162371E+03  0.15678457429E+04  0.19749491761E+04  0.10100000352E+00 0. -1.
</event>
<event>
 5   0  0.1473755E-07  0.3408784E+04  0.7818609E-02  0.8135754E-01
       -1   -1    0    0    0  501  0.00000000000E+00  0.00000000000E+00  0.14426244543E+04  0.14426244543E+04  0.50400001928E-02 0.  1.
        1   -1    0    0  501    0  0.00000000000E+00  0.00000000000E+00 -0.20136579974E+04  0.20136579974E+04  0.50400001928E-02 0. -1.
    10030    2    1    2    0    0  0.00000000000E+00  0.00000000000E+00 -0.57103354305E+03  0.34562824517E+04  0.34087841056E+04 0.  0.
        1    1    3    3  502    0 -0.14417776222E+04 -0.80159465549E+03  0.14902889541E+03  0.16563472810E+04  0.50400001928E-02 0.  1.
       -1    1    3    3    0  502  0.14417776222E+04  0.80159465549E+03 -0.72006243846E+03  0.17999351707E+04  0.50400001928E-02 0. -1.
</event>
<event>
 5   0  0.4447909E-07  0.3398085E+04  0.7818609E-02  0.8138377E-01
        2   -1    0    0  501    0  0.00000000000E+00  0.00000000000E+00  0.12548208260E+04  0.12548208260E+04  0.25500000920E-02 0. -1.
       -2   -1    0    0    0  501  0.00000000000E+00  0.00000000000E+00 -0.23005236468E+04  0.23005236468E+04  0.25500000920E-02 0.  1.
    10030    2    1    2    0    0  0.00000000000E+00  0.00000000000E+00 -0.10457028208E+04  0.35553444728E+04  0.33980847445E+04 0.  0.
        5    1    3    3  502    0 -0.10181593020E+04  0.13355545288E+04 -0.79239493508E+03  0.18569507497E+04  0.46999998093E+01 0.  1.
       -5    1    3    3    0  502  0.10181593020E+04 -0.13355545288E+04 -0.25330788568E+03  0.16983937231E+04  0.46999998093E+01 0. -1.
</event>
<event>
 5   0  0.1520084E-07  0.3367201E+04  0.7818609E-02  0.8146003E-01
        1   -1    0    0  501    0  0.00000000000E+00  0.00000000000E+00  0.14695474507E+04  0.14695474507E+04  0.50400001928E-02 0. -1.
       -1   -1    0    0    0  501  0.00000000000E+00  0.00000000000E+00 -0.19288328663E+04  0.19288328663E+04  0.50400001928E-02 0.  1.
    10030    2    1    2    0    0  0.00000000000E+00  0.00000000000E+00 -0.45928541560E+03  0.33983803169E+04  0.33672014620E+04 0.  0.
        2    1    3    3  502    0  0.85084369890E+03 -0.12654118108E+04  0.49062461433E+03  0.16018472346E+04  0.25500000920E-02 0. -1.
       -2    1    3    3    0  502 -0.85084369890E+03  0.12654118108E+04 -0.94991002993E+03  0.17965330823E+04  0.25500000920E-02 0.  1.
</event>
<event>
 5   0  0.1421875E-07  0.3402090E+04  0.7818609E-02  0.8137394E-01
        1   -1    0    0  501    0  0.00000000000E+00  0.00000000000E+00  0.25719839022E+04  0.25719839022E+04  0.50400001928E-02 0.  1.
       -1   -1    0    0    0  501  0.00000000000E+00  0.00000000000E+00 -0.11250281472E+04  0.11250281472E+04  0.50400001928E-02 0. -1.
    10030    2    1    2    0    0  0.00000000000E+00  0.00000000000E+00  0.14469557551E+04  0.36970120494E+04  0.34020901129E+04 0.  0.
        5    1    3    3  502    0 -0.48517856696E+03 -0.10659534488E+04 -0.61710867350E+03  0.13238203057E+04  0.46999998093E+01 0. -1.
       -5    1    3    3    0  502  0.48517856696E+03  0.10659534488E+04  0.20640644286E+04  0.23731917437E+04  0.46999998093E+01 0.  1.
</event>
<event>
 5   0  0.1523259E-07  0.3381251E+04  0.7818609E-02  0.8142523E-01
       -1   -1    0    0    0  501  0.00000000000E+00  0.00000000000E+00  0.13193383366E+04  0.13193383366E+04  0.50400001928E-02 0.  1.
        1   -1    0    0  501    0  0.00000000000E+00  0.00000000000E+00 -0.21663995100E+04  0.21663995100E+04  0.50400001928E-02 0. -1.
    10030    2    1    2    0    0  0.00000000000E+00  0.00000000000E+00 -0.84706117346E+03  0.34857378466E+04  0.33812506124E+04 0.  0.
        4    1    3    3  502    0  0.22590277748E+03 -0.32829409379E+03 -0.21172881317E+04  0.21544650664E+04  0.12699999809E+01 0. -1.
       -4    1    3    3    0  502 -0.22590277748E+03  0.32829409379E+03  0.12702269582E+04  0.13312727802E+04  0.12699999809E+01 0.  1.
</event>
<event>
 5   0  0.1523259E-07  0.3396176E+04  0.7818609E-02  0.8138846E-01
        1   -1    0    0  501    0  0.00000000000E+00  0.00000000000E+00  0.13949953182E+04  0.13949953182E+04  0.50400001928E-02 0. -1.
       -1   -1    0    0    0  501  0.00000000000E+00  0.00000000000E+00 -0.20670335712E+04  0.20670335713E+04  0.50400001928E-02 0.  1.
    10030    2    1    2    0    0  0.00000000000E+00  0.00000000000E+00 -0.67203825305E+03  0.34620288895E+04  0.33961755870E+04 0.  0.
        4    1    3    3  502    0  0.46220231547E+03 -0.14488786768E+04 -0.11060605714E+04  0.18804924889E+04  0.12699999809E+01 0.  1.
       -4    1    3    3    0  502 -0.46220231547E+03  0.14488786768E+04  0.43402231837E+03  0.15815364005E+04  0.12699999809E+01 0. -1.
</event>
<event>
 5   0  0.4521737E-07  0.3392219E+04  0.7818609E-02  0.8139819E-01
        2   -1    0    0  501    0  0.00000000000E+00  0.00000000000E+00  0.16673818393E+04  0.16673818394E+04  0.25500000920E-02 0. -1.
       -2   -1    0    0    0  501  0.00000000000E+00  0.00000000000E+00 -0.17253320397E+04  0.17253320397E+04  0.25500000920E-02 0.  1.
    10030    2    1    2    0    0  0.00000000000E+00  0.00000000000E+00 -0.57950200333E+02  0.33927138790E+04  0.33922189256E+04 0.  0.
        4    1    3    3  502    0  0.27629866218E+03  0.13741511622E+04  0.92623143815E+03  0.16800412665E+04  0.12699999809E+01 0. -1.
       -4    1    3    3    0  502 -0.27629866218E+03 -0.13741511622E+04 -0.98418163849E+03  0.17126726125E+04  0.12699999809E+01 0.  1.
</event>
<event>
 5   0  0.1435806E-07  0.3387654E+04  0.7818609E-02  0.8140943E-01
       -1   -1    0    0    0  501  0.00000000000E+00  0.00000000000E+00  0.21526191503E+04  0.21526191503E+04  0.50400001928E-02 0.  1.
        1   -1    0    0  501    0  0.00000000000E+00  0.00000000000E+00 -0.13328180067E+04  0.13328180067E+04  0.50400001928E-02 0. -1.
    10030    2    1    2    0    0  0.00000000000E+00  0.00000000000E+00  0.81980114364E+03  0.34854371570E+04  0.33876537988E+04 0.  0.
        3    1    3    3  502    0 -0.15458776503E+04 -0.65106757782E+02  0.11190510326E+04  0.19095161229E+04  0.10100000352E+00 0.  1.
       -3    1    3    3    0  502  0.15458776503E+04  0.65106757782E+02 -0.29924988901E+03  0.15759210342E+04  0.10100000352E+00 0. -1.
</event>
<event>
 5   0  0.4396257E-07  0.3394280E+04  0.7818609E-02  0.8139312E-01
        2   -1    0    0  501    0  0.00000000000E+00  0.00000000000E+00  0.18186579205E+04  0.18186579205E+04  0.25500000920E-02 0.  1.
       -2   -1    0    0    0  501  0.00000000000E+00  0.00000000000E+00 -0.15837419427E+04  0.15837419427E+04  0.25500000920E-02 0. -1.
    10030    2    1    2    0    0  0.00000000000E+00  0.00000000000E+00  0.23491597777E+03  0.34023998632E+04  0.33942803822E+04 0.  0.
        2    1    3    3  502    0 -0.12061894557E+04 -0.93460492979E+03 -0.62722250774E+03  0.16497840622E+04  0.25500000920E-02 0. -1.
       -2    1    3    3    0  502  0.12061894557E+04  0.93460492979E+03  0.86213848550E+03  0.17526158010E+04  0.25500000920E-02 0.  1.
</event>
<event>
 5   0  0.4447909E-07  0.3467540E+04  0.7818609E-02  0.8121526E-01
       -2   -1    0    0    0  501  0.00000000000E+00  0.00000000000E+00  0.16607359692E+04  0.16607359692E+04  0.25500000920E-02 0. -1.
        2   -1    0    0  501    0  0.00000000000E+00  0.00000000000E+00 -0.18100157261E+04  0.18100157261E+04  0.25500000920E-02 0.  1.
    10030    2    1    2    0    0  0.00000000000E+00  0.00000000000E+00 -0.14927975687E+03  0.34707516953E+04  0.34675398894E+04 0.  0.
        5    1    3    3  502    0 -0.87226740431E+03  0.14495379854E+04 -0.45436620136E+03  0.17517081751E+04  0.46999998093E+01 0.  1.
       -5    1    3    3    0  502  0.87226740431E+03 -0.14495379854E+04  0.30508644448E+03  0.17190435202E+04  0.46999998093E+01 0. -1.
</event>
<event>
 5   0  0.4381939E-07  0.3250752E+04  0.7818609E-02  0.8175541E-01
       -2   -1    0    0    0  501  0.00000000000E+00  0.00000000000E+00  0.16620856016E+04  0.16620856016E+04  0.25500000920E-02 0.  1.
        2   -1    0    0  501    0  0.00000000000E+00  0.00000000000E+00 -0.15894771133E+04  0.15894771133E+04  0.25500000920E-02 0. -1.
    10030    2    1    2    0    0  0.00000000000E+00  0.00000000000E+00  0.72608488358E+02  0.32515627149E+04  0.32507519278E+04 0.  0.
        3    1    3    3  502    0  0.87182713486E+02 -0.13878981051E+04  0.87793257471E+03  0.16445752010E+04  0.10100000352E+00 0.  1.
       -3    1    3    3    0  502 -0.87182713486E+02  0.13878981051E+04 -0.80532408636E+03  0.16069875139E+04  0.10100000352E+00 0. -1.
</event>
<event>
 5   0  0.1520084E-07  0.3339666E+04  0.7818609E-02  0.8152875E-01
        1   -1    0    0  501    0  0.00000000000E+00  0.00000000000E+00  0.10776916441E+04  0.10776916441E+04  0.50400001928E-02 0. -1.
       -1   -1    0    0    0  501  0.00000000000E+00  0.00000000000E+00 -0.25873283481E+04  0.25873283481E+04  0.50400001928E-02 0.  1.
    10030    2    1    2    0    0  0.00000000000E+00  0.00000000000E+00 -0.15096367040E+04  0.36650199922E+04  0.33396659362E+04 0.  0.
        2    1    3    3  502    0  0.54324099564E+03 -0.10995243336E+04 -0.19984815278E+04  0.23447799378E+04  0.25500000920E-02 0.  1.
       -2    1    3    3    0  502 -0.54324099564E+03  0.10995243336E+04  0.48884482383E+03  0.13202400545E+04  0.25500000920E-02 0. -1.
</event>
<event>
 5   0  0.4381939E-07  0.3415378E+04  0.7818609E-02  0.8134142E-01
       -2   -1    0    0    0  501  0.00000000000E+00  0.00000000000E+00  0.17699428913E+04  0.17699428913E+04  0.25500000920E-02 0. -1.
        2   -1    0    0  501    0  0.00000000000E+00  0.00000000000E+00 -0.16476247814E+04  0.16476247815E+04  0.25500000920E-02 0.  1.
    10030    2    1    2    0    0  0.00000000000E+00  0.00000000000E+00  0.12231810986E+03  0.34175676728E+04  0.34153780286E+04 0.  0.
        3    1    3    3  502    0  0.15914900809E+03  0.14294134427E+04  0.98242871731E+03  0.17417569841E+04  0.10100000352E+00 0. -1.
       -3    1    3    3    0  502 -0.15914900809E+03 -0.14294134427E+04 -0.86011060744E+03  0.16758106886E+04  0.10100000352E+00 0.  1.
</event>
<event>
 5   0  0.1421875E-07  0.3399011E+04  0.7818609E-02  0.8138149E-01
       -1   -1    0    0    0  501  0.00000000000E+00  0.00000000000E+00  0.15115769128E+04  0.15115769128E+04  0.50400001928E-02 0. -1.
        1   -1    0    0  501    0  0.00000000000E+00  0.00000000000E+00 -0.19107980598E+04  0.19107980598E+04  0.50400001928E-02 0.  1.
    10030    2    1    2    0    0  0.00000000000E+00  0.00000000000E+00 -0.39922114704E+03  0.34223749726E+04  0.33990105809E+04 0.  0.
        5    1    3    3  502    0 -0.33881392891E+03 -0.31219563780E+03 -0.18467144200E+04  0.19033226825E+04  0.46999998093E+01 0.  1.
       -5    1    3    3    0  502  0.33881392891E+03  0.31219563780E+03  0.14474932730E+04  0.15190522901E+04  0.46999998093E+01 0. -1.
</event>
<event>
 5   0  0.1435806E-07  0.3401827E+04  0.7818609E-02  0.8137458E-01
       -1   -1    0    0    0  501  0.00000000000E+00  0.00000000000E+00  0.14975552335E+04  0.14975552335E+04  0.50400001928E-02 0.  1.
        1   -1    0    0  501    0  0.00000000000E+00  0.00000000000E+00 -0.19318859704E+04  0.19318859704E+04  0.50400001928E-02 0. -1.
    10030    2    1    2    0    0  0.00000000000E+00  0.00000000000E+00 -0.43433073687E+03  0.34294412039E+04  0.34018265362E+04 0.  0.
        3    1    3    3  502    0  0.27030469534E+03 -0.12330364370E+04 -0.13664470459E+04  0.18602744483E+04  0.10100000352E+00 0. -1.
       -3    1    3    3    0  502 -0.27030469534E+03  0.12330364370E+04  0.93211630907E+03  0.15691667557E+04  0.10100000352E+00 0.  1.
</event>
<event>
 5   0  0.1473755E-07  0.3401018E+04  0.7818609E-02  0.8137656E-01
       -1   -1    0    0    0  501  0.00000000000E+00  0.00000000000E+00  0.16153922031E+04  0.16153922031E+04  0.50400001928E-02 0.  1.
        1   -1    0    0  501    0  0.00000000000E+00  0.00000000000E+00 -0.17901108282E+04  0.17901108282E+04  0.50400001928E-02 0. -1.
    10030    2    1    2    0    0  0.00000000000E+00  0.00000000000E+00 -0.17471862509E+03  0.34055030313E+04  0.34010181268E+04 0.  0.
        1    1    3    3  502    0  0.14044681523E+04  0.57501745881E+03  0.68082587261E+03  0.16633399344E+04  0.50400001928E-02 0.  1.
       -1    1    3    3    0  502 -0.14044681523E+04 -0.57501745881E+03 -0.85554449770E+03  0.17421630969E+04  0.50400001928E-02 0. -1.
</event>
<event>
 5   0  0.4521737E-07  0.3401792E+04  0.7818609E-02  0.8137467E-01
        2   -1    0    0  501    0  0.00000000000E+00  0.00000000000E+00  0.31510795768E+04  0.31510795768E+04  0.25500000920E-02 0.  1.
       -2   -1    0    0    0  501  0.00000000000E+00  0.00000000000E+00 -0.91811291352E+03  0.91811291352E+03  0.25500000920E-02 0. -1.
    10030    2    1    2    0    0  0.00000000000E+00  0.00000000000E+00  0.22329666633E+04  0.40691924904E+04  0.34017917932E+04 0.  0.
        4    1    3    3  502    0 -0.12988692809E+04  0.10545365538E+04  0.74986205910E+03  0.18334130665E+04  0.12699999809E+01 0. -1.
       -4    1    3    3    0  502  0.12988692809E+04 -0.10545365538E+04  0.14831046042E+04  0.22357794238E+04  0.12699999809E+01 0.  1.
</event>
<event>
 5   0  0.1473755E-07  0.3419508E+04  0.7818609E-02  0.8133135E-01
       -1   -1    0    0    0  501  0.00000000000E+00  0.00000000000E+00  0.19790686795E+04  0.19790686795E+04  0.50400001928E-02 0. -1.
        1   -1    0    0  501    0  0.00000000000E+00  0.00000000000E+00 -0.14770883468E+04  0.14770883468E+04  0.50400001928E-02 0.  1.
    10030    2    1    2    0    0  0.00000000000E+00  0.00000000000E+00  0.50198033270E+03  0.34561570262E+04  0.34195083178E+04 0.  0.
        1    1    3    3  502    0  0.14637387072E+04  0.13952976495E+03 -0.63086289823E+03  0.15999961108E+04  0.50400001928E-02 0.  1.
       -1    1    3    3    0  502 -0.14637387072E+04 -0.13952976495E+03  0.11328432309E+04  0.18561609154E+04  0.50400001928E-02 0. -1.
</event>
<event>
 5   0  0.4447909E-07  0.3257092E+04  0.7818609E-02  0.8173900E-01
       -2   -1    0    0    0  501  0.00000000000E+00  0.00000000000E+00  0.13070564309E+04  0.13070564309E+04  0.25500000920E-02 0. -1.
        2   -1    0    0  501    0  0.00000000000E+00  0.00000000000E+00 -0.20291101044E+04  0.20291101044E+04  0.25500000920E-02 0.  1.
    10030    2    1    2    0    0  0.00000000000E+00  0.00000000000E+00 -0.72205367343E+03  0.33361665353E+04  0.32570915928E+04 0.  0.
        5    1    3    3  502    0  0.23306273443E+03 -0.85972274414E+03 -0.17574664260E+04  0.19703176809E+04  0.46999998093E+01 0.  1.
       -5    1    3    3    0  502 -0.23306273443E+03  0.85972274414E+03  0.10354127526E+04  0.13658488544E+04  0.46999998093E+01 0. -1.
</event>
<event>
 5   0  0.1421875E-07  0.3416906E+04  0.7818609E-02  0.8133770E-01
       -1   -1    0    0    0  501  0.00000000000E+00  0.00000000000E+00  0.14426265012E+04  0.14426265012E+04  0.50400001928E-02 0. -1.
        1   -1    0    0  501    0  0.00000000000E+00  0.00000000000E+00 -0.20232617593E+04  0.20232617593E+04  0.50400001928E-02 0.  1.
    10030    2    1    2    0    0  0.00000000000E+00  0.00000000000E+00 -0.58063525808E+03  0.34658882605E+04  0.34169056368E+04 0.  0.
        5    1    3    3  502    0 -0.67097053435E+03 -0.15275918647E+04 -0.66307805382E+03  0.17953921462E+04  0.46999998093E+01 0.  1.
       -5    1    3    3    0  502  0.67097053435E+03  0.15275918647E+04  0.82442795741E+02  0.16704961143E+04  0.46999998093E+01 0. -1.
</event>
<event>
 5   0  0.4396257E-07  0.3416072E+04  0.7818609E-02  0.8133973E-01
        2   -1    0    0  501    0  0.00000000000E+00  0.00000000000E+00  0.22919118433E+04  0.22919118433E+04  0.25500000920E-02 0.  1.
       -2   -1    0    0    0  501  0.00000000000E+00  0.00000000000E+00 -0.12729055658E+04  0.12729055658E+04  0.25500000920E-02 0. -1.
    10030    2    1    2    0    0  0.00000000000E+00  0.00000000000E+00  0.10190062775E+04  0.35648174092E+04  0.34160722134E+04 0.  0.
        2    1    3    3  502    0  0.11527805915E+03  0.84958496134E+03 -0.10320831616E+04  0.13417448677E+04  0.25500000920E-02 0. -1.
       -2    1    3    3    0  502 -0.11527805915E+03 -0.84958496134E+03  0.20510894391E+04  0.22230725415E+04  0.25500000920E-02 0.  1.
</event>
<event>
 5   0  0.4521737E-07  0.3425045E+04  0.7818609E-02  0.8131787E-01
        2   -1    0    0  501    0  0.00000000000E+00  0.00000000000E+00  0.17351456397E+04  0.17351456397E+04  0.25500000920E-02 0. -1.
       -2   -1    0    0    0  501  0.00000000000E+00  0.00000000000E+00 -0.16901944719E+04  0.16901944719E+04  0.25500000920E-02 0.  1.
    10030    2    1    2    0    0  0.00000000000E+00  0.00000000000E+00  0.44951167704E+02  0.34253401116E+04  0.34250451490E+04 0.  0.
        4    1    3    3  502    0  0.51265606179E+03 -0.10304587466E+03  0.16533512133E+04  0.17340722411E+04  0.12699999809E+01 0. -1.
       -4    1    3    3    0  502 -0.51265606179E+03  0.10304587466E+03 -0.16084000456E+04  0.16912678705E+04  0.12699999809E+01 0.  1.
</event>
<event>
 5   0  0.4396257E-07  0.3388837E+04  0.7818609E-02  0.8140651E-01
        2   -1    0    0  501    0  0.00000000000E+00  0.00000000000E+00  0.26163905193E+04  0.26163905193E+04  0.25500000920E-02 0. -1.
       -2   -1    0    0    0  501  0.00000000000E+00  0.00000000000E+00 -0.10973339720E+04  0.10973339720E+04  0.25500000920E-02 0.  1.
    10030    2    1    2    0    0  0.00000000000E+00  0.00000000000E+00  0.15190565473E+04  0.37137244913E+04  0.33888370872E+04 0.  0.
        2    1    3    3  502    0 -0.16225003409E+04  0.33813039610E+03  0.37329876387E+03  0.16988794801E+04  0.25500000920E-02 0.  1.
       -2    1    3    3    0  502  0.16225003409E+04 -0.33813039610E+03  0.11457577834E+04  0.20148450112E+04  0.25500000920E-02 0. -1.
</event>
<event>
 5   0  0.1523259E-07  0.3406672E+04  0.7818609E-02  0.8136271E-01
        1   -1    0    0  501    0  0.00000000000E+00  0.00000000000E+00  0.24869316592E+04  0.24869316593E+04  0.50400001928E-02 0.  1.
       -1   -1    0    0    0  501  0.00000000000E+00  0.00000000000E+00 -0.11666395531E+04  0.11666395531E+04  0.50400001928E-02 0. -1.
    10030    2    1    2    0    0  0.00000000000E+00  0.00000000000E+00  0.13202921061E+04  0.36535712124E+04  0.34066715953E+04 0.  0.
        4    1    3    3  502    0 -0.29565878102E+03 -0.43363912070E+03 -0.10777585011E+04  0.11987585251E+04  0.12699999809E+01 0. -1.
       -4    1    3    3    0  502  0.29565878102E+03  0.43363912070E+03  0.23980506073E+04  0.24548126873E+04  0.12699999809E+01 0.  1.
</event>
<event>
 5   0  0.4447909E-07  0.3436168E+04  0.7818609E-02  0.8129086E-01
        2   -1    0    0  501    0  0.00000000000E+00  0.00000000000E+00  0.24686392907E+04  0.24686392907E+04  0.25500000920E-02 0.  1.
       -2   -1    0    0    0  501  0.00000000000E+00  0.00000000000E+00 -0.11957245647E+04  0.11957245647E+04  0.25500000920E-02 0. -1.
    10030    2    1    2    0    0  0.00000000000E+00  0.00000000000E+00  0.12729147261E+04  0.36643638554E+04  0.34361680059E+04 0.  0.
        5    1    3    3  502    0  0.27738198587E+03 -0.11769713606E+04  0.19379967427E+04  0.22843064187E+04  0.46999998093E+01 0.  1.
       -5    1    3    3    0  502 -0.27738198587E+03  0.11769713606E+04 -0.66508201664E+03  0.13800574367E+04  0.46999998093E+01 0. -1.
</event>
<event>
 5   0  0.1520084E-07  0.3421291E+04  0.7818609E-02  0.8132700E-01
       -1   -1    0    0    0  501  0.00000000000E+00  0.00000000000E+00  0.15305189578E+04  0.15305189578E+04  0.50400001928E-02 0. -1.
        1   -1    0    0  501    0  0.00000000000E+00  0.00000000000E+00 -0.19119714643E+04  0.19119714643E+04  0.50400001928E-02 0.  1.
    10030    2    1    2    0    0  0.00000000000E+00  0.00000000000E+00 -0.38145250650E+03  0.34424904221E+04  0.34212913193E+04 0.  0.
        2    1    3    3  502    0 -0.30370779277E+03 -0.80831972176E+03  0.12951395549E+04  0.15566006754E+04  0.25500000920E-02 0. -1.
       -2    1    3    3    0  502  0.30370779277E+03  0.80831972176E+03 -0.16765920615E+04  0.18858897466E+04  0.25500000920E-02 0.  1.
</event>
<event>
 5   0  0.1473755E-07  0.3404287E+04  0.7818609E-02  0.8136855E-01
       -1   -1    0    0    0  501  0.00000000000E+00  0.00000000000E+00  0.12757489598E+04  0.12757489598E+04  0.50400001928E-02 0. -1.
        1   -1    0    0  501    0  0.00000000000E+00  0.00000000000E+00 -0.22710516226E+04  0.22710516226E+04  0.50400001928E-02 0.  1.
    10030    2    1    2    0    0  0.00000000000E+00  0.00000000000E+00 -0.99530266284E+03  0.35468005824E+04  0.34042865597E+04 0.  0.
        1    1    3    3  502    0 -0.10272667295E+04 -0.82722120647E+03 -0.16186688711E+04  0.20879800699E+04  0.50400001928E-02 0.  1.
       -1    1    3    3    0  502  0.10272667295E+04  0.82722120647E+03  0.62336620829E+03  0.14588205125E+04  0.50400001928E-02 0. -1.
</event>
<event>
 5   0  0.1421875E-07  0.3367318E+04  0.7818609E-02  0.8145974E-01
        1   -1    0    0  501    0  0.00000000000E+00  0.00000000000E+00  0.20264057304E+04  0.20264057304E+04  0.50400001928E-02 0.  1.
       -1   -1    0    0    0  501  0.00000000000E+00  0.00000000000E+00 -0.13988849396E+04  0.13988849396E+04  0.50400001928E-02 0. -1.
    10030    2    1    2    0    0  0.00000000000E+00  0.00000000000E+00  0.62752079082E+03  0.34252906699E+04  0.33673184926E+04 0.  0.
        5    1    3    3  502    0 -0.15867461356E+04  0.16724435566E+03  0.86055772507E+03  0.18128198094E+04  0.46999998093E+01 0.  1.
       -5    1    3    3    0  502  0.15867461356E+04 -0.16724435566E+03 -0.23303693425E+03  0.16124708605E+04  0.46999998093E+01 0. -1.
</event>
<event>
 5   0  0.1523259E-07  0.3401329E+04  0.7818609E-02  0.8137580E-01
       -1   -1    0    0    0  501  0.00000000000E+00  0.00000000000E+00  0.18518295335E+04  0.18518295335E+04  0.50400001928E-02 0. -1.
        1   -1    0    0  501    0  0.00000000000E+00  0.00000000000E+00 -0.15618389519E+04  0.15618389519E+04  0.50400001928E-02 0.  1.
    10030    2    1    2    0    0  0.00000000000E+00  0.00000000000E+00  0.28999058166E+03  0.34136684854E+04  0.34013288566E+04 0.  0.
        4    1    3    3  502    0  0.83914768373E+03 -0.91435367020E+03 -0.10219984313E+04  0.16076983161E+04  0.12699999809E+01 0.  1.
       -4    1    3    3    0  502 -0.83914768373E+03  0.91435367020E+03  0.13119890129E+04  0.18059701693E+04  0.12699999809E+01 0. -1.
</event>
<event>
 5   0  0.4486226E-07  0.3409243E+04  0.7818609E-02  0.8135642E-01
       -2   -1    0    0    0  501  0.00000000000E+00  0.00000000000E+00  0.17739858143E+04  0.17739858143E+04  0.25500000920E-02 0.  1.
        2   -1    0    0  501    0  0.00000000000E+00  0.00000000000E+00 -0.16379690784E+04  0.16379690784E+04  0.25500000920E-02 0. -1.
    10030    2    1    2    0    0  0.00000000000E+00  0.00000000000E+00  0.13601673587E+03  0.34119548927E+04  0.34092426780E+04 0.  0.
        1    1    3    3  502    0  0.13917927580E+04 -0.89381108318E+03  0.48034169112E+03  0.17224150121E+04  0.50400001928E-02 0.  1.
       -1    1    3    3    0  502 -0.13917927580E+04  0.89381108318E+03 -0.34432495525E+03  0.16895398807E+04  0.50400001928E-02 0. -1.
</event>
<event>
 5   0  0.1473755E-07  0.3392909E+04  0.7818609E-02  0.8139649E-01
        1   -1    0    0  501    0  0.00000000000E+00  0.00000000000E+00  0.13649861206E+04  0.13649861206E+04  0.50400001928E-02 0.  1.
       -1   -1    0    0    0  501  0.00000000000E+00  0.00000000000E+00 -0.21084160561E+04  0.21084160561E+04  0.50400001928E-02 0. -1.
    10030    2    1    2    0    0  0.00000000000E+00  0.00000000000E+00 -0.74342993554E+03  0.34734021767E+04  0.33929094613E+04 0.  0.
        1    1    3    3  502    0 -0.16637100702E+04  0.32894551984E+03 -0.41541611073E+03  0.17460546663E+04  0.50400001928E-02 0. -1.
       -1    1    3    3    0  502  0.16637100702E+04 -0.32894551984E+03 -0.32801382482E+03  0.17273475105E+04  0.50400001928E-02 0.  1.
</event>
<event>
 5   0  0.4381939E-07  0.3403362E+04  0.7818609E-02  0.8137082E-01
        2   -1    0    0  501    0  0.00000000000E+00  0.00000000000E+00  0.24139146605E+04  0.24139146605E+04  0.25500000920E-02 0.  1.
       -2   -1    0    0    0  501  0.00000000000E+00  0.00000000000E+00 -0.11995941124E+04  0.11995941124E+04  0.25500000920E-02 0. -1.
    10030    2    1    2    0    0  0.00000000000E+00  0.00000000000E+00  0.12143205481E+04  0.36135087730E+04  0.34033617584E+04 0.  0.
        3    1    3    3  502    0 -0.11308110511E+04 -0.10638272868E+03  0.19525519127E+04  0.22588735910E+04  0.10100000352E+00 0.  1.
       -3    1    3    3    0  502  0.11308110511E+04  0.10638272868E+03 -0.73823136461E+03  0.13546351819E+04  0.10100000352E+00 0. -1.
</event>
<event>
 5   0  0.4486226E-07  0.3399524E+04  0.7818609E-02  0.8138023E-01
       -2   -1    0    0    0  501  0.00000000000E+00  0.00000000000E+00  0.17080568793E+04  0.17080568793E+04  0.25500000920E-02 0.  1.
        2   -1    0    0  501    0  0.00000000000E+00  0.00000000000E+00 -0.16915077917E+04  0.16915077917E+04  0.25500000920E-02 0. -1.
    10030    2    1    2    0    0  0.00000000000E+00  0.00000000000E+00  0.16549087653E+02  0.33995646710E+04  0.33995243903E+04 0.  0.
        1    1    3    3  502    0  0.48695551847E+03  0.16157420395E+04  0.21185373501E+03  0.17007733594E+04  0.50400001928E-02 0.  1.
       -1    1    3    3    0  502 -0.48695551847E+03 -0.16157420395E+04 -0.19530464735E+03  0.16987913116E+04  0.50400001928E-02 0. -1.
</event>
<event>
 5   0  0.4486226E-07  0.3378155E+04  0.7818609E-02  0.8143289E-01
       -2   -1    0    0    0  501  0.00000000000E+00  0.00000000000E+00  0.14708680355E+04  0.14708680355E+04  0.25500000920E-02 0.  1.
        2   -1    0    0  501    0  0.00000000000E+00  0.00000000000E+00 -0.19396597037E+04  0.19396597037E+04  0.25500000920E-02 0. -1.
    10030    2    1    2    0    0  0.00000000000E+00  0.00000000000E+00 -0.46879166823E+03  0.34105277393E+04  0.33781553890E+04 0.  0.
        1    1    3    3  502    0 -0.16455433099E+04 -0.12046395874E+03  0.13053604892E+03  0.16551024168E+04  0.50400001928E-02 0.  1.
       -1    1    3    3    0  502  0.16455433099E+04  0.12046395874E+03 -0.59932771715E+03  0.17554253224E+04  0.50400001928E-02 0. -1.
</event>
<event>
 5   0  0.4447909E-07  0.3398031E+04  0.7818609E-02  0.8138390E-01
        2   -1    0    0  501    0  0.00000000000E+00  0.00000000000E+00  0.22211475819E+04  0.22211475819E+04  0.25500000920E-02 0. -1.
       -2   -1    0    0    0  501  0.00000000000E+00  0.00000000000E+00 -0.12996224728E+04  0.12996224728E+04  0.25500000920E-02 0.  1.
    10030    2    1    2    0    0  0.00000000000E+00  0.00000000000E+00  0.92152510908E+03  0.35207700547E+04  0.33980307903E+04 0.  0.
        5    1    3    3  502    0 -0.70443465289E+03 -0.11883474745E+04  0.14855447662E+04  0.20286111611E+04  0.46999998093E+01 0. -1.
       -5    1    3    3    0  502  0.70443465289E+03  0.11883474745E+04 -0.56401965715E+03  0.14921588937E+04  0.46999998093E+01 0.  1.
</event>
<event>
 5   0  0.1421875E-07  0.3412320E+04  0.7818609E-02  0.8134889E-01
        1   -1    0    0  501    0  0.00000000000E+00  0.00000000000E+00  0.22092201805E+04  0.22092201805E+04  0.50400001928E-02 0. -1.
       -1   -1    0    0    0  501  0.00000000000E+00  0.00000000000E+00 -0.13176514921E+04  0.13176514921E+04  0.50400001928E-02 0.  1.
    10030    2    1    2    0    0  0.00000000000E+00  0.00000000000E+00  0.89156868843E+03  0.35268716726E+04  0.34123201885E+04 0.  0.
        5    1    3    3  502    0 -0.10760817479E+04  0.26327802875E+03 -0.89534704171E+03  0.14244071271E+04  0.46999998093E+01 0.  1.
       -5    1    3    3    0  502  0.10760817479E+04 -0.26327802875E+03  0.17869157301E+04  0.21024645455E+04  0.46999998093E+01 0. -1.
</event>
<event>
 5   0  0.4381939E-07  0.3392687E+04  0.7818609E-02  0.8139704E-01
       -2   -1    0    0    0  501  0.00000000000E+00  0.00000000000E+00  0.14326393238E+04  0.14326393238E+04  0.25500000920E-02 0.  1.
        2   -1    0    0  501    0  0.00000000000E+00  0.00000000000E+00 -0.20085871457E+04  0.20085871457E+04  0.25500000920E-02 0. -1.
    10030    2    1    2    0    0  0.00000000000E+00  0.00000000000E+00 -0.57594782185E+03  0.34412264695E+04  0.33926867997E+04 0.  0.
        3    1    3    3  502    0 -0.87358553189E+02  0.20842045570E+03  0.14173024557E+04  0.14352062097E+04  0.10100000352E+00 0.  1.
       -3    1    3    3    0  502  0.87358553189E+02 -0.20842045570E+03 -0.19932502776E+04  0.20060202597E+04  0.10100000352E+00 0. -1.
</event>
<event>
 5   0  0.1523259E-07  0.3390938E+04  0.7818609E-02  0.8140134E-01
        1   -1    0    0  501    0  0.00000000000E+00  0.00000000000E+00  0.10242147595E+04  0.10242147595E+04  0.50400001928E-02 0.  1.
       -1   -1    0    0    0  501  0.00000000000E+00  0.00000000000E+00 -0.28066530173E+04  0.28066530173E+04  0.50400001928E-02 0. -1.
    10030    2    1    2    0    0  0.00000000000E+00  0.00000000000E+00 -0.17824382578E+04  0.38308677768E+04  0.33909381859E+04 0.  0.
        4    1    3    3  502    0 -0.12027726118E+04 -0.84558678567E+03 -0.18451177395E+04  0.23592668465E+04  0.12699999809E+01 0. -1.
       -4    1    3    3    0  502  0.12027726118E+04  0.84558678567E+03  0.62679481758E+02  0.14716009303E+04  0.12699999809E+01 0.  1.
</event>
<event>
 5   0  0.1473755E-07  0.3347350E+04  0.7818609E-02  0.8150951E-01
        1   -1    0    0  501    0  0.00000000000E+00  0.00000000000E+00  0.19800627295E+04  0.19800627295E+04  0.50400001928E-02 0. -1.
       -1   -1    0    0    0  501  0.00000000000E+00  0.00000000000E+00 -0.14146963800E+04  0.14146963800E+04  0.50400001928E-02 0.  1.
    10030    2    1    2    0    0  0.00000000000E+00  0.00000000000E+00  0.56536634953E+03  0.33947591095E+04  0.33473497430E+04 0.  0.
        1    1    3    3  502    0  0.25068074536E+03 -0.13253436978E+04  0.12875807041E+04  0.18647361269E+04  0.50400001928E-02 0. -1.
       -1    1    3    3    0  502 -0.25068074536E+03  0.13253436978E+04 -0.72221435454E+03  0.15300229826E+04  0.50400001928E-02 0.  1.
</event>
<event>
 5   0  0.1435806E-07  0.3213958E+04  0.7818609E-02  0.8185141E-01
       -1   -1    0    0    0  501  0.00000000000E+00  0.00000000000E+00  0.16083446504E+04  0.16083446504E+04  0.50400001928E-02 0. -1.
        1   -1    0    0  501    0  0.00000000000E+00  0.00000000000E+00 -0.16056147861E+04  0.16056147861E+04  0.50400001928E-02 0.  1.
    10030    2    1    2    0    0  0.00000000000E+00  0.00000000000E+00  0.27298643409E+01  0.32139594365E+04  0.32139582771E+04 0.  0.
        3    1    3    3  502    0  0.40552625558E+03  0.12672169320E+04 -0.89979666857E+03  0.16062142920E+04  0.10100000352E+00 0.  1.
       -3    1    3    3    0  502 -0.40552625558E+03 -0.12672169320E+04  0.90252653291E+03  0.16077451445E+04  0.10100000352E+00 0. -1.
</event>
<event>
 5   0  0.1435806E-07  0.3390990E+04  0.7818609E-02  0.8140121E-01
       -1   -1    0    0    0  501  0.00000000000E+00  0.00000000000E+00  0.15154265155E+04  0.15154265155E+04  0.50400001928E-02 0.  1.
        1   -1    0    0  501    0  0.00000000000E+00  0.00000000000E+00 -0.18969595774E+04  0.18969595774E+04  0.50400001928E-02 0. -1.
    10030    2    1    2    0    0  0.00000000000E+00  0.00000000000E+00 -0.38153306192E+03  0.34123860929E+04  0.33909897330E+04 0.  0.
        3    1    3    3  502    0 -0.14196236720E+04  0.67153925037E+03 -0.83386579080E+03  0.17780968765E+04  0.10100000352E+00 0. -1.
       -3    1    3    3    0  502  0.14196236720E+04 -0.67153925037E+03  0.45233272888E+03  0.16342892164E+04  0.10100000352E+00 0.  1.
</event>
<event>
 5   0  0.4396257E-07  0.3396178E+04  0.7818609E-02  0.8138845E-01
        2   -1    0    0  501    0  0.00000000000E+00  0.00000000000E+00  0.13686271518E+04  0.13686271518E+04  0.25500000920E-02 0. -1.
       -2   -1    0    0    0  501  0.00000000000E+00  0.00000000000E+00 -0.21068601815E+04  0.21068601815E+04  0.25500000920E-02 0.  1.
    10030    2    1    2    0    0  0.00000000000E+00  0.00000000000E+00 -0.73823302974E+03  0.34754873333E+04  0.33961778807E+04 0.  0.
        2    1    3    3  502    0 -0.17986322216E+03  0.17877774429E+03 -0.20873720273E+04  0.21027206759E+04  0.25500000920E-02 0.  1.
       -2    1    3    3    0  502  0.17986322216E+03 -0.17877774429E+03  0.13491389976E+04  0.13727666573E+04  0.25500000920E-02 0. -1.
</event>
<event>
 5   0  0.1421875E-07  0.3406333E+04  0.7818609E-02  0.8136354E-01
       -1   -1    0    0    0  501  0.00000000000E+00  0.00000000000E+00  0.13454151975E+04  0.13454151975E+04  0.50400001928E-02 0. -1.
        1   -1    0    0  501    0  0.00000000000E+00  0.00000000000E+00 -0.21560453852E+04  0.21560453852E+04  0.50400001928E-02 0.  1.
    10030    2    1    2    0    0  0.00000000000E+00  0.00000000000E+00 -0.81063018768E+03  0.35014605827E+04  0.34063330593E+04 0.  0.
        5    1    3    3  502    0  0.21877169594E+03  0.42440574620E+03  0.12752028629E+04  0.13616701964E+04  0.46999998093E+01 0. -1.
       -5    1    3    3    0  502 -0.21877169594E+03 -0.42440574620E+03 -0.20858330505E+04  0.21397903863E+04  0.46999998093E+01 0.  1.
</event>
<event>
 5   0  0.4447909E-07  0.3392643E+04  0.7818609E-02  0.8139714E-01
        2   -1    0    0  501    0  0.00000000000E+00  0.00000000000E+00  0.23230700603E+04  0.23230700603E+04  0.25500000920E-02 0.  1.
       -2   -1    0    0    0  501  0.00000000000E+00  0.00000000000E+00 -0.12386651925E+04  0.12386651925E+04  0.25500000920E-02 0. -1.
    10030    2    1    2    0    0  0.00000000000E+00  0.00000000000E+00  0.10844048677E+04  0.35617352528E+04  0.33926426416E+04 0.  0.
        5    1    3    3  502    0  0.10630178962E+03 -0.13569742570E+04 -0.52057929329E+03  0.14572934143E+04  0.46999998093E+01 0. -1.
       -5    1    3    3    0  502 -0.10630178962E+03  0.13569742570E+04  0.16049841610E+04  0.21044418385E+04  0.46999998093E+01 0.  1.
</event>
<event>
 5   0  0.1520084E-07  0.3401626E+04  0.7818609E-02  0.8137507E-01
        1   -1    0    0  501    0  0.00000000000E+00  0.00000000000E+00  0.20534704656E+04  0.20534704656E+04  0.50400001928E-02 0.  1.
       -1   -1    0    0    0  501  0.00000000000E+00  0.00000000000E+00 -0.14087201413E+04  0.14087201414E+04  0.50400001928E-02 0. -1.
    10030    2    1    2    0    0  0.00000000000E+00  0.00000000000E+00  0.64475032426E+03  0.34621906070E+04  0.34016262020E+04 0.  0.
        2    1    3    3  502    0 -0.10427725586E+04  0.10209822765E+04 -0.56666751585E+03  0.15655323348E+04  0.25500000920E-02 0. -1.
       -2    1    3    3    0  502  0.10427725586E+04 -0.10209822765E+04  0.12114178401E+04  0.18966582721E+04  0.25500000920E-02 0.  1.
</event>
<event>
 5   0  0.1520084E-07  0.3400662E+04  0.7818609E-02  0.8137744E-01
       -1   -1    0    0    0  501  0.00000000000E+00  0.00000000000E+00  0.18685285718E+04  0.18685285718E+04  0.50400001928E-02 0. -1.
        1   -1    0    0  501    0  0.00000000000E+00  0.00000000000E+00 -0.15472741383E+04  0.15472741383E+04  0.50400001928E-02 0.  1.
    10030    2    1    2    0    0  0.00000000000E+00  0.00000000000E+00  0.32125443349E+03  0.34158027101E+04  0.34006622507E+04 0.  0.
        2    1    3    3  502    0 -0.69823254441E+03  0.15500253910E+04  0.12857060122E+03  0.17048864474E+04  0.25500000920E-02 0.  1.
       -2    1    3    3    0  502  0.69823254441E+03 -0.15500253910E+04  0.19268383227E+03  0.17109162627E+04  0.25500000920E-02 0. -1.
</event>
<event>
 5   0  0.1473755E-07  0.3399171E+04  0.7818609E-02  0.8138110E-01
       -1   -1    0    0    0  501  0.00000000000E+00  0.00000000000E+00  0.17226904731E+04  0.17226904731E+04  0.50400001928E-02 0. -1.
        1   -1    0    0  501    0  0.00000000000E+00  0.00000000000E+00 -0.16767902873E+04  0.16767902873E+04  0.50400001928E-02 0.  1.
    10030    2    1    2    0    0  0.00000000000E+00  0.00000000000E+00  0.45900185805E+02  0.33994807605E+04  0.33991708715E+04 0.  0.
        1    1    3    3  502    0 -0.58415213111E+03  0.23506210277E+03  0.16017335359E+04  0.17210572985E+04  0.50400001928E-02 0. -1.
       -1    1    3    3    0  502  0.58415213111E+03 -0.23506210277E+03 -0.15558333501E+04  0.16784234620E+04  0.50400001928E-02 0.  1.
</event>
<event>
 5   0  0.1520084E-07  0.3405036E+04  0.7818609E-02  0.8136671E-01
        1   -1    0    0  501    0  0.00000000000E+00  0.00000000000E+00  0.21409340695E+04  0.21409340695E+04  0.50400001928E-02 0.  1.
       -1   -1    0    0    0  501  0.00000000000E+00  0.00000000000E+00 -0.13538801766E+04  0.13538801766E+04  0.50400001928E-02 0. -1.
    10030    2    1    2    0    0  0.00000000000E+00  0.00000000000E+00  0.78705389290E+03  0.34948142460E+04  0.34050363851E+04 0.  0.
        2    1    3    3  502    0 -0.14935640529E+04  0.79259682488E+03  0.59783541545E+03  0.17934186603E+04  0.25500000920E-02 0. -1.
       -2    1    3    3    0  502  0.14935640529E+04 -0.79259682488E+03  0.18921847744E+03  0.17013955858E+04  0.25500000920E-02 0.  1.
</event>
<event>
 5   0  0.4486226E-07  0.3370872E+04  0.7818609E-02  0.8145093E-01
        2   -1    0    0  501    0  0.00000000000E+00  0.00000000000E+00  0.97250304895E+03  0.97250304895E+03  0.25500000920E-02 0. -1.
       -2   -1    0    0    0  501  0.00000000000E+00  0.00000000000E+00 -0.29210128675E+04  0.29210128675E+04  0.25500000920E-02 0.  1.
    10030    2    1    2    0    0  0.00000000000E+00  0.00000000000E+00 -0.19485098185E+04  0.38935159164E+04  0.33708716497E+04 0.  0.
        1    1    3    3  502    0  0.97595107894E+03  0.10312789558E+03 -0.25569554015E+04  0.27388203293E+04  0.50400001928E-02 0.  1.
       -1    1    3    3    0  502 -0.97595107894E+03 -0.10312789558E+03  0.60844558296E+03  0.11546955871E+04  0.50400001928E-02 0. -1.
</event>
<event>
 5   0  0.4486226E-07  0.3393669E+04  0.7818609E-02  0.8139462E-01
       -2   -1    0    0    0  501  0.00000000000E+00  0.00000000000E+00  0.21264010881E+04  0.21264010881E+04  0.25500000920E-02 0.  1.
        2   -1    0    0  501    0  0.00000000000E+00  0.00000000000E+00 -0.13540471001E+04  0.13540471001E+04  0.25500000920E-02 0. -1.
    10030    2    1    2    0    0  0.00000000000E+00  0.00000000000E+00  0.77235398797E+03  0.34804481882E+04  0.33936689450E+04 0.  0.
        1    1    3    3  502    0 -0.64178742194E+03 -0.10228229333E+04  0.16087974994E+04  0.20115385261E+04  0.50400001928E-02 0.  1.
       -1    1    3    3    0  502  0.64178742194E+03  0.10228229333E+04 -0.83644351143E+03  0.14689096622E+04  0.50400001928E-02 0. -1.
</event>
<event>
 5   0  0.1523259E-07  0.3387622E+04  0.7818609E-02  0.8140951E-01
        1   -1    0    0  501    0  0.00000000000E+00  0.00000000000E+00  0.11481587635E+04  0.11481587635E+04  0.50400001928E-02 0. -1.
       -1   -1    0    0    0  501  0.00000000000E+00  0.00000000000E+00 -0.24987792314E+04  0.24987792314E+04  0.50400001928E-02 0.  1.
    10030    2    1    2    0    0  0.00000000000E+00  0.00000000000E+00 -0.13506204679E+04  0.36469379949E+04  0.33876217454E+04 0.  0.
        4    1    3    3  502    0 -0.67825398735E+01  0.58561366774E+03 -0.23863122031E+04  0.24571277773E+04  0.12699999809E+01 0.  1.
       -4    1    3    3    0  502  0.67825398735E+01 -0.58561366774E+03  0.10356917351E+04  0.11898102176E+04  0.12699999809E+01 0. -1.
</event>
<event>
 5   0  0.4447909E-07  0.3405801E+04  0.7818609E-02  0.8136484E-01
       -2   -1    0    0    0  501  0.00000000000E+00  0.00000000000E+00  0.14759059381E+04  0.14759059381E+04  0.25500000920E-02 0.  1.
        2   -1    0    0  501    0  0.00000000000E+00  0.00000000000E+00 -0.19648073097E+04  0.19648073097E+04  0.25500000920E-02 0. -1.
    10030    2    1    2    0    0  0.00000000000E+00  0.00000000000E+00 -0.48890137155E+03  0.34407132478E+04  0.34058013892E+04 0.  0.
        5    1    3    3  502    0 -0.69773027552E+03  0.12757605916E+04  0.65089368826E+03  0.15931344287E+04  0.46999998093E+01 0.  1.
       -5    1    3    3    0  502  0.69773027552E+03 -0.12757605916E+04 -0.11397950598E+04  0.18475788191E+04  0.46999998093E+01 0. -1.
</event>
<event>
 5   0  0.1421875E-07  0.3391547E+04  0.7818609E-02  0.8139984E-01
        1   -1    0    0  501    0  0.00000000000E+00  0.00000000000E+00  0.26883452246E+04  0.26883452246E+04  0.50400001928E-02 0. -1.
       -1   -1    0    0    0  501  0.00000000000E+00  0.00000000000E+00 -0.10696719864E+04  0.10696719864E+04  0.50400001928E-02 0.  1.
    10030    2    1    2    0    0  0.00000000000E+00  0.00000000000E+00  0.16186732382E+04  0.37580172110E+04  0.33915468899E+04 0.  0.
        5    1    3    3  502    0  0.12148791799E+04  0.11021643755E+04  0.33283762662E+03  0.16737684153E+04  0.46999998093E+01 0.  1.
       -5    1    3    3    0  502 -0.12148791799E+04 -0.11021643755E+04  0.12858356115E+04  0.20842487957E+04  0.46999998093E+01 0. -1.
</event>
<event>
 5   0  0.1520084E-07  0.3385491E+04  0.7818609E-02  0.8141476E-01
        1   -1    0    0  501    0  0.00000000000E+00  0.00000000000E+00  0.22153576068E+04  0.22153576068E+04  0.50400001928E-02 0.  1.
       -1   -1    0    0    0  501  0.00000000000E+00  0.00000000000E+00 -0.12934198675E+04  0.12934198676E+04  0.50400001928E-02 0. -1.
    10030    2    1    2    0    0  0.00000000000E+00  0.00000000000E+00  0.92193773922E+03  0.35087774743E+04  0.33854911267E+04 0.  0.
        2    1    3    3  502    0  0.80874939183E+03 -0.96772317867E+03  0.16311665422E+04  0.20618603294E+04  0.25500000920E-02 0.  1.
       -2    1    3    3    0  502 -0.80874939183E+03  0.96772317867E+03 -0.70922880301E+03  0.14469171450E+04  0.25500000920E-02 0. -1.
</event>
<event>
 5   0  0.4447909E-07  0.3416533E+04  0.7818609E-02  0.8133860E-01
       -2   -1    0    0    0  501  0.00000000000E+00  0.00000000000E+00  0.31132620867E+04  0.31132620867E+04  0.25500000920E-02 0. -1.
        2   -1    0    0  501    0  0.00000000000E+00  0.00000000000E+00 -0.93733655358E+03  0.93733655358E+03  0.25500000920E-02 0.  1.
    10030    2    1    2    0    0  0.00000000000E+00  0.00000000000E+00  0.21759255331E+04  0.40505986403E+04  0.34165329530E+04 0.  0.
        5    1    3    3  502    0 -0.51958901974E+03  0.14067523171E+04  0.11807726681E+03  0.15042902520E+04  0.46999998093E+01 0.  1.
       -5    1    3    3    0  502  0.51958901974E+03 -0.14067523171E+04  0.20578482663E+04  0.25463083883E+04  0.46999998093E+01 0. -1.
</event>
<event>
 5   0  0.4486226E-07  0.3398697E+04  0.7818609E-02  0.8138226E-01
        2   -1    0    0  501    0  0.00000000000E+00  0.00000000000E+00  0.17530783929E+04  0.17530783929E+04  0.25500000920E-02 0. -1.
       -2   -1    0    0    0  501  0.00000000000E+00  0.00000000000E+00 -0.16472654063E+04  0.16472654063E+04  0.25500000920E-02 0.  1.
    10030    2    1    2    0    0  0.00000000000E+00  0.00000000000E+00  0.10581298665E+03  0.34003437992E+04  0.33986970393E+04 0.  0.
        1    1    3    3  502    0 -0.28789656768E+03  0.10671586530E+04 -0.12384835610E+04  0.16599860106E+04  0.50400001928E-02 0.  1.
       -1    1    3    3    0  502  0.28789656768E+03 -0.10671586530E+04  0.13442965477E+04  0.17403577886E+04  0.50400001928E-02 0. -1.
</event>
<event>
 5   0  0.1523259E-07  0.3394266E+04  0.7818609E-02  0.8139315E-01
        1   -1    0    0  501    0  0.00000000000E+00  0.00000000000E+00  0.19442105169E+04  0.19442105169E+04  0.50400001928E-02 0.  1.
       -1   -1    0    0    0  501  0.00000000000E+00  0.00000000000E+00 -0.14814549720E+04  0.14814549720E+04  0.50400001928E-02 0. -1.
    10030    2    1    2    0    0  0.00000000000E+00  0.00000000000E+00  0.46275554487E+03  0.34256654889E+04  0.33942659512E+04 0.  0.
        4    1    3    3  502    0 -0.30425385486E+03 -0.76023534722E+03 -0.12688898719E+04  0.15101692989E+04  0.12699999809E+01 0. -1.
       -4    1    3    3    0  502  0.30425385486E+03  0.76023534722E+03  0.17316454168E+04  0.19154961900E+04  0.12699999809E+01 0.  1.
</event>
<event>
 5   0  0.1421875E-07  0.3400955E+04  0.7818609E-02  0.8137672E-01
        3   -1    0    0  501    0  0.00000000000E+00  0.00000000000E+00  0.22347457809E+04  0.22347457832E+04  0.10100000352E+00 0. -1.
       -3   -1    0    0    0  501  0.00000000000E+00  0.00000000000E+00 -0.12939387319E+04  0.12939387358E+04  0.10100000352E+00 0.  1.
    10030    2    1    2    0    0  0.00000000000E+00  0.00000000000E+00  0.94080704898E+03  0.35286845190E+04  0.34009552381E+04 0.  0.
        4    1    3    3  502    0 -0.11187242145E+04 -0.10521774398E+04  0.12278920265E+04  0.19663015218E+04  0.12699999809E+01 0. -1.
       -4    1    3    3    0  502  0.11187242145E+04  0.10521774398E+04 -0.28708497754E+03  0.15623829972E+04  0.12699999809E+01 0.  1.
</event>
<event>
 5   0  0.1421875E-07  0.3407483E+04  0.7818609E-02  0.8136072E-01
       -1   -1    0    0    0  501  0.00000000000E+00  0.00000000000E+00  0.12449563109E+04  0.12449563109E+04  0.50400001928E-02 0.  1.
        1   -1    0    0  501    0  0.00000000000E+00  0.00000000000E+00 -0.23315955069E+04  0.23315955069E+04  0.50400001928E-02 0. -1.
    10030    2    1    2    0    0  0.00000000000E+00  0.00000000000E+00 -0.10866391960E+04  0.35765518178E+04  0.34074826724E+04 0.  0.
        5    1    3    3  502    0 -0.78382200749E+03  0.14807723344E+04 -0.86793613427E+03  0.18869019235E+04  0.46999998093E+01 0. -1.
       -5    1    3    3    0  502  0.78382200749E+03 -0.14807723344E+04 -0.21870306176E+03  0.16896498942E+04  0.46999998093E+01 0.  1.
</event>
<event>
 5   0  0.1435806E-07  0.3396695E+04  0.7818609E-02  0.8138718E-01
        1   -1    0    0  501    0  0.00000000000E+00  0.00000000000E+00  0.17753354483E+04  0.17753354483E+04  0.50400001928E-02 0.  1.
       -1   -1    0    0    0  501  0.00000000000E+00  0.00000000000E+00 -0.16246981427E+04  0.16246981428E+04  0.50400001928E-02 0. -1.
    10030    2    1    2    0    0  0.00000000000E+00  0.00000000000E+00  0.15063730555E+03  0.34000335911E+04  0.33966949852E+04 0.  0.
        3    1    3    3  502    0  0.17696779159E+03 -0.86049772934E+03 -0.13795920858E+04  0.16355574813E+04  0.10100000352E+00 0. -1.
       -3    1    3    3    0  502 -0.17696779159E+03  0.86049772934E+03  0.15302293913E+04  0.17644761097E+04  0.10100000352E+00 0.  1.
</event>
<event>
 5   0  0.1421875E-07  0.3235776E+04  0.7818609E-02  0.8179432E-01
       -1   -1    0    0    0  501  0.00000000000E+00  0.00000000000E+00  0.19009496329E+04  0.19009496329E+04  0.50400001928E-02 0.  1.
        1   -1    0    0  501    0  0.00000000000E+00  0.00000000000E+00 -0.13769757851E+04  0.13769757851E+04  0.50400001928E-02 0. -1.
    10030    2    1    2    0    0  0.00000000000E+00  0.00000000000E+00  0.52397384788E+03  0.32779254180E+04  0.32357760202E+04 0.  0.
        5    1    3    3  502    0 -0.14095520084E+04  0.42248952518E+02 -0.54138660785E+03  0.15105440701E+04  0.46999998093E+01 0. -1.
       -5    1    3    3    0  502  0.14095520084E+04 -0.42248952518E+02  0.10653604557E+04  0.17673813479E+04  0.46999998093E+01 0.  1.
</event>
<event>
 5   0  0.1523259E-07  0.3400090E+04  0.7818609E-02  0.8137884E-01
       -1   -1    0    0    0  501  0.00000000000E+00  0.00000000000E+00  0.11224402032E+04  0.11224402033E+04  0.50400001928E-02 0.  1.
        1   -1    0    0  501    0  0.00000000000E+00  0.00000000000E+00 -0.25748835151E+04  0.25748835151E+04  0.50400001928E-02 0. -1.
    10030    2    1    2    0    0  0.00000000000E+00  0.00000000000E+00 -0.14524433119E+04  0.36973237184E+04  0.34000898671E+04 0.  0.
        4    1    3    3  502    0  0.93993723492E+03 -0.72766130479E+03  0.59541940604E+03  0.13294731521E+04  0.12699999809E+01 0.  1.
       -4    1    3    3    0  502 -0.93993723492E+03  0.72766130479E+03 -0.20478627179E+04  0.23678505663E+04  0.12699999809E+01 0. -1.
</event>
<event>
 5   0  0.1421875E-07  0.3400527E+04  0.7818609E-02  0.8137777E-01
        1   -1    0    0  501    0  0.00000000000E+00  0.00000000000E+00  0.17795551242E+04  0.17795551242E+04  0.50400001928E-02 0.  1.
       -1   -1    0    0    0  501  0.00000000000E+00  0.00000000000E+00 -0.16245053246E+04  0.16245053246E+04  0.50400001928E-02 0. -1.
    10030    2    1    2    0    0  0.00000000000E+00  0.00000000000E+00  0.15504979956E+03  0.34040604488E+04  0.34005274736E+04 0.  0.
        5    1    3    3  502    0  0.57008377975E+03  0.91954361871E+02  0.16783810429E+04  0.17749467980E+04  0.46999998093E+01 0.  1.
       -5    1    3    3    0  502 -0.57008377975E+03 -0.91954361871E+02 -0.15233312433E+04  0.16291136509E+04  0.46999998093E+01 0. -1.
</event>
<event>
 5   0  0.4521737E-07  0.3405168E+04  0.7818609E-02  0.8136639E-01
       -2   -1    0    0    0  501  0.00000000000E+00  0.00000000000E+00  0.32023520469E+04  0.32023520469E+04  0.25500000920E-02 0.  1.
        2   -1    0    0  501    0  0.00000000000E+00  0.00000000000E+00 -0.90520730936E+03  0.90520730937E+03  0.25500000920E-02 0. -1.
    10030    2    1    2    0    0  0.00000000000E+00  0.00000000000E+00  0.22971447375E+04  0.41075593562E+04  0.34051681192E+04 0.  0.
        4    1    3    3  502    0  0.67901904424E+03 -0.12433502079E+04  0.94246053066E+01  0.14167134636E+04  0.12699999809E+01 0. -1.
       -4    1    3    3    0  502 -0.67901904424E+03  0.12433502079E+04  0.22877201322E+04  0.26908458926E+04  0.12699999809E+01 0.  1.
</event>
<event>
 5   0  0.1421875E-07  0.3376359E+04  0.7818609E-02  0.8143733E-01
        1   -1    0    0  501    0  0.00000000000E+00  0.00000000000E+00  0.18926676929E+04  0.18926676929E+04  0.50400001928E-02 0.  1.
       -1   -1    0    0    0  501  0.00000000000E+00  0.00000000000E+00 -0.15057849510E+04  0.15057849510E+04  0.50400001928E-02 0. -1.
    10030    2    1    2    0    0  0.00000000000E+00  0.00000000000E+00  0.38688274192E+03  0.33984526440E+04  0.33763592992E+04 0.  0.
        5    1    3    3  502    0 -0.29826720447E+03  0.15658480420E+04 -0.36615069354E+03  0.16355218850E+04  0.46999998093E+01 0. -1.
       -5    1    3    3    0  502  0.29826720447E+03 -0.15658480420E+04  0.75303343546E+03  0.17629307590E+04  0.46999998093E+01 0.  1.
</event>
<event>
 5   0  0.4381939E-07  0.3315856E+04  0.7818609E-02  0.8158873E-01
       -2   -1    0    0    0  501  0.00000000000E+00  0.00000000000E+00  0.17584742197E+04  0.17584742197E+04  0.25500000920E-02 0.  1.
        2   -1    0    0  501    0  0.00000000000E+00  0.00000000000E+00 -0.15631306309E+04  0.15631306309E+04  0.25500000920E-02 0. -1.
    10030    2    1    2    0    0  0.00000000000E+00  0.00000000000E+00  0.19534358872E+03  0.33216048506E+04  0.33158557969E+04 0.  0.
        3    1    3    3  502    0 -0.25025745214E+03  0.46875823727E+03 -0.14755165712E+04  0.15682832140E+04  0.10100000352E+00 0. -1.
       -3    1    3    3    0  502  0.25025745214E+03 -0.46875823727E+03  0.16708601599E+04  0.17533216366E+04  0.10100000352E+00 0.  1.
</event>
<event>
 5   0  0.4381939E-07  0.3298361E+04  0.7818609E-02  0.8163313E-01
       -2   -1    0    0    0  501  0.00000000000E+00  0.00000000000E+00  0.13742146340E+04  0.13742146340E+04  0.25500000920E-02 0. -1.
        2   -1    0    0  501    0  0.00000000000E+00  0.00000000000E+00 -0.19791641960E+04  0.19791641960E+04  0.25500000920E-02 0.  1.
    10030    2    1    2    0    0  0.00000000000E+00  0.00000000000E+00 -0.60494956196E+03  0.33533788300E+04  0.32983610483E+04 0.  0.
        3    1    3    3  502    0  0.95650535651E+03 -0.45573887230E+03 -0.15873576200E+04  0.19084822872E+04  0.10100000352E+00 0.  1.
       -3    1    3    3    0  502 -0.95650535651E+03  0.45573887230E+03  0.98240805802E+03  0.14448965428E+04  0.10100000352E+00 0. -1.
</event>
<event>
 5   0  0.1520084E-07  0.3391492E+04  0.7818609E-02  0.8139998E-01
       -1   -1    0    0    0  501  0.00000000000E+00  0.00000000000E+00  0.21109233699E+04  0.21109233699E+04  0.50400001928E-02 0.  1.
        1   -1    0    0  501    0  0.00000000000E+00  0.00000000000E+00 -0.13622260519E+04  0.13622260519E+04  0.50400001928E-02 0. -1.
    10030    2    1    2    0    0  0.00000000000E+00  0.00000000000E+00  0.74869731798E+03  0.34731494218E+04  0.33914921837E+04 0.  0.
        2    1    3    3  502    0 -0.57431458568E+03 -0.91847305327E+03  0.17104160027E+04  0.20245870926E+04  0.25500000920E-02 0.  1.
       -2    1    3    3    0  502  0.57431458568E+03  0.91847305327E+03 -0.96171868477E+03  0.14485623292E+04  0.25500000920E-02 0. -1.
</event>
<event>
 5   0  0.4447909E-07  0.3472170E+04  0.7818609E-02  0.8120417E-01
        2   -1    0    0  501    0  0.00000000000E+00  0.00000000000E+00  0.23795579372E+04  0.23795579372E+04  0.25500000920E-02 0.  1.
       -2   -1    0    0    0  501  0.00000000000E+00  0.00000000000E+00 -0.12666180829E+04  0.12666180829E+04  0.25500000920E-02 0. -1.
    10030    2    1    2    0    0  0.00000000000E+00  0.00000000000E+00  0.11129398544E+04  0.36461760201E+04  0.34721699915E+04 0.  0.
        5    1    3    3  502    0  0.72946204226E+03 -0.74053812831E+03  0.20166417334E+04  0.22687832777E+04  0.46999998093E+01 0.  1.
       -5    1    3    3    0  502 -0.72946204226E+03  0.74053812831E+03 -0.90370187900E+03  0.13773927423E+04  0.46999998093E+01 0. -1.
</event>
<event>
 5   0  0.1421875E-07  0.3404745E+04  0.7818609E-02  0.8136743E-01
       -1   -1    0    0    0  501  0.00000000000E+00  0.00000000000E+00  0.16357416582E+04  0.16357416582E+04  0.50400001928E-02 0.  1.
        1   -1    0    0  501    0  0.00000000000E+00  0.00000000000E+00 -0.17717177606E+04  0.17717177606E+04  0.50400001928E-02 0. -1.
    10030    2    1    2    0    0  0.00000000000E+00  0.00000000000E+00 -0.13597610239E+03  0.34074594189E+04  0.34047452461E+04 0.  0.
        5    1    3    3  502    0 -0.11917425339E+04 -0.60240197877E+03  0.98874763563E+03  0.16615602270E+04  0.46999998093E+01 0.  1.
       -5    1    3    3    0  502  0.11917425339E+04  0.60240197877E+03 -0.11247237380E+04  0.17458991918E+04  0.46999998093E+01 0. -1.
</event>
<event>
 5   0  0.1520084E-07  0.3394882E+04  0.7818609E-02  0.8139164E-01
        1   -1    0    0  501    0  0.00000000000E+00  0.00000000000E+00  0.15499983441E+04  0.15499983441E+04  0.50400001928E-02 0.  1.
       -1   -1    0    0    0  501  0.00000000000E+00  0.00000000000E+00 -0.18589089237E+04  0.18589089237E+04  0.50400001928E-02 0. -1.
    10030    2    1    2    0    0  0.00000000000E+00  0.00000000000E+00 -0.30891057962E+03  0.34089072677E+04  0.33948818851E+04 0.  0.
        2    1    3    3  502    0  0.18070994712E+03  0.16161421416E+04  0.33410826037E+03  0.16601806638E+04  0.25500000920E-02 0. -1.
       -2    1    3    3    0  502 -0.18070994712E+03 -0.16161421416E+04 -0.64301883999E+03  0.17487266039E+04  0.25500000920E-02 0.  1.
</event>
<event>
 5   0  0.4447909E-07  0.3388933E+04  0.7818609E-02  0.8140628E-01
       -2   -1    0    0    0  501  0.00000000000E+00  0.00000000000E+00  0.17161168647E+04  0.17161168647E+04  0.25500000920E-02 0.  1.
        2   -1    0    0  501    0  0.00000000000E+00  0.00000000000E+00 -0.16730889637E+04  0.16730889637E+04  0.25500000920E-02 0. -1.
    10030    2    1    2    0    0  0.00000000000E+00  0.00000000000E+00  0.43027900981E+02  0.33892058284E+04  0.33889326856E+04 0.  0.
        5    1    3    3  502    0 -0.16420036294E+04  0.37112147842E+02 -0.39522200643E+03  0.16893122136E+04  0.46999998093E+01 0.  1.
       -5    1    3    3    0  502  0.16420036294E+04 -0.37112147842E+02  0.43824990741E+03  0.16998936149E+04  0.46999998093E+01 0. -1.
</event>
<event>
 5   0  0.4486226E-07  0.3397585E+04  0.7818609E-02  0.8138499E-01
        2   -1    0    0  501    0  0.00000000000E+00  0.00000000000E+00  0.24988945450E+04  0.24988945450E+04  0.25500000920E-02 0. -1.
       -2   -1    0    0    0  501  0.00000000000E+00  0.00000000000E+00 -0.11548689461E+04  0.11548689461E+04  0.25500000920E-02 0.  1.
    10030    2    1    2    0    0  0.00000000000E+00  0.00000000000E+00  0.13440255989E+04  0.36537634911E+04  0.33975848537E+04 0.  0.
        1    1    3    3  502    0  0.36024174914E+03 -0.21793564333E+03 -0.10978704262E+04  0.11758356753E+04  0.50400001928E-02 0.  1.
       -1    1    3    3    0  502 -0.36024174914E+03  0.21793564333E+03  0.24418960252E+04  0.24779278158E+04  0.50400001928E-02 0. -1.
</event>
<event>
 5   0  0.1520084E-07  0.3394188E+04  0.7818609E-02  0.8139334E-01
       -1   -1    0    0    0  501  0.00000000000E+00  0.00000000000E+00  0.11154856719E+04  0.11154856719E+04  0.50400001928E-02 0. -1.
        1   -1    0    0  501    0  0.00000000000E+00  0.00000000000E+00 -0.25819495643E+04  0.25819495643E+04  0.50400001928E-02 0.  1.
    10030    2    1    2    0    0  0.00000000000E+00  0.00000000000E+00 -0.14664638924E+04  0.36974352362E+04  0.33941878230E+04 0.  0.
        2    1    3    3  502    0 -0.24033861607E+03  0.36151089307E+03  0.10539798098E+04  0.11398799128E+04  0.25500000920E-02 0. -1.
       -2    1    3    3    0  502  0.24033861607E+03 -0.36151089307E+03 -0.25204437022E+04  0.25575553233E+04  0.25500000920E-02 0.  1.
</event>
<event>
 5   0  0.4486226E-07  0.3409948E+04  0.7818609E-02  0.8135469E-01
       -2   -1    0    0    0  501  0.00000000000E+00  0.00000000000E+00  0.12728490361E+04  0.12728490361E+04  0.25500000920E-02 0. -1.
        2   -1    0    0  501    0  0.00000000000E+00  0.00000000000E+00 -0.22838023570E+04  0.22838023570E+04  0.25500000920E-02 0.  1.
    10030    2    1    2    0    0  0.00000000000E+00  0.00000000000E+00 -0.10109533209E+04  0.35566513931E+04  0.34099475825E+04 0.  0.
        1    1    3    3  502    0 -0.30145320187E+03  0.15853078071E+04 -0.10794808934E+04  0.19414823913E+04  0.50400001928E-02 0.  1.
       -1    1    3    3    0  502  0.30145320187E+03 -0.15853078071E+04  0.68527572533E+02  0.16151690018E+04  0.50400001928E-02 0. -1.
</event>
<event>
 5   0  0.1523259E-07  0.3418836E+04  0.7818609E-02  0.8133299E-01
        1   -1    0    0  501    0  0.00000000000E+00  0.00000000000E+00  0.26381110819E+04  0.26381110819E+04  0.50400001928E-02 0.  1.
       -1   -1    0    0    0  501  0.00000000000E+00  0.00000000000E+00 -0.11076525474E+04  0.11076525474E+04  0.50400001928E-02 0. -1.
    10030    2    1    2    0    0  0.00000000000E+00  0.00000000000E+00  0.15304585345E+04  0.37457636293E+04  0.34188363284E+04 0.  0.
        4    1    3    3  502    0 -0.83320378040E+03 -0.32285470602E+03  0.23618546636E+04  0.25252371702E+04  0.12699999809E+01 0.  1.
       -4    1    3    3    0  502  0.83320378040E+03  0.32285470602E+03 -0.83139612910E+03  0.12205264591E+04  0.12699999809E+01 0. -1.
</event>
<event>
 5   0  0.4381939E-07  0.3429029E+04  0.7818609E-02  0.8130818E-01
        2   -1    0    0  501    0  0.00000000000E+00  0.00000000000E+00  0.27982788201E+04  0.27982788201E+04  0.25500000920E-02 0.  1.
       -2   -1    0    0    0  501  0.00000000000E+00  0.00000000000E+00 -0.10504883044E+04  0.10504883044E+04  0.25500000920E-02 0. -1.
    10030    2    1    2    0    0  0.00000000000E+00  0.00000000000E+00  0.17477905158E+04  0.38487671245E+04  0.34290285347E+04 0.  0.
        3    1    3    3  502    0 -0.23192033021E+03  0.84070492424E+03 -0.78293451435E+03  0.11719890243E+04  0.10100000352E+00 0. -1.
       -3    1    3    3    0  502  0.23192033021E+03 -0.84070492424E+03  0.25307250301E+04  0.26767781002E+04  0.10100000352E+00 0.  1.
</event>
<event>
 5   0  0.1523259E-07  0.3417376E+04  0.7818609E-02  0.8133655E-01
        1   -1    0    0  501    0  0.00000000000E+00  0.00000000000E+00  0.16923816066E+04  0.16923816066E+04  0.50400001928E-02 0.  1.
       -1   -1    0    0    0  501  0.00000000000E+00  0.00000000000E+00 -0.17251512431E+04  0.17251512431E+04  0.50400001928E-02 0. -1.
    10030    2    1    2    0    0  0.00000000000E+00  0.00000000000E+00 -0.32769636446E+02  0.34175328497E+04  0.34173757373E+04 0.  0.
        4    1    3    3  502    0  0.92554362082E+03  0.25767826146E+03 -0.14294549253E+04  0.17223159051E+04  0.12699999809E+01 0. -1.
       -4    1    3    3    0  502 -0.92554362082E+03 -0.25767826146E+03  0.13966852889E+04  0.16952169447E+04  0.12699999809E+01 0.  1.
</event>
<event>
 5   0  0.4381939E-07  0.3399543E+04  0.7818609E-02  0.8138018E-01
       -2   -1    0    0    0  501  0.00000000000E+00  0.00000000000E+00  0.18215136038E+04  0.18215136038E+04  0.25500000920E-02 0. -1.
        2   -1    0    0  501    0  0.00000000000E+00  0.00000000000E+00 -0.15861661089E+04  0.15861661089E+04  0.25500000920E-02 0.  1.
    10030    2    1    2    0    0  0.00000000000E+00  0.00000000000E+00  0.23534749491E+03  0.34076797127E+04  0.33995429959E+04 0.  0.
        3    1    3    3  502    0 -0.11671763695E+04 -0.82297811727E+03 -0.80628592421E+03  0.16400276403E+04  0.10100000352E+00 0.  1.
       -3    1    3    3    0  502  0.11671763695E+04  0.82297811727E+03  0.10416334191E+04  0.17676520724E+04  0.10100000352E+00 0. -1.
</event>
<event>
 5   0  0.4521737E-07  0.3411296E+04  0.7818609E-02  0.8135140E-01
        2   -1    0    0  501    0  0.00000000000E+00  0.00000000000E+00  0.21226509065E+04  0.21226509065E+04  0.25500000920E-02 0.  1.
       -2   -1    0    0    0  501  0.00000000000E+00  0.00000000000E+00 -0.13705668059E+04  0.13705668059E+04  0.25500000920E-02 0. -1.
    10030    2    1    2    0    0  0.00000000000E+00  0.00000000000E+00  0.75208410056E+03  0.34932177124E+04  0.34112958670E+04 0.  0.
        4    1    3    3  502    0 -0.78584952299E+03 -0.14739886910E+04  0.22747826863E+02  0.16705451836E+04  0.12699999809E+01 0. -1.
       -4    1    3    3    0  502  0.78584952299E+03  0.14739886910E+04  0.72933627369E+03  0.18226725288E+04  0.12699999809E+01 0.  1.
</event>
<event>
 5   0  0.4396257E-07  0.3423646E+04  0.7818609E-02  0.8132127E-01
       -2   -1    0    0    0  501  0.00000000000E+00  0.00000000000E+00  0.19142660129E+04  0.19142660129E+04  0.25500000920E-02 0. -1.
        2   -1    0    0  501    0  0.00000000000E+00  0.00000000000E+00 -0.15307892001E+04  0.15307892001E+04  0.25500000920E-02 0.  1.
    10030    2    1    2    0    0  0.00000000000E+00  0.00000000000E+00  0.38347681277E+03  0.34450552130E+04  0.34236458570E+04 0.  0.
        2    1    3    3  502    0  0.11905659760E+04 -0.71076635445E+03 -0.81838241364E+03  0.16100887953E+04  0.25500000920E-02 0.  1.
       -2    1    3    3    0  502 -0.11905659760E+04  0.71076635445E+03  0.12018592264E+04  0.18349664177E+04  0.25500000920E-02 0. -1.
</event>
<event>
 5   0  0.4396257E-07  0.3386235E+04  0.7818609E-02  0.8141293E-01
       -2   -1    0    0    0  501  0.00000000000E+00  0.00000000000E+00  0.18698640773E+04  0.18698640773E+04  0.25500000920E-02 0.  1.
        2   -1    0    0  501    0  0.00000000000E+00  0.00000000000E+00 -0.15330779229E+04  0.15330779229E+04  0.25500000920E-02 0. -1.
    10030    2    1    2    0    0  0.00000000000E+00  0.00000000000E+00  0.33678615449E+03  0.34029420002E+04  0.33862352758E+04 0.  0.
        2    1    3    3  502    0 -0.15102839786E+04 -0.41319522581E+03 -0.47895847285E+03  0.16374031908E+04  0.25500000920E-02 0. -1.
       -2    1    3    3    0  502  0.15102839786E+04  0.41319522581E+03  0.81574462734E+03  0.17655388094E+04  0.25500000920E-02 0.  1.
</event>
<event>
 5   0  0.1523259E-07  0.3403942E+04  0.7818609E-02  0.8136940E-01
        1   -1    0    0  501    0  0.00000000000E+00  0.00000000000E+00  0.24203650269E+04  0.24203650269E+04  0.50400001928E-02 0. -1.
       -1   -1    0    0    0  501  0.00000000000E+00  0.00000000000E+00 -0.11968049910E+04  0.11968049910E+04  0.50400001928E-02 0.  1.
    10030    2    1    2    0    0  0.00000000000E+00  0.00000000000E+00  0.12235600359E+04  0.36171700179E+04  0.34039417998E+04 0.  0.
        4    1    3    3  502    0 -0.20810757889E+02 -0.28251946671E+03 -0.11715759939E+04  0.12053390639E+04  0.12699999809E+01 0.  1.
       -4    1    3    3    0  502  0.20810757889E+02  0.28251946671E+03  0.23951360297E+04  0.24118309539E+04  0.12699999809E+01 0. -1.
</event>
<event>
 5   0  0.4396257E-07  0.3390933E+04  0.7818609E-02  0.8140135E-01
       -2   -1    0    0    0  501  0.00000000000E+00  0.00000000000E+00  0.19140862746E+04  0.19140862746E+04  0.25500000920E-02 0.  1.
        2   -1    0    0  501    0  0.00000000000E+00  0.00000000000E+00 -0.15018165589E+04  0.15018165589E+04  0.25500000920E-02 0. -1.
    10030    2    1    2    0    0  0.00000000000E+00  0.00000000000E+00  0.41226971570E+03  0.34159028334E+04  0.33909328877E+04 0.  0.
        2    1    3    3  502    0  0.10618365967E+04 -0.87452645399E+03  0.12045502246E+04  0.18284514542E+04  0.25500000920E-02 0.  1.
       -2    1    3    3    0  502 -0.10618365967E+04  0.87452645399E+03 -0.79228050890E+03  0.15874513793E+04  0.25500000920E-02 0. -1.
</event>
<event>
 5   0  0.4447909E-07  0.3413603E+04  0.7818609E-02  0.8134576E-01
       -2   -1    0    0    0  501  0.00000000000E+00  0.00000000000E+00  0.22527543352E+04  0.22527543352E+04  0.25500000920E-02 0.  1.
        2   -1    0    0  501    0  0.00000000000E+00  0.00000000000E+00 -0.12931597755E+04  0.12931597755E+04  0.25500000920E-02 0. -1.
    10030    2    1    2    0    0  0.00000000000E+00  0.00000000000E+00  0.95959455966E+03  0.35459141107E+04  0.34136029590E+04 0.  0.
        5    1    3    3  502    0 -0.64800823893E+03 -0.15376586204E+04  0.10694106244E+03  0.16720547812E+04  0.46999998093E+01 0. -1.
       -5    1    3    3    0  502  0.64800823893E+03  0.15376586204E+04  0.85265349723E+03  0.18738593295E+04  0.46999998093E+01 0.  1.
</event>
<event>
 5   0  0.4447909E-07  0.3291866E+04  0.7818609E-02  0.8164968E-01
       -2   -1    0    0    0  501  0.00000000000E+00  0.00000000000E+00  0.13129902317E+04  0.13129902317E+04  0.25500000920E-02 0.  1.
        2   -1    0    0  501    0  0.00000000000E+00  0.00000000000E+00 -0.20633019732E+04  0.20633019732E+04  0.25500000920E-02 0. -1.
    10030    2    1    2    0    0  0.00000000000E+00  0.00000000000E+00 -0.75031174152E+03  0.33762922048E+04  0.32918659364E+04 0.  0.
        5    1    3    3  502    0 -0.45183365443E+03 -0.41245377896E+02  0.12475778407E+04  0.13275267948E+04  0.46999998093E+01 0.  1.
       -5    1    3    3    0  502  0.45183365443E+03  0.41245377896E+02 -0.19978895822E+04  0.20487654100E+04  0.46999998093E+01 0. -1.
</event>
<event>
 5   0  0.4381939E-07  0.3398509E+04  0.7818609E-02  0.8138272E-01
        2   -1    0    0  501    0  0.00000000000E+00  0.00000000000E+00  0.26862499802E+04  0.26862499802E+04  0.25500000920E-02 0.  1.
       -2   -1    0    0    0  501  0.00000000000E+00  0.00000000000E+00 -0.10749056793E+04  0.10749056793E+04  0.25500000920E-02 0. -1.
    10030    2    1    2    0    0  0.00000000000E+00  0.00000000000E+00  0.16113443009E+04  0.37611556595E+04  0.33985087081E+04 0.  0.
        3    1    3    3  502    0 -0.50383991765E+02 -0.10154378762E+04 -0.70116337144E+03  0.12350233645E+04  0.10100000352E+00 0. -1.
       -3    1    3    3    0  502  0.50383991765E+02  0.10154378762E+04  0.23125076724E+04  0.25261322951E+04  0.10100000352E+00 0.  1.
</event>
<event>
 5   0  0.1421875E-07  0.3393945E+04  0.7818609E-02  0.8139394E-01
       -1   -1    0    0    0  501  0.00000000000E+00  0.00000000000E+00  0.86173421604E+03  0.86173421605E+03  0.50400001928E-02 0. -1.
        1   -1    0    0  501    0  0.00000000000E+00  0.00000000000E+00 -0.33417670629E+04  0.33417670629E+04  0.50400001928E-02 0.  1.
    10030    2    1    2    0    0  0.00000000000E+00  0.00000000000E+00 -0.24800328469E+04  0.42035012790E+04  0.33939446196E+04 0.  0.
        5    1    3    3  502    0  0.34808226635E+03  0.57882670731E+03  0.68807297077E+03  0.96419299123E+03  0.46999998093E+01 0. -1.
       -5    1    3    3    0  502 -0.34808226635E+03 -0.57882670731E+03 -0.31681058176E+04  0.32393082877E+04  0.46999998093E+01 0.  1.
</event>
<event>
 5   0  0.1473755E-07  0.3390014E+04  0.7818609E-02  0.8140361E-01
       -1   -1    0    0    0  501  0.00000000000E+00  0.00000000000E+00  0.14201216586E+04  0.14201216586E+04  0.50400001928E-02 0.  1.
        1   -1    0    0  501    0  0.00000000000E+00  0.00000000000E+00 -0.20231007236E+04  0.20231007236E+04  0.50400001928E-02 0. -1.
    10030    2    1    2    0    0  0.00000000000E+00  0.00000000000E+00 -0.60297906499E+03  0.34432223823E+04  0.33900142508E+04 0.  0.
        1    1    3    3  502    0  0.29910443806E+03  0.35666707154E+02 -0.19956969792E+04  0.20183017643E+04  0.50400001928E-02 0. -1.
       -1    1    3    3    0  502 -0.29910443806E+03 -0.35666707154E+02  0.13927179142E+04  0.14249206180E+04  0.50400001928E-02 0.  1.
</event>
<event>
 5   0  0.4381939E-07  0.3389051E+04  0.7818609E-02  0.8140599E-01
       -2   -1    0    0    0  501  0.00000000000E+00  0.00000000000E+00  0.12418664850E+04  0.12418664850E+04  0.25500000920E-02 0. -1.
        2   -1    0    0  501    0  0.00000000000E+00  0.00000000000E+00 -0.23121776252E+04  0.23121776252E+04  0.25500000920E-02 0.  1.
    10030    2    1    2    0    0  0.00000000000E+00  0.00000000000E+00 -0.10703111402E+04  0.35540441102E+04  0.33890505456E+04 0.  0.
        3    1    3    3  502    0 -0.13938104645E+04  0.96335265373E+03 -0.50821553335E+03  0.17689089815E+04  0.10100000352E+00 0. -1.
       -3    1    3    3    0  502  0.13938104645E+04 -0.96335265373E+03 -0.56209560683E+03  0.17851351287E+04  0.10100000352E+00 0.  1.
</event>
<event>
 5   0  0.1520084E-07  0.3411466E+04  0.7818609E-02  0.8135098E-01
       -1   -1    0    0    0  501  0.00000000000E+00  0.00000000000E+00  0.19668036272E+04  0.19668036272E+04  0.50400001928E-02 0.  1.
        1   -1    0    0  501    0  0.00000000000E+00  0.00000000000E+00 -0.14793163280E+04  0.14793163280E+04  0.50400001928E-02 0. -1.
    10030    2    1    2    0    0  0.00000000000E+00  0.00000000000E+00  0.48748729921E+03  0.34461199551E+04  0.34114657961E+04 0.  0.
        2    1    3    3  502    0  0.44205906342E+03  0.11180789864E+03  0.19040968964E+04  0.19579331481E+04  0.25500000920E-02 0.  1.
       -2    1    3    3    0  502 -0.44205906342E+03 -0.11180789864E+03 -0.14166095972E+04  0.14881868070E+04  0.25500000920E-02 0. -1.
</event>
<event>
 5   0  0.4521737E-07  0.3397209E+04  0.7818609E-02  0.8138592E-01
        2   -1    0    0  501    0  0.00000000000E+00  0.00000000000E+00  0.13948925403E+04  0.13948925403E+04  0.25500000920E-02 0.  1.
       -2   -1    0    0    0  501  0.00000000000E+00  0.00000000000E+00 -0.20684440437E+04  0.20684440437E+04  0.25500000920E-02 0. -1.
    10030    2    1    2    0    0  0.00000000000E+00  0.00000000000E+00 -0.67355150334E+03  0.34633365840E+04  0.33972089524E+04 0.  0.
        4    1    3    3  502    0 -0.13825851738E+04 -0.96182194464E+02 -0.13379626918E+04  0.19263796498E+04  0.12699999809E+01 0. -1.
       -4    1    3    3    0  502  0.13825851738E+04  0.96182194464E+02  0.66441118846E+03  0.15369569342E+04  0.12699999809E+01 0.  1.
</event>
<event>
 5   0  0.1523259E-07  0.3410965E+04  0.7818609E-02  0.8135220E-01
       -1   -1    0    0    0  501  0.00000000000E+00  0.00000000000E+00  0.28930840998E+04  0.28930840998E+04  0.50400001928E-02 0.  1.
        1   -1    0    0  501    0  0.00000000000E+00  0.00000000000E+00 -0.10053875630E+04  0.10053875630E+04  0.50400001928E-02 0. -1.
    10030    2    1    2    0    0  0.00000000000E+00  0.00000000000E+00  0.18876965369E+04  0.38984716628E+04  0.34109651260E+04 0.  0.
        4    1    3    3  502    0  0.42740482189E+03 -0.74944470352E+03 -0.73758072826E+03  0.11350635176E+04  0.12699999809E+01 0. -1.
       -4    1    3    3    0  502 -0.42740482189E+03  0.74944470352E+03  0.26252772651E+04  0.27634081452E+04  0.12699999809E+01 0.  1.
</event>
<event>
 5   0  0.4521737E-07  0.3408300E+04  0.7818609E-02  0.8135872E-01
       -2   -1    0    0    0  501  0.00000000000E+00  0.00000000000E+00  0.11247724787E+04  0.11247724787E+04  0.25500000920E-02 0. -1.
        2   -1    0    0  501    0  0.00000000000E+00  0.00000000000E+00 -0.25819685368E+04  0.25819685368E+04  0.25500000920E-02 0.  1.
    10030    2    1    2    0    0  0.00000000000E+00  0.00000000000E+00 -0.14571960580E+04  0.37067410155E+04  0.34082999581E+04 0.  0.
        4    1    3    3  502    0  0.25743108119E+03  0.16812298392E+04 -0.61288109540E+03  0.18078798034E+04  0.12699999809E+01 0. -1.
       -4    1    3    3    0  502 -0.25743108119E+03 -0.16812298392E+04 -0.84431496264E+03  0.18988612121E+04  0.12699999809E+01 0.  1.
</event>
<event>
 5   0  0.4486226E-07  0.3251518E+04  0.7818609E-02  0.8175342E-01
        2   -1    0    0  501    0  0.00000000000E+00  0.00000000000E+00  0.17814784862E+04  0.17814784862E+04  0.25500000920E-02 0.  1.
       -2   -1    0    0    0  501  0.00000000000E+00  0.00000000000E+00 -0.14836507687E+04  0.14836507687E+04  0.25500000920E-02 0. -1.
    10030    2    1    2    0    0  0.00000000000E+00  0.00000000000E+00  0.29782771746E+03  0.32651292549E+04  0.32515177536E+04 0.  0.
        1    1    3    3  502    0 -0.59773608527E+03  0.10230386612E+04  0.12667654362E+04  0.17345291004E+04  0.50400001928E-02 0.  1.
       -1    1    3    3    0  502  0.59773608527E+03 -0.10230386612E+04 -0.96893771877E+03  0.15306001544E+04  0.50400001928E-02 0. -1.
</event>
<event>
 5   0  0.4396257E-07  0.3405521E+04  0.7818609E-02  0.8136553E-01
        2   -1    0    0  501    0  0.00000000000E+00  0.00000000000E+00  0.11768085124E+04  0.11768085124E+04  0.25500000920E-02 0. -1.
       -2   -1    0    0    0  501  0.00000000000E+00  0.00000000000E+00 -0.24637767992E+04  0.24637767992E+04  0.25500000920E-02 0.  1.
    10030    2    1    2    0    0  0.00000000000E+00  0.00000000000E+00 -0.12869682868E+04  0.36405853116E+04  0.34055211113E+04 0.  0.
        2    1    3    3  502    0  0.51093560067E+03  0.14068464941E+04 -0.15113853596E+04  0.21271008324E+04  0.25500000920E-02 0.  1.
       -2    1    3    3    0  502 -0.51093560067E+03 -0.14068464941E+04  0.22441707277E+03  0.15134844792E+04  0.25500000920E-02 0. -1.
</event>
<event>
 5   0  0.1435806E-07  0.3389339E+04  0.7818609E-02  0.8140528E-01
        1   -1    0    0  501    0  0.00000000000E+00  0.00000000000E+00  0.19797223668E+04  0.19797223668E+04  0.50400001928E-02 0. -1.
       -1   -1    0    0    0  501  0.00000000000E+00  0.00000000000E+00 -0.14506600976E+04  0.14506600976E+04  0.50400001928E-02 0.  1.
    10030    2    1    2    0    0  0.00000000000E+00  0.00000000000E+00  0.52906226913E+03  0.34303824644E+04  0.33893387213E+04 0.  0.
        3    1    3    3  502    0 -0.13538394320E+04  0.62442208272E+03  0.10799675359E+04  0.18409546528E+04  0.10100000352E+00 0. -1.
       -3    1    3    3    0  502  0.13538394320E+04 -0.62442208272E+03 -0.55090526681E+03  0.15894278116E+04  0.10100000352E+00 0.  1.
</event>
<event>
 5   0  0.1473755E-07  0.3380027E+04  0.7818609E-02  0.8142826E-01
       -1   -1    0    0    0  501  0.00000000000E+00  0.00000000000E+00  0.16998388807E+04  0.16998388807E+04  0.50400001928E-02 0. -1.
        1   -1    0    0  501    0  0.00000000000E+00  0.00000000000E+00 -0.16802449253E+04  0.16802449253E+04  0.50400001928E-02 0.  1.
    10030    2    1    2    0    0  0.00000000000E+00  0.00000000000E+00  0.19593955407E+02  0.33800838059E+04  0.33800270135E+04 0.  0.
        1    1    3    3  502    0 -0.14366026889E+04 -0.54184089558E+03  0.71601477054E+03  0.16941357659E+04  0.50400001928E-02 0. -1.
       -1    1    3    3    0  502  0.14366026889E+04  0.54184089558E+03 -0.69642081513E+03  0.16859480400E+04  0.50400001928E-02 0.  1.
</event>
<event>
 5   0  0.1520084E-07  0.3384855E+04  0.7818609E-02  0.8141633E-01
       -1   -1    0    0    0  501  0.00000000000E+00  0.00000000000E+00  0.14082476638E+04  0.14082476638E+04  0.50400001928E-02 0.  1.
        1   -1    0    0  501    0  0.00000000000E+00  0.00000000000E+00 -0.20339536687E+04  0.20339536687E+04  0.50400001928E-02 0. -1.
    10030    2    1    2    0    0  0.00000000000E+00  0.00000000000E+00 -0.62570600490E+03  0.34422013325E+04  0.33848547988E+04 0.  0.
        2    1    3    3  502    0  0.94685668594E+03  0.44676932362E+03  0.10394009048E+04  0.14752947682E+04  0.25500000920E-02 0.  1.
       -2    1    3    3    0  502 -0.94685668594E+03 -0.44676932362E+03 -0.16651069096E+04  0.19669065643E+04  0.25500000920E-02 0. -1.
</event>
<event>
 5   0  0.4396257E-07  0.3385079E+04  0.7818609E-02  0.8141578E-01
       -2   -1    0    0    0  501  0.00000000000E+00  0.00000000000E+00  0.12402731953E+04  0.12402731953E+04  0.25500000920E-02 0.  1.
        2   -1    0    0  501    0  0.00000000000E+00  0.00000000000E+00 -0.23097254966E+04  0.23097254966E+04  0.25500000920E-02 0. -1.
    10030    2    1    2    0    0  0.00000000000E+00  0.00000000000E+00 -0.10694523013E+04  0.35499986918E+04  0.33850793916E+04 0.  0.
        2    1    3    3  502    0  0.31224181344E+03  0.88877895276E+03  0.93993440589E+03  0.13307515412E+04  0.25500000920E-02 0.  1.
       -2    1    3    3    0  502 -0.31224181344E+03 -0.88877895276E+03 -0.20093867072E+04  0.22192471507E+04  0.25500000920E-02 0. -1.
</event>
<event>
 5   0  0.4447909E-07  0.3408227E+04  0.7818609E-02  0.8135890E-01
       -2   -1    0    0    0  501  0.00000000000E+00  0.00000000000E+00  0.15444651307E+04  0.15444651307E+04  0.25500000920E-02 0. -1.
        2   -1    0    0  501    0  0.00000000000E+00  0.00000000000E+00 -0.18802643663E+04  0.18802643663E+04  0.25500000920E-02 0.  1.
    10030    2    1    2    0    0  0.00000000000E+00  0.00000000000E+00 -0.33579923559E+03  0.34247294970E+04  0.34082269585E+04 0.  0.
        5    1    3    3  502    0 -0.11643781045E+04 -0.59640732150E+03  0.92940557329E+03  0.16047725300E+04  0.46999998093E+01 0. -1.
       -5    1    3    3    0  502  0.11643781045E+04  0.59640732150E+03 -0.12652048089E+04  0.18199569670E+04  0.46999998093E+01 0.  1.
</event>
<event>
 5   0  0.1473755E-07  0.3412873E+04  0.7818609E-02  0.8134754E-01
       -1   -1    0    0    0  501  0.00000000000E+00  0.00000000000E+00  0.16059023810E+04  0.16059023810E+04  0.50400001928E-02 0. -1.
        1   -1    0    0  501    0  0.00000000000E+00  0.00000000000E+00 -0.18132639084E+04  0.18132639084E+04  0.50400001928E-02 0.  1.
    10030    2    1    2    0    0  0.00000000000E+00  0.00000000000E+00 -0.20736152742E+03  0.34191662894E+04  0.34128725894E+04 0.  0.
        1    1    3    3  502    0 -0.81841042105E+03  0.12328674660E+04  0.74769047337E+03  0.16579501953E+04  0.50400001928E-02 0. -1.
       -1    1    3    3    0  502  0.81841042105E+03 -0.12328674660E+04 -0.95505200079E+03  0.17612160941E+04  0.50400001928E-02 0.  1.
</event>
<event>
 5   0  0.4486226E-07  0.3394058E+04  0.7818609E-02  0.8139366E-01
       -2   -1    0    0    0  501  0.00000000000E+00  0.00000000000E+00  0.10250258114E+04  0.10250258114E+04  0.25500000920E-02 0. -1.
        2   -1    0    0  501    0  0.00000000000E+00  0.00000000000E+00 -0.28095946818E+04  0.28095946818E+04  0.25500000920E-02 0.  1.
    10030    2    1    2    0    0  0.00000000000E+00  0.00000000000E+00 -0.17845688703E+04  0.38346204932E+04  0.33940577889E+04 0.  0.
        1    1    3    3  502    0  0.16886516874E+03 -0.11874612131E+03 -0.27953558906E+04  0.28029681842E+04  0.50400001928E-02 0.  1.
       -1    1    3    3    0  502 -0.16886516874E+03  0.11874612131E+03  0.10107870202E+04  0.10316523091E+04  0.50400001928E-02 0. -1.
</event>
<event>
 5   0  0.1473755E-07  0.3401089E+04  0.7818609E-02  0.8137639E-01
        1   -1    0    0  501    0  0.00000000000E+00  0.00000000000E+00  0.23946895676E+04  0.23946895676E+04  0.50400001928E-02 0.  1.
       -1   -1    0    0    0  501  0.00000000000E+00  0.00000000000E+00 -0.12076103082E+04  0.12076103082E+04  0.50400001928E-02 0. -1.
    10030    2    1    2    0    0  0.00000000000E+00  0.00000000000E+00  0.11870792594E+04  0.36022998758E+04  0.34010891237E+04 0.  0.
        1    1    3    3  502    0 -0.12579033192E+04 -0.65331115007E+02 -0.61653135157E+03  0.14023907524E+04  0.50400001928E-02 0. -1.
       -1    1    3    3    0  502  0.12579033192E+04  0.65331115007E+02  0.18036106110E+04  0.21999091234E+04  0.50400001928E-02 0.  1.
</event>
<event>
 5   0  0.4447909E-07  0.3491148E+04  0.7818609E-02  0.8115891E-01
        2   -1    0    0  501    0  0.00000000000E+00  0.00000000000E+00  0.21506681490E+04  0.21506681490E+04  0.25500000920E-02 0.  1.
       -2   -1    0    0    0  501  0.00000000000E+00  0.00000000000E+00 -0.14167825369E+04  0.14167825369E+04  0.25500000920E-02 0. -1.
    10030    2    1    2    0    0  0.00000000000E+00  0.00000000000E+00  0.73388561213E+03  0.35674506860E+04  0.34911482789E+04 0.  0.
        5    1    3    3  502    0  0.98701202067E+03  0.96062161513E+03 -0.72888533746E+03  0.15582947544E+04  0.46999998093E+01 0. -1.
       -5    1    3    3    0  502 -0.98701202067E+03 -0.96062161513E+03  0.14627709496E+04  0.20091559316E+04  0.46999998093E+01 0.  1.
</event>
<event>
 5   0  0.4486226E-07  0.3400926E+04  0.7818609E-02  0.8137679E-01
        2   -1    0    0  501    0  0.00000000000E+00  0.00000000000E+00  0.19084931317E+04  0.19084931317E+04  0.25500000920E-02 0. -1.
       -2   -1    0    0    0  501  0.00000000000E+00  0.00000000000E+00 -0.15151090329E+04  0.15151090329E+04  0.25500000920E-02 0.  1.
    10030    2    1    2    0    0  0.00000000000E+00  0.00000000000E+00  0.39338409879E+03  0.34236021647E+04  0.34009264521E+04 0.  0.
        1    1    3    3  502    0  0.13443135202E+04  0.11847574028E+03 -0.84478800120E+03  0.15921313101E+04  0.50400001928E-02 0.  1.
       -1    1    3    3    0  502 -0.13443135202E+04 -0.11847574028E+03  0.12381721000E+04  0.18314708545E+04  0.50400001928E-02 0. -1.
</event>
<event>
 5   0  0.4447909E-07  0.3402448E+04  0.7818609E-02  0.8137306E-01
       -2   -1    0    0    0  501  0.00000000000E+00  0.00000000000E+00  0.10638357749E+04  0.10638357749E+04  0.25500000920E-02 0. -1.
        2   -1    0    0  501    0  0.00000000000E+00  0.00000000000E+00 -0.27204987847E+04  0.27204987847E+04  0.25500000920E-02 0.  1.
    10030    2    1    2    0    0  0.00000000000E+00  0.00000000000E+00 -0.16566630099E+04  0.37843345596E+04  0.34024484906E+04 0.  0.
        5    1    3    3  502    0 -0.85345255453E+03  0.97695853869E+03 -0.20524573883E+04  0.24280512083E+04  0.46999998093E+01 0.  1.
       -5    1    3    3    0  502  0.85345255453E+03 -0.97695853869E+03  0.39579437845E+03  0.13562833514E+04  0.46999998093E+01 0. -1.
</event>
<event>
 5   0  0.4447909E-07  0.3404972E+04  0.7818609E-02  0.8136687E-01
       -2   -1    0    0    0  501  0.00000000000E+00  0.00000000000E+00  0.14039048402E+04  0.14039048402E+04  0.25500000920E-02 0.  1.
        2   -1    0    0  501    0  0.00000000000E+00  0.00000000000E+00 -0.20645695589E+04  0.20645695589E+04  0.25500000920E-02 0. -1.
    10030    2    1    2    0    0  0.00000000000E+00  0.00000000000E+00 -0.66066471867E+03  0.34684743992E+04  0.34049723622E+04 0.  0.
        5    1    3    3  502    0  0.60684637495E+03  0.28889090601E+02  0.12897179770E+04  0.14256548154E+04  0.46999998093E+01 0. -1.
       -5    1    3    3    0  502 -0.60684637495E+03 -0.28889090601E+02 -0.19503826957E+04  0.20428195838E+04  0.46999998093E+01 0.  1.
</event>
<event>
 5   0  0.1520084E-07  0.3395908E+04  0.7818609E-02  0.8138911E-01
       -1   -1    0    0    0  501  0.00000000000E+00  0.00000000000E+00  0.16226520625E+04  0.16226520625E+04  0.50400001928E-02 0.  1.
        1   -1    0    0  501    0  0.00000000000E+00  0.00000000000E+00 -0.17767506656E+04  0.17767506656E+04  0.50400001928E-02 0. -1.
    10030    2    1    2    0    0  0.00000000000E+00  0.00000000000E+00 -0.15409860312E+03  0.33994027281E+04  0.33959082038E+04 0.  0.
        2    1    3    3  502    0  0.13134540315E+04 -0.43082056201E+03 -0.10641067175E+04  0.17444457445E+04  0.25500000920E-02 0. -1.
       -2    1    3    3    0  502 -0.13134540315E+04  0.43082056201E+03  0.91000811435E+03  0.16549569836E+04  0.25500000920E-02 0.  1.
</event>
<event>
 5   0  0.4486226E-07  0.3389958E+04  0.7818609E-02  0.8140375E-01
       -2   -1    0    0    0  501  0.00000000000E+00  0.00000000000E+00  0.21950919753E+04  0.21950919753E+04  0.25500000920E-02 0. -1.
        2   -1    0    0  501    0  0.00000000000E+00  0.00000000000E+00 -0.13088080166E+04  0.13088080166E+04  0.25500000920E-02 0.  1.
    10030    2    1    2    0    0  0.00000000000E+00  0.00000000000E+00  0.88628395866E+03  0.35038999919E+04  0.33899580967E+04 0.  0.
        1    1    3    3  502    0 -0.11893928300E+04 -0.81951839610E+03  0.13599084243E+04  0.19838388614E+04  0.50400001928E-02 0. -1.
       -1    1    3    3    0  502  0.11893928300E+04  0.81951839610E+03 -0.47362446563E+03  0.15200611304E+04  0.50400001928E-02 0.  1.
</event>
<event>
 5   0  0.1520084E-07  0.3395259E+04  0.7818609E-02  0.8139071E-01
       -1   -1    0    0    0  501  0.00000000000E+00  0.00000000000E+00  0.11577383145E+04  0.11577383146E+04  0.50400001928E-02 0. -1.
        1   -1    0    0  501    0  0.00000000000E+00  0.00000000000E+00 -0.24892896463E+04  0.24892896463E+04  0.50400001928E-02 0.  1.
    10030    2    1    2    0    0  0.00000000000E+00  0.00000000000E+00 -0.13315513317E+04  0.36470279608E+04  0.33952590473E+04 0.  0.
        2    1    3    3  502    0  0.88977486869E+03 -0.91934960149E+03 -0.18643317257E+04  0.22611138384E+04  0.25500000920E-02 0.  1.
       -2    1    3    3    0  502 -0.88977486869E+03  0.91934960149E+03  0.53278039393E+03  0.13859141225E+04  0.25500000920E-02 0. -1.
</event>
<event>
 5   0  0.4521737E-07  0.3388102E+04  0.7818609E-02  0.8140833E-01
        2   -1    0    0  501    0  0.00000000000E+00  0.00000000000E+00  0.11178521045E+04  0.11178521045E+04  0.25500000920E-02 0. -1.
       -2   -1    0    0    0  501  0.00000000000E+00  0.00000000000E+00 -0.25672531929E+04  0.25672531929E+04  0.25500000920E-02 0.  1.
    10030    2    1    2    0    0  0.00000000000E+00  0.00000000000E+00 -0.14494010884E+04  0.36851052974E+04  0.33881023505E+04 0.  0.
        4    1    3    3  502    0 -0.14166696286E+04  0.81990722035E+03 -0.24984348330E+03  0.16557850300E+04  0.12699999809E+01 0. -1.
       -4    1    3    3    0  502  0.14166696286E+04 -0.81990722035E+03 -0.11995576051E+04  0.20293202674E+04  0.12699999809E+01 0.  1.
</event>
<event>
 5   0  0.1435806E-07  0.3363475E+04  0.7818609E-02  0.8146929E-01
       -1   -1    0    0    0  501  0.00000000000E+00  0.00000000000E+00  0.16771445956E+04  0.16771445956E+04  0.50400001928E-02 0.  1.
        1   -1    0    0  501    0  0.00000000000E+00  0.00000000000E+00 -0.16863429158E+04  0.16863429158E+04  0.50400001928E-02 0. -1.
    10030    2    1    2    0    0  0.00000000000E+00  0.00000000000E+00 -0.91983202294E+01  0.33634875114E+04  0.33634749337E+04 0.  0.
        3    1    3    3  502    0 -0.47398160659E+03  0.93451229682E+03  0.13108026954E+04  0.16781464516E+04  0.10100000352E+00 0.  1.
       -3    1    3    3    0  502  0.47398160659E+03 -0.93451229682E+03 -0.13200010157E+04  0.16853410598E+04  0.10100000352E+00 0. -1.
</event>
<event>
 5   0  0.4381939E-07  0.3395497E+04  0.7818609E-02  0.8139012E-01
       -2   -1    0    0    0  501  0.00000000000E+00  0.00000000000E+00  0.11980822038E+04  0.11980822038E+04  0.25500000920E-02 0. -1.
        2   -1    0    0  501    0  0.00000000000E+00  0.00000000000E+00 -0.24058038033E+04  0.24058038033E+04  0.25500000920E-02 0.  1.
    10030    2    1    2    0    0  0.00000000000E+00  0.00000000000E+00 -0.12077215995E+04  0.36038860071E+04  0.33954974437E+04 0.  0.
        3    1    3    3  502    0 -0.92675582872E+03 -0.11471597506E+04 -0.14966121336E+04  0.21011186897E+04  0.10100000352E+00 0.  1.
       -3    1    3    3    0  502  0.92675582872E+03  0.11471597506E+04  0.28889053408E+03  0.15027673174E+04  0.10100000352E+00 0. -1.
</event>
<event>
 5   0  0.1523259E-07  0.3399726E+04  0.7818609E-02  0.8137974E-01
       -1   -1    0    0    0  501  0.00000000000E+00  0.00000000000E+00  0.14962851766E+04  0.14962851766E+04  0.50400001928E-02 0. -1.
        1   -1    0    0  501    0  0.00000000000E+00  0.00000000000E+00 -0.19311387438E+04  0.19311387438E+04  0.50400001928E-02 0.  1.
    10030    2    1    2    0    0  0.00000000000E+00  0.00000000000E+00 -0.43485356723E+03  0.34274239204E+04  0.33997260339E+04 0.  0.
        4    1    3    3  502    0 -0.63318714012E+03  0.23831133462E+03  0.13547056118E+04  0.15142480491E+04  0.12699999809E+01 0. -1.
       -4    1    3    3    0  502  0.63318714012E+03 -0.23831133462E+03 -0.17895591790E+04  0.19131758713E+04  0.12699999809E+01 0.  1.
</event>
<event>
 5   0  0.4486226E-07  0.3402416E+04  0.7818609E-02  0.8137314E-01
       -2   -1    0    0    0  501  0.00000000000E+00  0.00000000000E+00  0.20248387669E+04  0.20248387669E+04  0.25500000920E-02 0. -1.
        2   -1    0    0  501    0  0.00000000000E+00  0.00000000000E+00 -0.14293028658E+04  0.14293028658E+04  0.25500000920E-02 0.  1.
    10030    2    1    2    0    0  0.00000000000E+00  0.00000000000E+00  0.59553590115E+03  0.34541416327E+04  0.34024155257E+04 0.  0.
        1    1    3    3  502    0 -0.12045667218E+04 -0.37756047961E+03 -0.85999722472E+03  0.15274580615E+04  0.50400001928E-02 0.  1.
       -1    1    3    3    0  502  0.12045667218E+04  0.37756047961E+03  0.14555331259E+04  0.19266835712E+04  0.50400001928E-02 0. -1.
</event>
<event>
 5   0  0.1421875E-07  0.3401238E+04  0.7818609E-02  0.8137602E-01
        1   -1    0    0  501    0  0.00000000000E+00  0.00000000000E+00  0.19564527278E+04  0.19564527278E+04  0.50400001928E-02 0.  1.
       -1   -1    0    0    0  501  0.00000000000E+00  0.00000000000E+00 -0.14782395579E+04  0.14782395579E+04  0.50400001928E-02 0. -1.
    10030    2    1    2    0    0  0.00000000000E+00  0.00000000000E+00  0.47821316992E+03  0.34346922857E+04  0.34012384894E+04 0.  0.
        5    1    3    3  502    0 -0.14949409361E+04  0.36953399782E+03 -0.48957228447E+03  0.16158919796E+04  0.46999998093E+01 0. -1.
       -5    1    3    3    0  502  0.14949409361E+04 -0.36953399782E+03  0.96778545439E+03  0.18188003061E+04  0.46999998093E+01 0.  1.
</event>
<event>
 5   0  0.1523259E-07  0.3482235E+04  0.7818609E-02  0.8118013E-01
       -1   -1    0    0    0  501  0.00000000000E+00  0.00000000000E+00  0.14098119726E+04  0.14098119726E+04  0.50400001928E-02 0. -1.
        1   -1    0    0  501    0  0.00000000000E+00  0.00000000000E+00 -0.21502795419E+04  0.21502795419E+04  0.50400001928E-02 0.  1.
    10030    2    1    2    0    0  0.00000000000E+00  0.00000000000E+00 -0.74046756934E+03  0.35600915145E+04  0.34822348241E+04 0.  0.
        4    1    3    3  502    0 -0.16299133346E+03 -0.63103729045E+03 -0.20208640321E+04  0.21233622597E+04  0.12699999809E+01 0.  1.
       -4    1    3    3    0  502  0.16299133346E+03  0.63103729045E+03  0.12803964628E+04  0.14367292548E+04  0.12699999809E+01 0. -1.
</event>
<event>
 5   0  0.4381939E-07  0.3402398E+04  0.7818609E-02  0.8137318E-01
        2   -1    0    0  501    0  0.00000000000E+00  0.00000000000E+00  0.20178658775E+04  0.20178658775E+04  0.25500000920E-02 0. -1.
       -2   -1    0    0    0  501  0.00000000000E+00  0.00000000000E+00 -0.14342269721E+04  0.14342269721E+04  0.25500000920E-02 0.  1.
    10030    2    1    2    0    0  0.00000000000E+00  0.00000000000E+00  0.58363890544E+03  0.34520928496E+04  0.34023977825E+04 0.  0.
        3    1    3    3  502    0  0.43274380006E+03  0.13927546733E+04  0.11804224413E+04  0.18762808762E+04  0.10100000352E+00 0. -1.
       -3    1    3    3    0  502 -0.43274380006E+03 -0.13927546733E+04 -0.59678353585E+03  0.15758119733E+04  0.10100000352E+00 0.  1.
</event>
<event>
 5   0  0.1421875E-07  0.3404484E+04  0.7818609E-02  0.8136807E-01
       -1   -1    0    0    0  501  0.00000000000E+00  0.00000000000E+00  0.99104900693E+03  0.99104900694E+03  0.50400001928E-02 0.  1.
        1   -1    0    0  501    0  0.00000000000E+00  0.00000000000E+00 -0.29237988868E+04  0.29237988868E+04  0.50400001928E-02 0. -1.
    10030    2    1    2    0    0  0.00000000000E+00  0.00000000000E+00 -0.19327498798E+04  0.39148478937E+04  0.34044840920E+04 0.  0.
        5    1    3    3  502    0 -0.16941948496E+04 -0.16430729421E+03 -0.94603688317E+03  0.19473831029E+04  0.46999998093E+01 0. -1.
       -5    1    3    3    0  502  0.16941948496E+04  0.16430729421E+03 -0.98671299666E+03  0.19674647908E+04  0.46999998093E+01 0.  1.
</event>
<event>
 5   0  0.1435806E-07  0.3378411E+04  0.7818609E-02  0.8143225E-01
        1   -1    0    0  501    0  0.00000000000E+00  0.00000000000E+00  0.26494753226E+04  0.26494753226E+04  0.50400001928E-02 0. -1.
       -1   -1    0    0    0  501  0.00000000000E+00  0.00000000000E+00 -0.10769737325E+04  0.10769737325E+04  0.50400001928E-02 0.  1.
    10030    2    1    2    0    0  0.00000000000E+00  0.00000000000E+00  0.15725015901E+04  0.37264490552E+04  0.33784110629E+04 0.  0.
        3    1    3    3  502    0  0.21785163285E+03  0.15136086506E+04  0.15777729064E+04  0.21972341330E+04  0.10100000352E+00 0. -1.
       -3    1    3    3    0  502 -0.21785163285E+03 -0.15136086506E+04 -0.52713162864E+01  0.15292149221E+04  0.10100000352E+00 0.  1.
</event>
<event>
 5   0  0.1520084E-07  0.3400910E+04  0.7818609E-02  0.8137683E-01
        1   -1    0    0  501    0  0.00000000000E+00  0.00000000000E+00  0.26437893661E+04  0.26437893661E+04  0.50400001928E-02 0.  1.
       -1   -1    0    0    0  501  0.00000000000E+00  0.00000000000E+00 -0.10937131850E+04  0.10937131851E+04  0.50400001928E-02 0. -1.
    10030    2    1    2    0    0  0.00000000000E+00  0.00000000000E+00  0.15500761811E+04  0.37375025512E+04  0.34009100478E+04 0.  0.
        2    1    3    3  502    0  0.97039312499E+03 -0.93772709706E+03  0.19121162286E+04  0.23403383083E+04  0.25500000920E-02 0.  1.
       -2    1    3    3    0  502 -0.97039312499E+03  0.93772709706E+03 -0.36204004753E+03  0.13971642429E+04  0.25500000920E-02 0. -1.
</event>
<event>
 5   0  0.4396257E-07  0.3400971E+04  0.7818609E-02  0.8137668E-01
       -2   -1    0    0    0  501  0.00000000000E+00  0.00000000000E+00  0.14548704448E+04  0.14548704448E+04  0.25500000920E-02 0. -1.
        2   -1    0    0  501    0  0.00000000000E+00  0.00000000000E+00 -0.19875654962E+04  0.19875654962E+04  0.25500000920E-02 0.  1.
    10030    2    1    2    0    0  0.00000000000E+00  0.00000000000E+00 -0.53269505138E+03  0.34424359411E+04  0.34009706248E+04 0.  0.
        2    1    3    3  502    0  0.53457360288E+03 -0.57118476369E+03  0.12619049368E+04  0.14847306290E+04  0.25500000920E-02 0. -1.
       -2    1    3    3    0  502 -0.53457360288E+03  0.57118476369E+03 -0.17945999882E+04  0.19577053121E+04  0.25500000920E-02 0.  1.
</event>
<event>
 5   0  0.1523259E-07  0.3399538E+04  0.7818609E-02  0.8138020E-01
        1   -1    0    0  501    0  0.00000000000E+00  0.00000000000E+00  0.15444346650E+04  0.15444346650E+04  0.50400001928E-02 0.  1.
       -1   -1    0    0    0  501  0.00000000000E+00  0.00000000000E+00 -0.18707268711E+04  0.18707268711E+04  0.50400001928E-02 0. -1.
    10030    2    1    2    0    0  0.00000000000E+00  0.00000000000E+00 -0.32629220615E+03  0.34151615361E+04  0.33995384560E+04 0.  0.
        4    1    3    3  502    0 -0.14985020596E+04  0.17402012909E+03 -0.94995833557E+03  0.17827545765E+04  0.12699999809E+01 0. -1.
       -4    1    3    3    0  502  0.14985020596E+04 -0.17402012909E+03  0.62366612941E+03  0.16324069596E+04  0.12699999809E+01 0.  1.
</event>
<event>
 5   0  0.1520084E-07  0.3397819E+04  0.7818609E-02  0.8138442E-01
        1   -1    0    0  501    0  0.00000000000E+00  0.00000000000E+00  0.16437129060E+04  0.16437129060E+04  0.50400001928E-02 0. -1.
       -1   -1    0    0    0  501  0.00000000000E+00  0.00000000000E+00 -0.17559600560E+04  0.17559600561E+04  0.50400001928E-02 0.  1.
    10030    2    1    2    0    0  0.00000000000E+00  0.00000000000E+00 -0.11224715002E+03  0.33996729621E+04  0.33978194223E+04 0.  0.
        2    1    3    3  502    0 -0.33059956104E+03  0.57653878237E+02  0.16102200627E+04  0.16448187407E+04  0.25500000920E-02 0. -1.
       -2    1    3    3    0  502  0.33059956104E+03 -0.57653878237E+02 -0.17224672127E+04  0.17548542214E+04  0.25500000920E-02 0.  1.
</event>
<event>
 5   0  0.1435806E-07  0.3409638E+04  0.7818609E-02  0.8135545E-01
        1   -1    0    0  501    0  0.00000000000E+00  0.00000000000E+00  0.30297519507E+04  0.30297519507E+04  0.50400001928E-02 0.  1.
       -1   -1    0    0    0  501  0.00000000000E+00  0.00000000000E+00 -0.95928891200E+03  0.95928891202E+03  0.50400001928E-02 0. -1.
    10030    2    1    2    0    0  0.00000000000E+00  0.00000000000E+00  0.20704630387E+04  0.39890408627E+04  0.34096377828E+04 0.  0.
        3    1    3    3  502    0 -0.56513608625E+03 -0.15422007103E+04  0.50083346108E+03  0.17171476328E+04  0.10100000352E+00 0. -1.
       -3    1    3    3    0  502  0.56513608625E+03  0.15422007103E+04  0.15696295776E+04  0.22718932299E+04  0.10100000352E+00 0.  1.
</event>
<event>
 5   0  0.4486226E-07  0.3393767E+04  0.7818609E-02  0.8139438E-01
        2   -1    0    0  501    0  0.00000000000E+00  0.00000000000E+00  0.17492873604E+04  0.17492873604E+04  0.25500000920E-02 0.  1.
       -2   -1    0    0    0  501  0.00000000000E+00  0.00000000000E+00 -0.16460496451E+04  0.16460496451E+04  0.25500000920E-02 0. -1.
    10030    2    1    2    0    0  0.00000000000E+00  0.00000000000E+00  0.10323771534E+03  0.33953370055E+04  0.33937671333E+04 0.  0.
        1    1    3    3  502    0 -0.13504413146E+04  0.97381267157E+03  0.37950659703E+03  0.17076381703E+04  0.50400001928E-02 0.  1.
       -1    1    3    3    0  502  0.13504413146E+04 -0.97381267157E+03 -0.27626888169E+03  0.16876988352E+04  0.50400001928E-02 0. -1.
</event>
<event>
 5   0  0.4521737E-07  0.3407192E+04  0.7818609E-02  0.8136143E-01
       -2   -1    0    0    0  501  0.00000000000E+00  0.00000000000E+00  0.10574176317E+04  0.10574176317E+04  0.25500000920E-02 0. -1.
        2   -1    0    0  501    0  0.00000000000E+00  0.00000000000E+00 -0.27446479556E+04  0.27446479556E+04  0.25500000920E-02 0.  1.
    10030    2    1    2    0    0  0.00000000000E+00  0.00000000000E+00 -0.16872303239E+04  0.38020655872E+04  0.34071918883E+04 0.  0.
        4    1    3    3  502    0  0.73308733618E+03  0.10535018714E+04 -0.20936927397E+04  0.24557756690E+04  0.12699999809E+01 0.  1.
       -4    1    3    3    0  502 -0.73308733618E+03 -0.10535018714E+04  0.40646241577E+03  0.13462899182E+04  0.12699999809E+01 0. -1.
</event>
<event>
 5   0  0.1473755E-07  0.3371552E+04  0.7818609E-02  0.8144924E-01
       -1   -1    0    0    0  501  0.00000000000E+00  0.00000000000E+00  0.18221173707E+04  0.18221173707E+04  0.50400001928E-02 0.  1.
        1   -1    0    0  501    0  0.00000000000E+00  0.00000000000E+00 -0.15596367061E+04  0.15596367061E+04  0.50400001928E-02 0. -1.
    10030    2    1    2    0    0  0.00000000000E+00  0.00000000000E+00  0.26248066461E+03  0.33817540769E+04  0.33715522445E+04 0.  0.
        1    1    3    3  502    0 -0.53411902340E+03 -0.34073447602E+03  0.16981638514E+04  0.18124965049E+04  0.50400001928E-02 0.  1.
       -1    1    3    3    0  502  0.53411902340E+03  0.34073447602E+03 -0.14356831868E+04  0.15692575719E+04  0.50400001928E-02 0. -1.
</event>
<event>
 5   0  0.4486226E-07  0.3399618E+04  0.7818609E-02  0.8138000E-01
       -2   -1    0    0    0  501  0.00000000000E+00  0.00000000000E+00  0.15953802526E+04  0.15953802526E+04  0.25500000920E-02 0. -1.
        2   -1    0    0  501    0  0.00000000000E+00  0.00000000000E+00 -0.18110737337E+04  0.18110737337E+04  0.25500000920E-02 0.  1.
    10030    2    1    2    0    0  0.00000000000E+00  0.00000000000E+00 -0.21569348114E+03  0.34064539863E+04  0.33996183731E+04 0.  0.
        1    1    3    3  502    0  0.62481573575E+03  0.86049538582E+03 -0.14365991694E+04  0.17873623545E+04  0.50400001928E-02 0.  1.
       -1    1    3    3    0  502 -0.62481573575E+03 -0.86049538582E+03  0.12209056882E+04  0.16190916318E+04  0.50400001928E-02 0. -1.
</event>
<event>
 5   0  0.4521737E-07  0.3385775E+04  0.7818609E-02  0.8141407E-01
        2   -1    0    0  501    0  0.00000000000E+00  0.00000000000E+00  0.25932955113E+04  0.25932955113E+04  0.25500000920E-02 0.  1.
       -2   -1    0    0    0  501  0.00000000000E+00  0.00000000000E+00 -0.11051063600E+04  0.11051063600E+04  0.25500000920E-02 0. -1.
    10030    2    1    2    0    0  0.00000000000E+00  0.00000000000E+00  0.14881891512E+04  0.36984018713E+04  0.33857745719E+04 0.  0.
        4    1    3    3  502    0  0.79505861383E+03 -0.71035137389E+03 -0.69229486666E+03  0.12712163738E+04  0.12699999809E+01 0. -1.
       -4    1    3    3    0  502 -0.79505861383E+03  0.71035137389E+03  0.21804840179E+04  0.24271854975E+04  0.12699999809E+01 0.  1.
</event>
<event>
 5   0  0.4447909E-07  0.3394723E+04  0.7818609E-02  0.8139203E-01
       -2   -1    0    0    0  501  0.00000000000E+00  0.00000000000E+00  0.11612623186E+04  0.11612623186E+04  0.25500000920E-02 0.  1.
        2   -1    0    0  501    0  0.00000000000E+00  0.00000000000E+00 -0.24809514817E+04  0.24809514817E+04  0.25500000920E-02 0. -1.
    10030    2    1    2    0    0  0.00000000000E+00  0.00000000000E+00 -0.13196891631E+04  0.36422138003E+04  0.33947226514E+04 0.  0.
        5    1    3    3  502    0  0.13908145844E+02 -0.16811660213E+04 -0.91031842822E+03  0.19118614904E+04  0.46999998093E+01 0.  1.
       -5    1    3    3    0  502 -0.13908145844E+02  0.16811660213E+04 -0.40937073484E+03  0.17303523099E+04  0.46999998093E+01 0. -1.
</event>
<event>
 5   0  0.4486226E-07  0.3390298E+04  0.7818609E-02  0.8140292E-01
       -2   -1    0    0    0  501  0.00000000000E+00  0.00000000000E+00  0.20193821535E+04  0.20193821535E+04  0.25500000920E-02 0.  1.
        2   -1    0    0  501    0  0.00000000000E+00  0.00000000000E+00 -0.14229751726E+04  0.14229751726E+04  0.25500000920E-02 0. -1.
    10030    2    1    2    0    0  0.00000000000E+00  0.00000000000E+00  0.59640698090E+03  0.34423573261E+04  0.33902983164E+04 0.  0.
        1    1    3    3  502    0 -0.13960546303E+04 -0.96153470812E+03  0.30188444580E+03  0.17218164084E+04  0.50400001928E-02 0. -1.
       -1    1    3    3    0  502  0.13960546303E+04  0.96153470812E+03  0.29452253510E+03  0.17205409177E+04  0.50400001928E-02 0.  1.
</event>
<event>
 5   0  0.4447909E-07  0.3399637E+04  0.7818609E-02  0.8137995E-01
        2   -1    0    0  501    0  0.00000000000E+00  0.00000000000E+00  0.21638351650E+04  0.21638351650E+04  0.25500000920E-02 0.  1.
       -2   -1    0    0    0  501  0.00000000000E+00  0.00000000000E+00 -0.13353063208E+04  0.13353063208E+04  0.25500000920E-02 0. -1.
    10030    2    1    2    0    0  0.00000000000E+00  0.00000000000E+00  0.82852884421E+03  0.34991414858E+04  0.33996369059E+04 0.  0.
        5    1    3    3  502    0  0.10021823207E+04 -0.12314935760E+04  0.10390018604E+04  0.18974964526E+04  0.46999998093E+01 0.  1.
       -5    1    3    3    0  502 -0.10021823207E+04  0.12314935760E+04 -0.21047301621E+03  0.16016450332E+04  0.46999998093E+01 0. -1.
</event>
<event>
 5   0  0.4486226E-07  0.3421567E+04  0.7818609E-02  0.8132633E-01
       -2   -1    0    0    0  501  0.00000000000E+00  0.00000000000E+00  0.14707101134E+04  0.14707101134E+04  0.25500000920E-02 0. -1.
        2   -1    0    0  501    0  0.00000000000E+00  0.00000000000E+00 -0.19900458912E+04  0.19900458912E+04  0.25500000920E-02 0.  1.
    10030    2    1    2    0    0  0.00000000000E+00  0.00000000000E+00 -0.51933577783E+03  0.34607560045E+04  0.34215672539E+04 0.  0.
        1    1    3    3  502    0 -0.26903925919E+03 -0.16048244550E+04  0.27452602389E+03  0.16502145898E+04  0.50400001928E-02 0. -1.
       -1    1    3    3    0  502  0.26903925919E+03  0.16048244550E+04 -0.79386180171E+03  0.18105414148E+04  0.50400001928E-02 0.  1.
</event>
<event>
 5   0  0.1523259E-07  0.3412239E+04  0.7818609E-02  0.8134909E-01
       -1   -1    0    0    0  501  0.00000000000E+00  0.00000000000E+00  0.16226884373E+04  0.16226884373E+04  0.50400001928E-02 0.  1.
        1   -1    0    0  501    0  0.00000000000E+00  0.00000000000E+00 -0.17938400530E+04  0.17938400530E+04  0.50400001928E-02 0. -1.
    10030    2    1    2    0    0  0.00000000000E+00  0.00000000000E+00 -0.17115161573E+03  0.34165284903E+04  0.34122388617E+04 0.  0.
        4    1    3    3  502    0  0.15279404050E+04 -0.73121257517E+03 -0.28971489519E+03  0.17184906298E+04  0.12699999809E+01 0.  1.
       -4    1    3    3    0  502 -0.15279404050E+04  0.73121257517E+03  0.11856327946E+03  0.16980378604E+04  0.12699999809E+01 0. -1.
</event>
<event>
 5   0  0.1435806E-07  0.3429555E+04  0.7818609E-02  0.8130690E-01
        1   -1    0    0  501    0  0.00000000000E+00  0.00000000000E+00  0.19994058869E+04  0.19994058869E+04  0.50400001928E-02 0.  1.
       -1   -1    0    0    0  501  0.00000000000E+00  0.00000000000E+00 -0.14706676671E+04  0.14706676671E+04  0.50400001928E-02 0. -1.
    10030    2    1    2    0    0  0.00000000000E+00  0.00000000000E+00  0.52873821975E+03  0.34700735540E+04  0.34295548348E+04 0.  0.
        3    1    3    3  502    0  0.35868527178E+03  0.66304589852E+03  0.18227529551E+04  0.19724891212E+04  0.10100000352E+00 0.  1.
       -3    1    3    3    0  502 -0.35868527178E+03 -0.66304589852E+03 -0.12940147354E+04  0.14975844328E+04  0.10100000352E+00 0. -1.
</event>
<event>
 5   0  0.4486226E-07  0.3404124E+04  0.7818609E-02  0.8136895E-01
       -2   -1    0    0    0  501  0.00000000000E+00  0.00000000000E+00  0.28351061634E+04  0.28351061634E+04  0.25500000920E-02 0.  1.
        2   -1    0    0  501    0  0.00000000000E+00  0.00000000000E+00 -0.10218366353E+04  0.10218366353E+04  0.25500000920E-02 0. -1.
    10030    2    1    2    0    0  0.00000000000E+00  0.00000000000E+00  0.18132695281E+04  0.38569427987E+04  0.34041241709E+04 0.  0.
        1    1    3    3  502    0  0.26660374677E+03 -0.16077120999E+04  0.35018484165E+03  0.16668668745E+04  0.50400001928E-02 0. -1.
       -1    1    3    3    0  502 -0.26660374677E+03  0.16077120999E+04  0.14630846864E+04  0.21900759242E+04  0.50400001928E-02 0.  1.
</event>
<event>
 5   0  0.1520084E-07  0.3409752E+04  0.7818609E-02  0.8135517E-01
        1   -1    0    0  501    0  0.00000000000E+00  0.00000000000E+00  0.20010736543E+04  0.20010736543E+04  0.50400001928E-02 0.  1.
       -1   -1    0    0    0  501  0.00000000000E+00  0.00000000000E+00 -0.14525216042E+04  0.14525216042E+04  0.50400001928E-02 0. -1.
    10030    2    1    2    0    0  0.00000000000E+00  0.00000000000E+00  0.54855205009E+03  0.34535952586E+04  0.34097523163E+04 0.  0.
        2    1    3    3  502    0 -0.58089213106E+03 -0.90699139102E+03 -0.10642816443E+04  0.15141877261E+04  0.25500000920E-02 0. -1.
       -2    1    3    3    0  502  0.58089213106E+03  0.90699139102E+03  0.16128336944E+04  0.19394075325E+04  0.25500000920E-02 0.  1.
</event>
<event>
 5   0  0.4396257E-07  0.3446002E+04  0.7818609E-02  0.8126707E-01
        2   -1    0    0  501    0  0.00000000000E+00  0.00000000000E+00  0.19353749552E+04  0.19353749552E+04  0.25500000920E-02 0.  1.
       -2   -1    0    0    0  501  0.00000000000E+00  0.00000000000E+00 -0.15339310482E+04  0.15339310482E+04  0.25500000920E-02 0. -1.
    10030    2    1    2    0    0  0.00000000000E+00  0.00000000000E+00  0.40144390700E+03  0.34693060035E+04  0.34460015866E+04 0.  0.
        2    1    3    3  502    0 -0.23564667683E+03 -0.61438753396E+03  0.18038885956E+04  0.19201602703E+04  0.25500000920E-02 0.  1.
       -2    1    3    3    0  502  0.23564667683E+03  0.61438753396E+03 -0.14024446886E+04  0.15491457332E+04  0.25500000920E-02 0. -1.
</event>
<event>
 5   0  0.1523259E-07  0.3411372E+04  0.7818609E-02  0.8135121E-01
       -1   -1    0    0    0  501  0.00000000000E+00  0.00000000000E+00  0.13832846263E+04  0.13832846263E+04  0.50400001928E-02 0.  1.
        1   -1    0    0  501    0  0.00000000000E+00  0.00000000000E+00 -0.21032293992E+04  0.21032293992E+04  0.50400001928E-02 0. -1.
    10030    2    1    2    0    0  0.00000000000E+00  0.00000000000E+00 -0.71994477288E+03  0.34865140255E+04  0.34113720955E+04 0.  0.
        4    1    3    3  502    0 -0.15796027165E+04 -0.22244158327E+03  0.25726609927E+03  0.16158008723E+04  0.12699999809E+01 0.  1.
       -4    1    3    3    0  502  0.15796027165E+04  0.22244158327E+03 -0.97721087216E+03  0.18707131532E+04  0.12699999809E+01 0. -1.
</event>
<event>
 5   0  0.4447909E-07  0.3418447E+04  0.7818609E-02  0.8133394E-01
        2   -1    0    0  501    0  0.00000000000E+00  0.00000000000E+00  0.16772755264E+04  0.16772755264E+04  0.25500000920E-02 0.  1.
       -2   -1    0    0    0  501  0.00000000000E+00  0.00000000000E+00 -0.17417799649E+04  0.17417799649E+04  0.25500000920E-02 0. -1.
    10030    2    1    2    0    0  0.00000000000E+00  0.00000000000E+00 -0.64504438550E+02  0.34190554913E+04  0.34184469617E+04 0.  0.
        5    1    3    3  502    0  0.16525101009E+03  0.10672985674E+04  0.12927434668E+04  0.16845301687E+04  0.46999998093E+01 0.  1.
       -5    1    3    3    0  502 -0.16525101009E+03 -0.10672985674E+04 -0.13572479053E+04  0.17345253226E+04  0.46999998093E+01 0. -1.
</event>
<event>
 5   0  0.1473755E-07  0.3404141E+04  0.7818609E-02  0.8136891E-01
        1   -1    0    0  501    0  0.00000000000E+00  0.00000000000E+00  0.19876448391E+04  0.19876448391E+04  0.50400001928E-02 0.  1.
       -1   -1    0    0    0  501  0.00000000000E+00  0.00000000000E+00 -0.14575263688E+04  0.14575263688E+04  0.50400001928E-02 0. -1.
    10030    2    1    2    0    0  0.00000000000E+00  0.00000000000E+00  0.53011847023E+03  0.34451712079E+04  0.34041414570E+04 0.  0.
        1    1    3    3  502    0  0.15829979540E+04 -0.22097770732E+03  0.85720194272E+03  0.18137003171E+04  0.50400001928E-02 0.  1.
       -1    1    3    3    0  502 -0.15829979540E+04  0.22097770732E+03 -0.32708347249E+03  0.16314708908E+04  0.50400001928E-02 0. -1.
</event>
<event>
 5   0  0.4486226E-07  0.3384305E+04  0.7818609E-02  0.8141769E-01
       -2   -1    0    0    0  501  0.00000000000E+00  0.00000000000E+00  0.21601895820E+04  0.21601895820E+04  0.25500000920E-02 0. -1.
        2   -1    0    0  501    0  0.00000000000E+00  0.00000000000E+00 -0.13255225277E+04  0.13255225277E+04  0.25500000920E-02 0.  1.
    10030    2    1    2    0    0  0.00000000000E+00  0.00000000000E+00  0.83466705434E+03  0.34857121097E+04  0.33843049242E+04 0.  0.
        1    1    3    3  502    0 -0.97913052680E+03 -0.31216085871E+02  0.18384258788E+04  0.20831420365E+04  0.50400001928E-02 0. -1.
       -1    1    3    3    0  502  0.97913052680E+03  0.31216085871E+02 -0.10037588244E+04  0.14025700732E+04  0.50400001928E-02 0.  1.
</event>
<event>
 5   0  0.1520084E-07  0.3392711E+04  0.7818609E-02  0.8139698E-01
       -1   -1    0    0    0  501  0.00000000000E+00  0.00000000000E+00  0.29368867642E+04  0.29368867642E+04  0.50400001928E-02 0.  1.
        1   -1    0    0  501    0  0.00000000000E+00  0.00000000000E+00 -0.97982056375E+03  0.97982056376E+03  0.50400001928E-02 0. -1.
    10030    2    1    2    0    0  0.00000000000E+00  0.00000000000E+00  0.19570662004E+04  0.39167073279E+04  0.33927110369E+04 0.  0.
        2    1    3    3  502    0 -0.12753731317E+04 -0.11110400382E+04  0.82963417299E+03  0.18839531450E+04  0.25500000920E-02 0. -1.
       -2    1    3    3    0  502  0.12753731317E+04  0.11110400382E+04  0.11274320274E+04  0.20327541829E+04  0.25500000920E-02 0.  1.
</event>
<event>
 5   0  0.1520084E-07  0.3423413E+04  0.7818609E-02  0.8132184E-01
        1   -1    0    0  501    0  0.00000000000E+00  0.00000000000E+00  0.24716258379E+04  0.24716258379E+04  0.50400001928E-02 0.  1.
       -1   -1    0    0    0  501  0.00000000000E+00  0.00000000000E+00 -0.11854299931E+04  0.11854299932E+04  0.50400001928E-02 0. -1.
    10030    2    1    2    0    0  0.00000000000E+00  0.00000000000E+00  0.12861958447E+04  0.36570558310E+04  0.34234131507E+04 0.  0.
        2    1    3    3  502    0  0.71326275675E+03 -0.11200896271E+04 -0.51070678536E+03  0.14227318628E+04  0.25500000920E-02 0. -1.
       -2    1    3    3    0  502 -0.71326275675E+03  0.11200896271E+04  0.17969026301E+04  0.22343239682E+04  0.25500000920E-02 0.  1.
</event>
<event>
 5   0  0.1421875E-07  0.3401127E+04  0.7818609E-02  0.8137630E-01
        1   -1    0    0  501    0  0.00000000000E+00  0.00000000000E+00  0.18942572649E+04  0.18942572649E+04  0.50400001928E-02 0. -1.
       -1   -1    0    0    0  501  0.00000000000E+00  0.00000000000E+00 -0.15266756447E+04  0.15266756447E+04  0.50400001928E-02 0.  1.
    10030    2    1    2    0    0  0.00000000000E+00  0.00000000000E+00  0.36758162023E+03  0.34209329096E+04  0.34011271256E+04 0.  0.
        5    1    3    3  502    0  0.61330324209E+03  0.10367893803E+04 -0.10235412834E+04  0.15807377817E+04  0.46999998093E+01 0.  1.
       -5    1    3    3    0  502 -0.61330324209E+03 -0.10367893803E+04  0.13911229036E+04  0.18401951279E+04  0.46999998093E+01 0. -1.
</event>
<event>
 5   0  0.1421875E-07  0.3400944E+04  0.7818609E-02  0.8137675E-01
        1   -1    0    0  501    0  0.00000000000E+00  0.00000000000E+00  0.14413941239E+04  0.14413941239E+04  0.50400001928E-02 0.  1.
       -1   -1    0    0    0  501  0.00000000000E+00  0.00000000000E+00 -0.20061165237E+04  0.20061165237E+04  0.50400001928E-02 0. -1.
    10030    2    1    2    0    0  0.00000000000E+00  0.00000000000E+00 -0.56472239979E+03  0.34475106477E+04  0.34009437333E+04 0.  0.
        5    1    3    3  502    0  0.98388689059E+01 -0.93542939025E+03  0.11571024730E+04  0.14879627585E+04  0.46999998093E+01 0.  1.
       -5    1    3    3    0  502 -0.98388689059E+01  0.93542939025E+03 -0.17218248728E+04  0.19595478892E+04  0.46999998093E+01 0. -1.
</event>
<event>
 5   0  0.1523259E-07  0.3388520E+04  0.7818609E-02  0.8140730E-01
       -1   -1    0    0    0  501  0.00000000000E+00  0.00000000000E+00  0.15555329464E+04  0.15555329464E+04  0.50400001928E-02 0.  1.
        1   -1    0    0  501    0  0.00000000000E+00  0.00000000000E+00 -0.18453594433E+04  0.18453594433E+04  0.50400001928E-02 0. -1.
    10030    2    1    2    0    0  0.00000000000E+00  0.00000000000E+00 -0.28982649690E+03  0.34008923898E+04  0.33885202742E+04 0.  0.
        4    1    3    3  502    0 -0.83681311755E+03 -0.25099218871E+03 -0.16018547816E+04  0.18246078008E+04  0.12699999809E+01 0. -1.
       -4    1    3    3    0  502  0.83681311755E+03  0.25099218871E+03  0.13120282847E+04  0.15762845889E+04  0.12699999809E+01 0.  1.
</event>
<event>
 5   0  0.4521737E-07  0.3414043E+04  0.7818609E-02  0.8134468E-01
        2   -1    0    0  501    0  0.00000000000E+00  0.00000000000E+00  0.16471208573E+04  0.16471208573E+04  0.25500000920E-02 0.  1.
       -2   -1    0    0    0  501  0.00000000000E+00  0.00000000000E+00 -0.17691002921E+04  0.17691002921E+04  0.25500000920E-02 0. -1.
    10030    2    1    2    0    0  0.00000000000E+00  0.00000000000E+00 -0.12197943483E+03  0.34162211494E+04  0.34140427588E+04 0.  0.
        4    1    3    3  502    0  0.74669609721E+03 -0.10558749832E+04 -0.11759238654E+04  0.17479203620E+04  0.12699999809E+01 0. -1.
       -4    1    3    3    0  502 -0.74669609721E+03  0.10558749832E+04  0.10539444305E+04  0.16683007874E+04  0.12699999809E+01 0.  1.
</event>
<event>
 5   0  0.4486226E-07  0.3398112E+04  0.7818609E-02  0.8138370E-01
        2   -1    0    0  501    0  0.00000000000E+00  0.00000000000E+00  0.16799352500E+04  0.16799352500E+04  0.25500000920E-02 0. -1.
       -2   -1    0    0    0  501  0.00000000000E+00  0.00000000000E+00 -0.17183944856E+04  0.17183944856E+04  0.25500000920E-02 0.  1.
    10030    2    1    2    0    0  0.00000000000E+00  0.00000000000E+00 -0.38459235572E+02  0.33983297356E+04  0.33981121051E+04 0.  0.
        1    1    3    3  502    0 -0.64113494399E+03  0.12393537453E+04  0.95023421414E+03  0.16881933492E+04  0.50400001928E-02 0. -1.
       -1    1    3    3    0  502  0.64113494399E+03 -0.12393537453E+04 -0.98869344971E+03  0.17101363864E+04  0.50400001928E-02 0.  1.
</event>
<event>
 5   0  0.4447909E-07  0.3437076E+04  0.7818609E-02  0.8128866E-01
       -2   -1    0    0    0  501  0.00000000000E+00  0.00000000000E+00  0.13416329403E+04  0.13416329403E+04  0.25500000920E-02 0.  1.
        2   -1    0    0  501    0  0.00000000000E+00  0.00000000000E+00 -0.22013269466E+04  0.22013269466E+04  0.25500000920E-02 0. -1.
    10030    2    1    2    0    0  0.00000000000E+00  0.00000000000E+00 -0.85969400631E+03  0.35429598869E+04  0.34370759340E+04 0.  0.
        5    1    3    3  502    0 -0.78562879898E+03 -0.14898357372E+04 -0.78172439201E+03  0.18568624744E+04  0.46999998093E+01 0. -1.
       -5    1    3    3    0  502  0.78562879898E+03  0.14898357372E+04 -0.77969614302E+02  0.16860974125E+04  0.46999998093E+01 0.  1.
</event>
<event>
 5   0  0.4396257E-07  0.3397884E+04  0.7818609E-02  0.8138426E-01
        2   -1    0    0  501    0  0.00000000000E+00  0.00000000000E+00  0.27652060351E+04  0.27652060351E+04  0.25500000920E-02 0.  1.
       -2   -1    0    0    0  501  0.00000000000E+00  0.00000000000E+00 -0.10438299078E+04  0.10438299078E+04  0.25500000920E-02 0. -1.
    10030    2    1    2    0    0  0.00000000000E+00  0.00000000000E+00  0.17213761273E+04  0.38090359429E+04  0.33978844952E+04 0.  0.
        2    1    3    3  502    0  0.13795437106E+04 -0.63832527478E+03  0.10051429481E+02  0.15200990221E+04  0.25500000920E-02 0.  1.
       -2    1    3    3    0  502 -0.13795437106E+04  0.63832527478E+03  0.17113246979E+04  0.22889369208E+04  0.25500000920E-02 0. -1.
</event>
<event>
 5   0  0.1520084E-07  0.3382647E+04  0.7818609E-02  0.8142179E-01
       -1   -1    0    0    0  501  0.00000000000E+00  0.00000000000E+00  0.17063623457E+04  0.17063623457E+04  0.50400001928E-02 0.  1.
        1   -1    0    0  501    0  0.00000000000E+00  0.00000000000E+00 -0.16764168898E+04  0.16764168898E+04  0.50400001928E-02 0. -1.
    10030    2    1    2    0    0  0.00000000000E+00  0.00000000000E+00  0.29945455918E+02  0.33827792354E+04  0.33826466894E+04 0.  0.
        2    1    3    3  502    0  0.77572264628E+03 -0.13871359693E+04  0.59351318827E+03  0.16965110450E+04  0.25500000920E-02 0.  1.
       -2    1    3    3    0  502 -0.77572264628E+03  0.13871359693E+04 -0.56356773235E+03  0.16862681904E+04  0.25500000920E-02 0. -1.
</event>
<event>
 5   0  0.1473755E-07  0.3402857E+04  0.7818609E-02  0.8137205E-01
        1   -1    0    0  501    0  0.00000000000E+00  0.00000000000E+00  0.29357737851E+04  0.29357737851E+04  0.50400001928E-02 0. -1.
       -1   -1    0    0    0  501  0.00000000000E+00  0.00000000000E+00 -0.98606362613E+03  0.98606362614E+03  0.50400001928E-02 0.  1.
    10030    2    1    2    0    0  0.00000000000E+00  0.00000000000E+00  0.19497101590E+04  0.39218374113E+04  0.34028574722E+04 0.  0.
        1    1    3    3  502    0 -0.12865956220E+04 -0.11081068094E+04  0.10991489334E+04  0.20227104028E+04  0.50400001928E-02 0. -1.
       -1    1    3    3    0  502  0.12865956220E+04  0.11081068094E+04  0.85056122558E+03  0.18991270085E+04  0.50400001928E-02 0.  1.
</event>
<event>
 5   0  0.4447909E-07  0.3398765E+04  0.7818609E-02  0.8138210E-01
        2   -1    0    0  501    0  0.00000000000E+00  0.00000000000E+00  0.19071106730E+04  0.19071106730E+04  0.25500000920E-02 0.  1.
       -2   -1    0    0    0  501  0.00000000000E+00  0.00000000000E+00 -0.15142806337E+04  0.15142806337E+04  0.25500000920E-02 0. -1.
    10030    2    1    2    0    0  0.00000000000E+00  0.00000000000E+00  0.39283003928E+03  0.34213913066E+04  0.33987649276E+04 0.  0.
        5    1    3    3  502    0 -0.92241970072E+03 -0.14265436304E+04  0.24136465514E+03  0.17158565851E+04  0.46999998093E+01 0. -1.
       -5    1    3    3    0  502  0.92241970072E+03  0.14265436304E+04  0.15146538413E+03  0.17055347216E+04  0.46999998093E+01 0.  1.
</event>
<event>
 5   0  0.4486226E-07  0.3397093E+04  0.7818609E-02  0.8138620E-01
       -2   -1    0    0    0  501  0.00000000000E+00  0.00000000000E+00  0.11957266807E+04  0.11957266807E+04  0.25500000920E-02 0.  1.
        2   -1    0    0  501    0  0.00000000000E+00  0.00000000000E+00 -0.24128092574E+04  0.24128092574E+04  0.25500000920E-02 0. -1.
    10030    2    1    2    0    0  0.00000000000E+00  0.00000000000E+00 -0.12170825768E+04  0.36085359381E+04  0.33970931129E+04 0.  0.
        1    1    3    3  502    0 -0.51959560420E+03 -0.16164472424E+04 -0.55895465062E+03  0.17875434487E+04  0.50400001928E-02 0. -1.
       -1    1    3    3    0  502  0.51959560420E+03  0.16164472424E+04 -0.65812792616E+03  0.18209924894E+04  0.50400001928E-02 0.  1.
</event>
<event>
 5   0  0.1421875E-07  0.3384093E+04  0.7818609E-02  0.8141821E-01
        1   -1    0    0  501    0  0.00000000000E+00  0.00000000000E+00  0.18366576891E+04  0.18366576891E+04  0.50400001928E-02 0.  1.
       -1   -1    0    0    0  501  0.00000000000E+00  0.00000000000E+00 -0.15588218694E+04  0.15588218694E+04  0.50400001928E-02 0. -1.
    10030    2    1    2    0    0  0.00000000000E+00  0.00000000000E+00  0.27783581966E+03  0.33954795585E+04  0.33840934812E+04 0.  0.
        5    1    3    3  502    0 -0.15989943637E+04 -0.42728326638E+03  0.49173451006E+03  0.17266090708E+04  0.46999998093E+01 0.  1.
       -5    1    3    3    0  502  0.15989943637E+04  0.42728326638E+03 -0.21389869040E+03  0.16688704877E+04  0.46999998093E+01 0. -1.
</event>
<event>
 5   0  0.1435806E-07  0.3397504E+04  0.7818609E-02  0.8138519E-01
        1   -1    0    0  501    0  0.00000000000E+00  0.00000000000E+00  0.23106347757E+04  0.23106347757E+04  0.50400001928E-02 0. -1.
       -1   -1    0    0    0  501  0.00000000000E+00  0.00000000000E+00 -0.12489032051E+04  0.12489032051E+04  0.50400001928E-02 0.  1.
    10030    2    1    2    0    0  0.00000000000E+00  0.00000000000E+00  0.10617315706E+04  0.35595379808E+04  0.33975044825E+04 0.  0.
        3    1    3    3  502    0  0.12887431163E+04 -0.36912715847E+03 -0.56227684537E+03  0.14537086847E+04  0.10100000352E+00 0.  1.
       -3    1    3    3    0  502 -0.12887431163E+04  0.36912715847E+03  0.16240084160E+04  0.21058292961E+04  0.10100000352E+00 0. -1.
</event>
<event>
 5   0  0.4447909E-07  0.3409230E+04  0.7818609E-02  0.8135645E-01
        2   -1    0    0  501    0  0.00000000000E+00  0.00000000000E+00  0.17111433687E+04  0.17111433687E+04  0.25500000920E-02 0. -1.
       -2   -1    0    0    0  501  0.00000000000E+00  0.00000000000E+00 -0.16981115317E+04  0.16981115317E+04  0.25500000920E-02 0.  1.
    10030    2    1    2    0    0  0.00000000000E+00  0.00000000000E+00  0.13031837078E+02  0.34092549004E+04  0.34092299933E+04 0.  0.
        5    1    3    3  502    0  0.12820337437E+03  0.16412927854E+04 -0.43554170154E+03  0.17029376901E+04  0.46999998093E+01 0.  1.
       -5    1    3    3    0  502 -0.12820337437E+03 -0.16412927854E+04  0.44857353862E+03  0.17063172103E+04  0.46999998093E+01 0. -1.
</event>
<event>
 5   0  0.1435806E-07  0.3395941E+04  0.7818609E-02  0.8138903E-01
       -1   -1    0    0    0  501  0.00000000000E+00  0.00000000000E+00  0.12981683084E+04  0.12981683084E+04  0.50400001928E-02 0.  1.
        1   -1    0    0  501    0  0.00000000000E+00  0.00000000000E+00 -0.22209009327E+04  0.22209009327E+04  0.50400001928E-02 0. -1.
    10030    2    1    2    0    0  0.00000000000E+00  0.00000000000E+00 -0.92273262428E+03  0.35190692412E+04  0.33959406397E+04 0.  0.
        3    1    3    3  502    0  0.16468836964E+04  0.32395658165E+03 -0.72744332166E+03  0.18293024826E+04  0.10100000352E+00 0. -1.
       -3    1    3    3    0  502 -0.16468836964E+04 -0.32395658165E+03 -0.19528930262E+03  0.16897667586E+04  0.10100000352E+00 0.  1.
</event>
<event>
 5   0  0.4447909E-07  0.3400241E+04  0.7818609E-02  0.8137847E-01
       -2   -1    0    0    0  501  0.00000000000E+00  0.00000000000E+00  0.15219781654E+04  0.15219781654E+04  0.25500000920E-02 0. -1.
        2   -1    0    0  501    0  0.00000000000E+00  0.00000000000E+00 -0.18991138713E+04  0.18991138713E+04  0.25500000920E-02 0.  1.
    10030    2    1    2    0    0  0.00000000000E+00  0.00000000000E+00 -0.37713570587E+03  0.34210920368E+04  0.34002410773E+04 0.  0.
        5    1    3    3  502    0  0.15384998905E+04  0.29941842876E+03 -0.85120689221E+03  0.17835942846E+04  0.46999998093E+01 0.  1.
       -5    1    3    3    0  502 -0.15384998905E+04 -0.29941842876E+03  0.47407118634E+03  0.16374977522E+04  0.46999998093E+01 0. -1.
</event>
<event>
 5   0  0.1520084E-07  0.3401192E+04  0.7818609E-02  0.8137614E-01
       -1   -1    0    0    0  501  0.00000000000E+00  0.00000000000E+00  0.15776944534E+04  0.15776944534E+04  0.50400001928E-02 0. -1.
        1   -1    0    0  501    0  0.00000000000E+00  0.00000000000E+00 -0.18330719704E+04  0.18330719704E+04  0.50400001928E-02 0.  1.
    10030    2    1    2    0    0  0.00000000000E+00  0.00000000000E+00 -0.25537751696E+03  0.34107664238E+04  0.34011924264E+04 0.  0.
        2    1    3    3  502    0  0.84637886584E+03  0.12217229590E+04  0.70111412622E+03  0.16433274753E+04  0.25500000920E-02 0. -1.
       -2    1    3    3    0  502 -0.84637886584E+03 -0.12217229590E+04 -0.95649164318E+03  0.17674389485E+04  0.25500000920E-02 0.  1.
</event>
<event>
 5   0  0.4486226E-07  0.3353515E+04  0.7818609E-02  0.8149410E-01
       -2   -1    0    0    0  501  0.00000000000E+00  0.00000000000E+00  0.19466898131E+04  0.19466898131E+04  0.25500000920E-02 0. -1.
        2   -1    0    0  501    0  0.00000000000E+00  0.00000000000E+00 -0.14442545804E+04  0.14442545804E+04  0.25500000920E-02 0.  1.
    10030    2    1    2    0    0  0.00000000000E+00  0.00000000000E+00  0.50243523268E+03  0.33909443936E+04  0.33535149794E+04 0.  0.
        1    1    3    3  502    0 -0.12106414933E+04  0.80473741034E+03 -0.59372880696E+03  0.15702767340E+04  0.50400001928E-02 0.  1.
       -1    1    3    3    0  502  0.12106414933E+04 -0.80473741034E+03  0.10961640396E+04  0.18206676596E+04  0.50400001928E-02 0. -1.
</event>
<event>
 5   0  0.1520084E-07  0.3393773E+04  0.7818609E-02  0.8139436E-01
       -1   -1    0    0    0  501  0.00000000000E+00  0.00000000000E+00  0.14382171257E+04  0.14382171257E+04  0.50400001928E-02 0.  1.
        1   -1    0    0  501    0  0.00000000000E+00  0.00000000000E+00 -0.20020781612E+04  0.20020781612E+04  0.50400001928E-02 0. -1.
    10030    2    1    2    0    0  0.00000000000E+00  0.00000000000E+00 -0.56386103548E+03  0.34402952869E+04  0.33937725901E+04 0.  0.
        2    1    3    3  502    0 -0.41905871652E+03 -0.90508849237E+02  0.13824108251E+04  0.14473637238E+04  0.25500000920E-02 0.  1.
       -2    1    3    3    0  502  0.41905871652E+03  0.90508849237E+02 -0.19462718606E+04  0.19929315630E+04  0.25500000920E-02 0. -1.
</event>
<event>
 5   0  0.4521737E-07  0.3384195E+04  0.7818609E-02  0.8141796E-01
        2   -1    0    0  501    0  0.00000000000E+00  0.00000000000E+00  0.16612805867E+04  0.16612805867E+04  0.25500000920E-02 0. -1.
       -2   -1    0    0    0  501  0.00000000000E+00  0.00000000000E+00 -0.17234859001E+04  0.17234859001E+04  0.25500000920E-02 0.  1.
    10030    2    1    2    0    0  0.00000000000E+00  0.00000000000E+00 -0.62205313454E+02  0.33847664868E+04  0.33841948333E+04 0.  0.
        4    1    3    3  502    0  0.73203506812E+03 -0.12549191490E+04  0.83650836504E+03  0.16764382688E+04  0.12699999809E+01 0. -1.
       -4    1    3    3    0  502 -0.73203506812E+03  0.12549191490E+04 -0.89871367849E+03  0.17083282180E+04  0.12699999809E+01 0.  1.
</event>
<event>
 5   0  0.1523259E-07  0.3375541E+04  0.7818609E-02  0.8143935E-01
       -1   -1    0    0    0  501  0.00000000000E+00  0.00000000000E+00  0.17513175059E+04  0.17513175060E+04  0.50400001928E-02 0. -1.
        1   -1    0    0  501    0  0.00000000000E+00  0.00000000000E+00 -0.16265296487E+04  0.16265296487E+04  0.50400001928E-02 0.  1.
    10030    2    1    2    0    0  0.00000000000E+00  0.00000000000E+00  0.12478785724E+03  0.33778471547E+04  0.33755413478E+04 0.  0.
        4    1    3    3  502    0  0.11331255474E+04  0.62599002401E+03  0.11460608209E+04  0.17289574993E+04  0.12699999809E+01 0. -1.
       -4    1    3    3    0  502 -0.11331255474E+04 -0.62599002401E+03 -0.10212729637E+04  0.16488896554E+04  0.12699999809E+01 0.  1.
</event>
<event>
 5   0  0.1520084E-07  0.3387945E+04  0.7818609E-02  0.8140871E-01
       -1   -1    0    0    0  501  0.00000000000E+00  0.00000000000E+00  0.14164868704E+04  0.14164868704E+04  0.50400001928E-02 0.  1.
        1   -1    0    0  501    0  0.00000000000E+00  0.00000000000E+00 -0.20258167503E+04  0.20258167503E+04  0.50400001928E-02 0. -1.
    10030    2    1    2    0    0  0.00000000000E+00  0.00000000000E+00 -0.60932987987E+03  0.34423036208E+04  0.33879449988E+04 0.  0.
        2    1    3    3  502    0  0.50596021228E+03  0.14766692495E+04 -0.97324631355E+03  0.18394988980E+04  0.25500000920E-02 0. -1.
       -2    1    3    3    0  502 -0.50596021228E+03 -0.14766692495E+04  0.36391643368E+03  0.16028047228E+04  0.25500000920E-02 0.  1.
</event>
<event>
 5   0  0.1421875E-07  0.3458833E+04  0.7818609E-02  0.8123616E-01
       -1   -1    0    0    0  501  0.00000000000E+00  0.00000000000E+00  0.16130319071E+04  0.16130319071E+04  0.50400001928E-02 0.  1.
        1   -1    0    0  501    0  0.00000000000E+00  0.00000000000E+00 -0.18541986473E+04  0.18541986473E+04  0.50400001928E-02 0. -1.
    10030    2    1    2    0    0  0.00000000000E+00  0.00000000000E+00 -0.24116674027E+03  0.34672305544E+04  0.34588330866E+04 0.  0.
        5    1    3    3  502    0  0.40918794986E+03  0.10320528502E+04  0.12086418425E+04  0.16411596684E+04  0.46999998093E+01 0.  1.
       -5    1    3    3    0  502 -0.40918794986E+03 -0.10320528502E+04 -0.14498085827E+04  0.18260708860E+04  0.46999998093E+01 0. -1.
</event>
<event>
 5   0  0.1520084E-07  0.3230021E+04  0.7818609E-02  0.8180934E-01
       -1   -1    0    0    0  501  0.00000000000E+00  0.00000000000E+00  0.10381639007E+04  0.10381639007E+04  0.50400001928E-02 0. -1.
        1   -1    0    0  501    0  0.00000000000E+00  0.00000000000E+00 -0.25123762095E+04  0.25123762095E+04  0.50400001928E-02 0.  1.
    10030    2    1    2    0    0  0.00000000000E+00  0.00000000000E+00 -0.14742123088E+04  0.35505401103E+04  0.32300206103E+04 0.  0.
        2    1    3    3  502    0 -0.51540083565E+03  0.45578411491E+03  0.86900639852E+03  0.11083994323E+04  0.25500000920E-02 0. -1.
       -2    1    3    3    0  502  0.51540083565E+03 -0.45578411491E+03 -0.23432187073E+04  0.24421406780E+04  0.25500000920E-02 0.  1.
</event>
<event>
 5   0  0.1435806E-07  0.3406389E+04  0.7818609E-02  0.8136340E-01
       -1   -1    0    0    0  501  0.00000000000E+00  0.00000000000E+00  0.14716155275E+04  0.14716155275E+04  0.50400001928E-02 0.  1.
        1   -1    0    0  501    0  0.00000000000E+00  0.00000000000E+00 -0.19712159962E+04  0.19712159962E+04  0.50400001928E-02 0. -1.
    10030    2    1    2    0    0  0.00000000000E+00  0.00000000000E+00 -0.49960046870E+03  0.34428315237E+04  0.34063893307E+04 0.  0.
        3    1    3    3  502    0 -0.35380772542E+03 -0.80835426286E+03  0.12225811730E+04  0.15077537118E+04  0.10100000352E+00 0.  1.
       -3    1    3    3    0  502  0.35380772542E+03  0.80835426286E+03 -0.17221816417E+04  0.19350778119E+04  0.10100000352E+00 0. -1.
</event>
<event>
 5   0  0.1421875E-07  0.3395028E+04  0.7818609E-02  0.8139128E-01
       -1   -1    0    0    0  501  0.00000000000E+00  0.00000000000E+00  0.30897182521E+04  0.30897182521E+04  0.50400001928E-02 0.  1.
        1   -1    0    0  501    0  0.00000000000E+00  0.00000000000E+00 -0.93262695624E+03  0.93262695626E+03  0.50400001928E-02 0. -1.
    10030    2    1    2    0    0  0.00000000000E+00  0.00000000000E+00  0.21570912958E+04  0.40223452083E+04  0.33950284412E+04 0.  0.
        5    1    3    3  502    0  0.12524821995E+04 -0.41697569802E+03 -0.18586645116E+03  0.13330974535E+04  0.46999998093E+01 0. -1.
       -5    1    3    3    0  502 -0.12524821995E+04  0.41697569802E+03  0.23429577470E+04  0.26892477549E+04  0.46999998093E+01 0.  1.
</event>
<event>
 5   0  0.1421875E-07  0.3407779E+04  0.7818609E-02  0.8136000E-01
        1   -1    0    0  501    0  0.00000000000E+00  0.00000000000E+00  0.16710971117E+04  0.16710971118E+04  0.50400001928E-02 0. -1.
       -1   -1    0    0    0  501  0.00000000000E+00  0.00000000000E+00 -0.17373254170E+04  0.17373254170E+04  0.50400001928E-02 0.  1.
    10030    2    1    2    0    0  0.00000000000E+00  0.00000000000E+00 -0.66228305287E+02  0.34084225288E+04  0.34077790343E+04 0.  0.
        5    1    3    3  502    0  0.11060520595E+04 -0.12485812967E+04 -0.38090238084E+03  0.17109690606E+04  0.46999998093E+01 0.  1.
       -5    1    3    3    0  502 -0.11060520595E+04  0.12485812967E+04  0.31467407555E+03  0.16974534682E+04  0.46999998093E+01 0. -1.
</event>
<event>
 5   0  0.1421875E-07  0.3500791E+04  0.7818609E-02  0.8113603E-01
       -1   -1    0    0    0  501  0.00000000000E+00  0.00000000000E+00  0.11782419588E+04  0.11782419588E+04  0.50400001928E-02 0. -1.
        1   -1    0    0  501    0  0.00000000000E+00  0.00000000000E+00 -0.26003857805E+04  0.26003857805E+04  0.50400001928E-02 0.  1.
    10030    2    1    2    0    0  0.00000000000E+00  0.00000000000E+00 -0.14221438218E+04  0.37786277393E+04  0.35007905597E+04 0.  0.
        5    1    3    3  502    0  0.37438150884E+02 -0.23247967753E+03 -0.25832049900E+04  0.25939195296E+04  0.46999998093E+01 0.  1.
       -5    1    3    3    0  502 -0.37438150884E+02  0.23247967753E+03  0.11610611683E+04  0.11847082097E+04  0.46999998093E+01 0. -1.
</event>
<event>
 5   0  0.4521737E-07  0.3401382E+04  0.7818609E-02  0.8137567E-01
       -2   -1    0    0    0  501  0.00000000000E+00  0.00000000000E+00  0.17691706990E+04  0.17691706990E+04  0.25500000920E-02 0.  1.
        2   -1    0    0  501    0  0.00000000000E+00  0.00000000000E+00 -0.16348620320E+04  0.16348620320E+04  0.25500000920E-02 0. -1.
    10030    2    1    2    0    0  0.00000000000E+00  0.00000000000E+00  0.13430866691E+03  0.34040327310E+04  0.34013820744E+04 0.  0.
        4    1    3    3  502    0  0.84786367473E+03 -0.43594639425E+03  0.14765935294E+04  0.17576268471E+04  0.12699999809E+01 0.  1.
       -4    1    3    3    0  502 -0.84786367473E+03  0.43594639425E+03 -0.13422848625E+04  0.16464058839E+04  0.12699999809E+01 0. -1.
</event>
<event>
 5   0  0.1523259E-07  0.3356676E+04  0.7818609E-02  0.8148622E-01
       -1   -1    0    0    0  501  0.00000000000E+00  0.00000000000E+00  0.12113109460E+04  0.12113109460E+04  0.50400001928E-02 0. -1.
        1   -1    0    0  501    0  0.00000000000E+00  0.00000000000E+00 -0.23254291997E+04  0.23254291997E+04  0.50400001928E-02 0.  1.
    10030    2    1    2    0    0  0.00000000000E+00  0.00000000000E+00 -0.11141182537E+04  0.35367401457E+04  0.33566756434E+04 0.  0.
        4    1    3    3  502    0 -0.72917940385E+03  0.29642672485E+03 -0.21188863915E+04  0.22603655809E+04  0.12699999809E+01 0.  1.
       -4    1    3    3    0  502  0.72917940385E+03 -0.29642672485E+03  0.10047681378E+04  0.12763745649E+04  0.12699999809E+01 0. -1.
</event>
<event>
 5   0  0.4381939E-07  0.3405767E+04  0.7818609E-02  0.8136492E-01
        2   -1    0    0  501    0  0.00000000000E+00  0.00000000000E+00  0.21254757786E+04  0.21254757786E+04  0.25500000920E-02 0.  1.
       -2   -1    0    0    0  501  0.00000000000E+00  0.00000000000E+00 -0.13643117964E+04  0.13643117964E+04  0.25500000920E-02 0. -1.
    10030    2    1    2    0    0  0.00000000000E+00  0.00000000000E+00  0.76116398217E+03  0.34897875750E+04  0.34057666847E+04 0.  0.
        3    1    3    3  502    0 -0.14131766137E+04  0.25574120079E+03 -0.55705559675E+03  0.15403839298E+04  0.10100000352E+00 0. -1.
       -3    1    3    3    0  502  0.14131766137E+04 -0.25574120079E+03  0.13182195789E+04  0.19494036451E+04  0.10100000352E+00 0.  1.
</event>
<event>
 5   0  0.4486226E-07  0.3414679E+04  0.7818609E-02  0.8134313E-01
       -2   -1    0    0    0  501  0.00000000000E+00  0.00000000000E+00  0.13751601329E+04  0.13751601329E+04  0.25500000920E-02 0. -1.
        2   -1    0    0  501    0  0.00000000000E+00  0.00000000000E+00 -0.21197596402E+04  0.21197596402E+04  0.25500000920E-02 0.  1.
    10030    2    1    2    0    0  0.00000000000E+00  0.00000000000E+00 -0.74459950736E+03  0.34949197731E+04  0.34146794570E+04 0.  0.
        1    1    3    3  502    0 -0.11193248291E+04  0.10288260196E+04 -0.11674981905E+04  0.19168784720E+04  0.50400001928E-02 0.  1.
       -1    1    3    3    0  502  0.11193248291E+04 -0.10288260196E+04  0.42289868318E+03  0.15780413011E+04  0.50400001928E-02 0. -1.
</event>
<event>
 5   0  0.1523259E-07  0.3397575E+04  0.7818609E-02  0.8138502E-01
       -1   -1    0    0    0  501  0.00000000000E+00  0.00000000000E+00  0.11976031410E+04  0.11976031410E+04  0.50400001928E-02 0. -1.
        1   -1    0    0  501    0  0.00000000000E+00  0.00000000000E+00 -0.24097115515E+04  0.24097115515E+04  0.50400001928E-02 0.  1.
    10030    2    1    2    0    0  0.00000000000E+00  0.00000000000E+00 -0.12121084105E+04  0.36073146925E+04  0.33975745013E+04 0.  0.
        4    1    3    3  502    0  0.65876249776E+03  0.48783067854E+03  0.97372704942E+03  0.12728286527E+04  0.12699999809E+01 0. -1.
       -4    1    3    3    0  502 -0.65876249776E+03 -0.48783067854E+03 -0.21858354599E+04  0.23344860398E+04  0.12699999809E+01 0.  1.
</event>
<event>
 5   0  0.4486226E-07  0.3402203E+04  0.7818609E-02  0.8137366E-01
       -2   -1    0    0    0  501  0.00000000000E+00  0.00000000000E+00  0.16440321547E+04  0.16440321547E+04  0.25500000920E-02 0.  1.
        2   -1    0    0  501    0  0.00000000000E+00  0.00000000000E+00 -0.17601523388E+04  0.17601523388E+04  0.25500000920E-02 0. -1.
    10030    2    1    2    0    0  0.00000000000E+00  0.00000000000E+00 -0.11612018412E+03  0.34041844935E+04  0.34022034285E+04 0.  0.
        1    1    3    3  502    0 -0.10609012061E+04  0.51524420864E+03  0.11685244617E+04  0.16602522042E+04  0.50400001928E-02 0. -1.
       -1    1    3    3    0  502  0.10609012061E+04 -0.51524420864E+03 -0.12846446459E+04  0.17439322894E+04  0.50400001928E-02 0.  1.
</event>
<event>
 5   0  0.4381939E-07  0.3405665E+04  0.7818609E-02  0.8136517E-01
        2   -1    0    0  501    0  0.00000000000E+00  0.00000000000E+00  0.10283978534E+04  0.10283978534E+04  0.25500000920E-02 0.  1.
       -2   -1    0    0    0  501  0.00000000000E+00  0.00000000000E+00 -0.28195685730E+04  0.28195685730E+04  0.25500000920E-02 0. -1.
    10030    2    1    2    0    0  0.00000000000E+00  0.00000000000E+00 -0.17911707196E+04  0.38479664263E+04  0.34056648502E+04 0.  0.
        3    1    3    3  502    0  0.24833177131E+03  0.46025334210E+03 -0.27265839543E+04  0.27762856261E+04  0.10100000352E+00 0. -1.
       -3    1    3    3    0  502 -0.24833177131E+03 -0.46025334210E+03  0.93541323478E+03  0.10716808002E+04  0.10100000352E+00 0.  1.
</event>
<event>
 5   0  0.1520084E-07  0.3403245E+04  0.7818609E-02  0.8137110E-01
        1   -1    0    0  501    0  0.00000000000E+00  0.00000000000E+00  0.19560389720E+04  0.19560389720E+04  0.50400001928E-02 0.  1.
       -1   -1    0    0    0  501  0.00000000000E+00  0.00000000000E+00 -0.14802968417E+04  0.14802968417E+04  0.50400001928E-02 0. -1.
    10030    2    1    2    0    0  0.00000000000E+00  0.00000000000E+00  0.47574213027E+03  0.34363358137E+04  0.34032445181E+04 0.  0.
        2    1    3    3  502    0  0.20641810807E+03 -0.15962124344E+04  0.79552345972E+03  0.17953718684E+04  0.25500000920E-02 0.  1.
       -2    1    3    3    0  502 -0.20641810807E+03  0.15962124344E+04 -0.31978132945E+03  0.16409639453E+04  0.25500000920E-02 0. -1.
</event>
<event>
 5   0  0.4381939E-07  0.3383039E+04  0.7818609E-02  0.8142082E-01
       -2   -1    0    0    0  501  0.00000000000E+00  0.00000000000E+00  0.10721764248E+04  0.10721764248E+04  0.25500000920E-02 0. -1.
        2   -1    0    0  501    0  0.00000000000E+00  0.00000000000E+00 -0.26686261669E+04  0.26686261669E+04  0.25500000920E-02 0.  1.
    10030    2    1    2    0    0  0.00000000000E+00  0.00000000000E+00 -0.15964497421E+04  0.37408025917E+04  0.33830389078E+04 0.  0.
        3    1    3    3  502    0  0.64083838274E+02 -0.16902788832E+04 -0.80863370565E+03  0.18748434392E+04  0.10100000352E+00 0.  1.
       -3    1    3    3    0  502 -0.64083838274E+02  0.16902788832E+04 -0.78781603643E+03  0.18659591525E+04  0.10100000352E+00 0. -1.
</event>
<event>
 5   0  0.1473755E-07  0.3410879E+04  0.7818609E-02  0.8135241E-01
       -1   -1    0    0    0  501  0.00000000000E+00  0.00000000000E+00  0.18346343912E+04  0.18346343912E+04  0.50400001928E-02 0.  1.
        1   -1    0    0  501    0  0.00000000000E+00  0.00000000000E+00 -0.15853423824E+04  0.15853423824E+04  0.50400001928E-02 0. -1.
    10030    2    1    2    0    0  0.00000000000E+00  0.00000000000E+00  0.24929200880E+03  0.34199767736E+04  0.34108788642E+04 0.  0.
        1    1    3    3  502    0  0.10633457761E+04  0.91055418443E+03 -0.85196972093E+03  0.16388000390E+04  0.50400001928E-02 0. -1.
       -1    1    3    3    0  502 -0.10633457761E+04 -0.91055418443E+03  0.11012617297E+04  0.17811767346E+04  0.50400001928E-02 0.  1.
</event>
<event>
 5   0  0.1520084E-07  0.3338600E+04  0.7818609E-02  0.8153142E-01
        1   -1    0    0  501    0  0.00000000000E+00  0.00000000000E+00  0.14805274884E+04  0.14805274884E+04  0.50400001928E-02 0.  1.
       -1   -1    0    0    0  501  0.00000000000E+00  0.00000000000E+00 -0.18821417145E+04  0.18821417145E+04  0.50400001928E-02 0. -1.
    10030    2    1    2    0    0  0.00000000000E+00  0.00000000000E+00 -0.40161422608E+03  0.33626692029E+04  0.33386000332E+04 0.  0.
        2    1    3    3  502    0 -0.10221060726E+04  0.31931065230E+03 -0.14906260759E+04  0.18353817626E+04  0.25500000920E-02 0. -1.
       -2    1    3    3    0  502  0.10221060726E+04 -0.31931065230E+03  0.10890118498E+04  0.15272874403E+04  0.25500000920E-02 0.  1.
</event>
<event>
 5   0  0.1473755E-07  0.3441005E+04  0.7818609E-02  0.8127915E-01
       -1   -1    0    0    0  501  0.00000000000E+00  0.00000000000E+00  0.11704424705E+04  0.11704424705E+04  0.50400001928E-02 0.  1.
        1   -1    0    0  501    0  0.00000000000E+00  0.00000000000E+00 -0.25290683529E+04  0.25290683529E+04  0.50400001928E-02 0. -1.
    10030    2    1    2    0    0  0.00000000000E+00  0.00000000000E+00 -0.13586258824E+04  0.36995108235E+04  0.34410050922E+04 0.  0.
        1    1    3    3  502    0 -0.12410602643E+03  0.33802895087E+03  0.11294753509E+04  0.11854874296E+04  0.50400001928E-02 0.  1.
       -1    1    3    3    0  502  0.12410602643E+03 -0.33802895087E+03 -0.24881012333E+04  0.25140233938E+04  0.50400001928E-02 0. -1.
</event>
<event>
 5   0  0.4486226E-07  0.3367954E+04  0.7818609E-02  0.8145817E-01
        2   -1    0    0  501    0  0.00000000000E+00  0.00000000000E+00  0.23062646501E+04  0.23062646501E+04  0.25500000920E-02 0. -1.
       -2   -1    0    0    0  501  0.00000000000E+00  0.00000000000E+00 -0.12295977607E+04  0.12295977607E+04  0.25500000920E-02 0.  1.
    10030    2    1    2    0    0  0.00000000000E+00  0.00000000000E+00  0.10766668894E+04  0.35358624108E+04  0.33679535919E+04 0.  0.
        1    1    3    3  502    0 -0.82344165752E+03  0.68688614846E+02  0.20787977252E+04  0.22370011783E+04  0.50400001928E-02 0. -1.
       -1    1    3    3    0  502  0.82344165752E+03 -0.68688614846E+02 -0.10021308358E+04  0.12988612325E+04  0.50400001928E-02 0.  1.
</event>
<event>
 5   0  0.1473755E-07  0.3397654E+04  0.7818609E-02  0.8138482E-01
        1   -1    0    0  501    0  0.00000000000E+00  0.00000000000E+00  0.19042823133E+04  0.19042823134E+04  0.50400001928E-02 0.  1.
       -1   -1    0    0    0  501  0.00000000000E+00  0.00000000000E+00 -0.15155383805E+04  0.15155383805E+04  0.50400001928E-02 0. -1.
    10030    2    1    2    0    0  0.00000000000E+00  0.00000000000E+00  0.38874393282E+03  0.34198206939E+04  0.33976538572E+04 0.  0.
        1    1    3    3  502    0 -0.16353568233E+04 -0.31473887230E+03  0.53206110111E+03  0.17482967461E+04  0.50400001928E-02 0. -1.
       -1    1    3    3    0  502  0.16353568233E+04  0.31473887230E+03 -0.14331716829E+03  0.16715239478E+04  0.50400001928E-02 0.  1.
</event>
<event>
 5   0  0.1523259E-07  0.3408746E+04  0.7818609E-02  0.8135763E-01
       -1   -1    0    0    0  501  0.00000000000E+00  0.00000000000E+00  0.91622907238E+03  0.91622907240E+03  0.50400001928E-02 0.  1.
        1   -1    0    0  501    0  0.00000000000E+00  0.00000000000E+00 -0.31704821201E+04  0.31704821201E+04  0.50400001928E-02 0. -1.
    10030    2    1    2    0    0  0.00000000000E+00  0.00000000000E+00 -0.22542530477E+04  0.40867111925E+04  0.34087463337E+04 0.  0.
        4    1    3    3  502    0 -0.14699365146E+04  0.61933975098E+02 -0.95567644912E+02  0.14743418742E+04  0.12699999809E+01 0.  1.
       -4    1    3    3    0  502  0.14699365146E+04 -0.61933975098E+02 -0.21586854028E+04  0.26123693183E+04  0.12699999809E+01 0. -1.
</event>
<event>
 5   0  0.4396257E-07  0.3393152E+04  0.7818609E-02  0.8139589E-01
        2   -1    0    0  501    0  0.00000000000E+00  0.00000000000E+00  0.28763995424E+04  0.28763995424E+04  0.25500000920E-02 0.  1.
       -2   -1    0    0    0  501  0.00000000000E+00  0.00000000000E+00 -0.10006851241E+04  0.10006851241E+04  0.25500000920E-02 0. -1.
    10030    2    1    2    0    0  0.00000000000E+00  0.00000000000E+00  0.18757144184E+04  0.38770846665E+04  0.33931520643E+04 0.  0.
        2    1    3    3  502    0  0.11140696514E+04  0.52241453456E+03  0.22724760014E+04  0.25842243152E+04  0.25500000920E-02 0.  1.
       -2    1    3    3    0  502 -0.11140696514E+04 -0.52241453456E+03 -0.39676158304E+03  0.12928603513E+04  0.25500000920E-02 0. -1.
</event>
<event>
 5   0  0.4396257E-07  0.3396591E+04  0.7818609E-02  0.8138743E-01
        2   -1    0    0  501    0  0.00000000000E+00  0.00000000000E+00  0.15428558692E+04  0.15428558692E+04  0.25500000920E-02 0.  1.
       -2   -1    0    0    0  501  0.00000000000E+00  0.00000000000E+00 -0.18693957803E+04  0.18693957803E+04  0.25500000920E-02 0. -1.
    10030    2    1    2    0    0  0.00000000000E+00  0.00000000000E+00 -0.32653991112E+03  0.34122516495E+04  0.33965913805E+04 0.  0.
        2    1    3    3  502    0 -0.11955401996E+04 -0.44653372469E+03  0.96238690841E+03  0.15984046101E+04  0.25500000920E-02 0. -1.
       -2    1    3    3    0  502  0.11955401996E+04  0.44653372469E+03 -0.12889268195E+04  0.18138470394E+04  0.25500000920E-02 0.  1.
</event>
<event>
 5   0  0.4447909E-07  0.3397922E+04  0.7818609E-02  0.8138417E-01
        2   -1    0    0  501    0  0.00000000000E+00  0.00000000000E+00  0.18485955045E+04  0.18485955045E+04  0.25500000920E-02 0.  1.
       -2   -1    0    0    0  501  0.00000000000E+00  0.00000000000E+00 -0.15614383071E+04  0.15614383071E+04  0.25500000920E-02 0. -1.
    10030    2    1    2    0    0  0.00000000000E+00  0.00000000000E+00  0.28715719746E+03  0.34100338116E+04  0.33979216207E+04 0.  0.
        5    1    3    3  502    0  0.20619370098E+03  0.44706828084E+03 -0.14882741580E+04  0.15675994225E+04  0.46999998093E+01 0. -1.
       -5    1    3    3    0  502 -0.20619370098E+03 -0.44706828084E+03  0.17754313555E+04  0.18424343891E+04  0.46999998093E+01 0.  1.
</event>
<event>
 5   0  0.4486226E-07  0.3396350E+04  0.7818609E-02  0.8138803E-01
       -2   -1    0    0    0  501  0.00000000000E+00  0.00000000000E+00  0.15389120977E+04  0.15389120977E+04  0.25500000920E-02 0. -1.
        2   -1    0    0  501    0  0.00000000000E+00  0.00000000000E+00 -0.18739197150E+04  0.18739197150E+04  0.25500000920E-02 0.  1.
    10030    2    1    2    0    0  0.00000000000E+00  0.00000000000E+00 -0.33500761728E+03  0.34128318127E+04  0.33963496402E+04 0.  0.
        1    1    3    3  502    0  0.93331790543E+02 -0.66117101323E+03 -0.17364714304E+04  0.18604276284E+04  0.50400001928E-02 0.  1.
       -1    1    3    3    0  502 -0.93331790543E+02  0.66117101323E+03  0.14014638131E+04  0.15524041843E+04  0.50400001928E-02 0. -1.
</event>
<event>
 5   0  0.1435806E-07  0.3399214E+04  0.7818609E-02  0.8138099E-01
        1   -1    0    0  501    0  0.00000000000E+00  0.00000000000E+00  0.22506651189E+04  0.22506651189E+04  0.50400001928E-02 0. -1.
       -1   -1    0    0    0  501  0.00000000000E+00  0.00000000000E+00 -0.12834708787E+04  0.12834708787E+04  0.50400001928E-02 0.  1.
    10030    2    1    2    0    0  0.00000000000E+00  0.00000000000E+00  0.96719424021E+03  0.35341359976E+04  0.33992135195E+04 0.  0.
        3    1    3    3  502    0  0.19736903264E+03 -0.86814422788E+03 -0.10216367904E+04  0.13551275501E+04  0.10100000352E+00 0.  1.
       -3    1    3    3    0  502 -0.19736903264E+03  0.86814422788E+03  0.19888310306E+04  0.21790084474E+04  0.10100000352E+00 0. -1.
</event>
<event>
 5   0  0.4521737E-07  0.3397039E+04  0.7818609E-02  0.8138633E-01
       -2   -1    0    0    0  501  0.00000000000E+00  0.00000000000E+00  0.16476116489E+04  0.16476116489E+04  0.25500000920E-02 0. -1.
        2   -1    0    0  501    0  0.00000000000E+00  0.00000000000E+00 -0.17510007419E+04  0.17510007419E+04  0.25500000920E-02 0.  1.
    10030    2    1    2    0    0  0.00000000000E+00  0.00000000000E+00 -0.10338909298E+03  0.33986123908E+04  0.33970394285E+04 0.  0.
        4    1    3    3  502    0 -0.45377584193E+03 -0.16318663122E+04 -0.17851061046E+03  0.17031640634E+04  0.12699999809E+01 0. -1.
       -4    1    3    3    0  502  0.45377584193E+03  0.16318663122E+04  0.75121517476E+02  0.16954483275E+04  0.12699999809E+01 0.  1.
</event>
<event>
 5   0  0.4447909E-07  0.3382266E+04  0.7818609E-02  0.8142273E-01
       -2   -1    0    0    0  501  0.00000000000E+00  0.00000000000E+00  0.11065146186E+04  0.11065146186E+04  0.25500000920E-02 0. -1.
        2   -1    0    0  501    0  0.00000000000E+00  0.00000000000E+00 -0.25846297567E+04  0.25846297567E+04  0.25500000920E-02 0.  1.
    10030    2    1    2    0    0  0.00000000000E+00  0.00000000000E+00 -0.14781151381E+04  0.36911443754E+04  0.33822658734E+04 0.  0.
        5    1    3    3  502    0 -0.54193454087E+03  0.70741964930E+03  0.82947874630E+03  0.12174533615E+04  0.46999998093E+01 0. -1.
       -5    1    3    3    0  502  0.54193454087E+03 -0.70741964930E+03 -0.23075938844E+04  0.24736910139E+04  0.46999998093E+01 0.  1.
</event>
<event>
 5   0  0.4381939E-07  0.3412223E+04  0.7818609E-02  0.8134913E-01
       -2   -1    0    0    0  501  0.00000000000E+00  0.00000000000E+00  0.13639576918E+04  0.13639576918E+04  0.25500000920E-02 0.  1.
        2   -1    0    0  501    0  0.00000000000E+00  0.00000000000E+00 -0.21340960862E+04  0.21340960862E+04  0.25500000920E-02 0. -1.
    10030    2    1    2    0    0  0.00000000000E+00  0.00000000000E+00 -0.77013839435E+03  0.34980537780E+04  0.34122231884E+04 0.  0.
        3    1    3    3  502    0  0.11702442120E+04 -0.10032291017E+03 -0.16536450383E+04  0.20283190393E+04  0.10100000352E+00 0. -1.
       -3    1    3    3    0  502 -0.11702442120E+04  0.10032291017E+03  0.88350664398E+03  0.14697347387E+04  0.10100000352E+00 0.  1.
</event>
<event>
 5   0  0.1473755E-07  0.3398108E+04  0.7818609E-02  0.8138371E-01
       -1   -1    0    0    0  501  0.00000000000E+00  0.00000000000E+00  0.18625549285E+04  0.18625549285E+04  0.50400001928E-02 0. -1.
        1   -1    0    0  501    0  0.00000000000E+00  0.00000000000E+00 -0.15499054235E+04  0.15499054235E+04  0.50400001928E-02 0.  1.
    10030    2    1    2    0    0  0.00000000000E+00  0.00000000000E+00  0.31264950499E+03  0.34124603520E+04  0.33981077000E+04 0.  0.
        1    1    3    3  502    0 -0.46945261591E+03  0.71454575664E+03 -0.13181487892E+04  0.15711389587E+04  0.50400001928E-02 0.  1.
       -1    1    3    3    0  502  0.46945261591E+03 -0.71454575664E+03  0.16307982942E+04  0.18413213933E+04  0.50400001928E-02 0. -1.
</event>
<event>
 5   0  0.1520084E-07  0.3382441E+04  0.7818609E-02  0.8142229E-01
        1   -1    0    0  501    0  0.00000000000E+00  0.00000000000E+00  0.25241042996E+04  0.25241042996E+04  0.50400001928E-02 0.  1.
       -1   -1    0    0    0  501  0.00000000000E+00  0.00000000000E+00 -0.11331650169E+04  0.11331650170E+04  0.50400001928E-02 0. -1.
    10030    2    1    2    0    0  0.00000000000E+00  0.00000000000E+00  0.13909392827E+04  0.36572693166E+04  0.33824409479E+04 0.  0.
        2    1    3    3  502    0 -0.12382473059E+04  0.16122106391E+03  0.19287496935E+04  0.22976779588E+04  0.25500000920E-02 0.  1.
       -2    1    3    3    0  502  0.12382473059E+04 -0.16122106391E+03 -0.53781041087E+03  0.13595913578E+04  0.25500000920E-02 0. -1.
</event>
<event>
 5   0  0.1520084E-07  0.3398604E+04  0.7818609E-02  0.8138249E-01
        1   -1    0    0  501    0  0.00000000000E+00  0.00000000000E+00  0.22304764205E+04  0.22304764205E+04  0.50400001928E-02 0.  1.
       -1   -1    0    0    0  501  0.00000000000E+00  0.00000000000E+00 -0.12946236339E+04  0.12946236339E+04  0.50400001928E-02 0. -1.
    10030    2    1    2    0    0  0.00000000000E+00  0.00000000000E+00  0.93585278657E+03  0.35251000544E+04  0.33986041186E+04 0.  0.
        2    1    3    3  502    0  0.62640865808E+03 -0.15621017936E+04  0.22450505683E+03  0.16979258938E+04  0.25500000920E-02 0. -1.
       -2    1    3    3    0  502 -0.62640865808E+03  0.15621017936E+04  0.71134772974E+03  0.18271741605E+04  0.25500000920E-02 0.  1.
</event>
<event>
 5   0  0.4396257E-07  0.3391369E+04  0.7818609E-02  0.8140028E-01
       -2   -1    0    0    0  501  0.00000000000E+00  0.00000000000E+00  0.11159517199E+04  0.11159517199E+04  0.25500000920E-02 0. -1.
        2   -1    0    0  501    0  0.00000000000E+00  0.00000000000E+00 -0.25765863140E+04  0.25765863140E+04  0.25500000920E-02 0.  1.
    10030    2    1    2    0    0  0.00000000000E+00  0.00000000000E+00 -0.14606345941E+04  0.36925380338E+04  0.33913690029E+04 0.  0.
        2    1    3    3  502    0  0.13415872084E+04 -0.85055658379E+03 -0.13763401833E+04  0.21018123228E+04  0.25500000920E-02 0.  1.
       -2    1    3    3    0  502 -0.13415872084E+04  0.85055658379E+03 -0.84294410806E+02  0.15907257110E+04  0.25500000920E-02 0. -1.
</event>
<event>
 5   0  0.4521737E-07  0.3385936E+04  0.7818609E-02  0.8141367E-01
        2   -1    0    0  501    0  0.00000000000E+00  0.00000000000E+00  0.10918234199E+04  0.10918234199E+04  0.25500000920E-02 0.  1.
       -2   -1    0    0    0  501  0.00000000000E+00  0.00000000000E+00 -0.26250950152E+04  0.26250950152E+04  0.25500000920E-02 0. -1.
    10030    2    1    2    0    0  0.00000000000E+00  0.00000000000E+00 -0.15332715953E+04  0.37169184351E+04  0.33859357448E+04 0.  0.
        4    1    3    3  502    0 -0.12054060351E+04 -0.11398537844E+04 -0.39620624066E+03  0.17056527657E+04  0.12699999809E+01 0.  1.
       -4    1    3    3    0  502  0.12054060351E+04  0.11398537844E+04 -0.11370653546E+04  0.20112656694E+04  0.12699999809E+01 0. -1.
</event>
<event>
 5   0  0.4447909E-07  0.3401249E+04  0.7818609E-02  0.8137600E-01
        2   -1    0    0  501    0  0.00000000000E+00  0.00000000000E+00  0.19428094926E+04  0.19428094926E+04  0.25500000920E-02 0. -1.
       -2   -1    0    0    0  501  0.00000000000E+00  0.00000000000E+00 -0.14886297199E+04  0.14886297199E+04  0.25500000920E-02 0.  1.
    10030    2    1    2    0    0  0.00000000000E+00  0.00000000000E+00  0.45417977268E+03  0.34314392125E+04  0.34012491533E+04 0.  0.
        5    1    3    3  502    0  0.32759442626E+03 -0.35404756546E+03 -0.14181623037E+04  0.14979566737E+04  0.46999998093E+01 0.  1.
       -5    1    3    3    0  502 -0.32759442626E+03  0.35404756546E+03  0.18723420764E+04  0.19334825387E+04  0.46999998093E+01 0. -1.
</event>
<event>
 5   0  0.1473755E-07  0.3356307E+04  0.7818609E-02  0.8148714E-01
        1   -1    0    0  501    0  0.00000000000E+00  0.00000000000E+00  0.11380946815E+04  0.11380946815E+04  0.50400001928E-02 0. -1.
       -1   -1    0    0    0  501  0.00000000000E+00  0.00000000000E+00 -0.24744863030E+04  0.24744863030E+04  0.50400001928E-02 0.  1.
    10030    2    1    2    0    0  0.00000000000E+00  0.00000000000E+00 -0.13363916215E+04  0.36125809845E+04  0.33563073166E+04 0.  0.
        1    1    3    3  502    0 -0.79333311218E+03 -0.12970454601E+04  0.96316450517E+02  0.15234766855E+04  0.50400001928E-02 0. -1.
       -1    1    3    3    0  502  0.79333311218E+03  0.12970454601E+04 -0.14327080720E+04  0.20891042990E+04  0.50400001928E-02 0.  1.
</event>
<event>
 5   0  0.1523259E-07  0.3414702E+04  0.7818609E-02  0.8134307E-01
        1   -1    0    0  501    0  0.00000000000E+00  0.00000000000E+00  0.11899429954E+04  0.11899429954E+04  0.50400001928E-02 0. -1.
       -1   -1    0    0    0  501  0.00000000000E+00  0.00000000000E+00 -0.24497367795E+04  0.24497367795E+04  0.50400001928E-02 0.  1.
    10030    2    1    2    0    0  0.00000000000E+00  0.00000000000E+00 -0.12597937841E+04  0.36396797749E+04  0.34147018150E+04 0.  0.
        4    1    3    3  502    0  0.12965345935E+04 -0.11000669175E+04 -0.46512769540E+03  0.17628087137E+04  0.12699999809E+01 0.  1.
       -4    1    3    3    0  502 -0.12965345935E+04  0.11000669175E+04 -0.79466608870E+03  0.18768710612E+04  0.12699999809E+01 0. -1.
</event>
<event>
 5   0  0.4396257E-07  0.3359831E+04  0.7818609E-02  0.8147836E-01
        2   -1    0    0  501    0  0.00000000000E+00  0.00000000000E+00  0.22520210042E+04  0.22520210042E+04  0.25500000920E-02 0.  1.
       -2   -1    0    0    0  501  0.00000000000E+00  0.00000000000E+00 -0.12531483592E+04  0.12531483592E+04  0.25500000920E-02 0. -1.
    10030    2    1    2    0    0  0.00000000000E+00  0.00000000000E+00  0.99887264504E+03  0.35051693635E+04  0.33598312019E+04 0.  0.
        2    1    3    3  502    0 -0.71656383134E+03 -0.14907793458E+04  0.19308493962E+03  0.16652833321E+04  0.25500000920E-02 0. -1.
       -2    1    3    3    0  502  0.71656383134E+03  0.14907793458E+04  0.80578770542E+03  0.18398860314E+04  0.25500000920E-02 0.  1.
</event>
<event>
 5   0  0.4486226E-07  0.3375887E+04  0.7818609E-02  0.8143850E-01
       -2   -1    0    0    0  501  0.00000000000E+00  0.00000000000E+00  0.12808782947E+04  0.12808782947E+04  0.25500000920E-02 0.  1.
        2   -1    0    0  501    0  0.00000000000E+00  0.00000000000E+00 -0.22243741335E+04  0.22243741335E+04  0.25500000920E-02 0. -1.
    10030    2    1    2    0    0  0.00000000000E+00  0.00000000000E+00 -0.94349583876E+03  0.35052524282E+04  0.33758865780E+04 0.  0.
        1    1    3    3  502    0 -0.53928581305E+03  0.87205316882E+03  0.92047177184E+03  0.13778875862E+04  0.50400001928E-02 0.  1.
       -1    1    3    3    0  502  0.53928581305E+03 -0.87205316882E+03 -0.18639676106E+04  0.21273648420E+04  0.50400001928E-02 0. -1.
</event>
<event>
 5   0  0.4486226E-07  0.3397775E+04  0.7818609E-02  0.8138453E-01
        2   -1    0    0  501    0  0.00000000000E+00  0.00000000000E+00  0.23934882690E+04  0.23934882690E+04  0.25500000920E-02 0. -1.
       -2   -1    0    0    0  501  0.00000000000E+00  0.00000000000E+00 -0.12058625759E+04  0.12058625759E+04  0.25500000920E-02 0.  1.
    10030    2    1    2    0    0  0.00000000000E+00  0.00000000000E+00  0.11876256932E+04  0.35993508449E+04  0.33977745243E+04 0.  0.
        1    1    3    3  502    0 -0.44271017397E+02 -0.16904412319E+04  0.42082634702E+03  0.17425975714E+04  0.50400001928E-02 0.  1.
       -1    1    3    3    0  502  0.44271017397E+02  0.16904412319E+04  0.76679934613E+03  0.18567532735E+04  0.50400001928E-02 0. -1.
</event>
<event>
 5   0  0.1520084E-07  0.3428709E+04  0.7818609E-02  0.8130896E-01
       -1   -1    0    0    0  501  0.00000000000E+00  0.00000000000E+00  0.17643777805E+04  0.17643777805E+04  0.50400001928E-02 0. -1.
        1   -1    0    0  501    0  0.00000000000E+00  0.00000000000E+00 -0.16657492952E+04  0.16657492952E+04  0.50400001928E-02 0.  1.
    10030    2    1    2    0    0  0.00000000000E+00  0.00000000000E+00  0.98628485285E+02  0.34301270757E+04  0.34287088208E+04 0.  0.
        2    1    3    3  502    0  0.40960864827E+03 -0.15891634072E+04 -0.44666443197E+03  0.17008023678E+04  0.25500000920E-02 0.  1.
       -2    1    3    3    0  502 -0.40960864827E+03  0.15891634072E+04  0.54529291726E+03  0.17293247079E+04  0.25500000920E-02 0. -1.
</event>
<event>
 5   0  0.4447909E-07  0.3366414E+04  0.7818609E-02  0.8146199E-01
       -2   -1    0    0    0  501  0.00000000000E+00  0.00000000000E+00  0.19590118629E+04  0.19590118629E+04  0.25500000920E-02 0.  1.
        2   -1    0    0  501    0  0.00000000000E+00  0.00000000000E+00 -0.14462323991E+04  0.14462323991E+04  0.25500000920E-02 0. -1.
    10030    2    1    2    0    0  0.00000000000E+00  0.00000000000E+00  0.51277946382E+03  0.34052442620E+04  0.33664143692E+04 0.  0.
        5    1    3    3  502    0  0.13776152553E+04  0.29145779501E+03 -0.67641450551E+03  0.15621555976E+04  0.46999998093E+01 0. -1.
       -5    1    3    3    0  502 -0.13776152553E+04 -0.29145779501E+03  0.11891939693E+04  0.18430886643E+04  0.46999998093E+01 0.  1.
</event>
<event>
 5   0  0.1523259E-07  0.3403845E+04  0.7818609E-02  0.8136963E-01
       -1   -1    0    0    0  501  0.00000000000E+00  0.00000000000E+00  0.16216344721E+04  0.16216344721E+04  0.50400001928E-02 0.  1.
        1   -1    0    0  501    0  0.00000000000E+00  0.00000000000E+00 -0.17861852122E+04  0.17861852122E+04  0.50400001928E-02 0. -1.
    10030    2    1    2    0    0  0.00000000000E+00  0.00000000000E+00 -0.16455074003E+03  0.34078196843E+04  0.34038445991E+04 0.  0.
        4    1    3    3  502    0 -0.26236982336E+03  0.51722195971E+02 -0.17650192296E+04  0.17851631868E+04  0.12699999809E+01 0. -1.
       -4    1    3    3    0  502  0.26236982336E+03 -0.51722195971E+02  0.16004684896E+04  0.16226564975E+04  0.12699999809E+01 0.  1.
</event>
<event>
 5   0  0.1473755E-07  0.3406863E+04  0.7818609E-02  0.8136224E-01
       -1   -1    0    0    0  501  0.00000000000E+00  0.00000000000E+00  0.16607706268E+04  0.16607706268E+04  0.50400001928E-02 0.  1.
        1   -1    0    0  501    0  0.00000000000E+00  0.00000000000E+00 -0.17471884634E+04  0.17471884634E+04  0.50400001928E-02 0. -1.
    10030    2    1    2    0    0  0.00000000000E+00  0.00000000000E+00 -0.86417836540E+02  0.34079590902E+04  0.34068632374E+04 0.  0.
        1    1    3    3  502    0 -0.45985712293E+03  0.99835801693E+03 -0.13449698832E+04  0.17369891451E+04  0.50400001928E-02 0. -1.
       -1    1    3    3    0  502  0.45985712293E+03 -0.99835801693E+03  0.12585520466E+04  0.16709699451E+04  0.50400001928E-02 0.  1.
</event>
<event>
 5   0  0.1473755E-07  0.3438739E+04  0.7818609E-02  0.8128463E-01
       -1   -1    0    0    0  501  0.00000000000E+00  0.00000000000E+00  0.15386491164E+04  0.15386491164E+04  0.50400001928E-02 0. -1.
        1   -1    0    0  501    0  0.00000000000E+00  0.00000000000E+00 -0.19213166715E+04  0.19213166715E+04  0.50400001928E-02 0.  1.
    10030    2    1    2    0    0  0.00000000000E+00  0.00000000000E+00 -0.38266755515E+03  0.34599657879E+04  0.34387394196E+04 0.  0.
        1    1    3    3  502    0  0.98740296922E+03  0.58556463313E+02  0.12237038040E+04  0.15734816437E+04  0.50400001928E-02 0. -1.
       -1    1    3    3    0  502 -0.98740296922E+03 -0.58556463313E+02 -0.16063713591E+04  0.18864841442E+04  0.50400001928E-02 0.  1.
</event>
<event>
 5   0  0.1520084E-07  0.3431225E+04  0.7818609E-02  0.8130285E-01
       -1   -1    0    0    0  501  0.00000000000E+00  0.00000000000E+00  0.18909881335E+04  0.18909881335E+04  0.50400001928E-02 0.  1.
        1   -1    0    0  501    0  0.00000000000E+00  0.00000000000E+00 -0.15565017309E+04  0.15565017309E+04  0.50400001928E-02 0. -1.
    10030    2    1    2    0    0  0.00000000000E+00  0.00000000000E+00  0.33448640261E+03  0.34474898644E+04  0.34312250307E+04 0.  0.
        2    1    3    3  502    0  0.12763103238E+04  0.47973898560E+03  0.12134324527E+04  0.18252495320E+04  0.25500000920E-02 0.  1.
       -2    1    3    3    0  502 -0.12763103238E+04 -0.47973898560E+03 -0.87894605005E+03  0.16222403324E+04  0.25500000920E-02 0. -1.
</event>
<event>
 5   0  0.1435806E-07  0.3411831E+04  0.7818609E-02  0.8135009E-01
       -1   -1    0    0    0  501  0.00000000000E+00  0.00000000000E+00  0.11695077261E+04  0.11695077262E+04  0.50400001928E-02 0.  1.
        1   -1    0    0  501    0  0.00000000000E+00  0.00000000000E+00 -0.24883531747E+04  0.24883531747E+04  0.50400001928E-02 0. -1.
    10030    2    1    2    0    0  0.00000000000E+00  0.00000000000E+00 -0.13188454486E+04  0.36578609009E+04  0.34118313342E+04 0.  0.
        3    1    3    3  502    0  0.71342650662E+03  0.42423221231E+03 -0.22572626186E+04  0.24050332409E+04  0.10100000352E+00 0. -1.
       -3    1    3    3    0  502 -0.71342650662E+03 -0.42423221231E+03  0.93841717005E+03  0.12528276600E+04  0.10100000352E+00 0.  1.
</event>
<event>
 5   0  0.4381939E-07  0.3319433E+04  0.7818609E-02  0.8157968E-01
       -2   -1    0    0    0  501  0.00000000000E+00  0.00000000000E+00  0.12074695154E+04  0.12074695154E+04  0.25500000920E-02 0.  1.
        2   -1    0    0  501    0  0.00000000000E+00  0.00000000000E+00 -0.22813480901E+04  0.22813480901E+04  0.25500000920E-02 0. -1.
    10030    2    1    2    0    0  0.00000000000E+00  0.00000000000E+00 -0.10738785747E+04  0.34888176054E+04  0.33194326459E+04 0.  0.
        3    1    3    3  502    0 -0.13827196508E+04 -0.44415675904E+03  0.30746850916E+03  0.14844951175E+04  0.10100000352E+00 0.  1.
       -3    1    3    3    0  502  0.13827196508E+04  0.44415675904E+03 -0.13813470839E+04  0.20043224880E+04  0.10100000352E+00 0. -1.
</event>
<event>
 5   0  0.1435806E-07  0.3397909E+04  0.7818609E-02  0.8138420E-01
        1   -1    0    0  501    0  0.00000000000E+00  0.00000000000E+00  0.15365024202E+04  0.15365024202E+04  0.50400001928E-02 0.  1.
       -1   -1    0    0    0  501  0.00000000000E+00  0.00000000000E+00 -0.18785828293E+04  0.18785828293E+04  0.50400001928E-02 0. -1.
    10030    2    1    2    0    0  0.00000000000E+00  0.00000000000E+00 -0.34208040913E+03  0.34150852495E+04  0.33979093947E+04 0.  0.
        3    1    3    3  502    0  0.88723950254E+03 -0.83920010844E+03  0.10160296667E+04  0.15886368530E+04  0.10100000352E+00 0.  1.
       -3    1    3    3    0  502 -0.88723950254E+03  0.83920010844E+03 -0.13581100758E+04  0.18264483965E+04  0.10100000352E+00 0. -1.
</event>
<event>
 5   0  0.4521737E-07  0.3393516E+04  0.7818609E-02  0.8139500E-01
       -2   -1    0    0    0  501  0.00000000000E+00  0.00000000000E+00  0.22668755468E+04  0.22668755468E+04  0.25500000920E-02 0. -1.
        2   -1    0    0  501    0  0.00000000000E+00  0.00000000000E+00 -0.12700246282E+04  0.12700246282E+04  0.25500000920E-02 0.  1.
    10030    2    1    2    0    0  0.00000000000E+00  0.00000000000E+00  0.99685091865E+03  0.35369001750E+04  0.33935160371E+04 0.  0.
        4    1    3    3  502    0 -0.96744055912E+03 -0.84260138553E+03  0.16557798947E+04  0.20946424523E+04  0.12699999809E+01 0. -1.
       -4    1    3    3    0  502  0.96744055912E+03  0.84260138553E+03 -0.65892897608E+03  0.14422577227E+04  0.12699999809E+01 0.  1.
</event>
<event>
 5   0  0.4381939E-07  0.3392364E+04  0.7818609E-02  0.8139783E-01
       -2   -1    0    0    0  501  0.00000000000E+00  0.00000000000E+00  0.21990971980E+04  0.21990971980E+04  0.25500000920E-02 0. -1.
        2   -1    0    0  501    0  0.00000000000E+00  0.00000000000E+00 -0.13082792807E+04  0.13082792807E+04  0.25500000920E-02 0.  1.
    10030    2    1    2    0    0  0.00000000000E+00  0.00000000000E+00  0.89081791727E+03  0.35073764787E+04  0.33923639548E+04 0.  0.
        3    1    3    3  502    0  0.16076821029E+04 -0.36087775734E+02 -0.11240965921E+03  0.16120111704E+04  0.10100000352E+00 0.  1.
       -3    1    3    3    0  502 -0.16076821029E+04  0.36087775734E+02  0.10032275765E+04  0.18953653083E+04  0.10100000352E+00 0. -1.
</event>
<event>
 5   0  0.4396257E-07  0.3394570E+04  0.7818609E-02  0.8139240E-01
       -2   -1    0    0    0  501  0.00000000000E+00  0.00000000000E+00  0.28243717276E+04  0.28243717276E+04  0.25500000920E-02 0. -1.
        2   -1    0    0  501    0  0.00000000000E+00  0.00000000000E+00 -0.10199705221E+04  0.10199705221E+04  0.25500000920E-02 0.  1.
    10030    2    1    2    0    0  0.00000000000E+00  0.00000000000E+00  0.18044012055E+04  0.38443422497E+04  0.33945697257E+04 0.  0.
        2    1    3    3  502    0  0.97047408835E+03 -0.13642197341E+04  0.12182069546E+04  0.20704935699E+04  0.25500000920E-02 0. -1.
       -2    1    3    3    0  502 -0.97047408835E+03  0.13642197341E+04  0.58619425095E+03  0.17738486798E+04  0.25500000920E-02 0.  1.
</event>
<event>
 5   0  0.1421875E-07  0.3424748E+04  0.7818609E-02  0.8131859E-01
        1   -1    0    0  501    0  0.00000000000E+00  0.00000000000E+00  0.17145652800E+04  0.17145652800E+04  0.50400001928E-02 0. -1.
       -1   -1    0    0    0  501  0.00000000000E+00  0.00000000000E+00 -0.17101853788E+04  0.17101853788E+04  0.50400001928E-02 0.  1.
    10030    2    1    2    0    0  0.00000000000E+00  0.00000000000E+00  0.43799011599E+01  0.34247506588E+04  0.34247478580E+04 0.  0.
        5    1    3    3  502    0 -0.13441622042E+03  0.16459294998E+04  0.45501561179E+03  0.17129544465E+04  0.46999998093E+01 0.  1.
       -5    1    3    3    0  502  0.13441622042E+03 -0.16459294998E+04 -0.45063571063E+03  0.17117962123E+04  0.46999998093E+01 0. -1.
</event>
<event>
 5   0  0.1473755E-07  0.3397791E+04  0.7818609E-02  0.8138449E-01
        1   -1    0    0  501    0  0.00000000000E+00  0.00000000000E+00  0.21641979529E+04  0.21641979529E+04  0.50400001928E-02 0.  1.
       -1   -1    0    0    0  501  0.00000000000E+00  0.00000000000E+00 -0.13336333019E+04  0.13336333019E+04  0.50400001928E-02 0. -1.
    10030    2    1    2    0    0  0.00000000000E+00  0.00000000000E+00  0.83056465100E+03  0.34978312548E+04  0.33977913190E+04 0.  0.
        1    1    3    3  502    0  0.10663637873E+04 -0.33627808179E+03 -0.90145158504E+03  0.14362554213E+04  0.50400001928E-02 0. -1.
       -1    1    3    3    0  502 -0.10663637873E+04  0.33627808179E+03  0.17320162360E+04  0.20615758334E+04  0.50400001928E-02 0.  1.
</event>
<event>
 5   0  0.4521737E-07  0.3394636E+04  0.7818609E-02  0.8139224E-01
        2   -1    0    0  501    0  0.00000000000E+00  0.00000000000E+00  0.21314604839E+04  0.21314604839E+04  0.25500000920E-02 0. -1.
       -2   -1    0    0    0  501  0.00000000000E+00  0.00000000000E+00 -0.13516030836E+04  0.13516030836E+04  0.25500000920E-02 0.  1.
    10030    2    1    2    0    0  0.00000000000E+00  0.00000000000E+00  0.77985740026E+03  0.34830635675E+04  0.33946360999E+04 0.  0.
        4    1    3    3  502    0  0.16381136380E+04  0.37534457862E+03  0.14585166607E+03  0.16868829732E+04  0.12699999809E+01 0. -1.
       -4    1    3    3    0  502 -0.16381136380E+04 -0.37534457862E+03  0.63400573419E+03  0.17961805944E+04  0.12699999809E+01 0.  1.
</event>
<event>
 5   0  0.4521737E-07  0.3387417E+04  0.7818609E-02  0.8141002E-01
        2   -1    0    0  501    0  0.00000000000E+00  0.00000000000E+00  0.28689550601E+04  0.28689550601E+04  0.25500000920E-02 0. -1.
       -2   -1    0    0    0  501  0.00000000000E+00  0.00000000000E+00 -0.99989306713E+03  0.99989306714E+03  0.25500000920E-02 0.  1.
    10030    2    1    2    0    0  0.00000000000E+00  0.00000000000E+00  0.18690619929E+04  0.38688481272E+04  0.33874168769E+04 0.  0.
        4    1    3    3  502    0  0.38167269113E+03 -0.11803699436E+04 -0.38248112932E+03  0.12981681994E+04  0.12699999809E+01 0.  1.
       -4    1    3    3    0  502 -0.38167269113E+03  0.11803699436E+04  0.22515431223E+04  0.25706799278E+04  0.12699999809E+01 0. -1.
</event>
<event>
 5   0  0.4447909E-07  0.3384580E+04  0.7818609E-02  0.8141701E-01
        2   -1    0    0  501    0  0.00000000000E+00  0.00000000000E+00  0.19999175182E+04  0.19999175182E+04  0.25500000920E-02 0. -1.
       -2   -1    0    0    0  501  0.00000000000E+00  0.00000000000E+00 -0.14319815583E+04  0.14319815583E+04  0.25500000920E-02 0.  1.
    10030    2    1    2    0    0  0.00000000000E+00  0.00000000000E+00  0.56793595994E+03  0.34318990765E+04  0.33845797400E+04 0.  0.
        5    1    3    3  502    0 -0.13577337947E+04 -0.14560106901E+02  0.13081237160E+04  0.18854343798E+04  0.46999998093E+01 0. -1.
       -5    1    3    3    0  502  0.13577337947E+04  0.14560106901E+02 -0.74018775606E+03  0.15464646967E+04  0.46999998093E+01 0.  1.
</event>
<event>
 5   0  0.4381939E-07  0.3400508E+04  0.7818609E-02  0.8137782E-01
       -2   -1    0    0    0  501  0.00000000000E+00  0.00000000000E+00  0.11706251680E+04  0.11706251680E+04  0.25500000920E-02 0.  1.
        2   -1    0    0  501    0  0.00000000000E+00  0.00000000000E+00 -0.24695040442E+04  0.24695040442E+04  0.25500000920E-02 0. -1.
    10030    2    1    2    0    0  0.00000000000E+00  0.00000000000E+00 -0.12988788762E+04  0.36401292122E+04  0.34005079542E+04 0.  0.
        3    1    3    3  502    0  0.36740476249E+03  0.16574905976E+04 -0.74872330275E+03  0.18554912921E+04  0.10100000352E+00 0. -1.
       -3    1    3    3    0  502 -0.36740476249E+03 -0.16574905976E+04 -0.55015557348E+03  0.17846379201E+04  0.10100000352E+00 0.  1.
</event>
<event>
 5   0  0.4521737E-07  0.3404705E+04  0.7818609E-02  0.8136753E-01
       -2   -1    0    0    0  501  0.00000000000E+00  0.00000000000E+00  0.15384120931E+04  0.15384120931E+04  0.25500000920E-02 0.  1.
        2   -1    0    0  501    0  0.00000000000E+00  0.00000000000E+00 -0.18837632264E+04  0.18837632264E+04  0.25500000920E-02 0. -1.
    10030    2    1    2    0    0  0.00000000000E+00  0.00000000000E+00 -0.34535113330E+03  0.34221753194E+04  0.34047050550E+04 0.  0.
        4    1    3    3  502    0  0.49165102243E+03  0.87285631893E+03 -0.15561113933E+04  0.18506980204E+04  0.12699999809E+01 0. -1.
       -4    1    3    3    0  502 -0.49165102243E+03 -0.87285631893E+03  0.12107602600E+04  0.15714772990E+04  0.12699999809E+01 0.  1.
</event>
<event>
 5   0  0.1421875E-07  0.3425118E+04  0.7818609E-02  0.8131769E-01
        1   -1    0    0  501    0  0.00000000000E+00  0.00000000000E+00  0.22102743430E+04  0.22102743430E+04  0.50400001928E-02 0.  1.
       -1   -1    0    0    0  501  0.00000000000E+00  0.00000000000E+00 -0.13269202137E+04  0.13269202138E+04  0.50400001928E-02 0. -1.
    10030    2    1    2    0    0  0.00000000000E+00  0.00000000000E+00  0.88335412924E+03  0.35371945567E+04  0.34251176351E+04 0.  0.
        5    1    3    3  502    0  0.91481223601E+02 -0.60132138955E+03 -0.12116072297E+04  0.13557176686E+04  0.46999998093E+01 0. -1.
       -5    1    3    3    0  502 -0.91481223601E+02  0.60132138955E+03  0.20949613590E+04  0.21814768881E+04  0.46999998093E+01 0.  1.
</event>
<event>
 5   0  0.1520084E-07  0.3398856E+04  0.7818609E-02  0.8138187E-01
       -1   -1    0    0    0  501  0.00000000000E+00  0.00000000000E+00  0.28098827922E+04  0.28098827922E+04  0.50400001928E-02 0. -1.
        1   -1    0    0  501    0  0.00000000000E+00  0.00000000000E+00 -0.10278209314E+04  0.10278209315E+04  0.50400001928E-02 0.  1.
    10030    2    1    2    0    0  0.00000000000E+00  0.00000000000E+00  0.17820618608E+04  0.38377037237E+04  0.33988564835E+04 0.  0.
        2    1    3    3  502    0 -0.12455509212E+04  0.11012941903E+04  0.49373226495E+03  0.17343637278E+04  0.25500000920E-02 0.  1.
       -2    1    3    3    0  502  0.12455509212E+04 -0.11012941903E+04  0.12883295958E+04  0.21033399959E+04  0.25500000920E-02 0. -1.
</event>
<event>
 5   0  0.4521737E-07  0.3346284E+04  0.7818609E-02  0.8151217E-01
        2   -1    0    0  501    0  0.00000000000E+00  0.00000000000E+00  0.19893397478E+04  0.19893397478E+04  0.25500000920E-02 0. -1.
       -2   -1    0    0    0  501  0.00000000000E+00  0.00000000000E+00 -0.14072025981E+04  0.14072025981E+04  0.25500000920E-02 0.  1.
    10030    2    1    2    0    0  0.00000000000E+00  0.00000000000E+00  0.58213714972E+03  0.33965423459E+04  0.33462839458E+04 0.  0.
        4    1    3    3  502    0  0.79993642620E+03  0.66705071084E+03 -0.10380049465E+04  0.14704797920E+04  0.12699999809E+01 0.  1.
       -4    1    3    3    0  502 -0.79993642620E+03 -0.66705071084E+03  0.16201420962E+04  0.19260625539E+04  0.12699999809E+01 0. -1.
</event>
<event>
 5   0  0.4381939E-07  0.3391320E+04  0.7818609E-02  0.8140040E-01
        2   -1    0    0  501    0  0.00000000000E+00  0.00000000000E+00  0.25644318584E+04  0.25644318584E+04  0.25500000920E-02 0.  1.
       -2   -1    0    0    0  501  0.00000000000E+00  0.00000000000E+00 -0.11212083094E+04  0.11212083094E+04  0.25500000920E-02 0. -1.
    10030    2    1    2    0    0  0.00000000000E+00  0.00000000000E+00  0.14432235490E+04  0.36856401678E+04  0.33913196892E+04 0.  0.
        3    1    3    3  502    0  0.13970077023E+04 -0.95309414382E+03  0.85579064861E+03  0.18953618683E+04  0.10100000352E+00 0.  1.
       -3    1    3    3    0  502 -0.13970077023E+04  0.95309414382E+03  0.58743290035E+03  0.17902782995E+04  0.10100000352E+00 0. -1.
</event>
<event>
 5   0  0.4396257E-07  0.3308114E+04  0.7818609E-02  0.8160834E-01
       -2   -1    0    0    0  501  0.00000000000E+00  0.00000000000E+00  0.13690561279E+04  0.13690561279E+04  0.25500000920E-02 0. -1.
        2   -1    0    0  501    0  0.00000000000E+00  0.00000000000E+00 -0.19983869815E+04  0.19983869815E+04  0.25500000920E-02 0.  1.
    10030    2    1    2    0    0  0.00000000000E+00  0.00000000000E+00 -0.62933085357E+03  0.33674431094E+04  0.33081136274E+04 0.  0.
        2    1    3    3  502    0 -0.15345423044E+04 -0.50436566329E+03  0.47666561035E+02  0.16160064689E+04  0.25500000920E-02 0. -1.
       -2    1    3    3    0  502  0.15345423044E+04  0.50436566329E+03 -0.67699741461E+03  0.17514366405E+04  0.25500000920E-02 0.  1.
</event>
<event>
 5   0  0.4521737E-07  0.3394954E+04  0.7818609E-02  0.8139146E-01
        2   -1    0    0  501    0  0.00000000000E+00  0.00000000000E+00  0.11049857230E+04  0.11049857230E+04  0.25500000920E-02 0. -1.
       -2   -1    0    0    0  501  0.00000000000E+00  0.00000000000E+00 -0.26076607468E+04  0.26076607468E+04  0.25500000920E-02 0.  1.
    10030    2    1    2    0    0  0.00000000000E+00  0.00000000000E+00 -0.15026750238E+04  0.37126464699E+04  0.33949538411E+04 0.  0.
        4    1    3    3  502    0 -0.14035418292E+04 -0.95171478256E+03 -0.66851684156E+03  0.18228019843E+04  0.12699999809E+01 0.  1.
       -4    1    3    3    0  502  0.14035418292E+04  0.95171478256E+03 -0.83415818225E+03  0.18898444856E+04  0.12699999809E+01 0. -1.
</event>
<event>
 5   0  0.1473755E-07  0.3392690E+04  0.7818609E-02  0.8139703E-01
       -1   -1    0    0    0  501  0.00000000000E+00  0.00000000000E+00  0.17793558284E+04  0.17793558284E+04  0.50400001928E-02 0. -1.
        1   -1    0    0  501    0  0.00000000000E+00  0.00000000000E+00 -0.16172066533E+04  0.16172066533E+04  0.50400001928E-02 0.  1.
    10030    2    1    2    0    0  0.00000000000E+00  0.00000000000E+00  0.16214917506E+03  0.33965624817E+04  0.33926898381E+04 0.  0.
        1    1    3    3  502    0  0.42681738664E+03 -0.34992369869E+03  0.16869524387E+04  0.17749445645E+04  0.50400001928E-02 0. -1.
       -1    1    3    3    0  502 -0.42681738664E+03  0.34992369869E+03 -0.15248032637E+04  0.16216179172E+04  0.50400001928E-02 0.  1.
</event>
<event>
 5   0  0.4396257E-07  0.3449162E+04  0.7818609E-02  0.8125945E-01
        2   -1    0    0  501    0  0.00000000000E+00  0.00000000000E+00  0.17342070738E+04  0.17342070738E+04  0.25500000920E-02 0. -1.
       -2   -1    0    0    0  501  0.00000000000E+00  0.00000000000E+00 -0.17150079542E+04  0.17150079542E+04  0.25500000920E-02 0.  1.
    10030    2    1    2    0    0  0.00000000000E+00  0.00000000000E+00  0.19199119663E+02  0.34492150280E+04  0.34491615942E+04 0.  0.
        2    1    3    3  502    0  0.84997069691E+03  0.43773315210E+03 -0.14257339408E+04  0.17166181195E+04  0.25500000920E-02 0.  1.
       -2    1    3    3    0  502 -0.84997069691E+03 -0.43773315210E+03  0.14449330605E+04  0.17325969085E+04  0.25500000920E-02 0. -1.
</event>
<event>
 5   0  0.1421875E-07  0.3403231E+04  0.7818609E-02  0.8137114E-01
        1   -1    0    0  501    0  0.00000000000E+00  0.00000000000E+00  0.16791157580E+04  0.16791157580E+04  0.50400001928E-02 0. -1.
       -1   -1    0    0    0  501  0.00000000000E+00  0.00000000000E+00 -0.17244163102E+04  0.17244163102E+04  0.50400001928E-02 0.  1.
    10030    2    1    2    0    0  0.00000000000E+00  0.00000000000E+00 -0.45300552216E+02  0.34035320681E+04  0.34032305827E+04 0.  0.
        5    1    3    3  502    0  0.16438707603E+04 -0.43057007233E+03  0.65509935304E+02  0.17005926336E+04  0.46999998093E+01 0. -1.
       -5    1    3    3    0  502 -0.16438707603E+04  0.43057007233E+03 -0.11081048752E+03  0.17029394346E+04  0.46999998093E+01 0.  1.
</event>
<event>
 5   0  0.1435806E-07  0.3401687E+04  0.7818609E-02  0.8137493E-01
       -1   -1    0    0    0  501  0.00000000000E+00  0.00000000000E+00  0.14162943274E+04  0.14162943274E+04  0.50400001928E-02 0.  1.
        1   -1    0    0  501    0  0.00000000000E+00  0.00000000000E+00 -0.20425611451E+04  0.20425611451E+04  0.50400001928E-02 0. -1.
    10030    2    1    2    0    0  0.00000000000E+00  0.00000000000E+00 -0.62626681773E+03  0.34588554725E+04  0.34016865012E+04 0.  0.
        3    1    3    3  502    0  0.85955719073E+03  0.25930324682E+03  0.11557171334E+04  0.14634749197E+04  0.10100000352E+00 0.  1.
       -3    1    3    3    0  502 -0.85955719073E+03 -0.25930324682E+03 -0.17819839511E+04  0.19953805527E+04  0.10100000352E+00 0. -1.
</event>
<event>
 5   0  0.4447909E-07  0.3415708E+04  0.7818609E-02  0.8134062E-01
        2   -1    0    0  501    0  0.00000000000E+00  0.00000000000E+00  0.16970821669E+04  0.16970821669E+04  0.25500000920E-02 0.  1.
       -2   -1    0    0    0  501  0.00000000000E+00  0.00000000000E+00 -0.17186944932E+04  0.17186944932E+04  0.25500000920E-02 0. -1.
    10030    2    1    2    0    0  0.00000000000E+00  0.00000000000E+00 -0.21612326334E+02  0.34157766601E+04  0.34157082865E+04 0.  0.
        5    1    3    3  502    0  0.13521761675E+03 -0.32863146177E+03 -0.16813069742E+04  0.17184579346E+04  0.46999998093E+01 0. -1.
       -5    1    3    3    0  502 -0.13521761675E+03  0.32863146177E+03  0.16596946479E+04  0.16973187254E+04  0.46999998093E+01 0.  1.
</event>
<event>
 5   0  0.1421875E-07  0.3396143E+04  0.7818609E-02  0.8138854E-01
       -1   -1    0    0    0  501  0.00000000000E+00  0.00000000000E+00  0.20337702040E+04  0.20337702040E+04  0.50400001928E-02 0.  1.
        1   -1    0    0  501    0  0.00000000000E+00  0.00000000000E+00 -0.14177839893E+04  0.14177839893E+04  0.50400001928E-02 0. -1.
    10030    2    1    2    0    0  0.00000000000E+00  0.00000000000E+00  0.61598621468E+03  0.34515541933E+04  0.33961430083E+04 0.  0.
        5    1    3    3  502    0 -0.14943613336E+03  0.86110116652E+03  0.17876312393E+04  0.19898426859E+04  0.46999998093E+01 0.  1.
       -5    1    3    3    0  502  0.14943613336E+03 -0.86110116652E+03 -0.11716450247E+04  0.14617115074E+04  0.46999998093E+01 0. -1.
</event>
<event>
 5   0  0.4381939E-07  0.3402123E+04  0.7818609E-02  0.8137386E-01
        2   -1    0    0  501    0  0.00000000000E+00  0.00000000000E+00  0.15763980550E+04  0.15763980550E+04  0.25500000920E-02 0. -1.
       -2   -1    0    0    0  501  0.00000000000E+00  0.00000000000E+00 -0.18355832966E+04  0.18355832966E+04  0.25500000920E-02 0.  1.
    10030    2    1    2    0    0  0.00000000000E+00  0.00000000000E+00 -0.25918524160E+03  0.34119813516E+04  0.34021228306E+04 0.  0.
        3    1    3    3  502    0  0.22556410525E+03  0.67638941577E+03  0.14193011027E+04  0.15883316523E+04  0.10100000352E+00 0. -1.
       -3    1    3    3    0  502 -0.22556410525E+03 -0.67638941577E+03 -0.16784863443E+04  0.18236496993E+04  0.10100000352E+00 0.  1.
</event>
<event>
 5   0  0.1473755E-07  0.3402837E+04  0.7818609E-02  0.8137210E-01
       -1   -1    0    0    0  501  0.00000000000E+00  0.00000000000E+00  0.18672775097E+04  0.18672775098E+04  0.50400001928E-02 0.  1.
        1   -1    0    0  501    0  0.00000000000E+00  0.00000000000E+00 -0.15502916667E+04  0.15502916667E+04  0.50400001928E-02 0. -1.
    10030    2    1    2    0    0  0.00000000000E+00  0.00000000000E+00  0.31698584309E+03  0.34175691764E+04  0.34028369122E+04 0.  0.
        1    1    3    3  502    0 -0.11372019549E+02 -0.11107797739E+04 -0.11358316023E+04  0.15887336019E+04  0.50400001928E-02 0. -1.
       -1    1    3    3    0  502  0.11372019549E+02  0.11107797739E+04  0.14528174454E+04  0.18288355745E+04  0.50400001928E-02 0.  1.
</event>
<event>
 5   0  0.1421875E-07  0.3334496E+04  0.7818609E-02  0.8154173E-01
        1   -1    0    0  501    0  0.00000000000E+00  0.00000000000E+00  0.23897993867E+04  0.23897993867E+04  0.50400001928E-02 0.  1.
       -1   -1    0    0    0  501  0.00000000000E+00  0.00000000000E+00 -0.11631587290E+04  0.11631587290E+04  0.50400001928E-02 0. -1.
    10030    2    1    2    0    0  0.00000000000E+00  0.00000000000E+00  0.12266406577E+04  0.35529581157E+04  0.33344960741E+04 0.  0.
        5    1    3    3  502    0  0.12056142468E+04  0.52396559664E+03 -0.47936505272E+03  0.13992350061E+04  0.46999998093E+01 0. -1.
       -5    1    3    3    0  502 -0.12056142468E+04 -0.52396559664E+03  0.17060057104E+04  0.21537231095E+04  0.46999998093E+01 0.  1.
</event>
<event>
 5   0  0.4381939E-07  0.3401352E+04  0.7818609E-02  0.8137575E-01
        2   -1    0    0  501    0  0.00000000000E+00  0.00000000000E+00  0.22188218965E+04  0.22188218965E+04  0.25500000920E-02 0. -1.
       -2   -1    0    0    0  501  0.00000000000E+00  0.00000000000E+00 -0.13035288689E+04  0.13035288689E+04  0.25500000920E-02 0.  1.
    10030    2    1    2    0    0  0.00000000000E+00  0.00000000000E+00  0.91529302759E+03  0.35223507655E+04  0.34013517296E+04 0.  0.
        3    1    3    3  502    0 -0.63263733724E+02 -0.12906246817E+04 -0.68739284484E+03  0.14636335957E+04  0.10100000352E+00 0.  1.
       -3    1    3    3    0  502  0.63263733724E+02  0.12906246817E+04  0.16026858724E+04  0.20587171698E+04  0.10100000352E+00 0. -1.
</event>
<event>
 5   0  0.4447909E-07  0.3386758E+04  0.7818609E-02  0.8141164E-01
       -2   -1    0    0    0  501  0.00000000000E+00  0.00000000000E+00  0.14044649352E+04  0.14044649352E+04  0.25500000920E-02 0. -1.
        2   -1    0    0  501    0  0.00000000000E+00  0.00000000000E+00 -0.20417260777E+04  0.20417260777E+04  0.25500000920E-02 0.  1.
    10030    2    1    2    0    0  0.00000000000E+00  0.00000000000E+00 -0.63726114251E+03  0.34461910130E+04  0.33867581452E+04 0.  0.
        5    1    3    3  502    0 -0.16928481658E+04  0.28928928147E+02 -0.34980807242E+03  0.17288607731E+04  0.46999998093E+01 0. -1.
       -5    1    3    3    0  502  0.16928481658E+04 -0.28928928147E+02 -0.28745307008E+03  0.17173302399E+04  0.46999998093E+01 0.  1.
</event>
<event>
 5   0  0.4447909E-07  0.3399841E+04  0.7818609E-02  0.8137945E-01
        2   -1    0    0  501    0  0.00000000000E+00  0.00000000000E+00  0.26668744180E+04  0.26668744180E+04  0.25500000920E-02 0.  1.
       -2   -1    0    0    0  501  0.00000000000E+00  0.00000000000E+00 -0.10835643386E+04  0.10835643386E+04  0.25500000920E-02 0. -1.
    10030    2    1    2    0    0  0.00000000000E+00  0.00000000000E+00  0.15833100794E+04  0.37504387567E+04  0.33998411816E+04 0.  0.
        5    1    3    3  502    0  0.11001910915E+04 -0.43244103649E+02 -0.63705476187E+03  0.12720657805E+04  0.46999998093E+01 0. -1.
       -5    1    3    3    0  502 -0.11001910915E+04  0.43244103649E+02  0.22203648413E+04  0.24783729761E+04  0.46999998093E+01 0.  1.
</event>
<event>
 5   0  0.1523259E-07  0.3405571E+04  0.7818609E-02  0.8136540E-01
        1   -1    0    0  501    0  0.00000000000E+00  0.00000000000E+00  0.85644664594E+03  0.85644664595E+03  0.50400001928E-02 0. -1.
       -1   -1    0    0    0  501  0.00000000000E+00  0.00000000000E+00 -0.33854748248E+04  0.33854748248E+04  0.50400001928E-02 0.  1.
    10030    2    1    2    0    0  0.00000000000E+00  0.00000000000E+00 -0.25290281789E+04  0.42419214708E+04  0.34055710585E+04 0.  0.
        4    1    3    3  502    0 -0.14006342651E+04  0.37607798074E+03 -0.23759943425E+04  0.27836238468E+04  0.12699999809E+01 0.  1.
       -4    1    3    3    0  502  0.14006342651E+04 -0.37607798074E+03 -0.15303383636E+03  0.14582976240E+04  0.12699999809E+01 0. -1.
</event>
<event>
 5   0  0.1421875E-07  0.3424094E+04  0.7818609E-02  0.8132018E-01
        3   -1    0    0  501    0  0.00000000000E+00  0.00000000000E+00  0.17460697446E+04  0.17460697475E+04  0.10100000352E+00 0.  1.
       -3   -1    0    0    0  501  0.00000000000E+00  0.00000000000E+00 -0.16786867254E+04  0.16786867284E+04  0.10100000352E+00 0. -1.
    10030    2    1    2    0    0  0.00000000000E+00  0.00000000000E+00  0.67383019220E+02  0.34247564759E+04  0.34240935221E+04 0.  0.
        1    1    3    3  502    0  0.40007707244E+03  0.15925612599E+04  0.51833778072E+03  0.17219137857E+04  0.50400001928E-02 0.  1.
       -1    1    3    3    0  502 -0.40007707244E+03 -0.15925612599E+04 -0.45095476149E+03  0.17028426902E+04  0.50400001928E-02 0. -1.
</event>
<event>
 5   0  0.1523259E-07  0.3363225E+04  0.7818609E-02  0.8146991E-01
        1   -1    0    0  501    0  0.00000000000E+00  0.00000000000E+00  0.29816352422E+04  0.29816352422E+04  0.50400001928E-02 0. -1.
       -1   -1    0    0    0  501  0.00000000000E+00  0.00000000000E+00 -0.94841289710E+03  0.94841289711E+03  0.50400001928E-02 0.  1.
    10030    2    1    2    0    0  0.00000000000E+00  0.00000000000E+00  0.20332223451E+04  0.39300481394E+04  0.33632254270E+04 0.  0.
        4    1    3    3  502    0  0.12227159796E+04  0.77002441213E+03  0.11502387162E+02  0.14450279858E+04  0.12699999809E+01 0.  1.
       -4    1    3    3    0  502 -0.12227159796E+04 -0.77002441213E+03  0.20217199580E+04  0.24850201535E+04  0.12699999809E+01 0. -1.
</event>
<event>
 5   0  0.1435806E-07  0.3400064E+04  0.7818609E-02  0.8137891E-01
        1   -1    0    0  501    0  0.00000000000E+00  0.00000000000E+00  0.15276155130E+04  0.15276155130E+04  0.50400001928E-02 0.  1.
       -1   -1    0    0    0  501  0.00000000000E+00  0.00000000000E+00 -0.18919084340E+04  0.18919084340E+04  0.50400001928E-02 0. -1.
    10030    2    1    2    0    0  0.00000000000E+00  0.00000000000E+00 -0.36429292102E+03  0.34195239471E+04  0.34000639247E+04 0.  0.
        3    1    3    3  502    0 -0.71233264943E+03 -0.15132065998E+04  0.12438749101E+03  0.16771059225E+04  0.10100000352E+00 0. -1.
       -3    1    3    3    0  502  0.71233264943E+03  0.15132065998E+04 -0.48868041203E+03  0.17424180246E+04  0.10100000352E+00 0.  1.
</event>
<event>
 5   0  0.1473755E-07  0.3391001E+04  0.7818609E-02  0.8140119E-01
        1   -1    0    0  501    0  0.00000000000E+00  0.00000000000E+00  0.20628216140E+04  0.20628216140E+04  0.50400001928E-02 0.  1.
       -1   -1    0    0    0  501  0.00000000000E+00  0.00000000000E+00 -0.13935872128E+04  0.13935872128E+04  0.50400001928E-02 0. -1.
    10030    2    1    2    0    0  0.00000000000E+00  0.00000000000E+00  0.66923440121E+03  0.34564088269E+04  0.33910009282E+04 0.  0.
        1    1    3    3  502    0  0.13388577623E+04  0.43616580415E+03  0.12972602665E+04  0.19145926239E+04  0.50400001928E-02 0.  1.
       -1    1    3    3    0  502 -0.13388577623E+04 -0.43616580415E+03 -0.62802586532E+03  0.15418162030E+04  0.50400001928E-02 0. -1.
</event>
<event>
 5   0  0.4381939E-07  0.3398783E+04  0.7818609E-02  0.8138205E-01
        2   -1    0    0  501    0  0.00000000000E+00  0.00000000000E+00  0.22690307836E+04  0.22690307836E+04  0.25500000920E-02 0. -1.
       -2   -1    0    0    0  501  0.00000000000E+00  0.00000000000E+00 -0.12727602025E+04  0.12727602025E+04  0.25500000920E-02 0.  1.
    10030    2    1    2    0    0  0.00000000000E+00  0.00000000000E+00  0.99627058115E+03  0.35417909861E+04  0.33987833586E+04 0.  0.
        3    1    3    3  502    0  0.24917024840E+03  0.16808577835E+04  0.47340121534E+03  0.17639380437E+04  0.10100000352E+00 0. -1.
       -3    1    3    3    0  502 -0.24917024840E+03 -0.16808577835E+04  0.52286936581E+03  0.17778529424E+04  0.10100000352E+00 0.  1.
</event>
<event>
 5   0  0.4447909E-07  0.3408383E+04  0.7818609E-02  0.8135852E-01
       -2   -1    0    0    0  501  0.00000000000E+00  0.00000000000E+00  0.96643243838E+03  0.96643243839E+03  0.25500000920E-02 0. -1.
        2   -1    0    0  501    0  0.00000000000E+00  0.00000000000E+00 -0.30051445717E+04  0.30051445717E+04  0.25500000920E-02 0.  1.
    10030    2    1    2    0    0  0.00000000000E+00  0.00000000000E+00 -0.20387121333E+04  0.39715770101E+04  0.34083833095E+04 0.  0.
        5    1    3    3  502    0  0.13464171618E+04  0.21009935855E+03 -0.22118140900E+04  0.25979077298E+04  0.46999998093E+01 0.  1.
       -5    1    3    3    0  502 -0.13464171618E+04 -0.21009935855E+03  0.17310195672E+03  0.13736692802E+04  0.46999998093E+01 0. -1.
</event>
<event>
 5   0  0.4447909E-07  0.3399459E+04  0.7818609E-02  0.8138039E-01
       -2   -1    0    0    0  501  0.00000000000E+00  0.00000000000E+00  0.14502588962E+04  0.14502588962E+04  0.25500000920E-02 0. -1.
        2   -1    0    0  501    0  0.00000000000E+00  0.00000000000E+00 -0.19921141136E+04  0.19921141136E+04  0.25500000920E-02 0.  1.
    10030    2    1    2    0    0  0.00000000000E+00  0.00000000000E+00 -0.54185521739E+03  0.34423730098E+04  0.33994594955E+04 0.  0.
        5    1    3    3  502    0 -0.10467742266E+04 -0.73621117289E+03  0.86181581033E+03  0.15428842321E+04  0.46999998093E+01 0. -1.
       -5    1    3    3    0  502  0.10467742266E+04  0.73621117289E+03 -0.14036710277E+04  0.18994887777E+04  0.46999998093E+01 0.  1.
</event>
<event>
 5   0  0.1473755E-07  0.3393291E+04  0.7818609E-02  0.8139555E-01
       -1   -1    0    0    0  501  0.00000000000E+00  0.00000000000E+00  0.18289158040E+04  0.18289158040E+04  0.50400001928E-02 0.  1.
        1   -1    0    0  501    0  0.00000000000E+00  0.00000000000E+00 -0.15739413456E+04  0.15739413456E+04  0.50400001928E-02 0. -1.
    10030    2    1    2    0    0  0.00000000000E+00  0.00000000000E+00  0.25497445838E+03  0.34028571496E+04  0.33932911467E+04 0.  0.
        1    1    3    3  502    0  0.16116075571E+04 -0.51978007983E+03  0.23340672727E+03  0.17093650721E+04  0.50400001928E-02 0.  1.
       -1    1    3    3    0  502 -0.16116075571E+04  0.51978007983E+03  0.21567731113E+02  0.16934920775E+04  0.50400001928E-02 0. -1.
</event>
<event>
 5   0  0.4486226E-07  0.3384487E+04  0.7818609E-02  0.8141724E-01
        2   -1    0    0  501    0  0.00000000000E+00  0.00000000000E+00  0.18923903018E+04  0.18923903018E+04  0.25500000920E-02 0.  1.
       -2   -1    0    0    0  501  0.00000000000E+00  0.00000000000E+00 -0.15132653799E+04  0.15132653799E+04  0.25500000920E-02 0. -1.
    10030    2    1    2    0    0  0.00000000000E+00  0.00000000000E+00  0.37912492189E+03  0.34056556817E+04  0.33844873933E+04 0.  0.
        1    1    3    3  502    0  0.38797207907E+03  0.72009248343E+03 -0.13011325930E+04  0.15368804584E+04  0.50400001928E-02 0. -1.
       -1    1    3    3    0  502 -0.38797207907E+03 -0.72009248343E+03  0.16802575149E+04  0.18687752233E+04  0.50400001928E-02 0.  1.
</event>
<event>
 5   0  0.4486226E-07  0.3386212E+04  0.7818609E-02  0.8141299E-01
        2   -1    0    0  501    0  0.00000000000E+00  0.00000000000E+00  0.19962769142E+04  0.19962769142E+04  0.25500000920E-02 0.  1.
       -2   -1    0    0    0  501  0.00000000000E+00  0.00000000000E+00 -0.14359767160E+04  0.14359767160E+04  0.25500000920E-02 0. -1.
    10030    2    1    2    0    0  0.00000000000E+00  0.00000000000E+00  0.56030019822E+03  0.34322536302E+04  0.33862115513E+04 0.  0.
        1    1    3    3  502    0  0.52896599046E+03 -0.22947101918E+03  0.18936949202E+04  0.19795308582E+04  0.50400001928E-02 0.  1.
       -1    1    3    3    0  502 -0.52896599046E+03  0.22947101918E+03 -0.13333947220E+04  0.14527227720E+04  0.50400001928E-02 0. -1.
</event>
<event>
 5   0  0.1435806E-07  0.3420270E+04  0.7818609E-02  0.8132949E-01
       -1   -1    0    0    0  501  0.00000000000E+00  0.00000000000E+00  0.14704692812E+04  0.14704692812E+04  0.50400001928E-02 0. -1.
        1   -1    0    0  501    0  0.00000000000E+00  0.00000000000E+00 -0.19888631237E+04  0.19888631237E+04  0.50400001928E-02 0.  1.
    10030    2    1    2    0    0  0.00000000000E+00  0.00000000000E+00 -0.51839384248E+03  0.34593324049E+04  0.34202702396E+04 0.  0.
        3    1    3    3  502    0 -0.32774615931E+03 -0.15718449307E+04 -0.85451758467E+03  0.18188772207E+04  0.10100000352E+00 0.  1.
       -3    1    3    3    0  502  0.32774615931E+03  0.15718449307E+04  0.33612374218E+03  0.16404551842E+04  0.10100000352E+00 0. -1.
</event>
<event>
 5   0  0.4521737E-07  0.3403409E+04  0.7818609E-02  0.8137070E-01
        2   -1    0    0  501    0  0.00000000000E+00  0.00000000000E+00  0.24956277709E+04  0.24956277709E+04  0.25500000920E-02 0. -1.
       -2   -1    0    0    0  501  0.00000000000E+00  0.00000000000E+00 -0.11603487127E+04  0.11603487127E+04  0.25500000920E-02 0.  1.
    10030    2    1    2    0    0  0.00000000000E+00  0.00000000000E+00  0.13352790582E+04  0.36559764836E+04  0.34034091564E+04 0.  0.
        4    1    3    3  502    0 -0.28722487760E+03 -0.95764110922E+03  0.21468632001E+04  0.23682478412E+04  0.12699999809E+01 0. -1.
       -4    1    3    3    0  502  0.28722487760E+03  0.95764110922E+03 -0.81158414187E+03  0.12877286425E+04  0.12699999809E+01 0.  1.
</event>
<event>
 5   0  0.1520084E-07  0.3391949E+04  0.7818609E-02  0.8139885E-01
       -1   -1    0    0    0  501  0.00000000000E+00  0.00000000000E+00  0.12205520505E+04  0.12205520505E+04  0.50400001928E-02 0.  1.
        1   -1    0    0  501    0  0.00000000000E+00  0.00000000000E+00 -0.23565806399E+04  0.23565806399E+04  0.50400001928E-02 0. -1.
    10030    2    1    2    0    0  0.00000000000E+00  0.00000000000E+00 -0.11360285894E+04  0.35771326903E+04  0.33919488982E+04 0.  0.
        2    1    3    3  502    0  0.11545893286E+04  0.11823147186E+04 -0.16590405534E+03  0.16608638618E+04  0.25500000920E-02 0.  1.
       -2    1    3    3    0  502 -0.11545893286E+04 -0.11823147186E+04 -0.97012453406E+03  0.19162688286E+04  0.25500000920E-02 0. -1.
</event>
<event>
 5   0  0.4396257E-07  0.3391880E+04  0.7818609E-02  0.8139902E-01
       -2   -1    0    0    0  501  0.00000000000E+00  0.00000000000E+00  0.14625987267E+04  0.14625987267E+04  0.25500000920E-02 0.  1.
        2   -1    0    0  501    0  0.00000000000E+00  0.00000000000E+00 -0.19665085703E+04  0.19665085703E+04  0.25500000920E-02 0. -1.
    10030    2    1    2    0    0  0.00000000000E+00  0.00000000000E+00 -0.50390984354E+03  0.34291072970E+04  0.33918802638E+04 0.  0.
        2    1    3    3  502    0 -0.11053188125E+04  0.12817514190E+04 -0.14308572109E+03  0.16985552392E+04  0.25500000920E-02 0. -1.
       -2    1    3    3    0  502  0.11053188125E+04 -0.12817514190E+04 -0.36082412245E+03  0.17305520577E+04  0.25500000920E-02 0.  1.
</event>
<event>
 5   0  0.1435806E-07  0.3396044E+04  0.7818609E-02  0.8138878E-01
        1   -1    0    0  501    0  0.00000000000E+00  0.00000000000E+00  0.21259622702E+04  0.21259622702E+04  0.50400001928E-02 0.  1.
       -1   -1    0    0    0  501  0.00000000000E+00  0.00000000000E+00 -0.13562231977E+04  0.13562231978E+04  0.50400001928E-02 0. -1.
    10030    2    1    2    0    0  0.00000000000E+00  0.00000000000E+00  0.76973907244E+03  0.34821854679E+04  0.33960443745E+04 0.  0.
        3    1    3    3  502    0  0.47741156226E+03  0.61161901851E+03 -0.11638322947E+04  0.13987513160E+04  0.10100000352E+00 0. -1.
       -3    1    3    3    0  502 -0.47741156226E+03 -0.61161901851E+03  0.19335713671E+04  0.20834341520E+04  0.10100000352E+00 0.  1.
</event>
<event>
 5   0  0.4396257E-07  0.3346870E+04  0.7818609E-02  0.8151071E-01
       -2   -1    0    0    0  501  0.00000000000E+00  0.00000000000E+00  0.11100958856E+04  0.11100958856E+04  0.25500000920E-02 0.  1.
        2   -1    0    0  501    0  0.00000000000E+00  0.00000000000E+00 -0.25226507147E+04  0.25226507147E+04  0.25500000920E-02 0. -1.
    10030    2    1    2    0    0  0.00000000000E+00  0.00000000000E+00 -0.14125548291E+04  0.36327466002E+04  0.33468696892E+04 0.  0.
        2    1    3    3  502    0  0.52215393118E+03  0.15067454568E+04 -0.12570206135E+04  0.20305239280E+04  0.25500000920E-02 0.  1.
       -2    1    3    3    0  502 -0.52215393118E+03 -0.15067454568E+04 -0.15553421561E+03  0.16022226723E+04  0.25500000920E-02 0. -1.
</event>
<event>
 5   0  0.4447909E-07  0.3407868E+04  0.7818609E-02  0.8135978E-01
       -2   -1    0    0    0  501  0.00000000000E+00  0.00000000000E+00  0.11788484848E+04  0.11788484848E+04  0.25500000920E-02 0. -1.
        2   -1    0    0  501    0  0.00000000000E+00  0.00000000000E+00 -0.24629038431E+04  0.24629038431E+04  0.25500000920E-02 0.  1.
    10030    2    1    2    0    0  0.00000000000E+00  0.00000000000E+00 -0.12840553584E+04  0.36417523279E+04  0.34078676404E+04 0.  0.
        5    1    3    3  502    0 -0.11256306669E+04 -0.11281202453E+04  0.24095807098E+01  0.15936522777E+04  0.46999998093E+01 0.  1.
       -5    1    3    3    0  502  0.11256306669E+04  0.11281202453E+04 -0.12864649391E+04  0.20481000502E+04  0.46999998093E+01 0. -1.
</event>
<event>
 5   0  0.4447909E-07  0.3405643E+04  0.7818609E-02  0.8136523E-01
       -2   -1    0    0    0  501  0.00000000000E+00  0.00000000000E+00  0.15279566240E+04  0.15279566240E+04  0.25500000920E-02 0.  1.
        2   -1    0    0  501    0  0.00000000000E+00  0.00000000000E+00 -0.18976988618E+04  0.18976988618E+04  0.25500000920E-02 0. -1.
    10030    2    1    2    0    0  0.00000000000E+00  0.00000000000E+00 -0.36974223783E+03  0.34256554859E+04  0.34056432851E+04 0.  0.
        5    1    3    3  502    0 -0.82627703771E+03 -0.44320772217E+03  0.12448935617E+04  0.15585085492E+04  0.46999998093E+01 0.  1.
       -5    1    3    3    0  502  0.82627703771E+03  0.44320772217E+03 -0.16146357995E+04  0.18671469367E+04  0.46999998093E+01 0. -1.
</event>
<event>
 5   0  0.4447909E-07  0.3437601E+04  0.7818609E-02  0.8128739E-01
        2   -1    0    0  501    0  0.00000000000E+00  0.00000000000E+00  0.21967814548E+04  0.21967814548E+04  0.25500000920E-02 0.  1.
       -2   -1    0    0    0  501  0.00000000000E+00  0.00000000000E+00 -0.13448196538E+04  0.13448196538E+04  0.25500000920E-02 0. -1.
    10030    2    1    2    0    0  0.00000000000E+00  0.00000000000E+00  0.85196180095E+03  0.35416011086E+04  0.34376008352E+04 0.  0.
        5    1    3    3  502    0 -0.62535537370E+02  0.11910930098E+04 -0.84905520383E+03  0.14640799433E+04  0.46999998093E+01 0. -1.
       -5    1    3    3    0  502  0.62535537370E+02 -0.11910930098E+04  0.17010170048E+04  0.20775211652E+04  0.46999998093E+01 0.  1.
</event>
<event>
 5   0  0.1435806E-07  0.3404620E+04  0.7818609E-02  0.8136773E-01
       -1   -1    0    0    0  501  0.00000000000E+00  0.00000000000E+00  0.24812820327E+04  0.24812820327E+04  0.50400001928E-02 0.  1.
        1   -1    0    0  501    0  0.00000000000E+00  0.00000000000E+00 -0.11678877088E+04  0.11678877088E+04  0.50400001928E-02 0. -1.
    10030    2    1    2    0    0  0.00000000000E+00  0.00000000000E+00  0.13133943239E+04  0.36491697415E+04  0.34046196781E+04 0.  0.
        3    1    3    3  502    0 -0.13566407811E+04  0.74539691264E+03 -0.10253910585E+03  0.15513236428E+04  0.10100000352E+00 0.  1.
       -3    1    3    3    0  502  0.13566407811E+04 -0.74539691264E+03  0.14159334297E+04  0.20978460987E+04  0.10100000352E+00 0. -1.
</event>
<event>
 5   0  0.1435806E-07  0.3402761E+04  0.7818609E-02  0.8137229E-01
       -1   -1    0    0    0  501  0.00000000000E+00  0.00000000000E+00  0.26788660673E+04  0.26788660673E+04  0.50400001928E-02 0. -1.
        1   -1    0    0  501    0  0.00000000000E+00  0.00000000000E+00 -0.10805674485E+04  0.10805674485E+04  0.50400001928E-02 0.  1.
    10030    2    1    2    0    0  0.00000000000E+00  0.00000000000E+00  0.15982986188E+04  0.37594335159E+04  0.34027609210E+04 0.  0.
        3    1    3    3  502    0 -0.89068711931E+03  0.31278881147E+03  0.23629789752E+04  0.25445687321E+04  0.10100000352E+00 0. -1.
       -3    1    3    3    0  502  0.89068711931E+03 -0.31278881147E+03 -0.76468035640E+03  0.12148647837E+04  0.10100000352E+00 0.  1.
</event>
<event>
 5   0  0.1421875E-07  0.3393380E+04  0.7818609E-02  0.8139533E-01
       -1   -1    0    0    0  501  0.00000000000E+00  0.00000000000E+00  0.15805655379E+04  0.15805655379E+04  0.50400001928E-02 0. -1.
        1   -1    0    0  501    0  0.00000000000E+00  0.00000000000E+00 -0.18213457341E+04  0.18213457341E+04  0.50400001928E-02 0.  1.
    10030    2    1    2    0    0  0.00000000000E+00  0.00000000000E+00 -0.24078019623E+03  0.34019112721E+04  0.33933796133E+04 0.  0.
        5    1    3    3  502    0 -0.43947045331E+03 -0.44859737607E+03  0.14597581295E+04  0.15891160347E+04  0.46999998093E+01 0. -1.
       -5    1    3    3    0  502  0.43947045331E+03  0.44859737607E+03 -0.17005383258E+04  0.18127952373E+04  0.46999998093E+01 0.  1.
</event>
<event>
 5   0  0.4486226E-07  0.3397378E+04  0.7818609E-02  0.8138550E-01
       -2   -1    0    0    0  501  0.00000000000E+00  0.00000000000E+00  0.14114381806E+04  0.14114381806E+04  0.25500000920E-02 0.  1.
        2   -1    0    0  501    0  0.00000000000E+00  0.00000000000E+00 -0.20443995676E+04  0.20443995676E+04  0.25500000920E-02 0. -1.
    10030    2    1    2    0    0  0.00000000000E+00  0.00000000000E+00 -0.63296138697E+03  0.34558377481E+04  0.33973775804E+04 0.  0.
        1    1    3    3  502    0  0.45647567860E+03 -0.89040823994E+03  0.10798553110E+04  0.14721699534E+04  0.50400001928E-02 0.  1.
       -1    1    3    3    0  502 -0.45647567860E+03  0.89040823994E+03 -0.17128166980E+04  0.19836677947E+04  0.50400001928E-02 0. -1.
</event>
<event>
 5   0  0.1421875E-07  0.3437399E+04  0.7818609E-02  0.8128788E-01
        1   -1    0    0  501    0  0.00000000000E+00  0.00000000000E+00  0.23029544084E+04  0.23029544084E+04  0.50400001928E-02 0.  1.
       -1   -1    0    0    0  501  0.00000000000E+00  0.00000000000E+00 -0.12826689436E+04  0.12826689436E+04  0.50400001928E-02 0. -1.
    10030    2    1    2    0    0  0.00000000000E+00  0.00000000000E+00  0.10202854648E+04  0.35856233520E+04  0.34373990738E+04 0.  0.
        5    1    3    3  502    0  0.58675294262E+03 -0.15841251778E+04  0.84029411219E+03  0.18867559141E+04  0.46999998093E+01 0.  1.
       -5    1    3    3    0  502 -0.58675294262E+03  0.15841251778E+04  0.17999135256E+03  0.16988674379E+04  0.46999998093E+01 0. -1.
</event>
<event>
 5   0  0.4486226E-07  0.3406122E+04  0.7818609E-02  0.8136405E-01
       -2   -1    0    0    0  501  0.00000000000E+00  0.00000000000E+00  0.15685333527E+04  0.15685333527E+04  0.25500000920E-02 0. -1.
        2   -1    0    0  501    0  0.00000000000E+00  0.00000000000E+00 -0.18491265415E+04  0.18491265415E+04  0.25500000920E-02 0.  1.
    10030    2    1    2    0    0  0.00000000000E+00  0.00000000000E+00 -0.28059318878E+03  0.34176598942E+04  0.34061219319E+04 0.  0.
        1    1    3    3  502    0 -0.75340104755E+03  0.12968851409E+03 -0.16672875567E+04  0.18341973847E+04  0.50400001928E-02 0.  1.
       -1    1    3    3    0  502  0.75340104755E+03 -0.12968851409E+03  0.13866943679E+04  0.15834625096E+04  0.50400001928E-02 0. -1.
</event>
<event>
 5   0  0.4381939E-07  0.3398585E+04  0.7818609E-02  0.8138254E-01
        2   -1    0    0  501    0  0.00000000000E+00  0.00000000000E+00  0.21090887837E+04  0.21090887837E+04  0.25500000920E-02 0. -1.
       -2   -1    0    0    0  501  0.00000000000E+00  0.00000000000E+00 -0.13691193740E+04  0.13691193740E+04  0.25500000920E-02 0.  1.
    10030    2    1    2    0    0  0.00000000000E+00  0.00000000000E+00  0.73996940970E+03  0.34782081577E+04  0.33985845967E+04 0.  0.
        3    1    3    3  502    0  0.10293088052E+04 -0.13295136269E+04  0.11823128189E+03  0.16855449405E+04  0.10100000352E+00 0.  1.
       -3    1    3    3    0  502 -0.10293088052E+04  0.13295136269E+04  0.62173812781E+03  0.17926632172E+04  0.10100000352E+00 0. -1.
</event>
<event>
 5   0  0.4396257E-07  0.3378652E+04  0.7818609E-02  0.8143166E-01
       -2   -1    0    0    0  501  0.00000000000E+00  0.00000000000E+00  0.10337297390E+04  0.10337297391E+04  0.25500000920E-02 0.  1.
        2   -1    0    0  501    0  0.00000000000E+00  0.00000000000E+00 -0.27607046504E+04  0.27607046504E+04  0.25500000920E-02 0. -1.
    10030    2    1    2    0    0  0.00000000000E+00  0.00000000000E+00 -0.17269749114E+04  0.37944343895E+04  0.33786520969E+04 0.  0.
        2    1    3    3  502    0  0.15757160149E+03 -0.12582715909E+04  0.38999533246E+03  0.13267149526E+04  0.25500000920E-02 0.  1.
       -2    1    3    3    0  502 -0.15757160149E+03  0.12582715909E+04 -0.21169702438E+04  0.24677194369E+04  0.25500000920E-02 0. -1.
</event>
<event>
 5   0  0.1520084E-07  0.3390247E+04  0.7818609E-02  0.8140304E-01
        1   -1    0    0  501    0  0.00000000000E+00  0.00000000000E+00  0.22067912338E+04  0.22067912339E+04  0.50400001928E-02 0.  1.
       -1   -1    0    0    0  501  0.00000000000E+00  0.00000000000E+00 -0.13020916619E+04  0.13020916619E+04  0.50400001928E-02 0. -1.
    10030    2    1    2    0    0  0.00000000000E+00  0.00000000000E+00  0.90469957191E+03  0.35088828958E+04  0.33902474631E+04 0.  0.
        2    1    3    3  502    0 -0.91171838168E+03  0.12036781169E+04 -0.34491279836E+03  0.15488822599E+04  0.25500000920E-02 0. -1.
       -2    1    3    3    0  502  0.91171838168E+03 -0.12036781169E+04  0.12496123703E+04  0.19600006359E+04  0.25500000920E-02 0.  1.
</event>
<event>
 5   0  0.4447909E-07  0.3384775E+04  0.7818609E-02  0.8141653E-01
        2   -1    0    0  501    0  0.00000000000E+00  0.00000000000E+00  0.20530460316E+04  0.20530460316E+04  0.25500000920E-02 0.  1.
       -2   -1    0    0    0  501  0.00000000000E+00  0.00000000000E+00 -0.13950854691E+04  0.13950854691E+04  0.25500000920E-02 0. -1.
    10030    2    1    2    0    0  0.00000000000E+00  0.00000000000E+00  0.65796056247E+03  0.34481315007E+04  0.33847745486E+04 0.  0.
        5    1    3    3  502    0  0.10937843586E+04  0.39881731759E+03  0.15802769417E+04  0.19628338642E+04  0.46999998093E+01 0.  1.
       -5    1    3    3    0  502 -0.10937843586E+04 -0.39881731759E+03 -0.92231637923E+03  0.14852976366E+04  0.46999998093E+01 0. -1.
</event>
<event>
 5   0  0.4447909E-07  0.3401295E+04  0.7818609E-02  0.8137588E-01
        2   -1    0    0  501    0  0.00000000000E+00  0.00000000000E+00  0.15460479348E+04  0.15460479348E+04  0.25500000920E-02 0.  1.
       -2   -1    0    0    0  501  0.00000000000E+00  0.00000000000E+00 -0.18707070211E+04  0.18707070211E+04  0.25500000920E-02 0. -1.
    10030    2    1    2    0    0  0.00000000000E+00  0.00000000000E+00 -0.32465908628E+03  0.34167549559E+04  0.34012954747E+04 0.  0.
        5    1    3    3  502    0 -0.23701579511E+03  0.11258604229E+03  0.15255839321E+04  0.15479924186E+04  0.46999998093E+01 0.  1.
       -5    1    3    3    0  502  0.23701579511E+03 -0.11258604229E+03 -0.18502430184E+04  0.18687625374E+04  0.46999998093E+01 0. -1.
</event>
<event>
 5   0  0.4486226E-07  0.3408706E+04  0.7818609E-02  0.8135773E-01
        2   -1    0    0  501    0  0.00000000000E+00  0.00000000000E+00  0.16746143918E+04  0.16746143918E+04  0.25500000920E-02 0.  1.
       -2   -1    0    0    0  501  0.00000000000E+00  0.00000000000E+00 -0.17346200577E+04  0.17346200577E+04  0.25500000920E-02 0. -1.
    10030    2    1    2    0    0  0.00000000000E+00  0.00000000000E+00 -0.60005665968E+02  0.34092344495E+04  0.34087063311E+04 0.  0.
        1    1    3    3  502    0 -0.90409995522E+03 -0.13484157747E+04 -0.54892604852E+03  0.17137507512E+04  0.50400001928E-02 0. -1.
       -1    1    3    3    0  502  0.90409995522E+03  0.13484157747E+04  0.48892038255E+03  0.16954836983E+04  0.50400001928E-02 0.  1.
</event>
<event>
 5   0  0.4521737E-07  0.3391551E+04  0.7818609E-02  0.8139983E-01
        2   -1    0    0  501    0  0.00000000000E+00  0.00000000000E+00  0.15780678558E+04  0.15780678558E+04  0.25500000920E-02 0. -1.
       -2   -1    0    0    0  501  0.00000000000E+00  0.00000000000E+00 -0.18222628397E+04  0.18222628398E+04  0.25500000920E-02 0.  1.
    10030    2    1    2    0    0  0.00000000000E+00  0.00000000000E+00 -0.24419498396E+03  0.34003306955E+04  0.33915509209E+04 0.  0.
        4    1    3    3  502    0 -0.20787759951E+03 -0.30057621354E+03 -0.17823110453E+04  0.18193936989E+04  0.12699999809E+01 0.  1.
       -4    1    3    3    0  502  0.20787759951E+03  0.30057621354E+03  0.15381160613E+04  0.15809369967E+04  0.12699999809E+01 0. -1.
</event>
<event>
 5   0  0.1520084E-07  0.3395152E+04  0.7818609E-02  0.8139097E-01
        1   -1    0    0  501    0  0.00000000000E+00  0.00000000000E+00  0.19212342961E+04  0.19212342961E+04  0.50400001928E-02 0. -1.
       -1   -1    0    0    0  501  0.00000000000E+00  0.00000000000E+00 -0.14999544231E+04  0.14999544231E+04  0.50400001928E-02 0.  1.
    10030    2    1    2    0    0  0.00000000000E+00  0.00000000000E+00  0.42127987301E+03  0.34211887191E+04  0.33951517669E+04 0.  0.
        2    1    3    3  502    0  0.74962338846E+03  0.11697502813E+04 -0.77229594073E+03  0.15895571601E+04  0.25500000920E-02 0.  1.
       -2    1    3    3    0  502 -0.74962338846E+03 -0.11697502813E+04  0.11935758137E+04  0.18316315591E+04  0.25500000920E-02 0. -1.
</event>
<event>
 5   0  0.1520084E-07  0.3394501E+04  0.7818609E-02  0.8139257E-01
        1   -1    0    0  501    0  0.00000000000E+00  0.00000000000E+00  0.17485991492E+04  0.17485991492E+04  0.50400001928E-02 0.  1.
       -1   -1    0    0    0  501  0.00000000000E+00  0.00000000000E+00 -0.16474095816E+04  0.16474095816E+04  0.50400001928E-02 0. -1.
    10030    2    1    2    0    0  0.00000000000E+00  0.00000000000E+00  0.10118956761E+03  0.33960087308E+04  0.33945008427E+04 0.  0.
        2    1    3    3  502    0 -0.32730908684E+03  0.80973412982E+03 -0.14053380375E+04  0.16546224944E+04  0.25500000920E-02 0. -1.
       -2    1    3    3    0  502  0.32730908684E+03 -0.80973412982E+03  0.15065276051E+04  0.17413862364E+04  0.25500000920E-02 0.  1.
</event>
<event>
 5   0  0.4447909E-07  0.3384010E+04  0.7818609E-02  0.8141842E-01
        2   -1    0    0  501    0  0.00000000000E+00  0.00000000000E+00  0.21117741641E+04  0.21117741641E+04  0.25500000920E-02 0.  1.
       -2   -1    0    0    0  501  0.00000000000E+00  0.00000000000E+00 -0.13556757602E+04  0.13556757602E+04  0.25500000920E-02 0. -1.
    10030    2    1    2    0    0  0.00000000000E+00  0.00000000000E+00  0.75609840384E+03  0.34674499243E+04  0.33840100741E+04 0.  0.
        5    1    3    3  502    0 -0.40904285481E+02 -0.13586777860E+04 -0.65435598404E+03  0.15086027743E+04  0.46999998093E+01 0. -1.
       -5    1    3    3    0  502  0.40904285481E+02  0.13586777860E+04  0.14104543879E+04  0.19588471500E+04  0.46999998093E+01 0.  1.
</event>
<event>
 5   0  0.4381939E-07  0.3396975E+04  0.7818609E-02  0.8138649E-01
        2   -1    0    0  501    0  0.00000000000E+00  0.00000000000E+00  0.11059917876E+04  0.11059917876E+04  0.25500000920E-02 0. -1.
       -2   -1    0    0    0  501  0.00000000000E+00  0.00000000000E+00 -0.26083917596E+04  0.26083917596E+04  0.25500000920E-02 0.  1.
    10030    2    1    2    0    0  0.00000000000E+00  0.00000000000E+00 -0.15023999720E+04  0.37143835472E+04  0.33969750456E+04 0.  0.
        3    1    3    3  502    0 -0.39369163515E+03  0.16138221240E+04 -0.36392370325E+03  0.17005456252E+04  0.10100000352E+00 0. -1.
       -3    1    3    3    0  502  0.39369163515E+03 -0.16138221240E+04 -0.11384762687E+04  0.20138379220E+04  0.10100000352E+00 0.  1.
</event>
<event>
 5   0  0.1520084E-07  0.3400684E+04  0.7818609E-02  0.8137739E-01
       -1   -1    0    0    0  501  0.00000000000E+00  0.00000000000E+00  0.27516156833E+04  0.27516156833E+04  0.50400001928E-02 0.  1.
        1   -1    0    0  501    0  0.00000000000E+00  0.00000000000E+00 -0.10507144352E+04  0.10507144352E+04  0.50400001928E-02 0. -1.
    10030    2    1    2    0    0  0.00000000000E+00  0.00000000000E+00  0.17009012481E+04  0.38023301185E+04  0.34006836481E+04 0.  0.
        2    1    3    3  502    0 -0.92848772728E+03 -0.58429264741E+03 -0.60208900545E+03  0.12513986287E+04  0.25500000920E-02 0. -1.
       -2    1    3    3    0  502  0.92848772728E+03  0.58429264741E+03  0.23029902535E+04  0.25509314897E+04  0.25500000920E-02 0.  1.
</event>
<event>
 5   0  0.4521737E-07  0.3405813E+04  0.7818609E-02  0.8136481E-01
        2   -1    0    0  501    0  0.00000000000E+00  0.00000000000E+00  0.24362517121E+04  0.24362517121E+04  0.25500000920E-02 0. -1.
       -2   -1    0    0    0  501  0.00000000000E+00  0.00000000000E+00 -0.11903081706E+04  0.11903081706E+04  0.25500000920E-02 0.  1.
    10030    2    1    2    0    0  0.00000000000E+00  0.00000000000E+00  0.12459435415E+04  0.36265598828E+04  0.34058128655E+04 0.  0.
        4    1    3    3  502    0  0.64355376999E+03  0.15755178441E+04  0.56024004625E+03  0.17917277847E+04  0.12699999809E+01 0.  1.
       -4    1    3    3    0  502 -0.64355376999E+03 -0.15755178441E+04  0.68570349525E+03  0.18348320981E+04  0.12699999809E+01 0. -1.
</event>
<event>
 5   0  0.1523259E-07  0.3394648E+04  0.7818609E-02  0.8139221E-01
       -1   -1    0    0    0  501  0.00000000000E+00  0.00000000000E+00  0.18705329979E+04  0.18705329979E+04  0.50400001928E-02 0. -1.
        1   -1    0    0  501    0  0.00000000000E+00  0.00000000000E+00 -0.15401541318E+04  0.15401541318E+04  0.50400001928E-02 0.  1.
    10030    2    1    2    0    0  0.00000000000E+00  0.00000000000E+00  0.33037886611E+03  0.34106871297E+04  0.33946482147E+04 0.  0.
        4    1    3    3  502    0  0.30524132609E+03 -0.33871954347E+03  0.18078466161E+04  0.18644608327E+04  0.12699999809E+01 0. -1.
       -4    1    3    3    0  502 -0.30524132609E+03  0.33871954347E+03 -0.14774677500E+04  0.15462262970E+04  0.12699999809E+01 0.  1.
</event>
<event>
 5   0  0.1435806E-07  0.3385075E+04  0.7818609E-02  0.8141579E-01
        1   -1    0    0  501    0  0.00000000000E+00  0.00000000000E+00  0.20914150710E+04  0.20914150710E+04  0.50400001928E-02 0. -1.
       -1   -1    0    0    0  501  0.00000000000E+00  0.00000000000E+00 -0.13697345391E+04  0.13697345391E+04  0.50400001928E-02 0.  1.
    10030    2    1    2    0    0  0.00000000000E+00  0.00000000000E+00  0.72168053192E+03  0.34611496102E+04  0.33850751592E+04 0.  0.
        3    1    3    3  502    0  0.97830674343E+03  0.13796288951E+04  0.42728905338E+03  0.17444299693E+04  0.10100000352E+00 0. -1.
       -3    1    3    3    0  502 -0.97830674343E+03 -0.13796288951E+04  0.29439147854E+03  0.17167196409E+04  0.10100000352E+00 0.  1.
</event>
<event>
 5   0  0.4486226E-07  0.3409261E+04  0.7818609E-02  0.8135637E-01
        2   -1    0    0  501    0  0.00000000000E+00  0.00000000000E+00  0.21588775386E+04  0.21588775386E+04  0.25500000920E-02 0. -1.
       -2   -1    0    0    0  501  0.00000000000E+00  0.00000000000E+00 -0.13459607507E+04  0.13459607507E+04  0.25500000920E-02 0.  1.
    10030    2    1    2    0    0  0.00000000000E+00  0.00000000000E+00  0.81291678794E+03  0.35048382893E+04  0.34092605841E+04 0.  0.
        1    1    3    3  502    0  0.91482422318E+03 -0.10385001540E+04 -0.61661876761E+03  0.15151252865E+04  0.50400001928E-02 0.  1.
       -1    1    3    3    0  502 -0.91482422318E+03  0.10385001540E+04  0.14295355555E+04  0.19897130029E+04  0.50400001928E-02 0. -1.
</event>
<event>
 5   0  0.1520084E-07  0.3400459E+04  0.7818609E-02  0.8137794E-01
        1   -1    0    0  501    0  0.00000000000E+00  0.00000000000E+00  0.22780365413E+04  0.22780365413E+04  0.50400001928E-02 0.  1.
       -1   -1    0    0    0  501  0.00000000000E+00  0.00000000000E+00 -0.12689790071E+04  0.12689790071E+04  0.50400001928E-02 0. -1.
    10030    2    1    2    0    0  0.00000000000E+00  0.00000000000E+00  0.10090575342E+04  0.35470155484E+04  0.34004591150E+04 0.  0.
        2    1    3    3  502    0 -0.11234904753E+04  0.34630310266E+03 -0.77666855100E+03  0.14090318397E+04  0.25500000920E-02 0. -1.
       -2    1    3    3    0  502  0.11234904753E+04 -0.34630310266E+03  0.17857260852E+04  0.21379837087E+04  0.25500000920E-02 0.  1.
</event>
<event>
 5   0  0.4486226E-07  0.3408215E+04  0.7818609E-02  0.8135893E-01
        2   -1    0    0  501    0  0.00000000000E+00  0.00000000000E+00  0.17595466176E+04  0.17595466176E+04  0.25500000920E-02 0.  1.
       -2   -1    0    0    0  501  0.00000000000E+00  0.00000000000E+00 -0.16504148374E+04  0.16504148374E+04  0.25500000920E-02 0. -1.
    10030    2    1    2    0    0  0.00000000000E+00  0.00000000000E+00  0.10913178022E+03  0.34099614549E+04  0.34082146908E+04 0.  0.
        1    1    3    3  502    0  0.43750296265E+03 -0.88897622239E+03  0.14417447524E+04  0.17493757450E+04  0.50400001928E-02 0.  1.
       -1    1    3    3    0  502 -0.43750296265E+03  0.88897622239E+03 -0.13326129722E+04  0.16605857099E+04  0.50400001928E-02 0. -1.
</event>
<event>
 5   0  0.4381939E-07  0.3395550E+04  0.7818609E-02  0.8138999E-01
       -2   -1    0    0    0  501  0.00000000000E+00  0.00000000000E+00  0.14653059151E+04  0.14653059151E+04  0.25500000920E-02 0. -1.
        2   -1    0    0  501    0  0.00000000000E+00  0.00000000000E+00 -0.19671252721E+04  0.19671252721E+04  0.25500000920E-02 0.  1.
    10030    2    1    2    0    0  0.00000000000E+00  0.00000000000E+00 -0.50181935700E+03  0.34324311872E+04  0.33955502040E+04 0.  0.
        3    1    3    3  502    0 -0.12677532068E+04 -0.10923532642E+04  0.38568387146E+02  0.16738940761E+04  0.10100000352E+00 0. -1.
       -3    1    3    3    0  502  0.12677532068E+04  0.10923532642E+04 -0.54038774415E+03  0.17585371112E+04  0.10100000352E+00 0.  1.
</event>
<event>
 5   0  0.1435806E-07  0.3383675E+04  0.7818609E-02  0.8141925E-01
       -1   -1    0    0    0  501  0.00000000000E+00  0.00000000000E+00  0.13104056410E+04  0.13104056410E+04  0.50400001928E-02 0. -1.
        1   -1    0    0  501    0  0.00000000000E+00  0.00000000000E+00 -0.21842967731E+04  0.21842967731E+04  0.50400001928E-02 0.  1.
    10030    2    1    2    0    0  0.00000000000E+00  0.00000000000E+00 -0.87389113214E+03  0.34947024141E+04  0.33836754059E+04 0.  0.
        3    1    3    3  502    0  0.76713729925E+03  0.14407549306E+04  0.22673884653E+02  0.16324179983E+04  0.10100000352E+00 0. -1.
       -3    1    3    3    0  502 -0.76713729925E+03 -0.14407549306E+04 -0.89656501680E+03  0.18622844158E+04  0.10100000352E+00 0.  1.
</event>
<event>
 5   0  0.1473755E-07  0.3416567E+04  0.7818609E-02  0.8133852E-01
        1   -1    0    0  501    0  0.00000000000E+00  0.00000000000E+00  0.17367659316E+04  0.17367659316E+04  0.50400001928E-02 0.  1.
       -1   -1    0    0    0  501  0.00000000000E+00  0.00000000000E+00 -0.16802684085E+04  0.16802684085E+04  0.50400001928E-02 0. -1.
    10030    2    1    2    0    0  0.00000000000E+00  0.00000000000E+00  0.56497523079E+02  0.34170343401E+04  0.34165672408E+04 0.  0.
        1    1    3    3  502    0  0.51071107487E+03  0.72964344570E+03 -0.14296979652E+04  0.16844113605E+04  0.50400001928E-02 0. -1.
       -1    1    3    3    0  502 -0.51071107487E+03 -0.72964344570E+03  0.14861954883E+04  0.17326229795E+04  0.50400001928E-02 0.  1.
</event>
<event>
 5   0  0.4486226E-07  0.3402330E+04  0.7818609E-02  0.8137335E-01
        2   -1    0    0  501    0  0.00000000000E+00  0.00000000000E+00  0.18782234719E+04  0.18782234719E+04  0.25500000920E-02 0.  1.
       -2   -1    0    0    0  501  0.00000000000E+00  0.00000000000E+00 -0.15407981154E+04  0.15407981154E+04  0.25500000920E-02 0. -1.
    10030    2    1    2    0    0  0.00000000000E+00  0.00000000000E+00  0.33742535658E+03  0.34190215873E+04  0.34023304871E+04 0.  0.
        1    1    3    3  502    0  0.45530554009E+03  0.10815313510E+04  0.14064001006E+04  0.18316589314E+04  0.50400001928E-02 0.  1.
       -1    1    3    3    0  502 -0.45530554009E+03 -0.10815313510E+04 -0.10689747440E+04  0.15873626559E+04  0.50400001928E-02 0. -1.
</event>
<event>
 5   0  0.1520084E-07  0.3397517E+04  0.7818609E-02  0.8138516E-01
        1   -1    0    0  501    0  0.00000000000E+00  0.00000000000E+00  0.26186457506E+04  0.26186457506E+04  0.50400001928E-02 0. -1.
       -1   -1    0    0    0  501  0.00000000000E+00  0.00000000000E+00 -0.11020123702E+04  0.11020123702E+04  0.50400001928E-02 0.  1.
    10030    2    1    2    0    0  0.00000000000E+00  0.00000000000E+00  0.15166333805E+04  0.37206581208E+04  0.33975167463E+04 0.  0.
        2    1    3    3  502    0  0.36993492808E+03 -0.16430950645E+04  0.10011420224E+04  0.19593107439E+04  0.25500000920E-02 0.  1.
       -2    1    3    3    0  502 -0.36993492808E+03  0.16430950645E+04  0.51549135803E+03  0.17613473769E+04  0.25500000920E-02 0. -1.
</event>
<event>
 5   0  0.1473755E-07  0.3381386E+04  0.7818609E-02  0.8142490E-01
       -1   -1    0    0    0  501  0.00000000000E+00  0.00000000000E+00  0.14800577389E+04  0.14800577389E+04  0.50400001928E-02 0.  1.
        1   -1    0    0  501    0  0.00000000000E+00  0.00000000000E+00 -0.19313045237E+04  0.19313045237E+04  0.50400001928E-02 0. -1.
    10030    2    1    2    0    0  0.00000000000E+00  0.00000000000E+00 -0.45124678482E+03  0.34113622626E+04  0.33813856370E+04 0.  0.
        1    1    3    3  502    0  0.11492138719E+04  0.78825686605E+03  0.74015140100E+03  0.15779307674E+04  0.50400001928E-02 0.  1.
       -1    1    3    3    0  502 -0.11492138719E+04 -0.78825686605E+03 -0.11913981858E+04  0.18334314952E+04  0.50400001928E-02 0. -1.
</event>
<event>
 5   0  0.4381939E-07  0.3407197E+04  0.7818609E-02  0.8136142E-01
       -2   -1    0    0    0  501  0.00000000000E+00  0.00000000000E+00  0.10355412940E+04  0.10355412940E+04  0.25500000920E-02 0. -1.
        2   -1    0    0  501    0  0.00000000000E+00  0.00000000000E+00 -0.28026377538E+04  0.28026377538E+04  0.25500000920E-02 0.  1.
    10030    2    1    2    0    0  0.00000000000E+00  0.00000000000E+00 -0.17670964598E+04  0.38381790478E+04  0.34071965756E+04 0.  0.
        3    1    3    3  502    0  0.84863190642E+03 -0.80841661250E+03  0.50917728626E+03  0.12778791222E+04  0.10100000352E+00 0. -1.
       -3    1    3    3    0  502 -0.84863190642E+03  0.80841661250E+03 -0.22762737460E+04  0.25602999256E+04  0.10100000352E+00 0.  1.
</event>
<event>
 5   0  0.1523259E-07  0.3395770E+04  0.7818609E-02  0.8138945E-01
        1   -1    0    0  501    0  0.00000000000E+00  0.00000000000E+00  0.21462645219E+04  0.21462645219E+04  0.50400001928E-02 0. -1.
       -1   -1    0    0    0  501  0.00000000000E+00  0.00000000000E+00 -0.13431772213E+04  0.13431772213E+04  0.50400001928E-02 0.  1.
    10030    2    1    2    0    0  0.00000000000E+00  0.00000000000E+00  0.80308730061E+03  0.34894417432E+04  0.33957700845E+04 0.  0.
        4    1    3    3  502    0  0.85796943449E+02 -0.78565290170E+03 -0.11426398749E+04  0.13893304481E+04  0.12699999809E+01 0.  1.
       -4    1    3    3    0  502 -0.85796943449E+02  0.78565290170E+03  0.19457271755E+04  0.21001112951E+04  0.12699999809E+01 0. -1.
</event>
<event>
 5   0  0.1473755E-07  0.3398877E+04  0.7818609E-02  0.8138182E-01
       -1   -1    0    0    0  501  0.00000000000E+00  0.00000000000E+00  0.13994022056E+04  0.13994022056E+04  0.50400001928E-02 0.  1.
        1   -1    0    0  501    0  0.00000000000E+00  0.00000000000E+00 -0.20638040638E+04  0.20638040638E+04  0.50400001928E-02 0. -1.
    10030    2    1    2    0    0  0.00000000000E+00  0.00000000000E+00 -0.66440185819E+03  0.34632062694E+04  0.33988774375E+04 0.  0.
        1    1    3    3  502    0 -0.26258080072E+03  0.13760695369E+04  0.64807621384E+03  0.15435410025E+04  0.50400001928E-02 0.  1.
       -1    1    3    3    0  502  0.26258080072E+03 -0.13760695369E+04 -0.13124780720E+04  0.19196652669E+04  0.50400001928E-02 0. -1.
</event>
<event>
 5   0  0.1473755E-07  0.3396589E+04  0.7818609E-02  0.8138744E-01
       -1   -1    0    0    0  501  0.00000000000E+00  0.00000000000E+00  0.16549890874E+04  0.16549890874E+04  0.50400001928E-02 0. -1.
        1   -1    0    0  501    0  0.00000000000E+00  0.00000000000E+00 -0.17427327764E+04  0.17427327764E+04  0.50400001928E-02 0.  1.
    10030    2    1    2    0    0  0.00000000000E+00  0.00000000000E+00 -0.87743688992E+02  0.33977218639E+04  0.33965887165E+04 0.  0.
        1    1    3    3  502    0 -0.84738025138E+03  0.55191708091E+03  0.13209652328E+04  0.16636150099E+04  0.50400001928E-02 0. -1.
       -1    1    3    3    0  502  0.84738025138E+03 -0.55191708091E+03 -0.14087089218E+04  0.17341068540E+04  0.50400001928E-02 0.  1.
</event>
<event>
 5   0  0.4396257E-07  0.3395899E+04  0.7818609E-02  0.8138914E-01
       -2   -1    0    0    0  501  0.00000000000E+00  0.00000000000E+00  0.91292048879E+03  0.91292048879E+03  0.25500000920E-02 0.  1.
        2   -1    0    0  501    0  0.00000000000E+00  0.00000000000E+00 -0.31580317679E+04  0.31580317679E+04  0.25500000920E-02 0. -1.
    10030    2    1    2    0    0  0.00000000000E+00  0.00000000000E+00 -0.22451112791E+04  0.40709522567E+04  0.33958986470E+04 0.  0.
        2    1    3    3  502    0  0.11109105295E+04  0.52289719030E+03 -0.25285051610E+04  0.28108507654E+04  0.25500000920E-02 0. -1.
       -2    1    3    3    0  502 -0.11109105295E+04 -0.52289719030E+03  0.28339388182E+03  0.12601014913E+04  0.25500000920E-02 0.  1.
</event>
<event>
 5   0  0.4521737E-07  0.3416024E+04  0.7818609E-02  0.8133985E-01
        2   -1    0    0  501    0  0.00000000000E+00  0.00000000000E+00  0.20467645272E+04  0.20467645272E+04  0.25500000920E-02 0. -1.
       -2   -1    0    0    0  501  0.00000000000E+00  0.00000000000E+00 -0.14253248833E+04  0.14253248833E+04  0.25500000920E-02 0.  1.
    10030    2    1    2    0    0  0.00000000000E+00  0.00000000000E+00  0.62143964392E+03  0.34720894105E+04  0.34160236597E+04 0.  0.
        4    1    3    3  502    0  0.15788431167E+04 -0.62540274596E+03  0.49655555699E+03  0.17693058571E+04  0.12699999809E+01 0. -1.
       -4    1    3    3    0  502 -0.15788431167E+04  0.62540274596E+03  0.12488408694E+03  0.17027835534E+04  0.12699999809E+01 0.  1.
</event>
<event>
 5   0  0.4381939E-07  0.3400224E+04  0.7818609E-02  0.8137851E-01
        2   -1    0    0  501    0  0.00000000000E+00  0.00000000000E+00  0.27568281664E+04  0.27568281664E+04  0.25500000920E-02 0. -1.
       -2   -1    0    0    0  501  0.00000000000E+00  0.00000000000E+00 -0.10484442205E+04  0.10484442205E+04  0.25500000920E-02 0.  1.
    10030    2    1    2    0    0  0.00000000000E+00  0.00000000000E+00  0.17083839460E+04  0.38052723869E+04  0.34002238503E+04 0.  0.
        3    1    3    3  502    0 -0.10956999882E+03  0.12439071621E+04  0.21453478530E+04  0.24823029697E+04  0.10100000352E+00 0. -1.
       -3    1    3    3    0  502  0.10956999882E+03 -0.12439071621E+04 -0.43696390706E+03  0.13229694172E+04  0.10100000352E+00 0.  1.
</event>
<event>
 5   0  0.1435806E-07  0.3407167E+04  0.7818609E-02  0.8136150E-01
       -1   -1    0    0    0  501  0.00000000000E+00  0.00000000000E+00  0.16506934560E+04  0.16506934560E+04  0.50400001928E-02 0. -1.
        1   -1    0    0  501    0  0.00000000000E+00  0.00000000000E+00 -0.17581677740E+04  0.17581677740E+04  0.50400001928E-02 0.  1.
    10030    2    1    2    0    0  0.00000000000E+00  0.00000000000E+00 -0.10747431798E+03  0.34088612301E+04  0.34071665878E+04 0.  0.
        3    1    3    3  502    0 -0.64411249154E+03  0.32661434490E+03 -0.15974362649E+04  0.17531002432E+04  0.10100000352E+00 0.  1.
       -3    1    3    3    0  502  0.64411249154E+03 -0.32661434490E+03  0.14899619469E+04  0.16557609868E+04  0.10100000352E+00 0. -1.
</event>
<event>
 5   0  0.4447909E-07  0.3397625E+04  0.7818609E-02  0.8138489E-01
       -2   -1    0    0    0  501  0.00000000000E+00  0.00000000000E+00  0.20476636645E+04  0.20476636645E+04  0.25500000920E-02 0. -1.
        2   -1    0    0  501    0  0.00000000000E+00  0.00000000000E+00 -0.14093936666E+04  0.14093936666E+04  0.25500000920E-02 0.  1.
    10030    2    1    2    0    0  0.00000000000E+00  0.00000000000E+00  0.63826999792E+03  0.34570573310E+04  0.33976251706E+04 0.  0.
        5    1    3    3  502    0  0.27981696080E+03 -0.62675931254E+02  0.20228547187E+04  0.20430832355E+04  0.46999998093E+01 0. -1.
       -5    1    3    3    0  502 -0.27981696080E+03  0.62675931254E+02 -0.13845847208E+04  0.14139740956E+04  0.46999998093E+01 0.  1.
</event>
<event>
 5   0  0.4396257E-07  0.3408406E+04  0.7818609E-02  0.8135846E-01
       -2   -1    0    0    0  501  0.00000000000E+00  0.00000000000E+00  0.11916216352E+04  0.11916216352E+04  0.25500000920E-02 0. -1.
        2   -1    0    0  501    0  0.00000000000E+00  0.00000000000E+00 -0.24372734863E+04  0.24372734863E+04  0.25500000920E-02 0.  1.
    10030    2    1    2    0    0  0.00000000000E+00  0.00000000000E+00 -0.12456518510E+04  0.36288951215E+04  0.34084059718E+04 0.  0.
        2    1    3    3  502    0 -0.70717923430E+03 -0.42530829077E+03  0.96471127707E+03  0.12695107167E+04  0.25500000920E-02 0. -1.
       -2    1    3    3    0  502  0.70717923430E+03  0.42530829077E+03 -0.22103631281E+04  0.23593844048E+04  0.25500000920E-02 0.  1.
</event>
<event>
 5   0  0.1435806E-07  0.3397408E+04  0.7818609E-02  0.8138543E-01
       -1   -1    0    0    0  501  0.00000000000E+00  0.00000000000E+00  0.12300500256E+04  0.12300500257E+04  0.50400001928E-02 0.  1.
        1   -1    0    0  501    0  0.00000000000E+00  0.00000000000E+00 -0.23459172274E+04  0.23459172274E+04  0.50400001928E-02 0. -1.
    10030    2    1    2    0    0  0.00000000000E+00  0.00000000000E+00 -0.11158672017E+04  0.35759672530E+04  0.33974081566E+04 0.  0.
        3    1    3    3  502    0  0.10352336078E+04 -0.95285552763E+03  0.44390717318E+03  0.14753629614E+04  0.10100000352E+00 0. -1.
       -3    1    3    3    0  502 -0.10352336078E+04  0.95285552763E+03 -0.15597743749E+04  0.21006042916E+04  0.10100000352E+00 0.  1.
</event>
<event>
 5   0  0.4447909E-07  0.3414631E+04  0.7818609E-02  0.8134325E-01
       -2   -1    0    0    0  501  0.00000000000E+00  0.00000000000E+00  0.12456676700E+04  0.12456676700E+04  0.25500000920E-02 0.  1.
        2   -1    0    0  501    0  0.00000000000E+00  0.00000000000E+00 -0.23400506901E+04  0.23400506901E+04  0.25500000920E-02 0. -1.
    10030    2    1    2    0    0  0.00000000000E+00  0.00000000000E+00 -0.10943830201E+04  0.35857183601E+04  0.34146305749E+04 0.  0.
        5    1    3    3  502    0 -0.14812517232E+04 -0.78518324363E+03 -0.20808095674E+03  0.16893605797E+04  0.46999998093E+01 0. -1.
       -5    1    3    3    0  502  0.14812517232E+04  0.78518324363E+03 -0.88630206334E+03  0.18963577804E+04  0.46999998093E+01 0.  1.
</event>
<event>
 5   0  0.1421875E-07  0.3381358E+04  0.7818609E-02  0.8142497E-01
       -3   -1    0    0    0  501  0.00000000000E+00  0.00000000000E+00  0.16756037514E+04  0.16756037544E+04  0.10100000352E+00 0. -1.
        3   -1    0    0  501    0  0.00000000000E+00  0.00000000000E+00 -0.17058900742E+04  0.17058900772E+04  0.10100000352E+00 0.  1.
    10030    2    1    2    0    0  0.00000000000E+00  0.00000000000E+00 -0.30286322779E+02  0.33814938316E+04  0.33813581993E+04 0.  0.
        3    1    3    3  502    0  0.94048771090E+03  0.76864372242E+03 -0.11912283871E+04  0.17012805138E+04  0.10100000352E+00 0.  1.
       -3    1    3    3    0  502 -0.94048771090E+03 -0.76864372242E+03  0.11609420643E+04  0.16802133178E+04  0.10100000352E+00 0. -1.
</event>
<event>
 5   0  0.4447909E-07  0.3386869E+04  0.7818609E-02  0.8141137E-01
       -2   -1    0    0    0  501  0.00000000000E+00  0.00000000000E+00  0.15165762114E+04  0.15165762114E+04  0.25500000920E-02 0.  1.
        2   -1    0    0  501    0  0.00000000000E+00  0.00000000000E+00 -0.18909171042E+04  0.18909171042E+04  0.25500000920E-02 0. -1.
    10030    2    1    2    0    0  0.00000000000E+00  0.00000000000E+00 -0.37434089287E+03  0.34074933156E+04  0.33868687001E+04 0.  0.
        5    1    3    3  502    0 -0.96985016970E+03 -0.89702977872E+03 -0.12530681275E+04  0.18208441992E+04  0.46999998093E+01 0. -1.
       -5    1    3    3    0  502  0.96985016970E+03  0.89702977872E+03  0.87872723466E+03  0.15866491164E+04  0.46999998093E+01 0.  1.
</event>
<event>
 5   0  0.4486226E-07  0.3411254E+04  0.7818609E-02  0.8135150E-01
       -2   -1    0    0    0  501  0.00000000000E+00  0.00000000000E+00  0.15130313590E+04  0.15130313590E+04  0.25500000920E-02 0. -1.
        2   -1    0    0  501    0  0.00000000000E+00  0.00000000000E+00 -0.19227379170E+04  0.19227379170E+04  0.25500000920E-02 0.  1.
    10030    2    1    2    0    0  0.00000000000E+00  0.00000000000E+00 -0.40970655798E+03  0.34357692760E+04  0.34112535899E+04 0.  0.
        1    1    3    3  502    0 -0.28025472788E+03  0.13399739516E+04  0.81985209330E+03  0.15956911852E+04  0.50400001928E-02 0. -1.
       -1    1    3    3    0  502  0.28025472788E+03 -0.13399739516E+04 -0.12295586513E+04  0.18400780909E+04  0.50400001928E-02 0.  1.
</event>
<event>
 5   0  0.4521737E-07  0.3395285E+04  0.7818609E-02  0.8139064E-01
        2   -1    0    0  501    0  0.00000000000E+00  0.00000000000E+00  0.11820869838E+04  0.11820869838E+04  0.25500000920E-02 0. -1.
       -2   -1    0    0    0  501  0.00000000000E+00  0.00000000000E+00 -0.24380527643E+04  0.24380527643E+04  0.25500000920E-02 0.  1.
    10030    2    1    2    0    0  0.00000000000E+00  0.00000000000E+00 -0.12559657804E+04  0.36201397481E+04  0.33952852242E+04 0.  0.
        4    1    3    3  502    0  0.16053223444E+04 -0.54481092954E+03 -0.72400268348E+03  0.18433828351E+04  0.12699999809E+01 0. -1.
       -4    1    3    3    0  502 -0.16053223444E+04  0.54481092954E+03 -0.53196309697E+03  0.17767569129E+04  0.12699999809E+01 0.  1.
</event>
<event>
 5   0  0.1435806E-07  0.3399634E+04  0.7818609E-02  0.8137996E-01
        1   -1    0    0  501    0  0.00000000000E+00  0.00000000000E+00  0.15599576435E+04  0.15599576435E+04  0.50400001928E-02 0.  1.
       -1   -1    0    0    0  501  0.00000000000E+00  0.00000000000E+00 -0.18522150420E+04  0.18522150420E+04  0.50400001928E-02 0. -1.
    10030    2    1    2    0    0  0.00000000000E+00  0.00000000000E+00 -0.29225739845E+03  0.34121726855E+04  0.33996335169E+04 0.  0.
        3    1    3    3  502    0  0.11708867652E+04 -0.80892422698E+03  0.78683881652E+03  0.16261763604E+04  0.10100000352E+00 0.  1.
       -3    1    3    3    0  502 -0.11708867652E+04  0.80892422698E+03 -0.10790962150E+04  0.17859963251E+04  0.10100000352E+00 0. -1.
</event>
<event>
 5   0  0.1523259E-07  0.3385756E+04  0.7818609E-02  0.8141411E-01
       -1   -1    0    0    0  501  0.00000000000E+00  0.00000000000E+00  0.11440119057E+04  0.11440119057E+04  0.50400001928E-02 0. -1.
        1   -1    0    0  501    0  0.00000000000E+00  0.00000000000E+00 -0.25050749384E+04  0.25050749384E+04  0.50400001928E-02 0.  1.
    10030    2    1    2    0    0  0.00000000000E+00  0.00000000000E+00 -0.13610630327E+04  0.36490868441E+04  0.33857557823E+04 0.  0.
        4    1    3    3  502    0 -0.57851359682E+02  0.14492694225E+03 -0.24973064433E+04  0.25021773884E+04  0.12699999809E+01 0.  1.
       -4    1    3    3    0  502  0.57851359682E+02 -0.14492694225E+03  0.11362434107E+04  0.11469094557E+04  0.12699999809E+01 0. -1.
</event>
<event>
 5   0  0.4486226E-07  0.3417861E+04  0.7818609E-02  0.8133537E-01
        2   -1    0    0  501    0  0.00000000000E+00  0.00000000000E+00  0.14619452091E+04  0.14619452091E+04  0.25500000920E-02 0. -1.
       -2   -1    0    0    0  501  0.00000000000E+00  0.00000000000E+00 -0.19976421491E+04  0.19976421492E+04  0.25500000920E-02 0.  1.
    10030    2    1    2    0    0  0.00000000000E+00  0.00000000000E+00 -0.53569694002E+03  0.34595873583E+04  0.34178609507E+04 0.  0.
        1    1    3    3  502    0 -0.10013413479E+04 -0.34105645410E+03 -0.16264113247E+04  0.19401592195E+04  0.50400001928E-02 0.  1.
       -1    1    3    3    0  502  0.10013413479E+04  0.34105645410E+03  0.10907143847E+04  0.15194281388E+04  0.50400001928E-02 0. -1.
</event>
<event>
 5   0  0.1473755E-07  0.3318117E+04  0.7818609E-02  0.8158301E-01
       -1   -1    0    0    0  501  0.00000000000E+00  0.00000000000E+00  0.12359175758E+04  0.12359175758E+04  0.50400001928E-02 0. -1.
        1   -1    0    0  501    0  0.00000000000E+00  0.00000000000E+00 -0.22270703184E+04  0.22270703184E+04  0.50400001928E-02 0.  1.
    10030    2    1    2    0    0  0.00000000000E+00  0.00000000000E+00 -0.99115274258E+03  0.34629878943E+04  0.33181171463E+04 0.  0.
        1    1    3    3  502    0 -0.70377078172E+03 -0.56322364055E+03 -0.19492127291E+04  0.21475438170E+04  0.50400001928E-02 0.  1.
       -1    1    3    3    0  502  0.70377078172E+03  0.56322364055E+03  0.95805998657E+03  0.13154440772E+04  0.50400001928E-02 0. -1.
</event>
<event>
 5   0  0.4521737E-07  0.3392261E+04  0.7818609E-02  0.8139808E-01
        2   -1    0    0  501    0  0.00000000000E+00  0.00000000000E+00  0.27775301012E+04  0.27775301012E+04  0.25500000920E-02 0. -1.
       -2   -1    0    0    0  501  0.00000000000E+00  0.00000000000E+00 -0.10357612348E+04  0.10357612348E+04  0.25500000920E-02 0.  1.
    10030    2    1    2    0    0  0.00000000000E+00  0.00000000000E+00  0.17417688665E+04  0.38132913360E+04  0.33922606075E+04 0.  0.
        4    1    3    3  502    0  0.12324603738E+04 -0.10930092043E+04  0.13250445986E+04  0.21140890461E+04  0.12699999809E+01 0. -1.
       -4    1    3    3    0  502 -0.12324603738E+04  0.10930092043E+04  0.41672426782E+03  0.16992022899E+04  0.12699999809E+01 0.  1.
</event>
<event>
 5   0  0.4447909E-07  0.3404119E+04  0.7818609E-02  0.8136896E-01
       -2   -1    0    0    0  501  0.00000000000E+00  0.00000000000E+00  0.15332173652E+04  0.15332173652E+04  0.25500000920E-02 0. -1.
        2   -1    0    0  501    0  0.00000000000E+00  0.00000000000E+00 -0.18894952636E+04  0.18894952636E+04  0.25500000920E-02 0.  1.
    10030    2    1    2    0    0  0.00000000000E+00  0.00000000000E+00 -0.35627789843E+03  0.34227126288E+04  0.34041192397E+04 0.  0.
        5    1    3    3  502    0  0.32833138714E+03  0.65979750281E+03  0.13644674256E+04  0.15507829280E+04  0.46999998093E+01 0. -1.
       -5    1    3    3    0  502 -0.32833138714E+03 -0.65979750281E+03 -0.17207453240E+04  0.18719297007E+04  0.46999998093E+01 0.  1.
</event>
<event>
 5   0  0.4447909E-07  0.3395838E+04  0.7818609E-02  0.8138928E-01
       -2   -1    0    0    0  501  0.00000000000E+00  0.00000000000E+00  0.12279829881E+04  0.12279829881E+04  0.25500000920E-02 0.  1.
        2   -1    0    0  501    0  0.00000000000E+00  0.00000000000E+00 -0.23476949143E+04  0.23476949143E+04  0.25500000920E-02 0. -1.
    10030    2    1    2    0    0  0.00000000000E+00  0.00000000000E+00 -0.11197119262E+04  0.35756779024E+04  0.33958382859E+04 0.  0.
        5    1    3    3  502    0  0.13808778181E+04  0.91476260022E+03 -0.95284124899E+03  0.19109010176E+04  0.46999998093E+01 0.  1.
       -5    1    3    3    0  502 -0.13808778181E+04 -0.91476260022E+03 -0.16687067725E+03  0.16647768848E+04  0.46999998093E+01 0. -1.
</event>
<event>
 5   0  0.1523259E-07  0.3402474E+04  0.7818609E-02  0.8137299E-01
        1   -1    0    0  501    0  0.00000000000E+00  0.00000000000E+00  0.19530558612E+04  0.19530558612E+04  0.50400001928E-02 0. -1.
       -1   -1    0    0    0  501  0.00000000000E+00  0.00000000000E+00 -0.14818866755E+04  0.14818866756E+04  0.50400001928E-02 0.  1.
    10030    2    1    2    0    0  0.00000000000E+00  0.00000000000E+00  0.47116918565E+03  0.34349425368E+04  0.34024740748E+04 0.  0.
        4    1    3    3  502    0  0.83688871676E+03  0.99471066987E+03 -0.87232749725E+03  0.15654995740E+04  0.12699999809E+01 0.  1.
       -4    1    3    3    0  502 -0.83688871676E+03 -0.99471066987E+03  0.13434966829E+04  0.18694429627E+04  0.12699999809E+01 0. -1.
</event>
<event>
 5   0  0.1523259E-07  0.3402341E+04  0.7818609E-02  0.8137332E-01
       -1   -1    0    0    0  501  0.00000000000E+00  0.00000000000E+00  0.20563433078E+04  0.20563433078E+04  0.50400001928E-02 0. -1.
        1   -1    0    0  501    0  0.00000000000E+00  0.00000000000E+00 -0.14073436780E+04  0.14073436780E+04  0.50400001928E-02 0.  1.
    10030    2    1    2    0    0  0.00000000000E+00  0.00000000000E+00  0.64899962985E+03  0.34636869858E+04  0.34023414021E+04 0.  0.
        4    1    3    3  502    0  0.78685572942E+03  0.14737365472E+04 -0.21258303376E+01  0.16706428348E+04  0.12699999809E+01 0.  1.
       -4    1    3    3    0  502 -0.78685572942E+03 -0.14737365472E+04  0.65112546018E+03  0.17930441510E+04  0.12699999809E+01 0. -1.
</event>
<event>
 5   0  0.1473755E-07  0.3392822E+04  0.7818609E-02  0.8139670E-01
       -1   -1    0    0    0  501  0.00000000000E+00  0.00000000000E+00  0.11848643603E+04  0.11848643603E+04  0.50400001928E-02 0. -1.
        1   -1    0    0  501    0  0.00000000000E+00  0.00000000000E+00 -0.24288098289E+04  0.24288098289E+04  0.50400001928E-02 0.  1.
    10030    2    1    2    0    0  0.00000000000E+00  0.00000000000E+00 -0.12439454686E+04  0.36136741893E+04  0.33928219549E+04 0.  0.
        1    1    3    3  502    0  0.43384803077E+03 -0.16353761608E+04 -0.49095793611E+03  0.17617374935E+04  0.50400001928E-02 0. -1.
       -1    1    3    3    0  502 -0.43384803077E+03  0.16353761608E+04 -0.75298753247E+03  0.18519366958E+04  0.50400001928E-02 0.  1.
</event>
<event>
 5   0  0.4447909E-07  0.3397990E+04  0.7818609E-02  0.8138400E-01
       -2   -1    0    0    0  501  0.00000000000E+00  0.00000000000E+00  0.14143217152E+04  0.14143217152E+04  0.25500000920E-02 0.  1.
        2   -1    0    0  501    0  0.00000000000E+00  0.00000000000E+00 -0.20409669186E+04  0.20409669186E+04  0.25500000920E-02 0. -1.
    10030    2    1    2    0    0  0.00000000000E+00  0.00000000000E+00 -0.62664520338E+03  0.34552886338E+04  0.33979898958E+04 0.  0.
        5    1    3    3  502    0 -0.13221721333E+04  0.15816448294E+03 -0.13862964624E+04  0.19222370107E+04  0.46999998093E+01 0. -1.
       -5    1    3    3    0  502  0.13221721333E+04 -0.15816448294E+03  0.75965125902E+03  0.15330516231E+04  0.46999998093E+01 0.  1.
</event>
<event>
 5   0  0.4521737E-07  0.3381463E+04  0.7818609E-02  0.8142471E-01
        2   -1    0    0  501    0  0.00000000000E+00  0.00000000000E+00  0.18584988655E+04  0.18584988655E+04  0.25500000920E-02 0.  1.
       -2   -1    0    0    0  501  0.00000000000E+00  0.00000000000E+00 -0.15381085375E+04  0.15381085375E+04  0.25500000920E-02 0. -1.
    10030    2    1    2    0    0  0.00000000000E+00  0.00000000000E+00  0.32039032800E+03  0.33966074031E+04  0.33814629805E+04 0.  0.
        4    1    3    3  502    0  0.54928008630E+03 -0.13476394120E+04 -0.70431659498E+03  0.16167572721E+04  0.12699999809E+01 0. -1.
       -4    1    3    3    0  502 -0.54928008630E+03  0.13476394120E+04  0.10247069230E+04  0.17798501310E+04  0.12699999809E+01 0.  1.
</event>
<event>
 5   0  0.4486226E-07  0.3406096E+04  0.7818609E-02  0.8136412E-01
       -2   -1    0    0    0  501  0.00000000000E+00  0.00000000000E+00  0.10077292401E+04  0.10077292401E+04  0.25500000920E-02 0. -1.
        2   -1    0    0  501    0  0.00000000000E+00  0.00000000000E+00 -0.28781262787E+04  0.28781262787E+04  0.25500000920E-02 0.  1.
    10030    2    1    2    0    0  0.00000000000E+00  0.00000000000E+00 -0.18703970385E+04  0.38858555188E+04  0.34060957167E+04 0.  0.
        1    1    3    3  502    0 -0.53242086374E+03 -0.75421328051E+03  0.69748266842E+03  0.11570616757E+04  0.50400001928E-02 0. -1.
       -1    1    3    3    0  502  0.53242086374E+03  0.75421328051E+03 -0.25678797070E+04  0.27287938431E+04  0.50400001928E-02 0.  1.
</event>
<event>
 5   0  0.4486226E-07  0.3270043E+04  0.7818609E-02  0.8170560E-01
        2   -1    0    0  501    0  0.00000000000E+00  0.00000000000E+00  0.22589586562E+04  0.22589586562E+04  0.25500000920E-02 0.  1.
       -2   -1    0    0    0  501  0.00000000000E+00  0.00000000000E+00 -0.11834196083E+04  0.11834196083E+04  0.25500000920E-02 0. -1.
    10030    2    1    2    0    0  0.00000000000E+00  0.00000000000E+00  0.10755390479E+04  0.34423782645E+04  0.32700434052E+04 0.  0.
        1    1    3    3  502    0 -0.76355913273E+03 -0.10938835395E+03  0.20553788515E+04  0.21953520411E+04  0.50400001928E-02 0.  1.
       -1    1    3    3    0  502  0.76355913273E+03  0.10938835395E+03 -0.97983980356E+03  0.12470262234E+04  0.50400001928E-02 0. -1.
</event>
<event>
 5   0  0.1520084E-07  0.3387562E+04  0.7818609E-02  0.8140966E-01
        1   -1    0    0  501    0  0.00000000000E+00  0.00000000000E+00  0.13678695267E+04  0.13678695267E+04  0.50400001928E-02 0. -1.
       -1   -1    0    0    0  501  0.00000000000E+00  0.00000000000E+00 -0.20973451065E+04  0.20973451066E+04  0.50400001928E-02 0.  1.
    10030    2    1    2    0    0  0.00000000000E+00  0.00000000000E+00 -0.72947557989E+03  0.34652146332E+04  0.33875622256E+04 0.  0.
        2    1    3    3  502    0 -0.50576462285E+03 -0.15917600940E+04 -0.76505066918E+02  0.16719303442E+04  0.25500000920E-02 0.  1.
       -2    1    3    3    0  502  0.50576462285E+03  0.15917600940E+04 -0.65297051297E+03  0.17932842890E+04  0.25500000920E-02 0. -1.
</event>
<event>
 5   0  0.1421875E-07  0.3378721E+04  0.7818609E-02  0.8143149E-01
        1   -1    0    0  501    0  0.00000000000E+00  0.00000000000E+00  0.12779451485E+04  0.12779451485E+04  0.50400001928E-02 0.  1.
       -1   -1    0    0    0  501  0.00000000000E+00  0.00000000000E+00 -0.22332254300E+04  0.22332254300E+04  0.50400001928E-02 0. -1.
    10030    2    1    2    0    0  0.00000000000E+00  0.00000000000E+00 -0.95528028150E+03  0.35111705784E+04  0.33787214172E+04 0.  0.
        5    1    3    3  502    0  0.11575265191E+04 -0.10366732002E+04 -0.11664654308E+04  0.19429932212E+04  0.46999998093E+01 0. -1.
       -5    1    3    3    0  502 -0.11575265191E+04  0.10366732002E+04  0.21118514929E+03  0.15681773572E+04  0.46999998093E+01 0.  1.
</event>
<event>
 5   0  0.4447909E-07  0.3385993E+04  0.7818609E-02  0.8141353E-01
        2   -1    0    0  501    0  0.00000000000E+00  0.00000000000E+00  0.25155198248E+04  0.25155198248E+04  0.25500000920E-02 0. -1.
       -2   -1    0    0    0  501  0.00000000000E+00  0.00000000000E+00 -0.11394212139E+04  0.11394212139E+04  0.25500000920E-02 0.  1.
    10030    2    1    2    0    0  0.00000000000E+00  0.00000000000E+00  0.13760986110E+04  0.36549410387E+04  0.33859927066E+04 0.  0.
        5    1    3    3  502    0  0.29121174398E+03  0.43116298178E+03  0.24270734309E+04  0.24822194354E+04  0.46999998093E+01 0. -1.
       -5    1    3    3    0  502 -0.29121174398E+03 -0.43116298178E+03 -0.10509748199E+04  0.11727216033E+04  0.46999998093E+01 0.  1.
</event>
<event>
 5   0  0.1523259E-07  0.3413611E+04  0.7818609E-02  0.8134574E-01
        1   -1    0    0  501    0  0.00000000000E+00  0.00000000000E+00  0.16566592434E+04  0.16566592434E+04  0.50400001928E-02 0.  1.
       -1   -1    0    0    0  501  0.00000000000E+00  0.00000000000E+00 -0.17584694495E+04  0.17584694495E+04  0.50400001928E-02 0. -1.
    10030    2    1    2    0    0  0.00000000000E+00  0.00000000000E+00 -0.10181020613E+03  0.34151286929E+04  0.34136107967E+04 0.  0.
        4    1    3    3  502    0 -0.99395036839E+03 -0.10846008199E+04  0.81486214605E+03  0.16817545015E+04  0.12699999809E+01 0.  1.
       -4    1    3    3    0  502  0.99395036839E+03  0.10846008199E+04 -0.91667235218E+03  0.17333741914E+04  0.12699999809E+01 0. -1.
</event>
<event>
 5   0  0.4396257E-07  0.3401822E+04  0.7818609E-02  0.8137459E-01
       -2   -1    0    0    0  501  0.00000000000E+00  0.00000000000E+00  0.24031500214E+04  0.24031500214E+04  0.25500000920E-02 0.  1.
        2   -1    0    0  501    0  0.00000000000E+00  0.00000000000E+00 -0.12038774931E+04  0.12038774931E+04  0.25500000920E-02 0. -1.
    10030    2    1    2    0    0  0.00000000000E+00  0.00000000000E+00  0.11992725283E+04  0.36070275145E+04  0.34018219961E+04 0.  0.
        2    1    3    3  502    0 -0.99819614077E+03  0.10835010267E+04  0.15010524966E+04  0.21032186305E+04  0.25500000920E-02 0.  1.
       -2    1    3    3    0  502  0.99819614077E+03 -0.10835010267E+04 -0.30177996827E+03  0.15038088840E+04  0.25500000920E-02 0. -1.
</event>
<event>
 5   0  0.1473755E-07  0.3224150E+04  0.7818609E-02  0.8182468E-01
       -1   -1    0    0    0  501  0.00000000000E+00  0.00000000000E+00  0.91497167880E+03  0.91497167881E+03  0.50400001928E-02 0.  1.
        1   -1    0    0  501    0  0.00000000000E+00  0.00000000000E+00 -0.28402903391E+04  0.28402903391E+04  0.50400001928E-02 0. -1.
    10030    2    1    2    0    0  0.00000000000E+00  0.00000000000E+00 -0.19253186603E+04  0.37552620179E+04  0.32241496366E+04 0.  0.
        1    1    3    3  502    0  0.10437047777E+04 -0.11380114142E+04 -0.15019624922E+04  0.21541311404E+04  0.50400001928E-02 0. -1.
       -1    1    3    3    0  502 -0.10437047777E+04  0.11380114142E+04 -0.42335616814E+03  0.16011308776E+04  0.50400001928E-02 0.  1.
</event>
<event>
 5   0  0.4381939E-07  0.3401005E+04  0.7818609E-02  0.8137660E-01
        2   -1    0    0  501    0  0.00000000000E+00  0.00000000000E+00  0.21565046646E+04  0.21565046646E+04  0.25500000920E-02 0. -1.
       -2   -1    0    0    0  501  0.00000000000E+00  0.00000000000E+00 -0.13409238114E+04  0.13409238114E+04  0.25500000920E-02 0.  1.
    10030    2    1    2    0    0  0.00000000000E+00  0.00000000000E+00  0.81558085320E+03  0.34974284761E+04  0.34010048246E+04 0.  0.
        3    1    3    3  502    0  0.79359434021E+03 -0.67325982403E+03 -0.97519428934E+03  0.14262099003E+04  0.10100000352E+00 0.  1.
       -3    1    3    3    0  502 -0.79359434021E+03  0.67325982403E+03  0.17907751425E+04  0.20712185758E+04  0.10100000352E+00 0. -1.
</event>
<event>
 5   0  0.4447909E-07  0.3399694E+04  0.7818609E-02  0.8137981E-01
        2   -1    0    0  501    0  0.00000000000E+00  0.00000000000E+00  0.23734885603E+04  0.23734885603E+04  0.25500000920E-02 0. -1.
       -2   -1    0    0    0  501  0.00000000000E+00  0.00000000000E+00 -0.12173979533E+04  0.12173979533E+04  0.25500000920E-02 0.  1.
    10030    2    1    2    0    0  0.00000000000E+00  0.00000000000E+00  0.11560906069E+04  0.35908865136E+04  0.33996941718E+04 0.  0.
        5    1    3    3  502    0 -0.13703289235E+04  0.74691054243E+03 -0.13347145025E+03  0.15663695079E+04  0.46999998093E+01 0.  1.
       -5    1    3    3    0  502  0.13703289235E+04 -0.74691054243E+03  0.12895620572E+04  0.20245170057E+04  0.46999998093E+01 0. -1.
</event>
<event>
 5   0  0.1473755E-07  0.3392623E+04  0.7818609E-02  0.8139719E-01
       -1   -1    0    0    0  501  0.00000000000E+00  0.00000000000E+00  0.16151919870E+04  0.16151919870E+04  0.50400001928E-02 0.  1.
        1   -1    0    0  501    0  0.00000000000E+00  0.00000000000E+00 -0.17815048886E+04  0.17815048886E+04  0.50400001928E-02 0. -1.
    10030    2    1    2    0    0  0.00000000000E+00  0.00000000000E+00 -0.16631290162E+03  0.33966968756E+04  0.33926228325E+04 0.  0.
        1    1    3    3  502    0  0.12334466939E+04  0.59177678089E+03 -0.10872974768E+04  0.17475143227E+04  0.50400001928E-02 0. -1.
       -1    1    3    3    0  502 -0.12334466939E+04 -0.59177678089E+03  0.92098457516E+03  0.16491825529E+04  0.50400001928E-02 0.  1.
</event>
<event>
 5   0  0.1523259E-07  0.3374829E+04  0.7818609E-02  0.8144112E-01
       -1   -1    0    0    0  501  0.00000000000E+00  0.00000000000E+00  0.26181276686E+04  0.26181276686E+04  0.50400001928E-02 0. -1.
        1   -1    0    0  501    0  0.00000000000E+00  0.00000000000E+00 -0.10875585002E+04  0.10875585002E+04  0.50400001928E-02 0.  1.
    10030    2    1    2    0    0  0.00000000000E+00  0.00000000000E+00  0.15305691684E+04  0.37056861688E+04  0.33748285886E+04 0.  0.
        4    1    3    3  502    0  0.20413844364E+03  0.10921921172E+04 -0.62918299519E+03  0.12768825238E+04  0.12699999809E+01 0.  1.
       -4    1    3    3    0  502 -0.20413844364E+03 -0.10921921172E+04  0.21597521636E+04  0.24288036451E+04  0.12699999809E+01 0. -1.
</event>
<event>
 5   0  0.1421875E-07  0.3407009E+04  0.7818609E-02  0.8136188E-01
       -3   -1    0    0    0  501  0.00000000000E+00  0.00000000000E+00  0.15096719078E+04  0.15096719112E+04  0.10100000352E+00 0.  1.
        3   -1    0    0  501    0  0.00000000000E+00  0.00000000000E+00 -0.19222241736E+04  0.19222241763E+04  0.10100000352E+00 0. -1.
    10030    2    1    2    0    0  0.00000000000E+00  0.00000000000E+00 -0.41255226578E+03  0.34318960875E+04  0.34070091552E+04 0.  0.
        1    1    3    3  502    0  0.13978331770E+04 -0.79629148626E+03  0.35809330862E+03  0.16481045293E+04  0.50400001928E-02 0.  1.
       -1    1    3    3    0  502 -0.13978331770E+04  0.79629148626E+03 -0.77064557440E+03  0.17837915582E+04  0.50400001928E-02 0. -1.
</event>
<event>
 5   0  0.1421875E-07  0.3383218E+04  0.7818609E-02  0.8142038E-01
        1   -1    0    0  501    0  0.00000000000E+00  0.00000000000E+00  0.21099350583E+04  0.21099350583E+04  0.50400001928E-02 0.  1.
       -1   -1    0    0    0  501  0.00000000000E+00  0.00000000000E+00 -0.13562219498E+04  0.13562219498E+04  0.50400001928E-02 0. -1.
    10030    2    1    2    0    0  0.00000000000E+00  0.00000000000E+00  0.75371310847E+03  0.34661570081E+04  0.33832175448E+04 0.  0.
        5    1    3    3  502    0 -0.21158931547E+03 -0.93140233176E+03  0.18072342191E+04  0.20441129995E+04  0.46999998093E+01 0.  1.
       -5    1    3    3    0  502  0.21158931547E+03  0.93140233176E+03 -0.10535211106E+04  0.14220440086E+04  0.46999998093E+01 0. -1.
</event>
<event>
 5   0  0.4447909E-07  0.3386712E+04  0.7818609E-02  0.8141175E-01
        2   -1    0    0  501    0  0.00000000000E+00  0.00000000000E+00  0.13614493894E+04  0.13614493894E+04  0.25500000920E-02 0. -1.
       -2   -1    0    0    0  501  0.00000000000E+00  0.00000000000E+00 -0.21061776688E+04  0.21061776688E+04  0.25500000920E-02 0.  1.
    10030    2    1    2    0    0  0.00000000000E+00  0.00000000000E+00 -0.74472827942E+03  0.34676270582E+04  0.33867118573E+04 0.  0.
        5    1    3    3  502    0 -0.12547734195E+04  0.67731849650E+03  0.56281168313E+03  0.15329695889E+04  0.46999998093E+01 0. -1.
       -5    1    3    3    0  502  0.12547734195E+04 -0.67731849650E+03 -0.13075399625E+04  0.19346574693E+04  0.46999998093E+01 0.  1.
</event>
<event>
 5   0  0.4447909E-07  0.3437860E+04  0.7818609E-02  0.8128676E-01
        2   -1    0    0  501    0  0.00000000000E+00  0.00000000000E+00  0.26144585875E+04  0.26144585875E+04  0.25500000920E-02 0.  1.
       -2   -1    0    0    0  501  0.00000000000E+00  0.00000000000E+00 -0.11301461005E+04  0.11301461005E+04  0.25500000920E-02 0. -1.
    10030    2    1    2    0    0  0.00000000000E+00  0.00000000000E+00  0.14843124869E+04  0.37446046880E+04  0.34378599027E+04 0.  0.
        5    1    3    3  502    0 -0.59132612462E+03 -0.98085128984E+03 -0.65399219316E+03  0.13188873027E+04  0.46999998093E+01 0. -1.
       -5    1    3    3    0  502  0.59132612462E+03  0.98085128984E+03  0.21383046801E+04  0.24257173853E+04  0.46999998093E+01 0.  1.
</event>
<event>
 5   0  0.4381939E-07  0.3402164E+04  0.7818609E-02  0.8137375E-01
       -2   -1    0    0    0  501  0.00000000000E+00  0.00000000000E+00  0.15796263026E+04  0.15796263026E+04  0.25500000920E-02 0.  1.
        2   -1    0    0  501    0  0.00000000000E+00  0.00000000000E+00 -0.18318765066E+04  0.18318765066E+04  0.25500000920E-02 0. -1.
    10030    2    1    2    0    0  0.00000000000E+00  0.00000000000E+00 -0.25225020404E+03  0.34115028092E+04  0.34021642012E+04 0.  0.
        3    1    3    3  502    0  0.62585601864E+03  0.11742722750E+04 -0.11887835903E+04  0.17843255215E+04  0.10100000352E+00 0. -1.
       -3    1    3    3    0  502 -0.62585601864E+03 -0.11742722750E+04  0.93653338627E+03  0.16271772877E+04  0.10100000352E+00 0.  1.
</event>
<event>
 5   0  0.4447909E-07  0.3423470E+04  0.7818609E-02  0.8132170E-01
       -2   -1    0    0    0  501  0.00000000000E+00  0.00000000000E+00  0.12238961483E+04  0.12238961483E+04  0.25500000920E-02 0.  1.
        2   -1    0    0  501    0  0.00000000000E+00  0.00000000000E+00 -0.23940236618E+04  0.23940236618E+04  0.25500000920E-02 0. -1.
    10030    2    1    2    0    0  0.00000000000E+00  0.00000000000E+00 -0.11701275135E+04  0.36179198100E+04  0.34234697828E+04 0.  0.
        5    1    3    3  502    0 -0.16243134995E+04  0.53570724407E+03 -0.65703210463E+03  0.18322363037E+04  0.46999998093E+01 0. -1.
       -5    1    3    3    0  502  0.16243134995E+04 -0.53570724407E+03 -0.51309540889E+03  0.17856835063E+04  0.46999998093E+01 0.  1.
</event>
<event>
 5   0  0.1520084E-07  0.3401746E+04  0.7818609E-02  0.8137478E-01
       -1   -1    0    0    0  501  0.00000000000E+00  0.00000000000E+00  0.17851167155E+04  0.17851167155E+04  0.50400001928E-02 0.  1.
        1   -1    0    0  501    0  0.00000000000E+00  0.00000000000E+00 -0.16206047231E+04  0.16206047231E+04  0.50400001928E-02 0. -1.
    10030    2    1    2    0    0  0.00000000000E+00  0.00000000000E+00  0.16451199234E+03  0.34057214386E+04  0.34017457756E+04 0.  0.
        2    1    3    3  502    0 -0.44547985477E+03  0.16352940450E+04  0.22500477130E+03  0.17097561410E+04  0.25500000920E-02 0. -1.
       -2    1    3    3    0  502  0.44547985477E+03 -0.16352940450E+04 -0.60492778964E+02  0.16959652977E+04  0.25500000920E-02 0.  1.
</event>
<event>
 5   0  0.4381939E-07  0.3414295E+04  0.7818609E-02  0.8134407E-01
       -2   -1    0    0    0  501  0.00000000000E+00  0.00000000000E+00  0.13473722663E+04  0.13473722663E+04  0.25500000920E-02 0.  1.
        2   -1    0    0  501    0  0.00000000000E+00  0.00000000000E+00 -0.21629904529E+04  0.21629904529E+04  0.25500000920E-02 0. -1.
    10030    2    1    2    0    0  0.00000000000E+00  0.00000000000E+00 -0.81561818666E+03  0.35103627192E+04  0.34142954462E+04 0.  0.
        3    1    3    3  502    0 -0.60735686211E+03  0.14690303375E+04  0.23213552080E+03  0.16064928885E+04  0.10100000352E+00 0.  1.
       -3    1    3    3    0  502  0.60735686211E+03 -0.14690303375E+04 -0.10477537075E+04  0.19038698307E+04  0.10100000352E+00 0. -1.
</event>
<event>
 5   0  0.4396257E-07  0.3411887E+04  0.7818609E-02  0.8134995E-01
        2   -1    0    0  501    0  0.00000000000E+00  0.00000000000E+00  0.21857212089E+04  0.21857212089E+04  0.25500000920E-02 0. -1.
       -2   -1    0    0    0  501  0.00000000000E+00  0.00000000000E+00 -0.13314797216E+04  0.13314797216E+04  0.25500000920E-02 0.  1.
    10030    2    1    2    0    0  0.00000000000E+00  0.00000000000E+00  0.85424148733E+03  0.35172009305E+04  0.34118871415E+04 0.  0.
        2    1    3    3  502    0 -0.12585544611E+04 -0.10951012419E+04  0.59696059737E+02  0.16693620581E+04  0.25500000920E-02 0.  1.
       -2    1    3    3    0  502  0.12585544611E+04  0.10951012419E+04  0.79454542760E+03  0.18478388723E+04  0.25500000920E-02 0. -1.
</event>
<event>
 5   0  0.4381939E-07  0.3410107E+04  0.7818609E-02  0.8135430E-01
        2   -1    0    0  501    0  0.00000000000E+00  0.00000000000E+00  0.18054685400E+04  0.18054685400E+04  0.25500000920E-02 0.  1.
       -2   -1    0    0    0  501  0.00000000000E+00  0.00000000000E+00 -0.16102229147E+04  0.16102229147E+04  0.25500000920E-02 0. -1.
    10030    2    1    2    0    0  0.00000000000E+00  0.00000000000E+00  0.19524562526E+03  0.34156914547E+04  0.34101066346E+04 0.  0.
        3    1    3    3  502    0 -0.15419503202E+03 -0.65464811428E+03  0.16669901771E+04  0.17975529261E+04  0.10100000352E+00 0.  1.
       -3    1    3    3    0  502  0.15419503202E+03  0.65464811428E+03 -0.14717445519E+04  0.16181385285E+04  0.10100000352E+00 0. -1.
</event>
<event>
 5   0  0.1520084E-07  0.3353993E+04  0.7818609E-02  0.8149291E-01
       -1   -1    0    0    0  501  0.00000000000E+00  0.00000000000E+00  0.15715960571E+04  0.15715960571E+04  0.50400001928E-02 0.  1.
        1   -1    0    0  501    0  0.00000000000E+00  0.00000000000E+00 -0.17894661693E+04  0.17894661694E+04  0.50400001928E-02 0. -1.
    10030    2    1    2    0    0  0.00000000000E+00  0.00000000000E+00 -0.21787011226E+03  0.33610622264E+04  0.33539934264E+04 0.  0.
        2    1    3    3  502    0 -0.14220753013E+04  0.14704706181E+03  0.76949496395E+03  0.16235896958E+04  0.25500000920E-02 0.  1.
       -2    1    3    3    0  502  0.14220753013E+04 -0.14704706181E+03 -0.98736507621E+03  0.17374725306E+04  0.25500000920E-02 0. -1.
</event>
<event>
 5   0  0.4396257E-07  0.3393902E+04  0.7818609E-02  0.8139405E-01
        2   -1    0    0  501    0  0.00000000000E+00  0.00000000000E+00  0.22602631364E+04  0.22602631364E+04  0.25500000920E-02 0. -1.
       -2   -1    0    0    0  501  0.00000000000E+00  0.00000000000E+00 -0.12740297588E+04  0.12740297588E+04  0.25500000920E-02 0.  1.
    10030    2    1    2    0    0  0.00000000000E+00  0.00000000000E+00  0.98623337766E+03  0.35342928952E+04  0.33939018833E+04 0.  0.
        2    1    3    3  502    0 -0.11969276978E+03  0.16042202767E+04  0.10556406406E+04  0.19241169968E+04  0.25500000920E-02 0.  1.
       -2    1    3    3    0  502  0.11969276978E+03 -0.16042202767E+04 -0.69407262960E+02  0.16101758983E+04  0.25500000920E-02 0. -1.
</event>
<event>
 5   0  0.1523259E-07  0.3394053E+04  0.7818609E-02  0.8139367E-01
       -1   -1    0    0    0  501  0.00000000000E+00  0.00000000000E+00  0.20731950653E+04  0.20731950653E+04  0.50400001928E-02 0.  1.
        1   -1    0    0  501    0  0.00000000000E+00  0.00000000000E+00 -0.13891112762E+04  0.13891112763E+04  0.50400001928E-02 0. -1.
    10030    2    1    2    0    0  0.00000000000E+00  0.00000000000E+00  0.68408378903E+03  0.34623063415E+04  0.33940528240E+04 0.  0.
        4    1    3    3  502    0 -0.93748067820E+03  0.35812688303E+03  0.17380545789E+04  0.20069778820E+04  0.12699999809E+01 0.  1.
       -4    1    3    3    0  502  0.93748067820E+03 -0.35812688303E+03 -0.10539707899E+04  0.14553284596E+04  0.12699999809E+01 0. -1.
</event>
<event>
 5   0  0.1523259E-07  0.3403489E+04  0.7818609E-02  0.8137050E-01
        1   -1    0    0  501    0  0.00000000000E+00  0.00000000000E+00  0.25582091716E+04  0.25582091716E+04  0.50400001928E-02 0. -1.
       -1   -1    0    0    0  501  0.00000000000E+00  0.00000000000E+00 -0.11320165314E+04  0.11320165314E+04  0.50400001928E-02 0.  1.
    10030    2    1    2    0    0  0.00000000000E+00  0.00000000000E+00  0.14261926402E+04  0.36902257031E+04  0.34034894289E+04 0.  0.
        4    1    3    3  502    0 -0.33002764118E+03 -0.67025259522E+03 -0.94469565881E+03  0.12044120084E+04  0.12699999809E+01 0.  1.
       -4    1    3    3    0  502  0.33002764118E+03  0.67025259522E+03  0.23708882990E+04  0.24858136947E+04  0.12699999809E+01 0. -1.
</event>
<event>
 5   0  0.4521737E-07  0.3393920E+04  0.7818609E-02  0.8139400E-01
       -2   -1    0    0    0  501  0.00000000000E+00  0.00000000000E+00  0.11659877433E+04  0.11659877433E+04  0.25500000920E-02 0.  1.
        2   -1    0    0  501    0  0.00000000000E+00  0.00000000000E+00 -0.24697279520E+04  0.24697279520E+04  0.25500000920E-02 0. -1.
    10030    2    1    2    0    0  0.00000000000E+00  0.00000000000E+00 -0.13037402087E+04  0.36357156954E+04  0.33939195756E+04 0.  0.
        4    1    3    3  502    0 -0.14519889077E+04 -0.52722488534E+03  0.10062292579E+03  0.15480195263E+04  0.12699999809E+01 0.  1.
       -4    1    3    3    0  502  0.14519889077E+04  0.52722488534E+03 -0.14043631345E+04  0.20876961690E+04  0.12699999809E+01 0. -1.
</event>
<event>
 5   0  0.1421875E-07  0.3353046E+04  0.7818609E-02  0.8149528E-01
       -1   -1    0    0    0  501  0.00000000000E+00  0.00000000000E+00  0.14349509446E+04  0.14349509446E+04  0.50400001928E-02 0.  1.
        1   -1    0    0  501    0  0.00000000000E+00  0.00000000000E+00 -0.19587629034E+04  0.19587629034E+04  0.50400001928E-02 0. -1.
    10030    2    1    2    0    0  0.00000000000E+00  0.00000000000E+00 -0.52381195876E+03  0.33937138480E+04  0.33530455878E+04 0.  0.
        5    1    3    3  502    0  0.44898874579E+03  0.14040214565E+04 -0.10702411007E+04  0.18216215984E+04  0.46999998093E+01 0. -1.
       -5    1    3    3    0  502 -0.44898874579E+03 -0.14040214565E+04  0.54642914190E+03  0.15720922496E+04  0.46999998093E+01 0.  1.
</event>
<event>
 5   0  0.1520084E-07  0.3394983E+04  0.7818609E-02  0.8139139E-01
       -1   -1    0    0    0  501  0.00000000000E+00  0.00000000000E+00  0.13362192430E+04  0.13362192430E+04  0.50400001928E-02 0.  1.
        1   -1    0    0  501    0  0.00000000000E+00  0.00000000000E+00 -0.21564406268E+04  0.21564406268E+04  0.50400001928E-02 0. -1.
    10030    2    1    2    0    0  0.00000000000E+00  0.00000000000E+00 -0.82022138381E+03  0.34926598697E+04  0.33949830408E+04 0.  0.
        2    1    3    3  502    0 -0.13147402999E+04  0.58658106272E+03 -0.13353516390E+04  0.19636148805E+04  0.25500000920E-02 0. -1.
       -2    1    3    3    0  502  0.13147402999E+04 -0.58658106272E+03  0.51513025516E+03  0.15290449892E+04  0.25500000920E-02 0.  1.
</event>
<event>
 5   0  0.4381939E-07  0.3427917E+04  0.7818609E-02  0.8131088E-01
       -2   -1    0    0    0  501  0.00000000000E+00  0.00000000000E+00  0.23857788129E+04  0.23857788129E+04  0.25500000920E-02 0.  1.
        2   -1    0    0  501    0  0.00000000000E+00  0.00000000000E+00 -0.12313185497E+04  0.12313185497E+04  0.25500000920E-02 0. -1.
    10030    2    1    2    0    0  0.00000000000E+00  0.00000000000E+00  0.11544602632E+04  0.36170973626E+04  0.34279169814E+04 0.  0.
        3    1    3    3  502    0  0.12183877403E+04  0.11132301427E+04  0.89208567484E+02  0.16527880128E+04  0.10100000352E+00 0. -1.
       -3    1    3    3    0  502 -0.12183877403E+04 -0.11132301427E+04  0.10652516957E+04  0.19643093498E+04  0.10100000352E+00 0.  1.
</event>
<event>
 5   0  0.4381939E-07  0.3549526E+04  0.7818609E-02  0.8102152E-01
       -2   -1    0    0    0  501  0.00000000000E+00  0.00000000000E+00  0.15439568236E+04  0.15439568236E+04  0.25500000920E-02 0.  1.
        2   -1    0    0  501    0  0.00000000000E+00  0.00000000000E+00 -0.20400719070E+04  0.20400719070E+04  0.25500000920E-02 0. -1.
    10030    2    1    2    0    0  0.00000000000E+00  0.00000000000E+00 -0.49611508335E+03  0.35840287306E+04  0.35495255691E+04 0.  0.
        3    1    3    3  502    0 -0.15027064153E+04  0.68749149033E+03  0.40554586345E+03  0.17015400605E+04  0.10100000352E+00 0.  1.
       -3    1    3    3    0  502  0.15027064153E+04 -0.68749149033E+03 -0.90166094680E+03  0.18824886701E+04  0.10100000352E+00 0. -1.
</event>
<event>
 5   0  0.4396257E-07  0.3395998E+04  0.7818609E-02  0.8138889E-01
       -2   -1    0    0    0  501  0.00000000000E+00  0.00000000000E+00  0.11257858662E+04  0.11257858662E+04  0.25500000920E-02 0.  1.
        2   -1    0    0  501    0  0.00000000000E+00  0.00000000000E+00 -0.25610563099E+04  0.25610563099E+04  0.25500000920E-02 0. -1.
    10030    2    1    2    0    0  0.00000000000E+00  0.00000000000E+00 -0.14352704437E+04  0.36868421761E+04  0.33959982310E+04 0.  0.
        2    1    3    3  502    0  0.96091458364E+03 -0.13869766473E+04 -0.92402149032E+03  0.19237662987E+04  0.25500000920E-02 0. -1.
       -2    1    3    3    0  502 -0.96091458364E+03  0.13869766473E+04 -0.51124895333E+03  0.17630758774E+04  0.25500000920E-02 0.  1.
</event>
<event>
 5   0  0.1473755E-07  0.3428760E+04  0.7818609E-02  0.8130884E-01
        1   -1    0    0  501    0  0.00000000000E+00  0.00000000000E+00  0.24555118039E+04  0.24555118039E+04  0.50400001928E-02 0.  1.
       -1   -1    0    0    0  501  0.00000000000E+00  0.00000000000E+00 -0.11969391076E+04  0.11969391076E+04  0.50400001928E-02 0. -1.
    10030    2    1    2    0    0  0.00000000000E+00  0.00000000000E+00  0.12585726963E+04  0.36524509115E+04  0.34287596050E+04 0.  0.
        1    1    3    3  502    0  0.17125749644E+04  0.69148547974E+02  0.66919485325E+03  0.18399772504E+04  0.50400001928E-02 0.  1.
       -1    1    3    3    0  502 -0.17125749644E+04 -0.69148547974E+02  0.58937784308E+03  0.18124736611E+04  0.50400001928E-02 0. -1.
</event>
<event>
 5   0  0.4521737E-07  0.3392007E+04  0.7818609E-02  0.8139871E-01
       -2   -1    0    0    0  501  0.00000000000E+00  0.00000000000E+00  0.11471949038E+04  0.11471949038E+04  0.25500000920E-02 0.  1.
        2   -1    0    0  501    0  0.00000000000E+00  0.00000000000E+00 -0.25073571390E+04  0.25073571390E+04  0.25500000920E-02 0. -1.
    10030    2    1    2    0    0  0.00000000000E+00  0.00000000000E+00 -0.13601622352E+04  0.36545520427E+04  0.33920066814E+04 0.  0.
        4    1    3    3  502    0 -0.11876349903E+04  0.21968578587E+03 -0.19629067555E+04  0.23047219482E+04  0.12699999809E+01 0. -1.
       -4    1    3    3    0  502  0.11876349903E+04 -0.21968578587E+03  0.60274452029E+03  0.13498300946E+04  0.12699999809E+01 0.  1.
</event>
<event>
 5   0  0.1435806E-07  0.3394819E+04  0.7818609E-02  0.8139179E-01
        1   -1    0    0  501    0  0.00000000000E+00  0.00000000000E+00  0.19947515253E+04  0.19947515253E+04  0.50400001928E-02 0.  1.
       -1   -1    0    0    0  501  0.00000000000E+00  0.00000000000E+00 -0.14443895935E+04  0.14443895935E+04  0.50400001928E-02 0. -1.
    10030    2    1    2    0    0  0.00000000000E+00  0.00000000000E+00  0.55036193185E+03  0.34391411188E+04  0.33948186077E+04 0.  0.
        3    1    3    3  502    0  0.14246985282E+04  0.21561285566E+02 -0.65934187864E+03  0.15700199070E+04  0.10100000352E+00 0. -1.
       -3    1    3    3    0  502 -0.14246985282E+04 -0.21561285566E+02  0.12097038105E+04  0.18691212118E+04  0.10100000352E+00 0.  1.
</event>
<event>
 5   0  0.4381939E-07  0.3369998E+04  0.7818609E-02  0.8145309E-01
        2   -1    0    0  501    0  0.00000000000E+00  0.00000000000E+00  0.24192646745E+04  0.24192646745E+04  0.25500000920E-02 0.  1.
       -2   -1    0    0    0  501  0.00000000000E+00  0.00000000000E+00 -0.11735886868E+04  0.11735886868E+04  0.25500000920E-02 0. -1.
    10030    2    1    2    0    0  0.00000000000E+00  0.00000000000E+00  0.12456759877E+04  0.35928533613E+04  0.33699980132E+04 0.  0.
        3    1    3    3  502    0  0.12021577523E+04 -0.11800972653E+04  0.66285442876E+03  0.18103007543E+04  0.10100000352E+00 0.  1.
       -3    1    3    3    0  502 -0.12021577523E+04  0.11800972653E+04  0.58282155893E+03  0.17825526070E+04  0.10100000352E+00 0. -1.
</event>
<event>
 5   0  0.4381939E-07  0.3408478E+04  0.7818609E-02  0.8135829E-01
        2   -1    0    0  501    0  0.00000000000E+00  0.00000000000E+00  0.26012544017E+04  0.26012544017E+04  0.25500000920E-02 0.  1.
       -2   -1    0    0    0  501  0.00000000000E+00  0.00000000000E+00 -0.11165496995E+04  0.11165496995E+04  0.25500000920E-02 0. -1.
    10030    2    1    2    0    0  0.00000000000E+00  0.00000000000E+00  0.14847047022E+04  0.37178041012E+04  0.34084775608E+04 0.  0.
        3    1    3    3  502    0  0.10945988439E+04 -0.12144667530E+03  0.21609734480E+04  0.24254282461E+04  0.10100000352E+00 0.  1.
       -3    1    3    3    0  502 -0.10945988439E+04  0.12144667530E+03 -0.67626874580E+03  0.12923758551E+04  0.10100000352E+00 0. -1.
</event>
<event>
 5   0  0.1473755E-07  0.3400889E+04  0.7818609E-02  0.8137688E-01
        1   -1    0    0  501    0  0.00000000000E+00  0.00000000000E+00  0.93913813633E+03  0.93913813634E+03  0.50400001928E-02 0. -1.
       -1   -1    0    0    0  501  0.00000000000E+00  0.00000000000E+00 -0.30788991323E+04  0.30788991323E+04  0.50400001928E-02 0.  1.
    10030    2    1    2    0    0  0.00000000000E+00  0.00000000000E+00 -0.21397609960E+04  0.40180372686E+04  0.34008890562E+04 0.  0.
        1    1    3    3  502    0 -0.12588171008E+04 -0.11075733130E+04 -0.73535125307E+03  0.18308688108E+04  0.50400001928E-02 0. -1.
       -1    1    3    3    0  502  0.12588171008E+04  0.11075733130E+04 -0.14044097429E+04  0.21871684578E+04  0.50400001928E-02 0.  1.
</event>
<event>
 5   0  0.1473755E-07  0.3400414E+04  0.7818609E-02  0.8137805E-01
        1   -1    0    0  501    0  0.00000000000E+00  0.00000000000E+00  0.11187373946E+04  0.11187373946E+04  0.50400001928E-02 0.  1.
       -1   -1    0    0    0  501  0.00000000000E+00  0.00000000000E+00 -0.25838979813E+04  0.25838979813E+04  0.50400001928E-02 0. -1.
    10030    2    1    2    0    0  0.00000000000E+00  0.00000000000E+00 -0.14651605867E+04  0.37026353759E+04  0.34004136781E+04 0.  0.
        1    1    3    3  502    0 -0.13880021384E+04  0.96307756791E+03 -0.94099436512E+03  0.19337886992E+04  0.50400001928E-02 0.  1.
       -1    1    3    3    0  502  0.13880021384E+04 -0.96307756791E+03 -0.52416622155E+03  0.17688466767E+04  0.50400001928E-02 0. -1.
</event>
<event>
 5   0  0.4486226E-07  0.3523457E+04  0.7818609E-02  0.8108253E-01
       -2   -1    0    0    0  501  0.00000000000E+00  0.00000000000E+00  0.18328115203E+04  0.18328115203E+04  0.25500000920E-02 0.  1.
        2   -1    0    0  501    0  0.00000000000E+00  0.00000000000E+00 -0.16934027690E+04  0.16934027690E+04  0.25500000920E-02 0. -1.
    10030    2    1    2    0    0  0.00000000000E+00  0.00000000000E+00  0.13940875130E+03  0.35262142893E+04  0.35234574517E+04 0.  0.
        1    1    3    3  502    0 -0.40546142639E+03 -0.53583136701E+03 -0.15601194657E+04  0.16986721195E+04  0.50400001928E-02 0. -1.
       -1    1    3    3    0  502  0.40546142639E+03  0.53583136701E+03  0.16995282170E+04  0.18275421698E+04  0.50400001928E-02 0.  1.
</event>
<event>
 5   0  0.1523259E-07  0.3397630E+04  0.7818609E-02  0.8138488E-01
        1   -1    0    0  501    0  0.00000000000E+00  0.00000000000E+00  0.15517645429E+04  0.15517645429E+04  0.50400001928E-02 0.  1.
       -1   -1    0    0    0  501  0.00000000000E+00  0.00000000000E+00 -0.18598008653E+04  0.18598008653E+04  0.50400001928E-02 0. -1.
    10030    2    1    2    0    0  0.00000000000E+00  0.00000000000E+00 -0.30803632245E+03  0.34115654082E+04  0.33976303740E+04 0.  0.
        4    1    3    3  502    0 -0.12759761561E+04 -0.93888956177E+03 -0.77000197535E+03  0.17614009808E+04  0.12699999809E+01 0.  1.
       -4    1    3    3    0  502  0.12759761561E+04  0.93888956177E+03  0.46196565290E+03  0.16501644274E+04  0.12699999809E+01 0. -1.
</event>
<event>
 5   0  0.4447909E-07  0.3396366E+04  0.7818609E-02  0.8138799E-01
       -2   -1    0    0    0  501  0.00000000000E+00  0.00000000000E+00  0.11171068897E+04  0.11171068897E+04  0.25500000920E-02 0.  1.
        2   -1    0    0  501    0  0.00000000000E+00  0.00000000000E+00 -0.25815126386E+04  0.25815126386E+04  0.25500000920E-02 0. -1.
    10030    2    1    2    0    0  0.00000000000E+00  0.00000000000E+00 -0.14644057489E+04  0.36986195283E+04  0.33963660312E+04 0.  0.
        5    1    3    3  502    0  0.12367848881E+04  0.14356035209E+03  0.52536364457E+03  0.13513976037E+04  0.46999998093E+01 0.  1.
       -5    1    3    3    0  502 -0.12367848881E+04 -0.14356035209E+03 -0.19897693935E+04  0.23472219246E+04  0.46999998093E+01 0. -1.
</event>
<event>
 5   0  0.1520084E-07  0.3410415E+04  0.7818609E-02  0.8135355E-01
       -1   -1    0    0    0  501  0.00000000000E+00  0.00000000000E+00  0.15593509287E+04  0.15593509287E+04  0.50400001928E-02 0.  1.
        1   -1    0    0  501    0  0.00000000000E+00  0.00000000000E+00 -0.18647072663E+04  0.18647072663E+04  0.50400001928E-02 0. -1.
    10030    2    1    2    0    0  0.00000000000E+00  0.00000000000E+00 -0.30535633756E+03  0.34240581950E+04  0.34104152283E+04 0.  0.
        2    1    3    3  502    0 -0.10055543697E+04  0.53845922097E+03  0.11199314598E+04  0.15985382065E+04  0.25500000920E-02 0.  1.
       -2    1    3    3    0  502  0.10055543697E+04 -0.53845922097E+03 -0.14252877973E+04  0.18255199885E+04  0.25500000920E-02 0. -1.
</event>
<event>
 5   0  0.1421875E-07  0.3410308E+04  0.7818609E-02  0.8135381E-01
       -1   -1    0    0    0  501  0.00000000000E+00  0.00000000000E+00  0.19291867182E+04  0.19291867182E+04  0.50400001928E-02 0.  1.
        1   -1    0    0  501    0  0.00000000000E+00  0.00000000000E+00 -0.15071380475E+04  0.15071380475E+04  0.50400001928E-02 0. -1.
    10030    2    1    2    0    0  0.00000000000E+00  0.00000000000E+00  0.42204867071E+03  0.34363247656E+04  0.34103083166E+04 0.  0.
        5    1    3    3  502    0  0.18136169601E+03  0.13400214196E+04 -0.83563917333E+03  0.15896113952E+04  0.46999998093E+01 0. -1.
       -5    1    3    3    0  502 -0.18136169601E+03 -0.13400214196E+04  0.12576878440E+04  0.18467133705E+04  0.46999998093E+01 0.  1.
</event>
<event>
 5   0  0.1435806E-07  0.3407435E+04  0.7818609E-02  0.8136084E-01
       -1   -1    0    0    0  501  0.00000000000E+00  0.00000000000E+00  0.15027247388E+04  0.15027247388E+04  0.50400001928E-02 0. -1.
        1   -1    0    0  501    0  0.00000000000E+00  0.00000000000E+00 -0.19315938087E+04  0.19315938087E+04  0.50400001928E-02 0.  1.
    10030    2    1    2    0    0  0.00000000000E+00  0.00000000000E+00 -0.42886906985E+03  0.34343185475E+04  0.34074352828E+04 0.  0.
        3    1    3    3  502    0  0.13381676082E+04  0.74747359867E+03  0.53523782244E+03  0.16235420737E+04  0.10100000352E+00 0. -1.
       -3    1    3    3    0  502 -0.13381676082E+04 -0.74747359867E+03 -0.96410689230E+03  0.18107764738E+04  0.10100000352E+00 0.  1.
</event>
<event>
 5   0  0.4447909E-07  0.3395644E+04  0.7818609E-02  0.8138976E-01
       -2   -1    0    0    0  501  0.00000000000E+00  0.00000000000E+00  0.14178556237E+04  0.14178556237E+04  0.25500000920E-02 0.  1.
        2   -1    0    0  501    0  0.00000000000E+00  0.00000000000E+00 -0.20330700615E+04  0.20330700615E+04  0.25500000920E-02 0. -1.
    10030    2    1    2    0    0  0.00000000000E+00  0.00000000000E+00 -0.61521443783E+03  0.34509256852E+04  0.33956441628E+04 0.  0.
        5    1    3    3  502    0  0.12603040418E+04 -0.21677190051E+03  0.82736494405E+03  0.15231254628E+04  0.46999998093E+01 0.  1.
       -5    1    3    3    0  502 -0.12603040418E+04  0.21677190051E+03 -0.14425793819E+04  0.19278002225E+04  0.46999998093E+01 0. -1.
</event>
<event>
 5   0  0.1520084E-07  0.3400803E+04  0.7818609E-02  0.8137709E-01
        1   -1    0    0  501    0  0.00000000000E+00  0.00000000000E+00  0.22322088896E+04  0.22322088896E+04  0.50400001928E-02 0. -1.
       -1   -1    0    0    0  501  0.00000000000E+00  0.00000000000E+00 -0.12952931552E+04  0.12952931552E+04  0.50400001928E-02 0.  1.
    10030    2    1    2    0    0  0.00000000000E+00  0.00000000000E+00  0.93691573432E+03  0.35275020448E+04  0.34008027851E+04 0.  0.
        2    1    3    3  502    0 -0.91169800129E+03 -0.21870678777E+03  0.19398769959E+04  0.21545646112E+04  0.25500000920E-02 0.  1.
       -2    1    3    3    0  502  0.91169800129E+03  0.21870678777E+03 -0.10029612615E+04  0.13729374337E+04  0.25500000920E-02 0. -1.
</event>
<event>
 5   0  0.1435806E-07  0.3408720E+04  0.7818609E-02  0.8135770E-01
       -1   -1    0    0    0  501  0.00000000000E+00  0.00000000000E+00  0.19777310028E+04  0.19777310029E+04  0.50400001928E-02 0. -1.
        1   -1    0    0  501    0  0.00000000000E+00  0.00000000000E+00 -0.14687752553E+04  0.14687752553E+04  0.50400001928E-02 0.  1.
    10030    2    1    2    0    0  0.00000000000E+00  0.00000000000E+00  0.50895574755E+03  0.34465062582E+04  0.34087196181E+04 0.  0.
        3    1    3    3  502    0 -0.10885402542E+04  0.12115248208E+04 -0.25321388677E+03  0.16482807889E+04  0.10100000352E+00 0.  1.
       -3    1    3    3    0  502  0.10885402542E+04 -0.12115248208E+04  0.76216963432E+03  0.17982254692E+04  0.10100000352E+00 0. -1.
</event>
<event>
 5   0  0.4381939E-07  0.3390273E+04  0.7818609E-02  0.8140298E-01
        2   -1    0    0  501    0  0.00000000000E+00  0.00000000000E+00  0.10886180342E+04  0.10886180342E+04  0.25500000920E-02 0.  1.
       -2   -1    0    0    0  501  0.00000000000E+00  0.00000000000E+00 -0.26395746684E+04  0.26395746684E+04  0.25500000920E-02 0. -1.
    10030    2    1    2    0    0  0.00000000000E+00  0.00000000000E+00 -0.15509566342E+04  0.37281927026E+04  0.33902734914E+04 0.  0.
        3    1    3    3  502    0  0.47267887800E+03  0.13496311628E+04  0.22550152632E+03  0.14476810926E+04  0.10100000352E+00 0.  1.
       -3    1    3    3    0  502 -0.47267887800E+03 -0.13496311628E+04 -0.17764581605E+04  0.22805116100E+04  0.10100000352E+00 0. -1.
</event>
<event>
 5   0  0.4447909E-07  0.3405295E+04  0.7818609E-02  0.8136608E-01
        2   -1    0    0  501    0  0.00000000000E+00  0.00000000000E+00  0.23946302325E+04  0.23946302326E+04  0.25500000920E-02 0. -1.
       -2   -1    0    0    0  501  0.00000000000E+00  0.00000000000E+00 -0.12106292203E+04  0.12106292203E+04  0.25500000920E-02 0.  1.
    10030    2    1    2    0    0  0.00000000000E+00  0.00000000000E+00  0.11840010122E+04  0.36052594529E+04  0.34052954829E+04 0.  0.
        5    1    3    3  502    0  0.89773828932E+03 -0.81157297476E+03 -0.67599361639E+03  0.13862085662E+04  0.46999998093E+01 0.  1.
       -5    1    3    3    0  502 -0.89773828932E+03  0.81157297476E+03  0.18599946286E+04  0.22190508867E+04  0.46999998093E+01 0. -1.
</event>
<event>
 5   0  0.4486226E-07  0.3393855E+04  0.7818609E-02  0.8139416E-01
       -2   -1    0    0    0  501  0.00000000000E+00  0.00000000000E+00  0.16139013227E+04  0.16139013227E+04  0.25500000920E-02 0.  1.
        2   -1    0    0  501    0  0.00000000000E+00  0.00000000000E+00 -0.17842244401E+04  0.17842244401E+04  0.25500000920E-02 0. -1.
    10030    2    1    2    0    0  0.00000000000E+00  0.00000000000E+00 -0.17032311743E+03  0.33981257628E+04  0.33938545543E+04 0.  0.
        1    1    3    3  502    0  0.15870111375E+04 -0.56542979830E+03  0.11818755340E+03  0.16888704821E+04  0.50400001928E-02 0. -1.
       -1    1    3    3    0  502 -0.15870111375E+04  0.56542979830E+03 -0.28851067083E+03  0.17092552807E+04  0.50400001928E-02 0.  1.
</event>
<event>
 5   0  0.1523259E-07  0.3401288E+04  0.7818609E-02  0.8137590E-01
       -1   -1    0    0    0  501  0.00000000000E+00  0.00000000000E+00  0.17365262906E+04  0.17365262906E+04  0.50400001928E-02 0. -1.
        1   -1    0    0  501    0  0.00000000000E+00  0.00000000000E+00 -0.16655033990E+04  0.16655033990E+04  0.50400001928E-02 0.  1.
    10030    2    1    2    0    0  0.00000000000E+00  0.00000000000E+00  0.71022891565E+02  0.34020296896E+04  0.34012882498E+04 0.  0.
        4    1    3    3  502    0 -0.96764916632E+03 -0.22738988753E+03  0.14157172294E+04  0.17298288807E+04  0.12699999809E+01 0. -1.
       -4    1    3    3    0  502  0.96764916632E+03  0.22738988753E+03 -0.13446943379E+04  0.16722008089E+04  0.12699999809E+01 0.  1.
</event>
<event>
 5   0  0.1421875E-07  0.3406943E+04  0.7818609E-02  0.8136204E-01
        1   -1    0    0  501    0  0.00000000000E+00  0.00000000000E+00  0.19356894180E+04  0.19356894180E+04  0.50400001928E-02 0. -1.
       -1   -1    0    0    0  501  0.00000000000E+00  0.00000000000E+00 -0.14991118929E+04  0.14991118929E+04  0.50400001928E-02 0.  1.
    10030    2    1    2    0    0  0.00000000000E+00  0.00000000000E+00  0.43657752515E+03  0.34348013109E+04  0.34069429273E+04 0.  0.
        5    1    3    3  502    0 -0.39519633466E+03 -0.67192886070E+03  0.17453105855E+04  0.19114914770E+04  0.46999998093E+01 0. -1.
       -5    1    3    3    0  502  0.39519633466E+03  0.67192886070E+03 -0.13087330604E+04  0.15233098339E+04  0.46999998093E+01 0.  1.
</event>
<event>
 5   0  0.1435806E-07  0.3348412E+04  0.7818609E-02  0.8150685E-01
        1   -1    0    0  501    0  0.00000000000E+00  0.00000000000E+00  0.14747110589E+04  0.14747110589E+04  0.50400001928E-02 0. -1.
       -1   -1    0    0    0  501  0.00000000000E+00  0.00000000000E+00 -0.19006878849E+04  0.19006878850E+04  0.50400001928E-02 0.  1.
    10030    2    1    2    0    0  0.00000000000E+00  0.00000000000E+00 -0.42597682601E+03  0.33753989439E+04  0.33484118286E+04 0.  0.
        3    1    3    3  502    0 -0.45791928663E+03  0.70583252287E+02  0.14087955150E+04  0.14830296295E+04  0.10100000352E+00 0. -1.
       -3    1    3    3    0  502  0.45791928663E+03 -0.70583252287E+02 -0.18347723410E+04  0.18923693144E+04  0.10100000352E+00 0.  1.
</event>
<event>
 5   0  0.4396257E-07  0.3352716E+04  0.7818609E-02  0.8149610E-01
       -2   -1    0    0    0  501  0.00000000000E+00  0.00000000000E+00  0.13453280969E+04  0.13453280969E+04  0.25500000920E-02 0. -1.
        2   -1    0    0  501    0  0.00000000000E+00  0.00000000000E+00 -0.20888407581E+04  0.20888407581E+04  0.25500000920E-02 0.  1.
    10030    2    1    2    0    0  0.00000000000E+00  0.00000000000E+00 -0.74351266119E+03  0.34341688549E+04  0.33527160105E+04 0.  0.
        2    1    3    3  502    0  0.11140741988E+04  0.11496705572E+04 -0.88110214746E+03  0.18273600370E+04  0.25500000920E-02 0.  1.
       -2    1    3    3    0  502 -0.11140741988E+04 -0.11496705572E+04  0.13758948627E+03  0.16068088179E+04  0.25500000920E-02 0. -1.
</event>
<event>
 5   0  0.1435806E-07  0.3404580E+04  0.7818609E-02  0.8136783E-01
       -1   -1    0    0    0  501  0.00000000000E+00  0.00000000000E+00  0.16532171972E+04  0.16532171972E+04  0.50400001928E-02 0. -1.
        1   -1    0    0  501    0  0.00000000000E+00  0.00000000000E+00 -0.17528191241E+04  0.17528191241E+04  0.50400001928E-02 0.  1.
    10030    2    1    2    0    0  0.00000000000E+00  0.00000000000E+00 -0.99601926935E+02  0.34060363214E+04  0.34045796919E+04 0.  0.
        3    1    3    3  502    0 -0.18691913549E+03  0.15852360604E+03  0.16354737731E+04  0.16537360640E+04  0.10100000352E+00 0. -1.
       -3    1    3    3    0  502  0.18691913549E+03 -0.15852360604E+03 -0.17350757000E+04  0.17523002573E+04  0.10100000352E+00 0.  1.
</event>
<event>
 5   0  0.1520084E-07  0.3388682E+04  0.7818609E-02  0.8140690E-01
        1   -1    0    0  501    0  0.00000000000E+00  0.00000000000E+00  0.12335633366E+04  0.12335633367E+04  0.50400001928E-02 0. -1.
       -1   -1    0    0    0  501  0.00000000000E+00  0.00000000000E+00 -0.23272344684E+04  0.23272344685E+04  0.50400001928E-02 0.  1.
    10030    2    1    2    0    0  0.00000000000E+00  0.00000000000E+00 -0.10936711318E+04  0.35607978051E+04  0.33886818181E+04 0.  0.
        2    1    3    3  502    0 -0.49711796343E+03 -0.52582435504E+03  0.10630282032E+04  0.12859418660E+04  0.25500000920E-02 0. -1.
       -2    1    3    3    0  502  0.49711796343E+03  0.52582435504E+03 -0.21566993350E+04  0.22748559391E+04  0.25500000920E-02 0.  1.
</event>
<event>
 5   0  0.1523259E-07  0.3416123E+04  0.7818609E-02  0.8133960E-01
        1   -1    0    0  501    0  0.00000000000E+00  0.00000000000E+00  0.21840256540E+04  0.21840256540E+04  0.50400001928E-02 0. -1.
       -1   -1    0    0    0  501  0.00000000000E+00  0.00000000000E+00 -0.13358242516E+04  0.13358242516E+04  0.50400001928E-02 0.  1.
    10030    2    1    2    0    0  0.00000000000E+00  0.00000000000E+00  0.84820140240E+03  0.35198499056E+04  0.34161232031E+04 0.  0.
        4    1    3    3  502    0 -0.66050514390E+02 -0.16949556174E+04  0.63077948418E+03  0.18097296997E+04  0.12699999809E+01 0. -1.
       -4    1    3    3    0  502  0.66050514390E+02  0.16949556174E+04  0.21742191823E+03  0.17101202059E+04  0.12699999809E+01 0.  1.
</event>
<event>
 5   0  0.4486226E-07  0.3430345E+04  0.7818609E-02  0.8130499E-01
        2   -1    0    0  501    0  0.00000000000E+00  0.00000000000E+00  0.12640804824E+04  0.12640804824E+04  0.25500000920E-02 0. -1.
       -2   -1    0    0    0  501  0.00000000000E+00  0.00000000000E+00 -0.23272387144E+04  0.23272387144E+04  0.25500000920E-02 0.  1.
    10030    2    1    2    0    0  0.00000000000E+00  0.00000000000E+00 -0.10631582320E+04  0.35913191969E+04  0.34303451936E+04 0.  0.
        1    1    3    3  502    0 -0.52294903848E+03  0.14417596847E+04  0.27235568335E+03  0.15576663004E+04  0.50400001928E-02 0.  1.
       -1    1    3    3    0  502  0.52294903848E+03 -0.14417596847E+04 -0.13355139153E+04  0.20336528964E+04  0.50400001928E-02 0. -1.
</event>
<event>
 5   0  0.4381939E-07  0.3391452E+04  0.7818609E-02  0.8140007E-01
       -2   -1    0    0    0  501  0.00000000000E+00  0.00000000000E+00  0.13755435154E+04  0.13755435154E+04  0.25500000920E-02 0. -1.
        2   -1    0    0  501    0  0.00000000000E+00  0.00000000000E+00 -0.20904371189E+04  0.20904371189E+04  0.25500000920E-02 0.  1.
    10030    2    1    2    0    0  0.00000000000E+00  0.00000000000E+00 -0.71489360351E+03  0.34659806343E+04  0.33914523280E+04 0.  0.
        3    1    3    3  502    0 -0.34731686029E+03  0.13572307450E+04 -0.13338386989E+04  0.19343810332E+04  0.10100000352E+00 0.  1.
       -3    1    3    3    0  502  0.34731686029E+03 -0.13572307450E+04  0.61894509542E+03  0.15315996011E+04  0.10100000352E+00 0. -1.
</event>
<event>
 5   0  0.1520084E-07  0.3422726E+04  0.7818609E-02  0.8132351E-01
        1   -1    0    0  501    0  0.00000000000E+00  0.00000000000E+00  0.18071123556E+04  0.18071123556E+04  0.50400001928E-02 0.  1.
       -1   -1    0    0    0  501  0.00000000000E+00  0.00000000000E+00 -0.16206869564E+04  0.16206869565E+04  0.50400001928E-02 0. -1.
    10030    2    1    2    0    0  0.00000000000E+00  0.00000000000E+00  0.18642539915E+03  0.34277993121E+04  0.34227260618E+04 0.  0.
        2    1    3    3  502    0 -0.16851202731E+04  0.13169161262E+03  0.36154716384E+03  0.17284933808E+04  0.25500000920E-02 0. -1.
       -2    1    3    3    0  502  0.16851202731E+04 -0.13169161262E+03 -0.17512176468E+03  0.16993059313E+04  0.25500000920E-02 0.  1.
</event>
<event>
 5   0  0.1421875E-07  0.3398781E+04  0.7818609E-02  0.8138205E-01
       -1   -1    0    0    0  501  0.00000000000E+00  0.00000000000E+00  0.18499952886E+04  0.18499952886E+04  0.50400001928E-02 0. -1.
        1   -1    0    0  501    0  0.00000000000E+00  0.00000000000E+00 -0.15610465197E+04  0.15610465197E+04  0.50400001928E-02 0.  1.
    10030    2    1    2    0    0  0.00000000000E+00  0.00000000000E+00  0.28894876893E+03  0.34110418082E+04  0.33987813737E+04 0.  0.
        5    1    3    3  502    0 -0.12831535172E+03  0.75516846060E+03 -0.13779560106E+04  0.15765560854E+04  0.46999998093E+01 0.  1.
       -5    1    3    3    0  502  0.12831535172E+03 -0.75516846060E+03  0.16669047795E+04  0.18344857228E+04  0.46999998093E+01 0. -1.
</event>
<event>
 5   0  0.4447909E-07  0.3395754E+04  0.7818609E-02  0.8138949E-01
        2   -1    0    0  501    0  0.00000000000E+00  0.00000000000E+00  0.21017702804E+04  0.21017702804E+04  0.25500000920E-02 0. -1.
       -2   -1    0    0    0  501  0.00000000000E+00  0.00000000000E+00 -0.13715992822E+04  0.13715992822E+04  0.25500000920E-02 0.  1.
    10030    2    1    2    0    0  0.00000000000E+00  0.00000000000E+00  0.73017099820E+03  0.34733695626E+04  0.33957541771E+04 0.  0.
        5    1    3    3  502    0  0.43070844174E+03  0.16363343281E+04  0.22164933461E+03  0.17065316618E+04  0.46999998093E+01 0.  1.
       -5    1    3    3    0  502 -0.43070844174E+03 -0.16363343281E+04  0.50852166359E+03  0.17668379008E+04  0.46999998093E+01 0. -1.
</event>
<event>
 5   0  0.4486226E-07  0.3406720E+04  0.7818609E-02  0.8136259E-01
       -2   -1    0    0    0  501  0.00000000000E+00  0.00000000000E+00  0.24690457676E+04  0.24690457676E+04  0.25500000920E-02 0.  1.
        2   -1    0    0  501    0  0.00000000000E+00  0.00000000000E+00 -0.11751243859E+04  0.11751243859E+04  0.25500000920E-02 0. -1.
    10030    2    1    2    0    0  0.00000000000E+00  0.00000000000E+00  0.12939213816E+04  0.36441701535E+04  0.34067203533E+04 0.  0.
        1    1    3    3  502    0 -0.12652567474E+04  0.69789681813E+03 -0.31784817031E+03  0.14795141314E+04  0.50400001928E-02 0. -1.
       -1    1    3    3    0  502  0.12652567474E+04 -0.69789681813E+03  0.16117695520E+04  0.21646560221E+04  0.50400001928E-02 0.  1.
</event>
<event>
 5   0  0.1421875E-07  0.3393918E+04  0.7818609E-02  0.8139401E-01
        3   -1    0    0  501    0  0.00000000000E+00  0.00000000000E+00  0.14815859761E+04  0.14815859795E+04  0.10100000352E+00 0. -1.
       -3   -1    0    0    0  501  0.00000000000E+00  0.00000000000E+00 -0.19436396071E+04  0.19436396097E+04  0.10100000352E+00 0.  1.
    10030    2    1    2    0    0  0.00000000000E+00  0.00000000000E+00 -0.46205363103E+03  0.34252255892E+04  0.33939176153E+04 0.  0.
        3    1    3    3  502    0  0.35437437748E+03 -0.13445473623E+04 -0.12127697871E+04  0.18450472556E+04  0.10100000352E+00 0.  1.
       -3    1    3    3    0  502 -0.35437437748E+03  0.13445473623E+04  0.75071615607E+03  0.15801783336E+04  0.10100000352E+00 0. -1.
</event>
<event>
 5   0  0.1523259E-07  0.3430532E+04  0.7818609E-02  0.8130453E-01
       -1   -1    0    0    0  501  0.00000000000E+00  0.00000000000E+00  0.17221777735E+04  0.17221777735E+04  0.50400001928E-02 0. -1.
        1   -1    0    0  501    0  0.00000000000E+00  0.00000000000E+00 -0.17083822641E+04  0.17083822641E+04  0.50400001928E-02 0.  1.
    10030    2    1    2    0    0  0.00000000000E+00  0.00000000000E+00  0.13795509381E+02  0.34305600375E+04  0.34305322991E+04 0.  0.
        4    1    3    3  502    0 -0.50650532650E+03  0.94436497501E+03 -0.13324276378E+04  0.17098941121E+04  0.12699999809E+01 0.  1.
       -4    1    3    3    0  502  0.50650532650E+03 -0.94436497501E+03  0.13462231472E+04  0.17206659254E+04  0.12699999809E+01 0. -1.
</event>
<event>
 5   0  0.4521737E-07  0.3395088E+04  0.7818609E-02  0.8139113E-01
        2   -1    0    0  501    0  0.00000000000E+00  0.00000000000E+00  0.17927435481E+04  0.17927435481E+04  0.25500000920E-02 0.  1.
       -2   -1    0    0    0  501  0.00000000000E+00  0.00000000000E+00 -0.16073993369E+04  0.16073993369E+04  0.25500000920E-02 0. -1.
    10030    2    1    2    0    0  0.00000000000E+00  0.00000000000E+00  0.18534421128E+03  0.34001428850E+04  0.33950875043E+04 0.  0.
        4    1    3    3  502    0  0.86735224191E+03  0.23101340681E+03  0.15356457984E+04  0.17787289666E+04  0.12699999809E+01 0.  1.
       -4    1    3    3    0  502 -0.86735224191E+03 -0.23101340681E+03 -0.13503015871E+04  0.16214139184E+04  0.12699999809E+01 0. -1.
</event>
<event>
 5   0  0.4381939E-07  0.3390821E+04  0.7818609E-02  0.8140163E-01
       -2   -1    0    0    0  501  0.00000000000E+00  0.00000000000E+00  0.18861271585E+04  0.18861271585E+04  0.25500000920E-02 0. -1.
        2   -1    0    0  501    0  0.00000000000E+00  0.00000000000E+00 -0.15239782582E+04  0.15239782582E+04  0.25500000920E-02 0.  1.
    10030    2    1    2    0    0  0.00000000000E+00  0.00000000000E+00  0.36214890034E+03  0.34101054167E+04  0.33908210107E+04 0.  0.
        3    1    3    3  502    0  0.49834848696E+03 -0.73690746095E+03 -0.12704053927E+04  0.15509073771E+04  0.10100000352E+00 0.  1.
       -3    1    3    3    0  502 -0.49834848696E+03  0.73690746095E+03  0.16325542930E+04  0.18591980396E+04  0.10100000352E+00 0. -1.
</event>
<event>
 5   0  0.4447909E-07  0.3373855E+04  0.7818609E-02  0.8144353E-01
       -2   -1    0    0    0  501  0.00000000000E+00  0.00000000000E+00  0.14392499302E+04  0.14392499302E+04  0.25500000920E-02 0.  1.
        2   -1    0    0  501    0  0.00000000000E+00  0.00000000000E+00 -0.19772268136E+04  0.19772268137E+04  0.25500000920E-02 0. -1.
    10030    2    1    2    0    0  0.00000000000E+00  0.00000000000E+00 -0.53797688349E+03  0.34164767438E+04  0.33738545040E+04 0.  0.
        5    1    3    3  502    0  0.99888540520E+03  0.13571570899E+04 -0.34777913224E+03  0.17206451797E+04  0.46999998093E+01 0.  1.
       -5    1    3    3    0  502 -0.99888540520E+03 -0.13571570899E+04 -0.19019775125E+03  0.16958315642E+04  0.46999998093E+01 0. -1.
</event>
<event>
 5   0  0.4447909E-07  0.3390214E+04  0.7818609E-02  0.8140312E-01
        2   -1    0    0  501    0  0.00000000000E+00  0.00000000000E+00  0.25395844859E+04  0.25395844859E+04  0.25500000920E-02 0. -1.
       -2   -1    0    0    0  501  0.00000000000E+00  0.00000000000E+00 -0.11314403435E+04  0.11314403435E+04  0.25500000920E-02 0.  1.
    10030    2    1    2    0    0  0.00000000000E+00  0.00000000000E+00  0.14081441424E+04  0.36710248294E+04  0.33902143549E+04 0.  0.
        5    1    3    3  502    0 -0.11745534372E+04 -0.18788222123E+03 -0.60363960847E+03  0.13338959378E+04  0.46999998093E+01 0.  1.
       -5    1    3    3    0  502  0.11745534372E+04  0.18788222123E+03  0.20117837509E+04  0.23371288916E+04  0.46999998093E+01 0. -1.
</event>
<event>
 5   0  0.4447909E-07  0.3396154E+04  0.7818609E-02  0.8138851E-01
        2   -1    0    0  501    0  0.00000000000E+00  0.00000000000E+00  0.25110557257E+04  0.25110557257E+04  0.25500000920E-02 0.  1.
       -2   -1    0    0    0  501  0.00000000000E+00  0.00000000000E+00 -0.11483077367E+04  0.11483077367E+04  0.25500000920E-02 0. -1.
    10030    2    1    2    0    0  0.00000000000E+00  0.00000000000E+00  0.13627479890E+04  0.36593634623E+04  0.33961535401E+04 0.  0.
        5    1    3    3  502    0  0.11507745722E+03 -0.71617950157E+03  0.23357127217E+04  0.24457579414E+04  0.46999998093E+01 0.  1.
       -5    1    3    3    0  502 -0.11507745722E+03  0.71617950157E+03 -0.97296473262E+03  0.12136055210E+04  0.46999998093E+01 0. -1.
</event>
<event>
 5   0  0.1421875E-07  0.3369659E+04  0.7818609E-02  0.8145393E-01
        1   -1    0    0  501    0  0.00000000000E+00  0.00000000000E+00  0.12593771123E+04  0.12593771123E+04  0.50400001928E-02 0. -1.
       -1   -1    0    0    0  501  0.00000000000E+00  0.00000000000E+00 -0.22540118771E+04  0.22540118771E+04  0.50400001928E-02 0.  1.
    10030    2    1    2    0    0  0.00000000000E+00  0.00000000000E+00 -0.99463476479E+03  0.35133889894E+04  0.33696593115E+04 0.  0.
        5    1    3    3  502    0 -0.94024449695E+03  0.34782137064E+02 -0.19545581646E+04  0.21692370134E+04  0.46999998093E+01 0.  1.
       -5    1    3    3    0  502  0.94024449695E+03 -0.34782137064E+02  0.95992339985E+03  0.13441519760E+04  0.46999998093E+01 0. -1.
</event>
<event>
 5   0  0.4486226E-07  0.3379284E+04  0.7818609E-02  0.8143010E-01
        2   -1    0    0  501    0  0.00000000000E+00  0.00000000000E+00  0.19304351411E+04  0.19304351411E+04  0.25500000920E-02 0. -1.
       -2   -1    0    0    0  501  0.00000000000E+00  0.00000000000E+00 -0.14788840488E+04  0.14788840488E+04  0.25500000920E-02 0.  1.
    10030    2    1    2    0    0  0.00000000000E+00  0.00000000000E+00  0.45155109232E+03  0.34093191899E+04  0.33792837924E+04 0.  0.
        1    1    3    3  502    0 -0.43320017607E+03 -0.15958049088E+04 -0.12463561450E+03  0.16582489969E+04  0.50400001928E-02 0.  1.
       -1    1    3    3    0  502  0.43320017607E+03  0.15958049088E+04  0.57618670682E+03  0.17510701929E+04  0.50400001928E-02 0. -1.
</event>
<event>
 5   0  0.1520084E-07  0.3398266E+04  0.7818609E-02  0.8138332E-01
       -1   -1    0    0    0  501  0.00000000000E+00  0.00000000000E+00  0.12828002141E+04  0.12828002142E+04  0.50400001928E-02 0. -1.
        1   -1    0    0  501    0  0.00000000000E+00  0.00000000000E+00 -0.22505872388E+04  0.22505872388E+04  0.50400001928E-02 0.  1.
    10030    2    1    2    0    0  0.00000000000E+00  0.00000000000E+00 -0.96778702469E+03  0.35333874530E+04  0.33982664945E+04 0.  0.
        2    1    3    3  502    0  0.11395845572E+02 -0.16844602645E+04 -0.71526688468E+03  0.18300663825E+04  0.25500000920E-02 0.  1.
       -2    1    3    3    0  502 -0.11395845572E+02  0.16844602645E+04 -0.25252014001E+03  0.17033210705E+04  0.25500000920E-02 0. -1.
</event>
<event>
 5   0  0.1523259E-07  0.3401553E+04  0.7818609E-02  0.8137525E-01
        1   -1    0    0  501    0  0.00000000000E+00  0.00000000000E+00  0.12511512639E+04  0.12511512639E+04  0.50400001928E-02 0.  1.
       -1   -1    0    0    0  501  0.00000000000E+00  0.00000000000E+00 -0.23119826398E+04  0.23119826398E+04  0.50400001928E-02 0. -1.
    10030    2    1    2    0    0  0.00000000000E+00  0.00000000000E+00 -0.10608313759E+04  0.35631339037E+04  0.34015525878E+04 0.  0.
        4    1    3    3  502    0  0.33187922244E+02  0.11543803101E+04  0.77747087894E+03  0.13921774022E+04  0.12699999809E+01 0.  1.
       -4    1    3    3    0  502 -0.33187922244E+02 -0.11543803101E+04 -0.18383022548E+04  0.21709565015E+04  0.12699999809E+01 0. -1.
</event>
<event>
 5   0  0.1435806E-07  0.3397589E+04  0.7818609E-02  0.8138498E-01
        1   -1    0    0  501    0  0.00000000000E+00  0.00000000000E+00  0.24134221006E+04  0.24134221006E+04  0.50400001928E-02 0.  1.
       -1   -1    0    0    0  501  0.00000000000E+00  0.00000000000E+00 -0.11957723214E+04  0.11957723214E+04  0.50400001928E-02 0. -1.
    10030    2    1    2    0    0  0.00000000000E+00  0.00000000000E+00  0.12176497792E+04  0.36091944220E+04  0.33975893500E+04 0.  0.
        3    1    3    3  502    0  0.16120434968E+04  0.53483255608E+03  0.64521074678E+03  0.18168728675E+04  0.10100000352E+00 0. -1.
       -3    1    3    3    0  502 -0.16120434968E+04 -0.53483255608E+03  0.57243903244E+03  0.17923215545E+04  0.10100000352E+00 0.  1.
</event>
<event>
 5   0  0.4486226E-07  0.3385739E+04  0.7818609E-02  0.8141415E-01
        2   -1    0    0  501    0  0.00000000000E+00  0.00000000000E+00  0.21296088469E+04  0.21296088469E+04  0.25500000920E-02 0.  1.
       -2   -1    0    0    0  501  0.00000000000E+00  0.00000000000E+00 -0.13456961001E+04  0.13456961001E+04  0.25500000920E-02 0. -1.
    10030    2    1    2    0    0  0.00000000000E+00  0.00000000000E+00  0.78391274683E+03  0.34753049470E+04  0.33857385132E+04 0.  0.
        1    1    3    3  502    0 -0.16453190983E+04  0.37172287939E+03  0.24479892598E+03  0.17044586673E+04  0.50400001928E-02 0. -1.
       -1    1    3    3    0  502  0.16453190983E+04 -0.37172287939E+03  0.53911382086E+03  0.17708462797E+04  0.50400001928E-02 0.  1.
</event>
<event>
 5   0  0.1523259E-07  0.3411703E+04  0.7818609E-02  0.8135040E-01
       -1   -1    0    0    0  501  0.00000000000E+00  0.00000000000E+00  0.17493016920E+04  0.17493016920E+04  0.50400001928E-02 0.  1.
        1   -1    0    0  501    0  0.00000000000E+00  0.00000000000E+00 -0.16634808184E+04  0.16634808184E+04  0.50400001928E-02 0. -1.
    10030    2    1    2    0    0  0.00000000000E+00  0.00000000000E+00  0.85820873541E+02  0.34127825104E+04  0.34117032756E+04 0.  0.
        4    1    3    3  502    0 -0.16064104715E+04  0.57258054969E+03  0.81975426254E+02  0.17073736183E+04  0.12699999809E+01 0.  1.
       -4    1    3    3    0  502  0.16064104715E+04 -0.57258054969E+03  0.38454472868E+01  0.17054088921E+04  0.12699999809E+01 0. -1.
</event>
<event>
 5   0  0.1523259E-07  0.3387873E+04  0.7818609E-02  0.8140889E-01
        1   -1    0    0  501    0  0.00000000000E+00  0.00000000000E+00  0.16056609778E+04  0.16056609778E+04  0.50400001928E-02 0.  1.
       -1   -1    0    0    0  501  0.00000000000E+00  0.00000000000E+00 -0.17870651575E+04  0.17870651575E+04  0.50400001928E-02 0. -1.
    10030    2    1    2    0    0  0.00000000000E+00  0.00000000000E+00 -0.18140417967E+03  0.33927261353E+04  0.33878729540E+04 0.  0.
        4    1    3    3  502    0 -0.16626996867E+04  0.85685095259E+02 -0.40341050388E+03  0.17130831361E+04  0.12699999809E+01 0. -1.
       -4    1    3    3    0  502  0.16626996867E+04 -0.85685095259E+02  0.22200632421E+03  0.16796429992E+04  0.12699999809E+01 0.  1.
</event>
<event>
 5   0  0.1421875E-07  0.3385968E+04  0.7818609E-02  0.8141359E-01
       -1   -1    0    0    0  501  0.00000000000E+00  0.00000000000E+00  0.13346121873E+04  0.13346121873E+04  0.50400001928E-02 0. -1.
        1   -1    0    0  501    0  0.00000000000E+00  0.00000000000E+00 -0.21475867389E+04  0.21475867389E+04  0.50400001928E-02 0.  1.
    10030    2    1    2    0    0  0.00000000000E+00  0.00000000000E+00 -0.81297455158E+03  0.34821989262E+04  0.33859683608E+04 0.  0.
        5    1    3    3  502    0 -0.12196817021E+03 -0.94991013759E+03  0.10292435274E+04  0.14059053428E+04  0.46999998093E+01 0. -1.
       -5    1    3    3    0  502  0.12196817021E+03  0.94991013759E+03 -0.18422180790E+04  0.20762935834E+04  0.46999998093E+01 0.  1.
</event>
<event>
 5   0  0.4396257E-07  0.3400648E+04  0.7818609E-02  0.8137747E-01
       -2   -1    0    0    0  501  0.00000000000E+00  0.00000000000E+00  0.15372892991E+04  0.15372892991E+04  0.25500000920E-02 0.  1.
        2   -1    0    0  501    0  0.00000000000E+00  0.00000000000E+00 -0.18806487820E+04  0.18806487820E+04  0.25500000920E-02 0. -1.
    10030    2    1    2    0    0  0.00000000000E+00  0.00000000000E+00 -0.34335948291E+03  0.34179380811E+04  0.34006477312E+04 0.  0.
        2    1    3    3  502    0  0.80351511932E+03 -0.35504008770E+02  0.13340038816E+04  0.15577109610E+04  0.25500000920E-02 0.  1.
       -2    1    3    3    0  502 -0.80351511932E+03  0.35504008770E+02 -0.16773633646E+04  0.18602271201E+04  0.25500000920E-02 0. -1.
</event>
<event>
 5   0  0.4521737E-07  0.3401550E+04  0.7818609E-02  0.8137526E-01
       -2   -1    0    0    0  501  0.00000000000E+00  0.00000000000E+00  0.17891833926E+04  0.17891833926E+04  0.25500000920E-02 0.  1.
        2   -1    0    0  501    0  0.00000000000E+00  0.00000000000E+00 -0.16167352670E+04  0.16167352670E+04  0.25500000920E-02 0. -1.
    10030    2    1    2    0    0  0.00000000000E+00  0.00000000000E+00  0.17244812557E+03  0.34059186596E+04  0.34015501701E+04 0.  0.
        4    1    3    3  502    0 -0.44511969411E+03 -0.62210100419E+03  0.16072183900E+04  0.17799701592E+04  0.12699999809E+01 0.  1.
       -4    1    3    3    0  502  0.44511969411E+03  0.62210100419E+03 -0.14347702644E+04  0.16259485005E+04  0.12699999809E+01 0. -1.
</event>
<event>
 5   0  0.4447909E-07  0.3388779E+04  0.7818609E-02  0.8140666E-01
        2   -1    0    0  501    0  0.00000000000E+00  0.00000000000E+00  0.22582857704E+04  0.22582857704E+04  0.25500000920E-02 0.  1.
       -2   -1    0    0    0  501  0.00000000000E+00  0.00000000000E+00 -0.12712985014E+04  0.12712985014E+04  0.25500000920E-02 0. -1.
    10030    2    1    2    0    0  0.00000000000E+00  0.00000000000E+00  0.98698726897E+03  0.35295842718E+04  0.33887787273E+04 0.  0.
        5    1    3    3  502    0  0.13671292109E+04 -0.41913343714E+03  0.14402270322E+04  0.20295297760E+04  0.46999998093E+01 0.  1.
       -5    1    3    3    0  502 -0.13671292109E+04  0.41913343714E+03 -0.45323976322E+03  0.15000544958E+04  0.46999998093E+01 0. -1.
</event>
<event>
 5   0  0.4381939E-07  0.3394649E+04  0.7818609E-02  0.8139221E-01
        2   -1    0    0  501    0  0.00000000000E+00  0.00000000000E+00  0.21608811412E+04  0.21608811412E+04  0.25500000920E-02 0. -1.
       -2   -1    0    0    0  501  0.00000000000E+00  0.00000000000E+00 -0.13332110363E+04  0.13332110363E+04  0.25500000920E-02 0.  1.
    10030    2    1    2    0    0  0.00000000000E+00  0.00000000000E+00  0.82767010497E+03  0.34940921775E+04  0.33946490750E+04 0.  0.
        3    1    3    3  502    0  0.37231625803E+03  0.16543647728E+04  0.33841948406E+03  0.17291818745E+04  0.10100000352E+00 0. -1.
       -3    1    3    3    0  502 -0.37231625803E+03 -0.16543647728E+04  0.48925062091E+03  0.17649103031E+04  0.10100000352E+00 0.  1.
</event>
<event>
 5   0  0.4447909E-07  0.3410725E+04  0.7818609E-02  0.8135279E-01
       -2   -1    0    0    0  501  0.00000000000E+00  0.00000000000E+00  0.26294595201E+04  0.26294595201E+04  0.25500000920E-02 0. -1.
        2   -1    0    0  501    0  0.00000000000E+00  0.00000000000E+00 -0.11060303563E+04  0.11060303563E+04  0.25500000920E-02 0.  1.
    10030    2    1    2    0    0  0.00000000000E+00  0.00000000000E+00  0.15234291637E+04  0.37354898764E+04  0.34107254654E+04 0.  0.
        5    1    3    3  502    0  0.64469904045E+03 -0.15489730323E+03 -0.95907209958E+03  0.11659637256E+04  0.46999998093E+01 0.  1.
       -5    1    3    3    0  502 -0.64469904045E+03  0.15489730323E+03  0.24825012633E+04  0.25695261508E+04  0.46999998093E+01 0. -1.
</event>
<event>
 5   0  0.4396257E-07  0.3407860E+04  0.7818609E-02  0.8135980E-01
        2   -1    0    0  501    0  0.00000000000E+00  0.00000000000E+00  0.21933196042E+04  0.21933196042E+04  0.25500000920E-02 0.  1.
       -2   -1    0    0    0  501  0.00000000000E+00  0.00000000000E+00 -0.13237369717E+04  0.13237369717E+04  0.25500000920E-02 0. -1.
    10030    2    1    2    0    0  0.00000000000E+00  0.00000000000E+00  0.86958263246E+03  0.35170565759E+04  0.34078604730E+04 0.  0.
        2    1    3    3  502    0 -0.10736585695E+04 -0.13220818788E+04  0.38081803615E+03  0.17451835419E+04  0.25500000920E-02 0. -1.
       -2    1    3    3    0  502  0.10736585695E+04  0.13220818788E+04  0.48876459632E+03  0.17718730340E+04  0.25500000920E-02 0.  1.
</event>
<event>
 5   0  0.1473755E-07  0.3426715E+04  0.7818609E-02  0.8131381E-01
        1   -1    0    0  501    0  0.00000000000E+00  0.00000000000E+00  0.11853205181E+04  0.11853205181E+04  0.50400001928E-02 0. -1.
       -1   -1    0    0    0  501  0.00000000000E+00  0.00000000000E+00 -0.24766243873E+04  0.24766243873E+04  0.50400001928E-02 0.  1.
    10030    2    1    2    0    0  0.00000000000E+00  0.00000000000E+00 -0.12913038692E+04  0.36619449054E+04  0.34267148711E+04 0.  0.
        1    1    3    3  502    0 -0.11184520836E+04  0.12976832325E+04 -0.67345453435E+03  0.18407764245E+04  0.50400001928E-02 0. -1.
       -1    1    3    3    0  502  0.11184520836E+04 -0.12976832325E+04 -0.61784933485E+03  0.18211684809E+04  0.50400001928E-02 0.  1.
</event>
<event>
 5   0  0.1523259E-07  0.3407143E+04  0.7818609E-02  0.8136155E-01
        1   -1    0    0  501    0  0.00000000000E+00  0.00000000000E+00  0.21629555756E+04  0.21629555756E+04  0.50400001928E-02 0. -1.
       -1   -1    0    0    0  501  0.00000000000E+00  0.00000000000E+00 -0.13417544922E+04  0.13417544922E+04  0.50400001928E-02 0.  1.
    10030    2    1    2    0    0  0.00000000000E+00  0.00000000000E+00  0.82120108348E+03  0.35047100678E+04  0.34071427091E+04 0.  0.
        4    1    3    3  502    0 -0.84702964694E+03 -0.11423746198E+04 -0.55416733665E+03  0.15262968403E+04  0.12699999809E+01 0.  1.
       -4    1    3    3    0  502  0.84702964694E+03  0.11423746198E+04  0.13753684201E+04  0.19784132275E+04  0.12699999809E+01 0. -1.
</event>
<event>
 5   0  0.4521737E-07  0.3405879E+04  0.7818609E-02  0.8136465E-01
       -2   -1    0    0    0  501  0.00000000000E+00  0.00000000000E+00  0.11882774483E+04  0.11882774483E+04  0.25500000920E-02 0.  1.
        2   -1    0    0  501    0  0.00000000000E+00  0.00000000000E+00 -0.24405093954E+04  0.24405093954E+04  0.25500000920E-02 0. -1.
    10030    2    1    2    0    0  0.00000000000E+00  0.00000000000E+00 -0.12522319471E+04  0.36287868438E+04  0.34058786103E+04 0.  0.
        4    1    3    3  502    0  0.97743558280E+03 -0.13194985020E+04 -0.11068020006E+04  0.19802699050E+04  0.12699999809E+01 0. -1.
       -4    1    3    3    0  502 -0.97743558280E+03  0.13194985020E+04 -0.14542994655E+03  0.16485169388E+04  0.12699999809E+01 0.  1.
</event>
<event>
 5   0  0.4521737E-07  0.3401642E+04  0.7818609E-02  0.8137503E-01
        2   -1    0    0  501    0  0.00000000000E+00  0.00000000000E+00  0.17684070964E+04  0.17684070964E+04  0.25500000920E-02 0. -1.
       -2   -1    0    0    0  501  0.00000000000E+00  0.00000000000E+00 -0.16358179239E+04  0.16358179239E+04  0.25500000920E-02 0.  1.
    10030    2    1    2    0    0  0.00000000000E+00  0.00000000000E+00  0.13258917253E+03  0.34042250204E+04  0.34016419713E+04 0.  0.
        4    1    3    3  502    0 -0.26919261400E+03  0.14298098098E+04 -0.81526572073E+03  0.16677771325E+04  0.12699999809E+01 0.  1.
       -4    1    3    3    0  502  0.26919261400E+03 -0.14298098098E+04  0.94785489326E+03  0.17364478878E+04  0.12699999809E+01 0. -1.
</event>
<event>
 5   0  0.1520084E-07  0.3409381E+04  0.7818609E-02  0.8135608E-01
        1   -1    0    0  501    0  0.00000000000E+00  0.00000000000E+00  0.12960798898E+04  0.12960798898E+04  0.50400001928E-02 0. -1.
       -1   -1    0    0    0  501  0.00000000000E+00  0.00000000000E+00 -0.22421223901E+04  0.22421223901E+04  0.50400001928E-02 0.  1.
    10030    2    1    2    0    0  0.00000000000E+00  0.00000000000E+00 -0.94604250029E+03  0.35382022799E+04  0.34093810231E+04 0.  0.
        2    1    3    3  502    0 -0.23991599560E+03 -0.57325281144E+03  0.11743421082E+04  0.13286300681E+04  0.25500000920E-02 0. -1.
       -2    1    3    3    0  502  0.23991599560E+03  0.57325281144E+03 -0.21203846085E+04  0.22095722117E+04  0.25500000920E-02 0.  1.
</event>
<event>
 5   0  0.1520084E-07  0.3377662E+04  0.7818609E-02  0.8143411E-01
        1   -1    0    0  501    0  0.00000000000E+00  0.00000000000E+00  0.16547524948E+04  0.16547524948E+04  0.50400001928E-02 0. -1.
       -1   -1    0    0    0  501  0.00000000000E+00  0.00000000000E+00 -0.17236111141E+04  0.17236111141E+04  0.50400001928E-02 0.  1.
    10030    2    1    2    0    0  0.00000000000E+00  0.00000000000E+00 -0.68858619315E+02  0.33783636089E+04  0.33776617895E+04 0.  0.
        2    1    3    3  502    0 -0.12258346077E+04 -0.79530698713E+03  0.81248513646E+03  0.16719197906E+04  0.25500000920E-02 0. -1.
       -2    1    3    3    0  502  0.12258346077E+04  0.79530698713E+03 -0.88134375577E+03  0.17064438183E+04  0.25500000920E-02 0.  1.
</event>
<event>
 5   0  0.4396257E-07  0.3392432E+04  0.7818609E-02  0.8139766E-01
        2   -1    0    0  501    0  0.00000000000E+00  0.00000000000E+00  0.19889156939E+04  0.19889156939E+04  0.25500000920E-02 0.  1.
       -2   -1    0    0    0  501  0.00000000000E+00  0.00000000000E+00 -0.14465917706E+04  0.14465917706E+04  0.25500000920E-02 0. -1.
    10030    2    1    2    0    0  0.00000000000E+00  0.00000000000E+00  0.54232392333E+03  0.34355074645E+04  0.33924322102E+04 0.  0.
        2    1    3    3  502    0 -0.28530984242E+03 -0.86755412792E+03 -0.11763569058E+04  0.14892506306E+04  0.25500000920E-02 0. -1.
       -2    1    3    3    0  502  0.28530984242E+03  0.86755412792E+03  0.17186808291E+04  0.19462568339E+04  0.25500000920E-02 0.  1.
</event>
<event>
 5   0  0.4381939E-07  0.3399120E+04  0.7818609E-02  0.8138122E-01
       -2   -1    0    0    0  501  0.00000000000E+00  0.00000000000E+00  0.16954042739E+04  0.16954042739E+04  0.25500000920E-02 0. -1.
        2   -1    0    0  501    0  0.00000000000E+00  0.00000000000E+00 -0.17037254668E+04  0.17037254668E+04  0.25500000920E-02 0.  1.
    10030    2    1    2    0    0  0.00000000000E+00  0.00000000000E+00 -0.83211928247E+01  0.33991297407E+04  0.33991195554E+04 0.  0.
        3    1    3    3  502    0 -0.28707368030E+03 -0.24211668061E+03  0.16533942619E+04  0.16955071160E+04  0.10100000352E+00 0. -1.
       -3    1    3    3    0  502  0.28707368030E+03  0.24211668061E+03 -0.16617154547E+04  0.17036226247E+04  0.10100000352E+00 0.  1.
</event>
<event>
 5   0  0.4396257E-07  0.3380452E+04  0.7818609E-02  0.8142721E-01
        2   -1    0    0  501    0  0.00000000000E+00  0.00000000000E+00  0.19891483306E+04  0.19891483306E+04  0.25500000920E-02 0.  1.
       -2   -1    0    0    0  501  0.00000000000E+00  0.00000000000E+00 -0.14362245228E+04  0.14362245228E+04  0.25500000920E-02 0. -1.
    10030    2    1    2    0    0  0.00000000000E+00  0.00000000000E+00  0.55292380781E+03  0.34253728534E+04  0.33804518112E+04 0.  0.
        2    1    3    3  502    0 -0.14245210058E+04 -0.76607814456E+03 -0.22069814128E+03  0.16324348345E+04  0.25500000920E-02 0. -1.
       -2    1    3    3    0  502  0.14245210058E+04  0.76607814456E+03  0.77362194909E+03  0.17929380189E+04  0.25500000920E-02 0.  1.
</event>
<event>
 5   0  0.4486226E-07  0.3408176E+04  0.7818609E-02  0.8135903E-01
        2   -1    0    0  501    0  0.00000000000E+00  0.00000000000E+00  0.15984504721E+04  0.15984504721E+04  0.25500000920E-02 0.  1.
       -2   -1    0    0    0  501  0.00000000000E+00  0.00000000000E+00 -0.18167071277E+04  0.18167071277E+04  0.25500000920E-02 0. -1.
    10030    2    1    2    0    0  0.00000000000E+00  0.00000000000E+00 -0.21825665555E+03  0.34151575998E+04  0.34081762666E+04 0.  0.
        1    1    3    3  502    0 -0.11692557943E+04 -0.62027499610E+03 -0.11846470925E+04  0.17763132936E+04  0.50400001928E-02 0. -1.
       -1    1    3    3    0  502  0.11692557943E+04  0.62027499610E+03  0.96639043695E+03  0.16388443062E+04  0.50400001928E-02 0.  1.
</event>
<event>
 5   0  0.1421875E-07  0.3390614E+04  0.7818609E-02  0.8140214E-01
       -1   -1    0    0    0  501  0.00000000000E+00  0.00000000000E+00  0.19103471709E+04  0.19103471709E+04  0.50400001928E-02 0.  1.
        1   -1    0    0  501    0  0.00000000000E+00  0.00000000000E+00 -0.15044733134E+04  0.15044733134E+04  0.50400001928E-02 0. -1.
    10030    2    1    2    0    0  0.00000000000E+00  0.00000000000E+00  0.40587385748E+03  0.34148204844E+04  0.33906143031E+04 0.  0.
        5    1    3    3  502    0 -0.12301582439E+04 -0.51328044327E+03 -0.85206148747E+03  0.15820167467E+04  0.46999998093E+01 0. -1.
       -5    1    3    3    0  502  0.12301582439E+04  0.51328044327E+03  0.12579353449E+04  0.18328037376E+04  0.46999998093E+01 0.  1.
</event>
<event>
 5   0  0.4447909E-07  0.3324928E+04  0.7818609E-02  0.8156581E-01
       -2   -1    0    0    0  501  0.00000000000E+00  0.00000000000E+00  0.17303785065E+04  0.17303785065E+04  0.25500000920E-02 0.  1.
        2   -1    0    0  501    0  0.00000000000E+00  0.00000000000E+00 -0.15972145964E+04  0.15972145964E+04  0.25500000920E-02 0. -1.
    10030    2    1    2    0    0  0.00000000000E+00  0.00000000000E+00  0.13316391013E+03  0.33275931029E+04  0.33249275528E+04 0.  0.
        5    1    3    3  502    0 -0.17607162721E+03 -0.46670123271E+03  0.16537134819E+04  0.17273105189E+04  0.46999998093E+01 0.  1.
       -5    1    3    3    0  502  0.17607162721E+03  0.46670123271E+03 -0.15205495718E+04  0.16002825840E+04  0.46999998093E+01 0. -1.
</event>
<event>
 5   0  0.4521737E-07  0.3405647E+04  0.7818609E-02  0.8136522E-01
        2   -1    0    0  501    0  0.00000000000E+00  0.00000000000E+00  0.18228843390E+04  0.18228843390E+04  0.25500000920E-02 0. -1.
       -2   -1    0    0    0  501  0.00000000000E+00  0.00000000000E+00 -0.15906699671E+04  0.15906699671E+04  0.25500000920E-02 0.  1.
    10030    2    1    2    0    0  0.00000000000E+00  0.00000000000E+00  0.23221437198E+03  0.34135543061E+04  0.34056467060E+04 0.  0.
        4    1    3    3  502    0  0.10084588514E+04 -0.13449697926E+04 -0.15595030919E+03  0.16882698569E+04  0.12699999809E+01 0.  1.
       -4    1    3    3    0  502 -0.10084588514E+04  0.13449697926E+04  0.38816468117E+03  0.17252844492E+04  0.12699999809E+01 0. -1.
</event>
<event>
 5   0  0.4396257E-07  0.3436444E+04  0.7818609E-02  0.8129019E-01
        2   -1    0    0  501    0  0.00000000000E+00  0.00000000000E+00  0.23977886348E+04  0.23977886348E+04  0.25500000920E-02 0.  1.
       -2   -1    0    0    0  501  0.00000000000E+00  0.00000000000E+00 -0.12312541172E+04  0.12312541172E+04  0.25500000920E-02 0. -1.
    10030    2    1    2    0    0  0.00000000000E+00  0.00000000000E+00  0.11665345177E+04  0.36290427520E+04  0.34364441673E+04 0.  0.
        2    1    3    3  502    0  0.44974924033E+03  0.84103783188E+03 -0.92605402777E+03  0.13293588967E+04  0.25500000920E-02 0. -1.
       -2    1    3    3    0  502 -0.44974924033E+03 -0.84103783188E+03  0.20925885455E+04  0.22996838553E+04  0.25500000920E-02 0.  1.
</event>
<event>
 5   0  0.1421875E-07  0.3379540E+04  0.7818609E-02  0.8142946E-01
       -1   -1    0    0    0  501  0.00000000000E+00  0.00000000000E+00  0.17179960516E+04  0.17179960516E+04  0.50400001928E-02 0.  1.
        1   -1    0    0  501    0  0.00000000000E+00  0.00000000000E+00 -0.16620076195E+04  0.16620076195E+04  0.50400001928E-02 0. -1.
    10030    2    1    2    0    0  0.00000000000E+00  0.00000000000E+00  0.55988432086E+02  0.33800036711E+04  0.33795399261E+04 0.  0.
        5    1    3    3  502    0  0.11603474587E+04  0.16166600651E+03 -0.11898585154E+04  0.16698285838E+04  0.46999998093E+01 0. -1.
       -5    1    3    3    0  502 -0.11603474587E+04 -0.16166600651E+03  0.12458469475E+04  0.17101750873E+04  0.46999998093E+01 0.  1.
</event>
<event>
 5   0  0.1421875E-07  0.3375798E+04  0.7818609E-02  0.8143872E-01
        1   -1    0    0  501    0  0.00000000000E+00  0.00000000000E+00  0.20166962228E+04  0.20166962228E+04  0.50400001928E-02 0. -1.
       -1   -1    0    0    0  501  0.00000000000E+00  0.00000000000E+00 -0.14127084453E+04  0.14127084453E+04  0.50400001928E-02 0.  1.
    10030    2    1    2    0    0  0.00000000000E+00  0.00000000000E+00  0.60398777751E+03  0.34294046680E+04  0.33757984451E+04 0.  0.
        5    1    3    3  502    0 -0.85452278776E+03  0.14503062827E+04  0.17599129018E+03  0.16925107186E+04  0.46999998093E+01 0. -1.
       -5    1    3    3    0  502  0.85452278776E+03 -0.14503062827E+04  0.42799648733E+03  0.17368939494E+04  0.46999998093E+01 0.  1.
</event>
<event>
 5   0  0.4486226E-07  0.3393565E+04  0.7818609E-02  0.8139487E-01
        2   -1    0    0  501    0  0.00000000000E+00  0.00000000000E+00  0.22224275416E+04  0.22224275416E+04  0.25500000920E-02 0. -1.
       -2   -1    0    0    0  501  0.00000000000E+00  0.00000000000E+00 -0.12954621853E+04  0.12954621853E+04  0.25500000920E-02 0.  1.
    10030    2    1    2    0    0  0.00000000000E+00  0.00000000000E+00  0.92696535630E+03  0.35178897269E+04  0.33935649925E+04 0.  0.
        1    1    3    3  502    0 -0.91557689402E+02 -0.15023437707E+04 -0.34857495510E+03  0.15449673508E+04  0.50400001928E-02 0.  1.
       -1    1    3    3    0  502  0.91557689402E+02  0.15023437707E+04  0.12755403114E+04  0.19729223760E+04  0.50400001928E-02 0. -1.
</event>
<event>
 5   0  0.4447909E-07  0.3378612E+04  0.7818609E-02  0.8143176E-01
        2   -1    0    0  501    0  0.00000000000E+00  0.00000000000E+00  0.17198757634E+04  0.17198757634E+04  0.25500000920E-02 0. -1.
       -2   -1    0    0    0  501  0.00000000000E+00  0.00000000000E+00 -0.16592794103E+04  0.16592794103E+04  0.25500000920E-02 0.  1.
    10030    2    1    2    0    0  0.00000000000E+00  0.00000000000E+00  0.60596353142E+02  0.33791551737E+04  0.33786118111E+04 0.  0.
        5    1    3    3  502    0 -0.55942474554E+03 -0.15425672642E+04 -0.37134148277E+03  0.16823752249E+04  0.46999998093E+01 0. -1.
       -5    1    3    3    0  502  0.55942474554E+03  0.15425672642E+04  0.43193783591E+03  0.16967799488E+04  0.46999998093E+01 0.  1.
</event>
<event>
 5   0  0.4447909E-07  0.3408907E+04  0.7818609E-02  0.8135724E-01
        2   -1    0    0  501    0  0.00000000000E+00  0.00000000000E+00  0.30164275260E+04  0.30164275260E+04  0.25500000920E-02 0.  1.
       -2   -1    0    0    0  501  0.00000000000E+00  0.00000000000E+00 -0.96311362925E+03  0.96311362925E+03  0.25500000920E-02 0. -1.
    10030    2    1    2    0    0  0.00000000000E+00  0.00000000000E+00  0.20533138967E+04  0.39795411552E+04  0.34089074273E+04 0.  0.
        5    1    3    3  502    0  0.78946996897E+03  0.51307837185E+03 -0.63195944159E+03  0.11339784272E+04  0.46999998093E+01 0. -1.
       -5    1    3    3    0  502 -0.78946996897E+03 -0.51307837185E+03  0.26852733383E+04  0.28455627280E+04  0.46999998093E+01 0.  1.
</event>
<event>
 5   0  0.1523259E-07  0.3420286E+04  0.7818609E-02  0.8132945E-01
       -1   -1    0    0    0  501  0.00000000000E+00  0.00000000000E+00  0.16044657788E+04  0.16044657788E+04  0.50400001928E-02 0. -1.
        1   -1    0    0  501    0  0.00000000000E+00  0.00000000000E+00 -0.18227802405E+04  0.18227802405E+04  0.50400001928E-02 0.  1.
    10030    2    1    2    0    0  0.00000000000E+00  0.00000000000E+00 -0.21831446170E+03  0.34272460192E+04  0.34202856711E+04 0.  0.
        4    1    3    3  502    0  0.10612720194E+04 -0.83022775151E+03  0.94608150767E+03  0.16464046437E+04  0.12699999809E+01 0. -1.
       -4    1    3    3    0  502 -0.10612720194E+04  0.83022775151E+03 -0.11643959694E+04  0.17808413756E+04  0.12699999809E+01 0.  1.
</event>
<event>
 5   0  0.1523259E-07  0.3324187E+04  0.7818609E-02  0.8156768E-01
        1   -1    0    0  501    0  0.00000000000E+00  0.00000000000E+00  0.19649366483E+04  0.19649366483E+04  0.50400001928E-02 0.  1.
       -1   -1    0    0    0  501  0.00000000000E+00  0.00000000000E+00 -0.14059252822E+04  0.14059252822E+04  0.50400001928E-02 0. -1.
    10030    2    1    2    0    0  0.00000000000E+00  0.00000000000E+00  0.55901136607E+03  0.33708619305E+04  0.33241865843E+04 0.  0.
        4    1    3    3  502    0 -0.10261049562E+03 -0.15457502833E+04  0.89019055803E+03  0.17867047027E+04  0.12699999809E+01 0.  1.
       -4    1    3    3    0  502  0.10261049562E+03  0.15457502833E+04 -0.33117919197E+03  0.15841572278E+04  0.12699999809E+01 0. -1.
</event>
<event>
 5   0  0.1520084E-07  0.3511587E+04  0.7818609E-02  0.8111049E-01
        1   -1    0    0  501    0  0.00000000000E+00  0.00000000000E+00  0.99887487467E+03  0.99887487468E+03  0.50400001928E-02 0.  1.
       -1   -1    0    0    0  501  0.00000000000E+00  0.00000000000E+00 -0.30862832467E+04  0.30862832467E+04  0.50400001928E-02 0. -1.
    10030    2    1    2    0    0  0.00000000000E+00  0.00000000000E+00 -0.20874083721E+04  0.40851581214E+04  0.35115869867E+04 0.  0.
        2    1    3    3  502    0  0.11482514701E+04 -0.18310911464E+02 -0.25887949618E+04  0.28320798157E+04  0.25500000920E-02 0.  1.
       -2    1    3    3    0  502 -0.11482514701E+04  0.18310911464E+02  0.50138658975E+03  0.12530783058E+04  0.25500000920E-02 0. -1.
</event>
<event>
 5   0  0.4486226E-07  0.3399211E+04  0.7818609E-02  0.8138100E-01
       -2   -1    0    0    0  501  0.00000000000E+00  0.00000000000E+00  0.12274095175E+04  0.12274095175E+04  0.25500000920E-02 0.  1.
        2   -1    0    0  501    0  0.00000000000E+00  0.00000000000E+00 -0.23534596996E+04  0.23534596996E+04  0.25500000920E-02 0. -1.
    10030    2    1    2    0    0  0.00000000000E+00  0.00000000000E+00 -0.11260501822E+04  0.35808692171E+04  0.33992109874E+04 0.  0.
        1    1    3    3  502    0  0.44743670575E+03  0.92022412775E+03  0.86657151092E+03  0.13408796495E+04  0.50400001928E-02 0.  1.
       -1    1    3    3    0  502 -0.44743670575E+03 -0.92022412775E+03 -0.19926216931E+04  0.22399895676E+04  0.50400001928E-02 0. -1.
</event>
<event>
 5   0  0.4447909E-07  0.3398045E+04  0.7818609E-02  0.8138386E-01
       -2   -1    0    0    0  501  0.00000000000E+00  0.00000000000E+00  0.14519959502E+04  0.14519959502E+04  0.25500000920E-02 0.  1.
        2   -1    0    0  501    0  0.00000000000E+00  0.00000000000E+00 -0.19880755500E+04  0.19880755500E+04  0.25500000920E-02 0. -1.
    10030    2    1    2    0    0  0.00000000000E+00  0.00000000000E+00 -0.53607959980E+03  0.34400715001E+04  0.33980451128E+04 0.  0.
        5    1    3    3  502    0  0.51323299230E+03  0.46857322325E+03  0.13015177669E+04  0.14754455454E+04  0.46999998093E+01 0.  1.
       -5    1    3    3    0  502 -0.51323299230E+03 -0.46857322325E+03 -0.18375973667E+04  0.19646259547E+04  0.46999998093E+01 0. -1.
</event>
<event>
 5   0  0.4381939E-07  0.3401856E+04  0.7818609E-02  0.8137451E-01
        2   -1    0    0  501    0  0.00000000000E+00  0.00000000000E+00  0.11595599794E+04  0.11595599794E+04  0.25500000920E-02 0. -1.
       -2   -1    0    0    0  501  0.00000000000E+00  0.00000000000E+00 -0.24950467023E+04  0.24950467023E+04  0.25500000920E-02 0.  1.
    10030    2    1    2    0    0  0.00000000000E+00  0.00000000000E+00 -0.13354867230E+04  0.36546066817E+04  0.34018561420E+04 0.  0.
        3    1    3    3  502    0 -0.77111989808E+03 -0.24381897466E+03 -0.22752758810E+04  0.24147368251E+04  0.10100000352E+00 0.  1.
       -3    1    3    3    0  502  0.77111989808E+03  0.24381897466E+03  0.93978915803E+03  0.12398698566E+04  0.10100000352E+00 0. -1.
</event>
<event>
 5   0  0.1473755E-07  0.3400041E+04  0.7818609E-02  0.8137896E-01
        1   -1    0    0  501    0  0.00000000000E+00  0.00000000000E+00  0.21570343911E+04  0.21570343911E+04  0.50400001928E-02 0.  1.
       -1   -1    0    0    0  501  0.00000000000E+00  0.00000000000E+00 -0.13398344586E+04  0.13398344586E+04  0.50400001928E-02 0. -1.
    10030    2    1    2    0    0  0.00000000000E+00  0.00000000000E+00  0.81719993247E+03  0.34968688496E+04  0.34000405912E+04 0.  0.
        1    1    3    3  502    0  0.89193592813E+03  0.32527416326E+03  0.18589793872E+04  0.20873804980E+04  0.50400001928E-02 0.  1.
       -1    1    3    3    0  502 -0.89193592813E+03 -0.32527416326E+03 -0.10417794547E+04  0.14094883517E+04  0.50400001928E-02 0. -1.
</event>
<event>
 5   0  0.4486226E-07  0.3392859E+04  0.7818609E-02  0.8139661E-01
       -2   -1    0    0    0  501  0.00000000000E+00  0.00000000000E+00  0.12828150054E+04  0.12828150054E+04  0.25500000920E-02 0. -1.
        2   -1    0    0  501    0  0.00000000000E+00  0.00000000000E+00 -0.22434044161E+04  0.22434044162E+04  0.25500000920E-02 0.  1.
    10030    2    1    2    0    0  0.00000000000E+00  0.00000000000E+00 -0.96058941076E+03  0.35262194215E+04  0.33928588819E+04 0.  0.
        1    1    3    3  502    0 -0.92586247916E+03 -0.50042174723E+03  0.90250199576E+03  0.13864173642E+04  0.50400001928E-02 0. -1.
       -1    1    3    3    0  502  0.92586247916E+03  0.50042174723E+03 -0.18630914065E+04  0.21398020573E+04  0.50400001928E-02 0.  1.
</event>
<event>
 5   0  0.1523259E-07  0.3402123E+04  0.7818609E-02  0.8137386E-01
        1   -1    0    0  501    0  0.00000000000E+00  0.00000000000E+00  0.18095729188E+04  0.18095729188E+04  0.50400001928E-02 0.  1.
       -1   -1    0    0    0  501  0.00000000000E+00  0.00000000000E+00 -0.15990565866E+04  0.15990565866E+04  0.50400001928E-02 0. -1.
    10030    2    1    2    0    0  0.00000000000E+00  0.00000000000E+00  0.21051633220E+03  0.34086295055E+04  0.34021225697E+04 0.  0.
        4    1    3    3  502    0  0.73595236793E+01  0.16810514572E+04  0.36579343290E+03  0.17204053630E+04  0.12699999809E+01 0.  1.
       -4    1    3    3    0  502 -0.73595236793E+01 -0.16810514572E+04 -0.15527710070E+03  0.16882241425E+04  0.12699999809E+01 0. -1.
</event>
<event>
 5   0  0.4381939E-07  0.3394807E+04  0.7818609E-02  0.8139182E-01
       -2   -1    0    0    0  501  0.00000000000E+00  0.00000000000E+00  0.18395688495E+04  0.18395688495E+04  0.25500000920E-02 0.  1.
        2   -1    0    0  501    0  0.00000000000E+00  0.00000000000E+00 -0.15662247820E+04  0.15662247820E+04  0.25500000920E-02 0. -1.
    10030    2    1    2    0    0  0.00000000000E+00  0.00000000000E+00  0.27334406754E+03  0.34057936315E+04  0.33948068106E+04 0.  0.
        3    1    3    3  502    0  0.11494215312E+03 -0.15644210886E+04  0.78727160232E+03  0.17551129955E+04  0.10100000352E+00 0.  1.
       -3    1    3    3    0  502 -0.11494215312E+03  0.15644210886E+04 -0.51392753478E+03  0.16506806360E+04  0.10100000352E+00 0. -1.
</event>
<event>
 5   0  0.4521737E-07  0.3422788E+04  0.7818609E-02  0.8132336E-01
       -2   -1    0    0    0  501  0.00000000000E+00  0.00000000000E+00  0.12218550912E+04  0.12218550912E+04  0.25500000920E-02 0. -1.
        2   -1    0    0  501    0  0.00000000000E+00  0.00000000000E+00 -0.23970678380E+04  0.23970678380E+04  0.25500000920E-02 0.  1.
    10030    2    1    2    0    0  0.00000000000E+00  0.00000000000E+00 -0.11752127468E+04  0.36189229293E+04  0.34227880693E+04 0.  0.
        4    1    3    3  502    0  0.31726009149E+03 -0.13543587528E+04  0.46648054341E+03  0.14671561973E+04  0.12699999809E+01 0. -1.
       -4    1    3    3    0  502 -0.31726009149E+03  0.13543587528E+04 -0.16416932902E+04  0.21517667320E+04  0.12699999809E+01 0.  1.
</event>
<event>
 5   0  0.1473755E-07  0.3402720E+04  0.7818609E-02  0.8137239E-01
       -1   -1    0    0    0  501  0.00000000000E+00  0.00000000000E+00  0.16862076408E+04  0.16862076408E+04  0.50400001928E-02 0.  1.
        1   -1    0    0  501    0  0.00000000000E+00  0.00000000000E+00 -0.17166488921E+04  0.17166488921E+04  0.50400001928E-02 0. -1.
    10030    2    1    2    0    0  0.00000000000E+00  0.00000000000E+00 -0.30441251349E+02  0.34028565329E+04  0.34027203696E+04 0.  0.
        1    1    3    3  502    0 -0.44799798010E+03  0.42981132901E+03 -0.15993252084E+04  0.17155993387E+04  0.50400001928E-02 0. -1.
       -1    1    3    3    0  502  0.44799798010E+03 -0.42981132901E+03  0.15688839570E+04  0.16872571942E+04  0.50400001928E-02 0.  1.
</event>
<event>
 5   0  0.4486226E-07  0.3394827E+04  0.7818609E-02  0.8139177E-01
        2   -1    0    0  501    0  0.00000000000E+00  0.00000000000E+00  0.17348925637E+04  0.17348925637E+04  0.25500000920E-02 0.  1.
       -2   -1    0    0    0  501  0.00000000000E+00  0.00000000000E+00 -0.16607443354E+04  0.16607443354E+04  0.25500000920E-02 0. -1.
    10030    2    1    2    0    0  0.00000000000E+00  0.00000000000E+00  0.74148228291E+02  0.33956368991E+04  0.33948272402E+04 0.  0.
        1    1    3    3  502    0  0.97976604048E+03 -0.88048470223E+03  0.11078518239E+04  0.17212002988E+04  0.50400001928E-02 0.  1.
       -1    1    3    3    0  502 -0.97976604048E+03  0.88048470223E+03 -0.10337035956E+04  0.16744366003E+04  0.50400001928E-02 0. -1.
</event>
<event>
 5   0  0.1421875E-07  0.3400705E+04  0.7818609E-02  0.8137733E-01
        1   -1    0    0  501    0  0.00000000000E+00  0.00000000000E+00  0.15015483564E+04  0.15015483564E+04  0.50400001928E-02 0. -1.
       -1   -1    0    0    0  501  0.00000000000E+00  0.00000000000E+00 -0.19254777580E+04  0.19254777580E+04  0.50400001928E-02 0.  1.
    10030    2    1    2    0    0  0.00000000000E+00  0.00000000000E+00 -0.42392940168E+03  0.34270261144E+04  0.34007046110E+04 0.  0.
        5    1    3    3  502    0 -0.11955708866E+04  0.11992322693E+04 -0.57060629499E+02  0.16943511401E+04  0.46999998093E+01 0.  1.
       -5    1    3    3    0  502  0.11955708866E+04 -0.11992322693E+04 -0.36686877218E+03  0.17326749743E+04  0.46999998093E+01 0. -1.
</event>
<event>
 5   0  0.1421875E-07  0.3399202E+04  0.7818609E-02  0.8138102E-01
       -1   -1    0    0    0  501  0.00000000000E+00  0.00000000000E+00  0.18385250443E+04  0.18385250443E+04  0.50400001928E-02 0. -1.
        1   -1    0    0  501    0  0.00000000000E+00  0.00000000000E+00 -0.15711748005E+04  0.15711748005E+04  0.50400001928E-02 0.  1.
    10030    2    1    2    0    0  0.00000000000E+00  0.00000000000E+00  0.26735024383E+03  0.34096998447E+04  0.33992023886E+04 0.  0.
        5    1    3    3  502    0 -0.87029184072E+03 -0.14259105149E+04 -0.18033065590E+03  0.16802291273E+04  0.46999998093E+01 0.  1.
       -5    1    3    3    0  502  0.87029184072E+03  0.14259105149E+04  0.44768089972E+03  0.17294707175E+04  0.46999998093E+01 0. -1.
</event>
<event>
 5   0  0.1473755E-07  0.3270754E+04  0.7818609E-02  0.8170377E-01
       -1   -1    0    0    0  501  0.00000000000E+00  0.00000000000E+00  0.15890557768E+04  0.15890557768E+04  0.50400001928E-02 0.  1.
        1   -1    0    0  501    0  0.00000000000E+00  0.00000000000E+00 -0.16830485548E+04  0.16830485548E+04  0.50400001928E-02 0. -1.
    10030    2    1    2    0    0  0.00000000000E+00  0.00000000000E+00 -0.93992777991E+02  0.32721043316E+04  0.32707540591E+04 0.  0.
        1    1    3    3  502    0 -0.96433161431E+03  0.14804991173E+03 -0.13600182381E+04  0.16737693529E+04  0.50400001928E-02 0. -1.
       -1    1    3    3    0  502  0.96433161431E+03 -0.14804991173E+03  0.12660254601E+04  0.15983349788E+04  0.50400001928E-02 0.  1.
</event>
<event>
 5   0  0.1435806E-07  0.3333612E+04  0.7818609E-02  0.8154395E-01
        1   -1    0    0  501    0  0.00000000000E+00  0.00000000000E+00  0.18885049249E+04  0.18885049249E+04  0.50400001928E-02 0.  1.
       -1   -1    0    0    0  501  0.00000000000E+00  0.00000000000E+00 -0.14711333818E+04  0.14711333818E+04  0.50400001928E-02 0. -1.
    10030    2    1    2    0    0  0.00000000000E+00  0.00000000000E+00  0.41737154312E+03  0.33596383067E+04  0.33336122371E+04 0.  0.
        3    1    3    3  502    0 -0.52716117855E+03  0.12555430090E+04  0.11774162492E+04  0.18001656006E+04  0.10100000352E+00 0.  1.
       -3    1    3    3    0  502  0.52716117855E+03 -0.12555430090E+04 -0.76004470609E+03  0.15594727061E+04  0.10100000352E+00 0. -1.
</event>
<event>
 5   0  0.1435806E-07  0.3399633E+04  0.7818609E-02  0.8137996E-01
       -1   -1    0    0    0  501  0.00000000000E+00  0.00000000000E+00  0.15211956389E+04  0.15211956389E+04  0.50400001928E-02 0.  1.
        1   -1    0    0  501    0  0.00000000000E+00  0.00000000000E+00 -0.18994116427E+04  0.18994116427E+04  0.50400001928E-02 0. -1.
    10030    2    1    2    0    0  0.00000000000E+00  0.00000000000E+00 -0.37821600376E+03  0.34206072816E+04  0.33996333375E+04 0.  0.
        3    1    3    3  502    0 -0.30389447645E+01 -0.91057164235E+02 -0.18969531805E+04  0.18991398109E+04  0.10100000352E+00 0. -1.
       -3    1    3    3    0  502  0.30389447645E+01  0.91057164235E+02  0.15187371767E+04  0.15214674707E+04  0.10100000352E+00 0.  1.
</event>
<event>
 5   0  0.1523259E-07  0.3292979E+04  0.7818609E-02  0.8164684E-01
       -1   -1    0    0    0  501  0.00000000000E+00  0.00000000000E+00  0.12798721408E+04  0.12798721408E+04  0.50400001928E-02 0.  1.
        1   -1    0    0  501    0  0.00000000000E+00  0.00000000000E+00 -0.21181239191E+04  0.21181239191E+04  0.50400001928E-02 0. -1.
    10030    2    1    2    0    0  0.00000000000E+00  0.00000000000E+00 -0.83825177829E+03  0.33979960599E+04  0.32929790737E+04 0.  0.
        4    1    3    3  502    0  0.14012285701E+04  0.39975701654E+03 -0.12101759852E+04  0.18941422085E+04  0.12699999809E+01 0. -1.
       -4    1    3    3    0  502 -0.14012285701E+04 -0.39975701654E+03  0.37192420693E+03  0.15038538514E+04  0.12699999809E+01 0.  1.
</event>
<event>
 5   0  0.1435806E-07  0.3394535E+04  0.7818609E-02  0.8139249E-01
       -1   -1    0    0    0  501  0.00000000000E+00  0.00000000000E+00  0.11376261792E+04  0.11376261792E+04  0.50400001928E-02 0.  1.
        1   -1    0    0  501    0  0.00000000000E+00  0.00000000000E+00 -0.25322174039E+04  0.25322174039E+04  0.50400001928E-02 0. -1.
    10030    2    1    2    0    0  0.00000000000E+00  0.00000000000E+00 -0.13945912247E+04  0.36698435831E+04  0.33945349078E+04 0.  0.
        3    1    3    3  502    0 -0.13994993383E+04  0.10187088564E+03  0.33499731502E+03  0.14426362281E+04  0.10100000352E+00 0.  1.
       -3    1    3    3    0  502  0.13994993383E+04 -0.10187088564E+03 -0.17295885397E+04  0.22272073550E+04  0.10100000352E+00 0. -1.
</event>
<event>
 5   0  0.1473755E-07  0.3396926E+04  0.7818609E-02  0.8138661E-01
        1   -1    0    0  501    0  0.00000000000E+00  0.00000000000E+00  0.18546972089E+04  0.18546972089E+04  0.50400001928E-02 0. -1.
       -1   -1    0    0    0  501  0.00000000000E+00  0.00000000000E+00 -0.15553893802E+04  0.15553893802E+04  0.50400001928E-02 0.  1.
    10030    2    1    2    0    0  0.00000000000E+00  0.00000000000E+00  0.29930782862E+03  0.34100865891E+04  0.33969258704E+04 0.  0.
        1    1    3    3  502    0 -0.50789762405E+03 -0.13014631297E+03 -0.14721168383E+04  0.15626983218E+04  0.50400001928E-02 0.  1.
       -1    1    3    3    0  502  0.50789762405E+03  0.13014631297E+03  0.17714246670E+04  0.18473882673E+04  0.50400001928E-02 0. -1.
</event>
<event>
 5   0  0.1421875E-07  0.3400439E+04  0.7818609E-02  0.8137799E-01
       -1   -1    0    0    0  501  0.00000000000E+00  0.00000000000E+00  0.13918713138E+04  0.13918713138E+04  0.50400001928E-02 0. -1.
        1   -1    0    0  501    0  0.00000000000E+00  0.00000000000E+00 -0.20768776474E+04  0.20768776474E+04  0.50400001928E-02 0.  1.
    10030    2    1    2    0    0  0.00000000000E+00  0.00000000000E+00 -0.68500633356E+03  0.34687489612E+04  0.34004390420E+04 0.  0.
        5    1    3    3  502    0  0.14437983011E+04  0.89622886988E+03 -0.28714883156E+03  0.17234431418E+04  0.46999998093E+01 0.  1.
       -5    1    3    3    0  502 -0.14437983011E+04 -0.89622886988E+03 -0.39785750200E+03  0.17453058194E+04  0.46999998093E+01 0. -1.
</event>
<event>
 5   0  0.4381939E-07  0.3404514E+04  0.7818609E-02  0.8136799E-01
        2   -1    0    0  501    0  0.00000000000E+00  0.00000000000E+00  0.22932597110E+04  0.22932597110E+04  0.25500000920E-02 0.  1.
       -2   -1    0    0    0  501  0.00000000000E+00  0.00000000000E+00 -0.12635632207E+04  0.12635632207E+04  0.25500000920E-02 0. -1.
    10030    2    1    2    0    0  0.00000000000E+00  0.00000000000E+00  0.10296964903E+04  0.35568229318E+04  0.34045138428E+04 0.  0.
        3    1    3    3  502    0  0.10384238422E+04 -0.13473959041E+04  0.44978183803E+03  0.17595748096E+04  0.10100000352E+00 0. -1.
       -3    1    3    3    0  502 -0.10384238422E+04  0.13473959041E+04  0.57991465228E+03  0.17972481222E+04  0.10100000352E+00 0.  1.
</event>
<event>
 5   0  0.4396257E-07  0.3390070E+04  0.7818609E-02  0.8140348E-01
       -2   -1    0    0    0  501  0.00000000000E+00  0.00000000000E+00  0.11638935430E+04  0.11638935430E+04  0.25500000920E-02 0.  1.
        2   -1    0    0  501    0  0.00000000000E+00  0.00000000000E+00 -0.24685629202E+04  0.24685629202E+04  0.25500000920E-02 0. -1.
    10030    2    1    2    0    0  0.00000000000E+00  0.00000000000E+00 -0.13046693772E+04  0.36324564633E+04  0.33900704674E+04 0.  0.
        2    1    3    3  502    0  0.80671348562E+03  0.55282046286E+03  0.83111945399E+03  0.12834160116E+04  0.25500000920E-02 0.  1.
       -2    1    3    3    0  502 -0.80671348562E+03 -0.55282046286E+03 -0.21357888312E+04  0.23490404517E+04  0.25500000920E-02 0. -1.
</event>
<event>
 5   0  0.1421875E-07  0.3367356E+04  0.7818609E-02  0.8145965E-01
       -1   -1    0    0    0  501  0.00000000000E+00  0.00000000000E+00  0.86920826085E+03  0.86920826086E+03  0.50400001928E-02 0. -1.
        1   -1    0    0  501    0  0.00000000000E+00  0.00000000000E+00 -0.32613257902E+04  0.32613257902E+04  0.50400001928E-02 0.  1.
    10030    2    1    2    0    0  0.00000000000E+00  0.00000000000E+00 -0.23921175293E+04  0.41305340510E+04  0.33673558280E+04 0.  0.
        5    1    3    3  502    0 -0.86402280976E+03  0.99998928414E+03  0.83554076245E+02  0.13242044245E+04  0.46999998093E+01 0. -1.
       -5    1    3    3    0  502  0.86402280976E+03 -0.99998928414E+03 -0.24756716056E+04  0.28063296265E+04  0.46999998093E+01 0.  1.
</event>
<event>
 5   0  0.4381939E-07  0.3403942E+04  0.7818609E-02  0.8136939E-01
       -2   -1    0    0    0  501  0.00000000000E+00  0.00000000000E+00  0.12232202944E+04  0.12232202944E+04  0.25500000920E-02 0. -1.
        2   -1    0    0  501    0  0.00000000000E+00  0.00000000000E+00 -0.23680978813E+04  0.23680978813E+04  0.25500000920E-02 0.  1.
    10030    2    1    2    0    0  0.00000000000E+00  0.00000000000E+00 -0.11448775870E+04  0.35913181757E+04  0.34039420603E+04 0.  0.
        3    1    3    3  502    0 -0.81618097937E+03 -0.86910027948E+03 -0.18538836650E+04  0.22041713501E+04  0.10100000352E+00 0.  1.
       -3    1    3    3    0  502  0.81618097937E+03  0.86910027948E+03  0.70900607807E+03  0.13871468256E+04  0.10100000352E+00 0. -1.
</event>
<event>
 5   0  0.4486226E-07  0.3427282E+04  0.7818609E-02  0.8131243E-01
        2   -1    0    0  501    0  0.00000000000E+00  0.00000000000E+00  0.19012967732E+04  0.19012967732E+04  0.25500000920E-02 0. -1.
       -2   -1    0    0    0  501  0.00000000000E+00  0.00000000000E+00 -0.15445062934E+04  0.15445062934E+04  0.25500000920E-02 0.  1.
    10030    2    1    2    0    0  0.00000000000E+00  0.00000000000E+00  0.35679047984E+03  0.34458030666E+04  0.34272816235E+04 0.  0.
        1    1    3    3  502    0 -0.15297539216E+04 -0.26734312257E+03  0.90684187033E+03  0.17983274406E+04  0.50400001928E-02 0. -1.
       -1    1    3    3    0  502  0.15297539216E+04  0.26734312257E+03 -0.55005139050E+03  0.16474756259E+04  0.50400001928E-02 0.  1.
</event>
<event>
 5   0  0.4521737E-07  0.3397125E+04  0.7818609E-02  0.8138612E-01
        2   -1    0    0  501    0  0.00000000000E+00  0.00000000000E+00  0.21114236705E+04  0.21114236705E+04  0.25500000920E-02 0.  1.
       -2   -1    0    0    0  501  0.00000000000E+00  0.00000000000E+00 -0.13664309370E+04  0.13664309370E+04  0.25500000920E-02 0. -1.
    10030    2    1    2    0    0  0.00000000000E+00  0.00000000000E+00  0.74499273347E+03  0.34778546075E+04  0.33971250342E+04 0.  0.
        4    1    3    3  502    0  0.10862440165E+04  0.12636533618E+04  0.70951093532E+03  0.18111193397E+04  0.12699999809E+01 0.  1.
       -4    1    3    3    0  502 -0.10862440165E+04 -0.12636533618E+04  0.35481798146E+02  0.16667352679E+04  0.12699999809E+01 0. -1.
</event>
<event>
 5   0  0.4396257E-07  0.3392373E+04  0.7818609E-02  0.8139781E-01
        2   -1    0    0  501    0  0.00000000000E+00  0.00000000000E+00  0.19771196498E+04  0.19771196498E+04  0.25500000920E-02 0.  1.
       -2   -1    0    0    0  501  0.00000000000E+00  0.00000000000E+00 -0.14551719866E+04  0.14551719866E+04  0.25500000920E-02 0. -1.
    10030    2    1    2    0    0  0.00000000000E+00  0.00000000000E+00  0.52194766328E+03  0.34322916364E+04  0.33923732864E+04 0.  0.
        2    1    3    3  502    0  0.14393113024E+04 -0.59354957497E+03  0.94204490831E+03  0.18197161131E+04  0.25500000920E-02 0. -1.
       -2    1    3    3    0  502 -0.14393113024E+04  0.59354957497E+03 -0.42009724502E+03  0.16125755233E+04  0.25500000920E-02 0.  1.
</event>
<event>
 5   0  0.1421875E-07  0.3488616E+04  0.7818609E-02  0.8116493E-01
        1   -1    0    0  501    0  0.00000000000E+00  0.00000000000E+00  0.13740406068E+04  0.13740406068E+04  0.50400001928E-02 0.  1.
       -1   -1    0    0    0  501  0.00000000000E+00  0.00000000000E+00 -0.22143530741E+04  0.22143530741E+04  0.50400001928E-02 0. -1.
    10030    2    1    2    0    0  0.00000000000E+00  0.00000000000E+00 -0.84031246728E+03  0.35883936809E+04  0.34886163684E+04 0.  0.
        5    1    3    3  502    0  0.44265995312E+03 -0.16524806045E+04 -0.69904482632E+02  0.17121765998E+04  0.46999998093E+01 0.  1.
       -5    1    3    3    0  502 -0.44265995312E+03  0.16524806045E+04 -0.77040798465E+03  0.18762170810E+04  0.46999998093E+01 0. -1.
</event>
<event>
 5   0  0.4396257E-07  0.3396163E+04  0.7818609E-02  0.8138849E-01
       -2   -1    0    0    0  501  0.00000000000E+00  0.00000000000E+00  0.12085183703E+04  0.12085183703E+04  0.25500000920E-02 0.  1.
        2   -1    0    0  501    0  0.00000000000E+00  0.00000000000E+00 -0.23859636213E+04  0.23859636213E+04  0.25500000920E-02 0. -1.
    10030    2    1    2    0    0  0.00000000000E+00  0.00000000000E+00 -0.11774452510E+04  0.35944819916E+04  0.33961630510E+04 0.  0.
        2    1    3    3  502    0  0.23327909749E+03  0.32259530188E+03 -0.23358740824E+04  0.23695557801E+04  0.25500000920E-02 0. -1.
       -2    1    3    3    0  502 -0.23327909749E+03 -0.32259530188E+03  0.11584288314E+04  0.12249262115E+04  0.25500000920E-02 0.  1.
</event>
<event>
 5   0  0.1421875E-07  0.3377761E+04  0.7818609E-02  0.8143386E-01
       -1   -1    0    0    0  501  0.00000000000E+00  0.00000000000E+00  0.99505495468E+03  0.99505495469E+03  0.50400001928E-02 0. -1.
        1   -1    0    0  501    0  0.00000000000E+00  0.00000000000E+00 -0.28664918348E+04  0.28664918348E+04  0.50400001928E-02 0.  1.
    10030    2    1    2    0    0  0.00000000000E+00  0.00000000000E+00 -0.18714368801E+04  0.38615467894E+04  0.33777607392E+04 0.  0.
        5    1    3    3  502    0  0.12903080954E+04 -0.59332714307E+03 -0.19806069809E+04  0.24371619114E+04  0.46999998093E+01 0.  1.
       -5    1    3    3    0  502 -0.12903080954E+04  0.59332714307E+03  0.10917010083E+03  0.14243848780E+04  0.46999998093E+01 0. -1.
</event>
<event>
 5   0  0.1523259E-07  0.3393509E+04  0.7818609E-02  0.8139501E-01
       -1   -1    0    0    0  501  0.00000000000E+00  0.00000000000E+00  0.13143457771E+04  0.13143457771E+04  0.50400001928E-02 0.  1.
        1   -1    0    0  501    0  0.00000000000E+00  0.00000000000E+00 -0.21904251923E+04  0.21904251924E+04  0.50400001928E-02 0. -1.
    10030    2    1    2    0    0  0.00000000000E+00  0.00000000000E+00 -0.87607941522E+03  0.35047709695E+04  0.33935091582E+04 0.  0.
        4    1    3    3  502    0 -0.61922194554E+03 -0.12495206442E+04  0.56020981134E+03  0.15028553835E+04  0.12699999809E+01 0.  1.
       -4    1    3    3    0  502  0.61922194554E+03  0.12495206442E+04 -0.14362892266E+04  0.20019155860E+04  0.12699999809E+01 0. -1.
</event>
<event>
 5   0  0.1520084E-07  0.3387495E+04  0.7818609E-02  0.8140982E-01
        1   -1    0    0  501    0  0.00000000000E+00  0.00000000000E+00  0.22587169807E+04  0.22587169807E+04  0.50400001928E-02 0. -1.
       -1   -1    0    0    0  501  0.00000000000E+00  0.00000000000E+00 -0.12700933071E+04  0.12700933071E+04  0.50400001928E-02 0.  1.
    10030    2    1    2    0    0  0.00000000000E+00  0.00000000000E+00  0.98862367365E+03  0.35288102878E+04  0.33874954287E+04 0.  0.
        2    1    3    3  502    0 -0.61629619305E+03 -0.19123883131E+03 -0.11370270437E+04  0.13073728567E+04  0.25500000920E-02 0.  1.
       -2    1    3    3    0  502  0.61629619305E+03  0.19123883131E+03  0.21256507174E+04  0.22214374311E+04  0.25500000920E-02 0. -1.
</event>
<event>
 5   0  0.1523259E-07  0.3391675E+04  0.7818609E-02  0.8139953E-01
       -1   -1    0    0    0  501  0.00000000000E+00  0.00000000000E+00  0.14834637800E+04  0.14834637800E+04  0.50400001928E-02 0.  1.
        1   -1    0    0  501    0  0.00000000000E+00  0.00000000000E+00 -0.19386149779E+04  0.19386149779E+04  0.50400001928E-02 0. -1.
    10030    2    1    2    0    0  0.00000000000E+00  0.00000000000E+00 -0.45515119790E+03  0.34220787580E+04  0.33916751632E+04 0.  0.
        4    1    3    3  502    0 -0.72751321396E+03  0.33515163947E+03 -0.17357193531E+04  0.19116289869E+04  0.12699999809E+01 0. -1.
       -4    1    3    3    0  502  0.72751321396E+03 -0.33515163947E+03  0.12805681552E+04  0.15104497711E+04  0.12699999809E+01 0.  1.
</event>
<event>
 5   0  0.4486226E-07  0.3400740E+04  0.7818609E-02  0.8137725E-01
        2   -1    0    0  501    0  0.00000000000E+00  0.00000000000E+00  0.18262439233E+04  0.18262439233E+04  0.25500000920E-02 0.  1.
       -2   -1    0    0    0  501  0.00000000000E+00  0.00000000000E+00 -0.15831720466E+04  0.15831720466E+04  0.25500000920E-02 0. -1.
    10030    2    1    2    0    0  0.00000000000E+00  0.00000000000E+00  0.24307187667E+03  0.34094159699E+04  0.34007401133E+04 0.  0.
        1    1    3    3  502    0  0.83767072632E+02 -0.55076477397E+03 -0.14890803974E+04  0.15898802435E+04  0.50400001928E-02 0. -1.
       -1    1    3    3    0  502 -0.83767072632E+02  0.55076477397E+03  0.17321522741E+04  0.18195357263E+04  0.50400001928E-02 0.  1.
</event>
<event>
 5   0  0.4521737E-07  0.3395731E+04  0.7818609E-02  0.8138955E-01
       -2   -1    0    0    0  501  0.00000000000E+00  0.00000000000E+00  0.12970191520E+04  0.12970191520E+04  0.25500000920E-02 0.  1.
        2   -1    0    0  501    0  0.00000000000E+00  0.00000000000E+00 -0.22225937371E+04  0.22225937371E+04  0.25500000920E-02 0. -1.
    10030    2    1    2    0    0  0.00000000000E+00  0.00000000000E+00 -0.92557458504E+03  0.35196128891E+04  0.33957306396E+04 0.  0.
        4    1    3    3  502    0  0.13846593683E+04  0.77344405898E+02 -0.14780534865E+04  0.20267973369E+04  0.12699999809E+01 0. -1.
       -4    1    3    3    0  502 -0.13846593683E+04 -0.77344405898E+02  0.55247890142E+03  0.14928155521E+04  0.12699999809E+01 0.  1.
</event>
<event>
 5   0  0.1435806E-07  0.3392389E+04  0.7818609E-02  0.8139777E-01
       -1   -1    0    0    0  501  0.00000000000E+00  0.00000000000E+00  0.16199550245E+04  0.16199550246E+04  0.50400001928E-02 0.  1.
        1   -1    0    0  501    0  0.00000000000E+00  0.00000000000E+00 -0.17760221161E+04  0.17760221162E+04  0.50400001928E-02 0. -1.
    10030    2    1    2    0    0  0.00000000000E+00  0.00000000000E+00 -0.15606709161E+03  0.33959771407E+04  0.33923890996E+04 0.  0.
        3    1    3    3  502    0  0.70547537165E+03 -0.11115721001E+04  0.99257781944E+03  0.16487870607E+04  0.10100000352E+00 0. -1.
       -3    1    3    3    0  502 -0.70547537165E+03  0.11115721001E+04 -0.11486449110E+04  0.17471900800E+04  0.10100000352E+00 0.  1.
</event>
<event>
 5   0  0.4381939E-07  0.3407422E+04  0.7818609E-02  0.8136087E-01
       -2   -1    0    0    0  501  0.00000000000E+00  0.00000000000E+00  0.11227142424E+04  0.11227142425E+04  0.25500000920E-02 0. -1.
        2   -1    0    0  501    0  0.00000000000E+00  0.00000000000E+00 -0.25853690063E+04  0.25853690063E+04  0.25500000920E-02 0.  1.
    10030    2    1    2    0    0  0.00000000000E+00  0.00000000000E+00 -0.14626547639E+04  0.37080832488E+04  0.34074216677E+04 0.  0.
        3    1    3    3  502    0  0.16487474890E+04 -0.31244104084E+03 -0.41100291873E+03  0.17276895253E+04  0.10100000352E+00 0.  1.
       -3    1    3    3    0  502 -0.16487474890E+04  0.31244104084E+03 -0.10516518451E+04  0.19803937235E+04  0.10100000352E+00 0. -1.
</event>
<event>
 5   0  0.1435806E-07  0.3366879E+04  0.7818609E-02  0.8146083E-01
        1   -1    0    0  501    0  0.00000000000E+00  0.00000000000E+00  0.11932413444E+04  0.11932413444E+04  0.50400001928E-02 0.  1.
       -1   -1    0    0    0  501  0.00000000000E+00  0.00000000000E+00 -0.23750177631E+04  0.23750177631E+04  0.50400001928E-02 0. -1.
    10030    2    1    2    0    0  0.00000000000E+00  0.00000000000E+00 -0.11817764187E+04  0.35682591075E+04  0.33668794980E+04 0.  0.
        3    1    3    3  502    0  0.28859614343E+02  0.16482785810E+04 -0.22944071606E+03  0.16644212839E+04  0.10100000352E+00 0. -1.
       -3    1    3    3    0  502 -0.28859614343E+02 -0.16482785810E+04 -0.95233570268E+03  0.19038378236E+04  0.10100000352E+00 0.  1.
</event>
<event>
 5   0  0.1520084E-07  0.3391142E+04  0.7818609E-02  0.8140084E-01
       -1   -1    0    0    0  501  0.00000000000E+00  0.00000000000E+00  0.25298560956E+04  0.25298560956E+04  0.50400001928E-02 0.  1.
        1   -1    0    0  501    0  0.00000000000E+00  0.00000000000E+00 -0.11364125851E+04  0.11364125851E+04  0.50400001928E-02 0. -1.
    10030    2    1    2    0    0  0.00000000000E+00  0.00000000000E+00  0.13934435105E+04  0.36662686807E+04  0.33911415810E+04 0.  0.
        2    1    3    3  502    0  0.83307690842E+03  0.14600541367E+04  0.93649189314E+03  0.19242640888E+04  0.25500000920E-02 0.  1.
       -2    1    3    3    0  502 -0.83307690842E+03 -0.14600541367E+04  0.45695161731E+03  0.17420045919E+04  0.25500000920E-02 0. -1.
</event>
<event>
 5   0  0.4396257E-07  0.3403142E+04  0.7818609E-02  0.8137136E-01
        2   -1    0    0  501    0  0.00000000000E+00  0.00000000000E+00  0.11265310127E+04  0.11265310127E+04  0.25500000920E-02 0.  1.
       -2   -1    0    0    0  501  0.00000000000E+00  0.00000000000E+00 -0.25701410110E+04  0.25701410110E+04  0.25500000920E-02 0. -1.
    10030    2    1    2    0    0  0.00000000000E+00  0.00000000000E+00 -0.14436099983E+04  0.36966720238E+04  0.34031418166E+04 0.  0.
        2    1    3    3  502    0  0.79770393134E+03 -0.13610977007E+04 -0.14143071132E+04  0.21187692473E+04  0.25500000920E-02 0. -1.
       -2    1    3    3    0  502 -0.79770393134E+03  0.13610977007E+04 -0.29302885150E+02  0.15779027765E+04  0.25500000920E-02 0.  1.
</event>
<event>
 5   0  0.1421875E-07  0.3402053E+04  0.7818609E-02  0.8137403E-01
        3   -1    0    0  501    0  0.00000000000E+00  0.00000000000E+00  0.19029706266E+04  0.19029706292E+04  0.10100000352E+00 0.  1.
       -3   -1    0    0    0  501  0.00000000000E+00  0.00000000000E+00 -0.15205125357E+04  0.15205125391E+04  0.10100000352E+00 0. -1.
    10030    2    1    2    0    0  0.00000000000E+00  0.00000000000E+00  0.38245809084E+03  0.34234831683E+04  0.34020527351E+04 0.  0.
        4    1    3    3  502    0 -0.11964801220E+04  0.47626063862E+03 -0.92712227231E+03  0.15868037682E+04  0.12699999809E+01 0.  1.
       -4    1    3    3    0  502  0.11964801220E+04 -0.47626063862E+03  0.13095803632E+04  0.18366794001E+04  0.12699999809E+01 0. -1.
</event>
<event>
 5   0  0.1473755E-07  0.3403435E+04  0.7818609E-02  0.8137064E-01
       -1   -1    0    0    0  501  0.00000000000E+00  0.00000000000E+00  0.12024099575E+04  0.12024099575E+04  0.50400001928E-02 0.  1.
        1   -1    0    0  501    0  0.00000000000E+00  0.00000000000E+00 -0.24083658301E+04  0.24083658301E+04  0.50400001928E-02 0. -1.
    10030    2    1    2    0    0  0.00000000000E+00  0.00000000000E+00 -0.12059558726E+04  0.36107757876E+04  0.34034353558E+04 0.  0.
        1    1    3    3  502    0 -0.13828221462E+04 -0.84983049313E+03 -0.11454334558E+04  0.19865615412E+04  0.50400001928E-02 0. -1.
       -1    1    3    3    0  502  0.13828221462E+04  0.84983049313E+03 -0.60522416786E+02  0.16242142464E+04  0.50400001928E-02 0.  1.
</event>
<event>
 5   0  0.4521737E-07  0.3339368E+04  0.7818609E-02  0.8152950E-01
       -2   -1    0    0    0  501  0.00000000000E+00  0.00000000000E+00  0.22696876517E+04  0.22696876517E+04  0.25500000920E-02 0.  1.
        2   -1    0    0  501    0  0.00000000000E+00  0.00000000000E+00 -0.12282944969E+04  0.12282944969E+04  0.25500000920E-02 0. -1.
    10030    2    1    2    0    0  0.00000000000E+00  0.00000000000E+00  0.10413931549E+04  0.34979821486E+04  0.33393681153E+04 0.  0.
        4    1    3    3  502    0  0.18358522955E+03  0.10681058834E+04 -0.80978678957E+03  0.13528894900E+04  0.12699999809E+01 0. -1.
       -4    1    3    3    0  502 -0.18358522955E+03 -0.10681058834E+04  0.18511799444E+04  0.21450926586E+04  0.12699999809E+01 0.  1.
</event>
<event>
 5   0  0.1473755E-07  0.3410343E+04  0.7818609E-02  0.8135372E-01
       -1   -1    0    0    0  501  0.00000000000E+00  0.00000000000E+00  0.18849363109E+04  0.18849363109E+04  0.50400001928E-02 0. -1.
        1   -1    0    0  501    0  0.00000000000E+00  0.00000000000E+00 -0.15425510010E+04  0.15425510010E+04  0.50400001928E-02 0.  1.
    10030    2    1    2    0    0  0.00000000000E+00  0.00000000000E+00  0.34238530995E+03  0.34274873119E+04  0.34103433218E+04 0.  0.
        1    1    3    3  502    0 -0.73444339651E+03  0.11022774390E+04  0.12504568309E+04  0.18215556377E+04  0.50400001928E-02 0. -1.
       -1    1    3    3    0  502  0.73444339651E+03 -0.11022774390E+04 -0.90807152090E+03  0.16059316742E+04  0.50400001928E-02 0.  1.
</event>
<event>
 5   0  0.4521737E-07  0.3391119E+04  0.7818609E-02  0.8140089E-01
        2   -1    0    0  501    0  0.00000000000E+00  0.00000000000E+00  0.19476682188E+04  0.19476682188E+04  0.25500000920E-02 0. -1.
       -2   -1    0    0    0  501  0.00000000000E+00  0.00000000000E+00 -0.14760844322E+04  0.14760844322E+04  0.25500000920E-02 0.  1.
    10030    2    1    2    0    0  0.00000000000E+00  0.00000000000E+00  0.47158378660E+03  0.34237526509E+04  0.33911194239E+04 0.  0.
        4    1    3    3  502    0  0.60689184184E+03  0.42441370053E+03 -0.13041652167E+04  0.14997643889E+04  0.12699999809E+01 0.  1.
       -4    1    3    3    0  502 -0.60689184184E+03 -0.42441370053E+03  0.17757490033E+04  0.19239882620E+04  0.12699999809E+01 0. -1.
</event>
<event>
 5   0  0.4447909E-07  0.3384702E+04  0.7818609E-02  0.8141671E-01
       -2   -1    0    0    0  501  0.00000000000E+00  0.00000000000E+00  0.16733675769E+04  0.16733675769E+04  0.25500000920E-02 0.  1.
        2   -1    0    0  501    0  0.00000000000E+00  0.00000000000E+00 -0.17115496524E+04  0.17115496524E+04  0.25500000920E-02 0. -1.
    10030    2    1    2    0    0  0.00000000000E+00  0.00000000000E+00 -0.38182075529E+02  0.33849172293E+04  0.33847018743E+04 0.  0.
        5    1    3    3  502    0 -0.47934658283E+02  0.55011088369E+03 -0.16189146377E+04  0.17105047237E+04  0.46999998093E+01 0. -1.
       -5    1    3    3    0  502  0.47934658283E+02 -0.55011088369E+03  0.15807325621E+04  0.16744125056E+04  0.46999998093E+01 0.  1.
</event>
<event>
 5   0  0.1523259E-07  0.3399460E+04  0.7818609E-02  0.8138039E-01
        1   -1    0    0  501    0  0.00000000000E+00  0.00000000000E+00  0.17986935913E+04  0.17986935914E+04  0.50400001928E-02 0.  1.
       -1   -1    0    0    0  501  0.00000000000E+00  0.00000000000E+00 -0.16062113611E+04  0.16062113611E+04  0.50400001928E-02 0. -1.
    10030    2    1    2    0    0  0.00000000000E+00  0.00000000000E+00  0.19248223028E+03  0.34049049524E+04  0.33994600051E+04 0.  0.
        4    1    3    3  502    0 -0.39640357527E+03  0.56423063584E+03 -0.14598200632E+04  0.16144869881E+04  0.12699999809E+01 0. -1.
       -4    1    3    3    0  502  0.39640357527E+03 -0.56423063584E+03  0.16523022935E+04  0.17904179643E+04  0.12699999809E+01 0.  1.
</event>
<event>
 5   0  0.4447909E-07  0.3403031E+04  0.7818609E-02  0.8137163E-01
        2   -1    0    0  501    0  0.00000000000E+00  0.00000000000E+00  0.23397782833E+04  0.23397782833E+04  0.25500000920E-02 0.  1.
       -2   -1    0    0    0  501  0.00000000000E+00  0.00000000000E+00 -0.12373630533E+04  0.12373630533E+04  0.25500000920E-02 0. -1.
    10030    2    1    2    0    0  0.00000000000E+00  0.00000000000E+00  0.11024152300E+04  0.35771413366E+04  0.34030311198E+04 0.  0.
        5    1    3    3  502    0  0.21930390131E+03  0.10327280778E+03  0.23215281186E+04  0.23341538873E+04  0.46999998093E+01 0.  1.
       -5    1    3    3    0  502 -0.21930390131E+03 -0.10327280778E+03 -0.12191128886E+04  0.12429874493E+04  0.46999998093E+01 0. -1.
</event>
<event>
 5   0  0.1520084E-07  0.3399244E+04  0.7818609E-02  0.8138092E-01
       -1   -1    0    0    0  501  0.00000000000E+00  0.00000000000E+00  0.20487703583E+04  0.20487703583E+04  0.50400001928E-02 0. -1.
        1   -1    0    0  501    0  0.00000000000E+00  0.00000000000E+00 -0.14099748977E+04  0.14099748977E+04  0.50400001928E-02 0.  1.
    10030    2    1    2    0    0  0.00000000000E+00  0.00000000000E+00  0.63879546059E+03  0.34587452560E+04  0.33992439020E+04 0.  0.
        2    1    3    3  502    0 -0.46269847514E+03  0.15338677250E+04  0.89666863623E+03  0.18359887581E+04  0.25500000920E-02 0. -1.
       -2    1    3    3    0  502  0.46269847514E+03 -0.15338677250E+04 -0.25787317564E+03  0.16227564979E+04  0.25500000920E-02 0.  1.
</event>
<event>
 5   0  0.4396257E-07  0.3403986E+04  0.7818609E-02  0.8136929E-01
        2   -1    0    0  501    0  0.00000000000E+00  0.00000000000E+00  0.22149309415E+04  0.22149309415E+04  0.25500000920E-02 0. -1.
       -2   -1    0    0    0  501  0.00000000000E+00  0.00000000000E+00 -0.13078419941E+04  0.13078419941E+04  0.25500000920E-02 0.  1.
    10030    2    1    2    0    0  0.00000000000E+00  0.00000000000E+00  0.90708894746E+03  0.35227729356E+04  0.34039857222E+04 0.  0.
        2    1    3    3  502    0  0.14282179763E+04  0.66320991362E+03 -0.21484623943E+03  0.15892806183E+04  0.25500000920E-02 0.  1.
       -2    1    3    3    0  502 -0.14282179763E+04 -0.66320991362E+03  0.11219351869E+04  0.19334923172E+04  0.25500000920E-02 0. -1.
</event>
<event>
 5   0  0.1421875E-07  0.3417033E+04  0.7818609E-02  0.8133738E-01
       -1   -1    0    0    0  501  0.00000000000E+00  0.00000000000E+00  0.17421212252E+04  0.17421212252E+04  0.50400001928E-02 0. -1.
        1   -1    0    0  501    0  0.00000000000E+00  0.00000000000E+00 -0.16755601425E+04  0.16755601425E+04  0.50400001928E-02 0.  1.
    10030    2    1    2    0    0  0.00000000000E+00  0.00000000000E+00  0.66561082666E+02  0.34176813678E+04  0.34170331508E+04 0.  0.
        5    1    3    3  502    0 -0.65756946609E+03 -0.15764900992E+04 -0.26172529124E+01  0.17081415561E+04  0.46999998093E+01 0.  1.
       -5    1    3    3    0  502  0.65756946609E+03  0.15764900992E+04  0.69178335579E+02  0.17095398117E+04  0.46999998093E+01 0. -1.
</event>
</LesHouchesEvents>
