<LesHouchesEvents version="3.0">
<header>
<!--
#*********************************************************************
#                                                                    *
#                        MadGraph5_aMC@NLO                           *
#                                                                    *
#                           Going Beyond                             *
#                                                                    *
#                   http://madgraph.hep.uiuc.edu                     *
#                   http://madgraph.phys.ucl.ac.be                   *
#                   http://amcatnlo.cern.ch                          *
#                                                                    *
#                     The MadGraph5_aMC@NLO team                     *
#                                                                    *
#....................................................................*
#                                                                    *
# This file contains all the information necessary to reproduce      *
# the events generated:                                              *
#                                                                    *
# 1. software version                                                *
# 2. proc_card          : code generation info including model       *
# 3. param_card         : model primary parameters in the LH format  *
# 4. run_card           : running parameters (collider and cuts)     *
# 5. pythia_card        : present only if pythia has been run        *
# 6. pgs_card           : present only if pgs has been run           *
# 7. delphes_cards      : present only if delphes has been run       *
#                                                                    *
#                                                                    *
#*********************************************************************
-->
<MGVersion>
#5.2.2.3
</MGVersion>
<MG5ProcCard>
#************************************************************
#*                     MadGraph5_aMC@NLO                    *
#*                                                          *
#*                *                       *                 *
#*                  *        * *        *                   *
#*                    * * * * 5 * * * *                     *
#*                  *        * *        *                   *
#*                *                       *                 *
#*                                                          *
#*                                                          *
#*         VERSION 2.2.3                 2015-02-10         *
#*                                                          *
#*    The MadGraph5_aMC@NLO Development Team - Find us at   *
#*    https://server06.fynu.ucl.ac.be/projects/madgraph     *
#*                                                          *
#************************************************************
#*                                                          *
#*               Command File for MadGraph5_aMC@NLO         *
#*                                                          *
#*     run as ./bin/mg5_aMC  filename                       *
#*                                                          *
#************************************************************
set group_subprocesses Auto
set ignore_six_quark_processes False
set loop_optimized_output True
set gauge unitary
set complex_mass_scheme False
import model sm
define p = g u c d s u~ c~ d~ s~
define j = g u c d s u~ c~ d~ s~
define l+ = e+ mu+
define l- = e- mu-
define vl = ve vm vt
define vl~ = ve~ vm~ vt~
import model Zprime_UFO
generate p p > zph, zph > j j
add process p p > zph, zph > b b~
output Dijet_signal
</MG5ProcCard>
<MGProcCard>
#*********************************************************************
#                        MadGraph/MadEvent                           *
#                   http://madgraph.hep.uiuc.edu                     *
#                                                                    *
#                          proc_card.dat                             *
#*********************************************************************
#                                                                    *
#            This Files is generated by MADGRAPH 5                   *
#                                                                    *
# WARNING: This Files is generated for MADEVENT (compatibility issue)*
#          This files is NOT a valid MG4 proc_card.dat               *
#          Running this in MG4 will NEVER reproduce the result of MG5*
#                                                                    *
#*********************************************************************
#*********************************************************************
# Process(es) requested : mg2 input                                  *
#*********************************************************************
# Begin PROCESS # This is TAG. Do not modify this line
p p > zph , zph > j j           #Process
# Be carefull the coupling are here in MG5 convention
          
end_coup           # End the couplings input

done               # this tells MG there are no more procs
# End PROCESS  # This is TAG. Do not modify this line
#*********************************************************************
# Model information                                                  *
#*********************************************************************
# Begin MODEL  # This is TAG. Do not modify this line
Zprime_UFO
# End   MODEL  # This is TAG. Do not modify this line
#*********************************************************************
# Start multiparticle definitions                                    *
#*********************************************************************
# Begin MULTIPARTICLES # This is TAG. Do not modify this line

# End  MULTIPARTICLES # This is TAG. Do not modify this line
</MGProcCard>
<MGRunCard>
#*********************************************************************
#                       MadGraph5_aMC@NLO                            *
#                                                                    *
#                     run_card.dat MadEvent                          *
#                                                                    *
#  This file is used to set the parameters of the run.               *
#                                                                    *
#  Some notation/conventions:                                        *
#                                                                    *
#   Lines starting with a '# ' are info or comments                  *
#                                                                    *
#   mind the format:   value    = variable     ! comment             *
#*********************************************************************
#
#*******************                                                 
# Running parameters
#*******************                                                 
#                                                                    
#*********************************************************************
# Tag name for the run (one word)                                    *
#*********************************************************************
  tag_1     = run_tag ! name of the run 
#*********************************************************************
# Run to generate the grid pack                                      *
#*********************************************************************
  .false.     = gridpack  !True = setting up the grid pack
#*********************************************************************
# Number of events and rnd seed                                      *
# Warning: Do not generate more than 1M events in a single run       *
# If you want to run Pythia, avoid more than 50k events in a run.    *
#*********************************************************************
  2000 = nevents ! Number of unweighted events requested 
 2919 = iseed   ! rnd seed (0=assigned automatically=default))
#*********************************************************************
# Collider type and energy                                           *
# lpp: 0=No PDF, 1=proton, -1=antiproton, 2=photon from proton,      *
#                                         3=photon from electron     *
#*********************************************************************
        1     = lpp1    ! beam 1 type 
        1     = lpp2    ! beam 2 type
     4000     = ebeam1  ! beam 1 total energy in GeV
     4000     = ebeam2  ! beam 2 total energy in GeV
#*********************************************************************
# Beam polarization from -100 (left-handed) to 100 (right-handed)    *
#*********************************************************************
        0     = polbeam1 ! beam polarization for beam 1
        0     = polbeam2 ! beam polarization for beam 2
#*********************************************************************
# PDF CHOICE: this automatically fixes also alpha_s and its evol.    *
#*********************************************************************
 'nn23lo1'    = pdlabel     ! PDF set                                     
 230000    = lhaid     ! if pdlabel=lhapdf, this is the lhapdf number
#*********************************************************************
# Renormalization and factorization scales                           *
#*********************************************************************
 F        = fixed_ren_scale  ! if .true. use fixed ren scale
 F        = fixed_fac_scale  ! if .true. use fixed fac scale
 91.1880  = scale            ! fixed ren scale
 91.1880  = dsqrt_q2fact1    ! fixed fact scale for pdf1
 91.1880  = dsqrt_q2fact2    ! fixed fact scale for pdf2
 1        = scalefact        ! scale factor for event-by-event scales
#*********************************************************************
# Matching - Warning! ickkw > 1 is still beta
#*********************************************************************
 0        = ickkw            ! 0 no matching, 1 MLM, 2 CKKW matching
 1        = highestmult      ! for ickkw=2, highest mult group
 1        = ktscheme         ! for ickkw=1, 1 Durham kT, 2 Pythia pTE
 1        = alpsfact         ! scale factor for QCD emission vx
 F        = chcluster        ! cluster only according to channel diag
 T        = pdfwgt           ! for ickkw=1, perform pdf reweighting
 5        = asrwgtflavor     ! highest quark flavor for a_s reweight
 T        = clusinfo         ! include clustering tag in output
 3.0      = lhe_version       ! Change the way clustering information pass to shower.        
#*********************************************************************
#**********************************************************
#
#**********************************************************
# Automatic ptj and mjj cuts if xqcut > 0
# (turn off for VBF and single top processes)
#**********************************************************
   T  = auto_ptj_mjj  ! Automatic setting of ptj and mjj
#**********************************************************
#                                                                    
#**********************************
# BW cutoff (M+/-bwcutoff*Gamma)
#**********************************
  15  = bwcutoff      ! (M+/-bwcutoff*Gamma)
#**********************************************************
# Apply pt/E/eta/dr/mij cuts on decay products or not
# (note that etmiss/ptll/ptheavy/ht/sorted cuts always apply)
#**********************************************************
   T  = cut_decays    ! Cut decay products 
#*************************************************************
# Number of helicities to sum per event (0 = all helicities)
# 0 gives more stable result, but longer run time (needed for
# long decay chains e.g.).
# Use >=2 if most helicities contribute, e.g. pure QCD.
#*************************************************************
   0  = nhel          ! Number of helicities used per event
#*******************                                                 
# Standard Cuts
#*******************                                                 
#                                                                    
#*********************************************************************
# Minimum and maximum pt's (for max, -1 means no cut)                *
#*********************************************************************
 20  = ptj       ! minimum pt for the jets 
  0  = ptb       ! minimum pt for the b 
 10  = pta       ! minimum pt for the photons 
 10  = ptl       ! minimum pt for the charged leptons 
  0  = misset    ! minimum missing Et (sum of neutrino's momenta)
  0  = ptheavy   ! minimum pt for one heavy final state
 1.0 = ptonium   ! minimum pt for the quarkonium states
 -1  = ptjmax    ! maximum pt for the jets
 -1  = ptbmax    ! maximum pt for the b
 -1  = ptamax    ! maximum pt for the photons
 -1  = ptlmax    ! maximum pt for the charged leptons
 -1  = missetmax ! maximum missing Et (sum of neutrino's momenta)
#*********************************************************************
# Minimum and maximum E's (in the center of mass frame)              *
#*********************************************************************
  0  = ej     ! minimum E for the jets 
  0  = eb     ! minimum E for the b 
  0  = ea     ! minimum E for the photons 
  0  = el     ! minimum E for the charged leptons 
 -1   = ejmax ! maximum E for the jets
 -1   = ebmax ! maximum E for the b
 -1   = eamax ! maximum E for the photons
 -1   = elmax ! maximum E for the charged leptons
#*********************************************************************
# Maximum and minimum absolute rapidity (for max, -1 means no cut)   *
#*********************************************************************
   5  = etaj    ! max rap for the jets 
  -1  = etab    ! max rap for the b
 2.5  = etaa    ! max rap for the photons 
 2.5  = etal    ! max rap for the charged leptons 
 0.6  = etaonium ! max rap for the quarkonium states
   0  = etajmin ! min rap for the jets
   0  = etabmin ! min rap for the b
   0  = etaamin ! min rap for the photons
   0  = etalmin ! main rap for the charged leptons
#*********************************************************************
# Minimum and maximum DeltaR distance                                *
#*********************************************************************
 0.4 = drjj    ! min distance between jets 
 0   = drbb    ! min distance between b's 
 0.4 = drll    ! min distance between leptons 
 0.4 = draa    ! min distance between gammas 
 0   = drbj    ! min distance between b and jet 
 0.4 = draj    ! min distance between gamma and jet 
 0.4 = drjl    ! min distance between jet and lepton 
 0   = drab    ! min distance between gamma and b 
 0   = drbl    ! min distance between b and lepton 
 0.4 = dral    ! min distance between gamma and lepton 
 -1  = drjjmax ! max distance between jets
 -1  = drbbmax ! max distance between b's
 -1  = drllmax ! max distance between leptons
 -1  = draamax ! max distance between gammas
 -1  = drbjmax ! max distance between b and jet
 -1  = drajmax ! max distance between gamma and jet
 -1  = drjlmax ! max distance between jet and lepton
 -1  = drabmax ! max distance between gamma and b
 -1  = drblmax ! max distance between b and lepton
 -1  = dralmax ! maxdistance between gamma and lepton
#*********************************************************************
# Minimum and maximum invariant mass for pairs                       *
# WARNING: for four lepton final state mmll cut require to have      *
#          different lepton masses for each flavor!                  *           
#*********************************************************************
 0   = mmjj    ! min invariant mass of a jet pair 
 0   = mmbb    ! min invariant mass of a b pair 
 0   = mmaa    ! min invariant mass of gamma gamma pair
 0   = mmll    ! min invariant mass of l+l- (same flavour) lepton pair
 -1  = mmjjmax ! max invariant mass of a jet pair
 -1  = mmbbmax ! max invariant mass of a b pair
 -1  = mmaamax ! max invariant mass of gamma gamma pair
 -1  = mmllmax ! max invariant mass of l+l- (same flavour) lepton pair
#*********************************************************************
# Minimum and maximum invariant mass for all letpons                 *
#*********************************************************************
 0   = mmnl    ! min invariant mass for all letpons (l+- and vl) 
 -1  = mmnlmax ! max invariant mass for all letpons (l+- and vl) 
#*********************************************************************
# Minimum and maximum pt for 4-momenta sum of leptons                *
#*********************************************************************
 0   = ptllmin  ! Minimum pt for 4-momenta sum of leptons(l and vl)
 -1  = ptllmax  ! Maximum pt for 4-momenta sum of leptons(l and vl)
#*********************************************************************
# Inclusive cuts                                                     *
#*********************************************************************
 0  = xptj ! minimum pt for at least one jet  
 0  = xptb ! minimum pt for at least one b 
 0  = xpta ! minimum pt for at least one photon 
 0  = xptl ! minimum pt for at least one charged lepton 
#*********************************************************************
# Control the pt's of the jets sorted by pt                          *
#*********************************************************************
 0   = ptj1min ! minimum pt for the leading jet in pt
 0   = ptj2min ! minimum pt for the second jet in pt
 0   = ptj3min ! minimum pt for the third jet in pt
 0   = ptj4min ! minimum pt for the fourth jet in pt
 -1  = ptj1max ! maximum pt for the leading jet in pt 
 -1  = ptj2max ! maximum pt for the second jet in pt
 -1  = ptj3max ! maximum pt for the third jet in pt
 -1  = ptj4max ! maximum pt for the fourth jet in pt
 0   = cutuse  ! reject event if fails any (0) / all (1) jet pt cuts
#*********************************************************************
# Control the pt's of leptons sorted by pt                           *
#*********************************************************************
 0   = ptl1min ! minimum pt for the leading lepton in pt
 0   = ptl2min ! minimum pt for the second lepton in pt
 0   = ptl3min ! minimum pt for the third lepton in pt
 0   = ptl4min ! minimum pt for the fourth lepton in pt
 -1  = ptl1max ! maximum pt for the leading lepton in pt 
 -1  = ptl2max ! maximum pt for the second lepton in pt
 -1  = ptl3max ! maximum pt for the third lepton in pt
 -1  = ptl4max ! maximum pt for the fourth lepton in pt
#*********************************************************************
# Control the Ht(k)=Sum of k leading jets                            *
#*********************************************************************
 0   = htjmin ! minimum jet HT=Sum(jet pt)
 -1  = htjmax ! maximum jet HT=Sum(jet pt)
 0   = ihtmin  !inclusive Ht for all partons (including b)
 -1  = ihtmax  !inclusive Ht for all partons (including b)
 0   = ht2min ! minimum Ht for the two leading jets
 0   = ht3min ! minimum Ht for the three leading jets
 0   = ht4min ! minimum Ht for the four leading jets
 -1  = ht2max ! maximum Ht for the two leading jets
 -1  = ht3max ! maximum Ht for the three leading jets
 -1  = ht4max ! maximum Ht for the four leading jets
#***********************************************************************
# Photon-isolation cuts, according to hep-ph/9801442                   *
# When ptgmin=0, all the other parameters are ignored                  *
# When ptgmin>0, pta and draj are not going to be used                 *
#***********************************************************************
   0 = ptgmin ! Min photon transverse momentum
 0.4 = R0gamma ! Radius of isolation code
 1.0 = xn ! n parameter of eq.(3.4) in hep-ph/9801442
 1.0 = epsgamma ! epsilon_gamma parameter of eq.(3.4) in hep-ph/9801442
 .true. = isoEM ! isolate photons from EM energy (photons and leptons)
#*********************************************************************
# WBF cuts                                                           *
#*********************************************************************
 0   = xetamin ! minimum rapidity for two jets in the WBF case  
 0   = deltaeta ! minimum rapidity for two jets in the WBF case 
#*********************************************************************
# KT DURHAM CUT                                                      *
#*********************************************************************
 -1    =  ktdurham        
 0.4  =  dparameter 
#*********************************************************************
# maximal pdg code for quark to be considered as a light jet         *
# (otherwise b cuts are applied)                                     *
#*********************************************************************
 4 = maxjetflavor    ! Maximum jet pdg code
#*********************************************************************
# Jet measure cuts                                                   *
#*********************************************************************
 0   = xqcut   ! minimum kt jet measure between partons
#*********************************************************************
#
#*********************************************************************
# Store info for systematics studies                                 *
# WARNING: If use_syst is T, matched Pythia output is                *
#          meaningful ONLY if plotted taking matchscale              *
#          reweighting into account!                                 *
#*********************************************************************
   F  = use_syst      ! Enable systematics studies
#
#**************************************
# Parameter of the systematics study
#  will be used by SysCalc (if installed)
#**************************************                                  
#
0.5 1 2 = sys_scalefact  # factorization/renormalization scale factor
0.5 1 2 = sys_alpsfact  # \alpha_s emission scale factors
30 50 = sys_matchscale # variation of merging scale
# PDF sets and number of members (0 or none for all members).
CT10nlo.LHgrid = sys_pdf # matching scales
# MSTW2008nlo68cl.LHgrid 1  = sys_pdf
</MGRunCard>
<slha>
######################################################################
## PARAM_CARD AUTOMATICALY GENERATED BY MG5 FOLLOWING UFO MODEL   ####
######################################################################
##                                                                  ##
##  Width set on Auto will be computed following the information    ##
##        present in the decay.py files of the model.               ##
##        See  arXiv:1402.1178 for more details.                    ##
##                                                                  ##
######################################################################

###################################
## INFORMATION FOR CKMBLOCK
###################################
Block ckmblock 
    1 2.277360e-01 # cabi 

###################################
## INFORMATION FOR FRBLOCK
###################################
Block frblock 
    1 1.600000e+00 # gz 

###################################
## INFORMATION FOR MASS
###################################
Block mass 
    1 5.040000e-03 # MD 
    2 2.550000e-03 # MU 
    3 1.010000e-01 # MS 
    4 1.270000e+00 # MC 
    5 4.700000e+00 # MB 
    6 1.720000e+02 # MT 
   11 5.110000e-04 # Me 
   13 1.056600e-01 # MM 
   15 1.777000e+00 # MTA 
   23 9.118760e+01 # MZ 
   25 1.200000e+02 # MH 
  10030 2.200000e+03 # MZph 
  10031 3.000000e+02 # MZpl 
## Dependent parameters, given by model restrictions.
## Those values should be edited following the 
## analytical expression. MG5 ignores those values 
## but they are important for interfacing the output of MG5
## to external program such as Pythia.
  12 0.000000 # ve : 0.0 
  14 0.000000 # vm : 0.0 
  16 0.000000 # vt : 0.0 
  21 0.000000 # g : 0.0 
  22 0.000000 # a : 0.0 
  24 79.824360 # w+ : cmath.sqrt(MZ__exp__2/2. + cmath.sqrt(MZ__exp__4/4. - (aEW*cmath.pi*MZ__exp__2)/(Gf*sqrt__2))) 

###################################
## INFORMATION FOR SMINPUTS
###################################
Block sminputs 
    1 1.279000e+02 # aEWM1 
    2 1.166370e-05 # Gf 
    3 1.184000e-01 # aS 

###################################
## INFORMATION FOR YUKAWA
###################################
Block yukawa 
    1 5.040000e-03 # ymdo 
    2 2.550000e-03 # ymup 
    3 1.010000e-01 # yms 
    4 1.270000e+00 # ymc 
    5 4.700000e+00 # ymb 
    6 1.720000e+02 # ymt 
   11 5.110000e-04 # yme 
   13 1.056600e-01 # ymm 
   15 1.777000e+00 # ymtau 

###################################
## INFORMATION FOR DECAY
###################################
DECAY   6 1.508336e+00 # WT 
DECAY  23 2.495200e+00 # WZ 
DECAY  24 2.085000e+00 # WW 
DECAY  25 5.753088e-03 # WH 
## Dependent parameters, given by model restrictions.
## Those values should be edited following the 
## analytical expression. MG5 ignores those values 
## but they are important for interfacing the output of MG5
## to external program such as Pythia.
DECAY  1 0.000000 # d : 0.0 
DECAY  2 0.000000 # u : 0.0 
DECAY  3 0.000000 # s : 0.0 
DECAY  4 0.000000 # c : 0.0 
DECAY  5 0.000000 # b : 0.0 
DECAY  11 0.000000 # e- : 0.0 
DECAY  12 0.000000 # ve : 0.0 
DECAY  13 0.000000 # mu- : 0.0 
DECAY  14 0.000000 # vm : 0.0 
DECAY  15 0.000000 # ta- : 0.0 
DECAY  16 0.000000 # vt : 0.0 
DECAY  21 0.000000 # g : 0.0 
DECAY  22 0.000000 # a : 0.0 
DECAY  10030 0.308725 # zph : (gz__exp__2*MZph*(5 + cmath.sqrt(1 - (4*MT__exp__2)/MZph__exp__2)))/(144.*cmath.pi) 
DECAY  10031 0.132629 # zpl : (5*gz__exp__2*MZpl)/(144.*cmath.pi) 
#===========================================================
# QUANTUM NUMBERS OF NEW STATE(S) (NON SM PDG CODE)
#===========================================================

Block QNUMBERS 10030  # zph 
        1 0  # 3 times electric charge
        2 3  # number of spin states (2S+1)
        3 1  # colour rep (1: singlet, 3: triplet, 8: octet)
        4 0  # Particle/Antiparticle distinction (0=own anti)
Block QNUMBERS 10031  # zpl 
        1 0  # 3 times electric charge
        2 3  # number of spin states (2S+1)
        3 1  # colour rep (1: singlet, 3: triplet, 8: octet)
        4 0  # Particle/Antiparticle distinction (0=own anti)
</slha>
## END BANNER##
<MGGenerationInfo>
#  Number of Events        :         3897
#  Integrated weight (pb)  :  0.50005E-01
#  Max wgt                 :  0.18055E-04
#  Average wgt             :  0.12832E-04
</MGGenerationInfo>
</header>
<init>
     2212     2212  0.40000000000E+04  0.40000000000E+04 0 0  247000  247000 2   1
  0.50030654179E-01  0.14879629816E-03  0.18055010000E-04   0
</init>
<event>
 5   0  0.1754356E-04  0.1383565E+04  0.7818609E-02  0.8965802E-01
       -2   -1    0    0    0  501  0.00000000000E+00  0.00000000000E+00  0.62074254554E+03  0.62074254555E+03  0.25500000920E-02 0. -1.
        2   -1    0    0  501    0  0.00000000000E+00  0.00000000000E+00 -0.77095256051E+03  0.77095256052E+03  0.25500000920E-02 0.  1.
    10030    2    1    2    0    0  0.00000000000E+00  0.00000000000E+00 -0.15021001497E+03  0.13916951061E+04  0.13835650399E+04 0.  0.
        1    1    3    3  502    0  0.57937701118E+03  0.35650041960E+03 -0.20151280861E+03  0.70949114323E+03  0.50400001928E-02 0.  1.
       -1    1    3    3    0  502 -0.57937701118E+03 -0.35650041960E+03  0.51302793637E+02  0.68220396284E+03  0.50400001928E-02 0. -1.
</event>
<event>
 5   0  0.1754356E-04  0.2225337E+04  0.7818609E-02  0.8507956E-01
        2   -1    0    0  501    0  0.00000000000E+00  0.00000000000E+00  0.11342802085E+04  0.11342802085E+04  0.25500000920E-02 0. -1.
       -2   -1    0    0    0  501  0.00000000000E+00  0.00000000000E+00 -0.10914681099E+04  0.10914681099E+04  0.25500000920E-02 0.  1.
    10030    2    1    2    0    0  0.00000000000E+00  0.00000000000E+00  0.42812098595E+02  0.22257483184E+04  0.22253365366E+04 0.  0.
        1    1    3    3  502    0 -0.56266108868E+03 -0.51508385271E+02 -0.93730669320E+03  0.10944333930E+04  0.50400001928E-02 0.  1.
       -1    1    3    3    0  502  0.56266108868E+03  0.51508385271E+02  0.98011879180E+03  0.11313149254E+04  0.50400001928E-02 0. -1.
</event>
<event>
 5   0  0.1733962E-04  0.2127165E+04  0.7818609E-02  0.8549370E-01
       -2   -1    0    0    0  501  0.00000000000E+00  0.00000000000E+00  0.72900275241E+03  0.72900275242E+03  0.25500000920E-02 0. -1.
        2   -1    0    0  501    0  0.00000000000E+00  0.00000000000E+00 -0.15517200223E+04  0.15517200223E+04  0.25500000920E-02 0.  1.
    10030    2    1    2    0    0  0.00000000000E+00  0.00000000000E+00 -0.82271726986E+03  0.22807227747E+04  0.21271654070E+04 0.  0.
        3    1    3    3  502    0  0.34292212420E+03  0.53287796568E+03  0.50450247188E+03  0.80998596525E+03  0.10100000352E+00 0. -1.
       -3    1    3    3    0  502 -0.34292212420E+03 -0.53287796568E+03 -0.13272197417E+04  0.14707368094E+04  0.10100000352E+00 0.  1.
</event>
<event>
 5   0  0.1754356E-04  0.1423148E+04  0.7818609E-02  0.8937231E-01
        2   -1    0    0  501    0  0.00000000000E+00  0.00000000000E+00  0.61913580815E+03  0.61913580815E+03  0.25500000920E-02 0.  1.
       -2   -1    0    0    0  501  0.00000000000E+00  0.00000000000E+00 -0.81781305512E+03  0.81781305512E+03  0.25500000920E-02 0. -1.
    10030    2    1    2    0    0  0.00000000000E+00  0.00000000000E+00 -0.19867724697E+03  0.14369488633E+04  0.14231477039E+04 0.  0.
        1    1    3    3  502    0 -0.72581976109E+02 -0.47647942899E+03 -0.62790019875E+03  0.79155508281E+03  0.50400001928E-02 0. -1.
       -1    1    3    3    0  502  0.72581976109E+02  0.47647942899E+03  0.42922295178E+03  0.64539378047E+03  0.50400001928E-02 0.  1.
</event>
<event>
 5   0  0.1733962E-04  0.2200695E+04  0.7818609E-02  0.8518139E-01
       -2   -1    0    0    0  501  0.00000000000E+00  0.00000000000E+00  0.56072730892E+03  0.56072730893E+03  0.25500000920E-02 0.  1.
        2   -1    0    0  501    0  0.00000000000E+00  0.00000000000E+00 -0.21592761065E+04  0.21592761065E+04  0.25500000920E-02 0. -1.
    10030    2    1    2    0    0  0.00000000000E+00  0.00000000000E+00 -0.15985487975E+04  0.27200034154E+04  0.22006954177E+04 0.  0.
        3    1    3    3  502    0  0.89819369085E+01  0.91006092000E+03 -0.34892850622E+02  0.91077388771E+03  0.10100000352E+00 0.  1.
       -3    1    3    3    0  502 -0.89819369085E+01 -0.91006092000E+03 -0.15636559469E+04  0.18092295277E+04  0.10100000352E+00 0. -1.
</event>
<event>
 5   0  0.8306787E-05  0.2350145E+04  0.7818609E-02  0.8458408E-01
        1   -1    0    0  501    0  0.00000000000E+00  0.00000000000E+00  0.19648357845E+04  0.19648357846E+04  0.50400001928E-02 0.  1.
       -1   -1    0    0    0  501  0.00000000000E+00  0.00000000000E+00 -0.70275333648E+03  0.70275333650E+03  0.50400001928E-02 0. -1.
    10030    2    1    2    0    0  0.00000000000E+00  0.00000000000E+00  0.12620824481E+04  0.26675891211E+04  0.23501445941E+04 0.  0.
        1    1    3    3  502    0  0.35862923050E+03 -0.56504224032E+03 -0.46529455400E+03  0.81509918435E+03  0.50400001928E-02 0. -1.
       -1    1    3    3    0  502 -0.35862923050E+03  0.56504224032E+03  0.17273770021E+04  0.18524899367E+04  0.50400001928E-02 0.  1.
</event>
<event>
 5   0  0.8602414E-05  0.2193783E+04  0.7818609E-02  0.8521020E-01
       -1   -1    0    0    0  501  0.00000000000E+00  0.00000000000E+00  0.11955919958E+04  0.11955919959E+04  0.50400001928E-02 0.  1.
        1   -1    0    0  501    0  0.00000000000E+00  0.00000000000E+00 -0.10063390553E+04  0.10063390553E+04  0.50400001928E-02 0. -1.
    10030    2    1    2    0    0  0.00000000000E+00  0.00000000000E+00  0.18925294059E+03  0.22019310511E+04  0.21937829606E+04 0.  0.
        3    1    3    3  502    0  0.70322681919E+03  0.56350346996E+03 -0.53308163207E+03  0.10470148789E+04  0.10100000352E+00 0. -1.
       -3    1    3    3    0  502 -0.70322681919E+03 -0.56350346996E+03  0.72233457267E+03  0.11549161723E+04  0.10100000352E+00 0.  1.
</event>
<event>
 5   0  0.1754356E-04  0.2356534E+04  0.7818609E-02  0.8455958E-01
       -2   -1    0    0    0  501  0.00000000000E+00  0.00000000000E+00  0.16409656099E+04  0.16409656099E+04  0.25500000920E-02 0. -1.
        2   -1    0    0  501    0  0.00000000000E+00  0.00000000000E+00 -0.84603457274E+03  0.84603457275E+03  0.25500000920E-02 0.  1.
    10030    2    1    2    0    0  0.00000000000E+00  0.00000000000E+00  0.79493103717E+03  0.24870001827E+04  0.23565344374E+04 0.  0.
        1    1    3    3  502    0 -0.39366510360E+03  0.83709200522E+03  0.11676772143E+04  0.14896863145E+04  0.50400001928E-02 0. -1.
       -1    1    3    3    0  502  0.39366510360E+03 -0.83709200522E+03 -0.37274617709E+03  0.99731386812E+03  0.50400001928E-02 0.  1.
</event>
<event>
 5   0  0.8470971E-05  0.2201552E+04  0.7818609E-02  0.8517782E-01
       -1   -1    0    0    0  501  0.00000000000E+00  0.00000000000E+00  0.82366467030E+03  0.82366467032E+03  0.50400001928E-02 0.  1.
        1   -1    0    0  501    0  0.00000000000E+00  0.00000000000E+00 -0.14711178954E+04  0.14711178954E+04  0.50400001928E-02 0. -1.
    10030    2    1    2    0    0  0.00000000000E+00  0.00000000000E+00 -0.64745322507E+03  0.22947825657E+04  0.22015520310E+04 0.  0.
        2    1    3    3  502    0 -0.33971925829E+03 -0.47811628413E+03  0.64722649845E+03  0.87344518769E+03  0.25500000920E-02 0.  1.
       -2    1    3    3    0  502  0.33971925829E+03  0.47811628413E+03 -0.12946797235E+04  0.14213373780E+04  0.25500000920E-02 0. -1.
</event>
<event>
 5   0  0.1754356E-04  0.2231651E+04  0.7818609E-02  0.8505368E-01
        2   -1    0    0  501    0  0.00000000000E+00  0.00000000000E+00  0.16005536660E+04  0.16005536660E+04  0.25500000920E-02 0.  1.
       -2   -1    0    0    0  501  0.00000000000E+00  0.00000000000E+00 -0.77789760534E+03  0.77789760535E+03  0.25500000920E-02 0. -1.
    10030    2    1    2    0    0  0.00000000000E+00  0.00000000000E+00  0.82265606067E+03  0.23784512714E+04  0.22316512846E+04 0.  0.
        1    1    3    3  502    0  0.90460472632E+03 -0.10251947746E+03  0.10989400129E+04  0.14270560977E+04  0.50400001928E-02 0.  1.
       -1    1    3    3    0  502 -0.90460472632E+03  0.10251947746E+03 -0.27628395220E+03  0.95139517363E+03  0.50400001928E-02 0. -1.
</event>
<event>
 5   0  0.6250625E-05  0.2186546E+04  0.7818609E-02  0.8524049E-01
        4   -1    0    0  501    0  0.00000000000E+00  0.00000000000E+00  0.70955057746E+03  0.70955171403E+03  0.12699999809E+01 0. -1.
       -4   -1    0    0    0  501  0.00000000000E+00  0.00000000000E+00 -0.16845081621E+04  0.16845086408E+04  0.12699999809E+01 0.  1.
    10030    2    1    2    0    0  0.00000000000E+00  0.00000000000E+00 -0.97495758462E+03  0.23940603549E+04  0.21865458355E+04 0.  0.
        2    1    3    3  502    0 -0.16298127409E+03 -0.67904544492E+03 -0.14084887004E+04  0.15721024239E+04  0.25500000920E-02 0.  1.
       -2    1    3    3    0  502  0.16298127409E+03  0.67904544492E+03  0.43353111577E+03  0.82195793099E+03  0.25500000920E-02 0. -1.
</event>
<event>
 5   0  0.1680258E-04  0.2011021E+04  0.7818609E-02  0.8601485E-01
       -2   -1    0    0    0  501  0.00000000000E+00  0.00000000000E+00  0.83150273898E+03  0.83150273899E+03  0.25500000920E-02 0.  1.
        2   -1    0    0  501    0  0.00000000000E+00  0.00000000000E+00 -0.12159329673E+04  0.12159329673E+04  0.25500000920E-02 0. -1.
    10030    2    1    2    0    0  0.00000000000E+00  0.00000000000E+00 -0.38443022829E+03  0.20474357063E+04  0.20110212259E+04 0.  0.
        5    1    3    3  502    0 -0.69524668512E+03 -0.46507403351E+03 -0.76032244412E+03  0.11303867121E+04  0.46999998093E+01 0. -1.
       -5    1    3    3    0  502  0.69524668512E+03  0.46507403351E+03  0.37589221582E+03  0.91704899418E+03  0.46999998093E+01 0.  1.
</event>
<event>
 5   0  0.7954459E-05  0.1998548E+04  0.7818609E-02  0.8607300E-01
       -1   -1    0    0    0  501  0.00000000000E+00  0.00000000000E+00  0.78355809662E+03  0.78355809664E+03  0.50400001928E-02 0.  1.
        1   -1    0    0  501    0  0.00000000000E+00  0.00000000000E+00 -0.12743776406E+04  0.12743776406E+04  0.50400001928E-02 0. -1.
    10030    2    1    2    0    0  0.00000000000E+00  0.00000000000E+00 -0.49081954398E+03  0.20579357372E+04  0.19985483917E+04 0.  0.
        5    1    3    3  502    0 -0.73528698462E+03  0.84856574395E+02  0.44586533391E+03  0.86409812750E+03  0.46999998093E+01 0.  1.
       -5    1    3    3    0  502  0.73528698462E+03 -0.84856574395E+02 -0.93668487789E+03  0.11938376097E+04  0.46999998093E+01 0. -1.
</event>
<event>
 5   0  0.8306787E-05  0.2173429E+04  0.7818609E-02  0.8529569E-01
       -1   -1    0    0    0  501  0.00000000000E+00  0.00000000000E+00  0.89867238486E+03  0.89867238487E+03  0.50400001928E-02 0. -1.
        1   -1    0    0  501    0  0.00000000000E+00  0.00000000000E+00 -0.13141037979E+04  0.13141037979E+04  0.50400001928E-02 0.  1.
    10030    2    1    2    0    0  0.00000000000E+00  0.00000000000E+00 -0.41543141307E+03  0.22127761828E+04  0.21734293585E+04 0.  0.
        1    1    3    3  502    0  0.79873139233E+03 -0.35049182473E+03 -0.86762624834E+03  0.12302811317E+04  0.50400001928E-02 0.  1.
       -1    1    3    3    0  502 -0.79873139233E+03  0.35049182473E+03  0.45219483527E+03  0.98249505106E+03  0.50400001928E-02 0. -1.
</event>
<event>
 5   0  0.8602414E-05  0.2180163E+04  0.7818609E-02  0.8526730E-01
        1   -1    0    0  501    0  0.00000000000E+00  0.00000000000E+00  0.99059780025E+03  0.99059780027E+03  0.50400001928E-02 0. -1.
       -1   -1    0    0    0  501  0.00000000000E+00  0.00000000000E+00 -0.11995566176E+04  0.11995566176E+04  0.50400001928E-02 0.  1.
    10030    2    1    2    0    0  0.00000000000E+00  0.00000000000E+00 -0.20895881738E+03  0.21901544179E+04  0.21801634312E+04 0.  0.
        3    1    3    3  502    0  0.34443435594E+03  0.46426280447E+03  0.82393281419E+03  0.10064990162E+04  0.10100000352E+00 0. -1.
       -3    1    3    3    0  502 -0.34443435594E+03 -0.46426280447E+03 -0.10328916316E+04  0.11836554017E+04  0.10100000352E+00 0.  1.
</event>
<event>
 5   0  0.8602414E-05  0.2229835E+04  0.7818609E-02  0.8506112E-01
        1   -1    0    0  501    0  0.00000000000E+00  0.00000000000E+00  0.14656373676E+04  0.14656373676E+04  0.50400001928E-02 0.  1.
       -1   -1    0    0    0  501  0.00000000000E+00  0.00000000000E+00 -0.84812319694E+03  0.84812319696E+03  0.50400001928E-02 0. -1.
    10030    2    1    2    0    0  0.00000000000E+00  0.00000000000E+00  0.61751417064E+03  0.23137605646E+04  0.22298350161E+04 0.  0.
        3    1    3    3  502    0 -0.60542726811E+03 -0.89231169761E+03  0.14758093685E+02  0.10784155758E+04  0.10100000352E+00 0. -1.
       -3    1    3    3    0  502  0.60542726811E+03  0.89231169761E+03  0.60275607696E+03  0.12353449887E+04  0.10100000352E+00 0.  1.
</event>
<event>
 5   0  0.1754356E-04  0.2288347E+04  0.7818609E-02  0.8482530E-01
       -2   -1    0    0    0  501  0.00000000000E+00  0.00000000000E+00  0.13779150598E+04  0.13779150598E+04  0.25500000920E-02 0. -1.
        2   -1    0    0  501    0  0.00000000000E+00  0.00000000000E+00 -0.95008238008E+03  0.95008238008E+03  0.25500000920E-02 0.  1.
    10030    2    1    2    0    0  0.00000000000E+00  0.00000000000E+00  0.42783267974E+03  0.23279974399E+04  0.22883468440E+04 0.  0.
        1    1    3    3  502    0  0.89396657395E+03  0.11668877835E+03  0.93063782356E+03  0.12957157346E+04  0.50400001928E-02 0. -1.
       -1    1    3    3    0  502 -0.89396657395E+03 -0.11668877835E+03 -0.50280514382E+03  0.10322817053E+04  0.50400001928E-02 0.  1.
</event>
<event>
 5   0  0.8784659E-05  0.1209266E+04  0.7818609E-02  0.9104785E-01
       -1   -1    0    0    0  501  0.00000000000E+00  0.00000000000E+00  0.72525163777E+03  0.72525163779E+03  0.50400001928E-02 0. -1.
        1   -1    0    0  501    0  0.00000000000E+00  0.00000000000E+00 -0.50407445742E+03  0.50407445745E+03  0.50400001928E-02 0.  1.
    10030    2    1    2    0    0  0.00000000000E+00  0.00000000000E+00  0.22117718035E+03  0.12293260952E+04  0.12092656050E+04 0.  0.
        4    1    3    3  502    0  0.44777709469E+03  0.23122689598E+03  0.45020997312E+03  0.67576685088E+03  0.12699999809E+01 0. -1.
       -4    1    3    3    0  502 -0.44777709469E+03 -0.23122689598E+03 -0.22903279277E+03  0.55355924436E+03  0.12699999809E+01 0.  1.
</event>
<event>
 5   0  0.8306787E-05  0.2220832E+04  0.7818609E-02  0.8509807E-01
        1   -1    0    0  501    0  0.00000000000E+00  0.00000000000E+00  0.14302352816E+04  0.14302352816E+04  0.50400001928E-02 0.  1.
       -1   -1    0    0    0  501  0.00000000000E+00  0.00000000000E+00 -0.86211285399E+03  0.86211285401E+03  0.50400001928E-02 0. -1.
    10030    2    1    2    0    0  0.00000000000E+00  0.00000000000E+00  0.56812242758E+03  0.22923481356E+04  0.22208324750E+04 0.  0.
        1    1    3    3  502    0 -0.96652101082E+03 -0.16697205249E+03 -0.25326094116E+03  0.10130072236E+04  0.50400001928E-02 0. -1.
       -1    1    3    3    0  502  0.96652101082E+03  0.16697205249E+03  0.82138336874E+03  0.12793409120E+04  0.50400001928E-02 0.  1.
</event>
<event>
 5   0  0.1805501E-04  0.2229538E+04  0.7818609E-02  0.8506234E-01
        2   -1    0    0  501    0  0.00000000000E+00  0.00000000000E+00  0.14639909900E+04  0.14639909900E+04  0.25500000920E-02 0. -1.
       -2   -1    0    0    0  501  0.00000000000E+00  0.00000000000E+00 -0.84885055948E+03  0.84885055949E+03  0.25500000920E-02 0.  1.
    10030    2    1    2    0    0  0.00000000000E+00  0.00000000000E+00  0.61514043056E+03  0.23128415495E+04  0.22295376839E+04 0.  0.
        2    1    3    3  502    0  0.98787624526E+03 -0.63389948431E+02 -0.22421587822E+03  0.10149830154E+04  0.25500000920E-02 0.  1.
       -2    1    3    3    0  502 -0.98787624526E+03  0.63389948431E+02  0.83935630878E+03  0.12978585341E+04  0.25500000920E-02 0. -1.
</event>
<event>
 5   0  0.8602414E-05  0.2045108E+04  0.7818609E-02  0.8585817E-01
       -1   -1    0    0    0  501  0.00000000000E+00  0.00000000000E+00  0.10070634179E+04  0.10070634179E+04  0.50400001928E-02 0. -1.
        1   -1    0    0  501    0  0.00000000000E+00  0.00000000000E+00 -0.10382824812E+04  0.10382824812E+04  0.50400001928E-02 0.  1.
    10030    2    1    2    0    0  0.00000000000E+00  0.00000000000E+00 -0.31219063355E+02  0.20453458991E+04  0.20451076297E+04 0.  0.
        3    1    3    3  502    0  0.17789762640E+03 -0.64608757833E+03  0.75684019480E+03  0.10108826910E+04  0.10100000352E+00 0. -1.
       -3    1    3    3    0  502 -0.17789762640E+03  0.64608757833E+03 -0.78805925816E+03  0.10344632081E+04  0.10100000352E+00 0.  1.
</event>
<event>
 5   0  0.1733962E-04  0.2188847E+04  0.7818609E-02  0.8523084E-01
       -2   -1    0    0    0  501  0.00000000000E+00  0.00000000000E+00  0.84031907636E+03  0.84031907636E+03  0.25500000920E-02 0.  1.
        2   -1    0    0  501    0  0.00000000000E+00  0.00000000000E+00 -0.14253670048E+04  0.14253670048E+04  0.25500000920E-02 0. -1.
    10030    2    1    2    0    0  0.00000000000E+00  0.00000000000E+00 -0.58504792847E+03  0.22656860812E+04  0.21888472628E+04 0.  0.
        3    1    3    3  502    0  0.14512342195E+03 -0.51362009274E+03  0.69647329907E+03  0.87746308970E+03  0.10100000352E+00 0.  1.
       -3    1    3    3    0  502 -0.14512342195E+03  0.51362009274E+03 -0.12815212275E+04  0.13882229915E+04  0.10100000352E+00 0. -1.
</event>
<event>
 5   0  0.8306787E-05  0.2149688E+04  0.7818609E-02  0.8539666E-01
        1   -1    0    0  501    0  0.00000000000E+00  0.00000000000E+00  0.26642353136E+04  0.26642353136E+04  0.50400001928E-02 0.  1.
       -1   -1    0    0    0  501  0.00000000000E+00  0.00000000000E+00 -0.43362892767E+03  0.43362892770E+03  0.50400001928E-02 0. -1.
    10030    2    1    2    0    0  0.00000000000E+00  0.00000000000E+00  0.22306063859E+04  0.30978642413E+04  0.21496878863E+04 0.  0.
        1    1    3    3  502    0  0.30986367745E+02 -0.21520723837E+03 -0.40160686130E+03  0.45668630536E+03  0.50400001928E-02 0. -1.
       -1    1    3    3    0  502 -0.30986367745E+02  0.21520723837E+03  0.26322132472E+04  0.26411779359E+04  0.50400001928E-02 0.  1.
</event>
<event>
 5   0  0.1805501E-04  0.2202783E+04  0.7818609E-02  0.8517271E-01
       -2   -1    0    0    0  501  0.00000000000E+00  0.00000000000E+00  0.93251976746E+03  0.93251976746E+03  0.25500000920E-02 0. -1.
        2   -1    0    0  501    0  0.00000000000E+00  0.00000000000E+00 -0.13008446563E+04  0.13008446563E+04  0.25500000920E-02 0.  1.
    10030    2    1    2    0    0  0.00000000000E+00  0.00000000000E+00 -0.36832488885E+03  0.22333644238E+04  0.22027831091E+04 0.  0.
        2    1    3    3  502    0  0.48849113900E+03  0.80036205575E+03 -0.76999064501E+03  0.12132965864E+04  0.25500000920E-02 0.  1.
       -2    1    3    3    0  502 -0.48849113900E+03 -0.80036205575E+03  0.40166575616E+03  0.10200678374E+04  0.25500000920E-02 0. -1.
</event>
<event>
 5   0  0.8470971E-05  0.2191841E+04  0.7818609E-02  0.8521832E-01
       -1   -1    0    0    0  501  0.00000000000E+00  0.00000000000E+00  0.93182688255E+03  0.93182688257E+03  0.50400001928E-02 0. -1.
        1   -1    0    0  501    0  0.00000000000E+00  0.00000000000E+00 -0.12889103809E+04  0.12889103809E+04  0.50400001928E-02 0.  1.
    10030    2    1    2    0    0  0.00000000000E+00  0.00000000000E+00 -0.35708349834E+03  0.22207372635E+04  0.21918406349E+04 0.  0.
        2    1    3    3  502    0  0.68076228130E+03 -0.44121153309E+03  0.56801478680E+03  0.99032605671E+03  0.25500000920E-02 0. -1.
       -2    1    3    3    0  502 -0.68076228130E+03  0.44121153309E+03 -0.92509828514E+03  0.12304112068E+04  0.25500000920E-02 0.  1.
</event>
<event>
 5   0  0.1733962E-04  0.2179170E+04  0.7818609E-02  0.8527148E-01
        2   -1    0    0  501    0  0.00000000000E+00  0.00000000000E+00  0.13450073284E+04  0.13450073284E+04  0.25500000920E-02 0.  1.
       -2   -1    0    0    0  501  0.00000000000E+00  0.00000000000E+00 -0.88266813268E+03  0.88266813269E+03  0.25500000920E-02 0. -1.
    10030    2    1    2    0    0  0.00000000000E+00  0.00000000000E+00  0.46233919572E+03  0.22276754611E+04  0.21791696648E+04 0.  0.
        3    1    3    3  502    0 -0.14857126398E+03  0.44300510031E+03 -0.77505103313E+03  0.90500334449E+03  0.10100000352E+00 0. -1.
       -3    1    3    3    0  502  0.14857126398E+03 -0.44300510031E+03  0.12373902288E+04  0.13226721166E+04  0.10100000352E+00 0.  1.
</event>
<event>
 5   0  0.1680258E-04  0.2215815E+04  0.7818609E-02  0.8511874E-01
        2   -1    0    0  501    0  0.00000000000E+00  0.00000000000E+00  0.11707994361E+04  0.11707994361E+04  0.25500000920E-02 0.  1.
       -2   -1    0    0    0  501  0.00000000000E+00  0.00000000000E+00 -0.10483938693E+04  0.10483938693E+04  0.25500000920E-02 0. -1.
    10030    2    1    2    0    0  0.00000000000E+00  0.00000000000E+00  0.12240556680E+03  0.22191933054E+04  0.22158149300E+04 0.  0.
        5    1    3    3  502    0  0.80800583292E+03 -0.73890546486E+03  0.23052310644E+03  0.11189359699E+04  0.46999998093E+01 0. -1.
       -5    1    3    3    0  502 -0.80800583292E+03  0.73890546486E+03 -0.10811753965E+03  0.11002573355E+04  0.46999998093E+01 0.  1.
</event>
<event>
 5   0  0.8470971E-05  0.2097617E+04  0.7818609E-02  0.8562294E-01
        1   -1    0    0  501    0  0.00000000000E+00  0.00000000000E+00  0.11273360921E+04  0.11273360921E+04  0.50400001928E-02 0.  1.
       -1   -1    0    0    0  501  0.00000000000E+00  0.00000000000E+00 -0.97575120216E+03  0.97575120218E+03  0.50400001928E-02 0. -1.
    10030    2    1    2    0    0  0.00000000000E+00  0.00000000000E+00  0.15158488991E+03  0.21030872943E+04  0.20976172645E+04 0.  0.
        2    1    3    3  502    0  0.29597975508E+03 -0.69875171739E+01  0.10845706437E+04  0.11242536733E+04  0.25500000920E-02 0.  1.
       -2    1    3    3    0  502 -0.29597975508E+03  0.69875171739E+01 -0.93298575376E+03  0.97883362096E+03  0.25500000920E-02 0. -1.
</event>
<event>
 5   0  0.1733962E-04  0.2140396E+04  0.7818609E-02  0.8543654E-01
        2   -1    0    0  501    0  0.00000000000E+00  0.00000000000E+00  0.10228235583E+04  0.10228235583E+04  0.25500000920E-02 0.  1.
       -2   -1    0    0    0  501  0.00000000000E+00  0.00000000000E+00 -0.11197668781E+04  0.11197668781E+04  0.25500000920E-02 0. -1.
    10030    2    1    2    0    0  0.00000000000E+00  0.00000000000E+00 -0.96943319744E+02  0.21425904364E+04  0.21403961715E+04 0.  0.
        3    1    3    3  502    0  0.88375560402E+03  0.29162919240E+02  0.55501410163E+03  0.10439899936E+04  0.10100000352E+00 0.  1.
       -3    1    3    3    0  502 -0.88375560402E+03 -0.29162919240E+02 -0.65195742137E+03  0.10986004428E+04  0.10100000352E+00 0. -1.
</event>
<event>
 5   0  0.1754356E-04  0.2186698E+04  0.7818609E-02  0.8523985E-01
        2   -1    0    0  501    0  0.00000000000E+00  0.00000000000E+00  0.12534180047E+04  0.12534180047E+04  0.25500000920E-02 0. -1.
       -2   -1    0    0    0  501  0.00000000000E+00  0.00000000000E+00 -0.95372166869E+03  0.95372166869E+03  0.25500000920E-02 0.  1.
    10030    2    1    2    0    0  0.00000000000E+00  0.00000000000E+00  0.29969633600E+03  0.22071396734E+04  0.21866978859E+04 0.  0.
        1    1    3    3  502    0  0.83305211439E+03 -0.38432621797E+03  0.75015963314E+03  0.11850830951E+04  0.50400001928E-02 0. -1.
       -1    1    3    3    0  502 -0.83305211439E+03  0.38432621797E+03 -0.45046329714E+03  0.10220565783E+04  0.50400001928E-02 0.  1.
</event>
<event>
 5   0  0.7954459E-05  0.2282372E+04  0.7818609E-02  0.8484904E-01
       -1   -1    0    0    0  501  0.00000000000E+00  0.00000000000E+00  0.15463449113E+04  0.15463449113E+04  0.50400001928E-02 0.  1.
        1   -1    0    0  501    0  0.00000000000E+00  0.00000000000E+00 -0.84218292029E+03  0.84218292031E+03  0.50400001928E-02 0. -1.
    10030    2    1    2    0    0  0.00000000000E+00  0.00000000000E+00  0.70416199096E+03  0.23885278316E+04  0.22823718130E+04 0.  0.
        5    1    3    3  502    0  0.17945490694E+03  0.16122199762E+02  0.15313553515E+04  0.15419258385E+04  0.46999998093E+01 0.  1.
       -5    1    3    3    0  502 -0.17945490694E+03 -0.16122199762E+02 -0.82719336053E+03  0.84660199305E+03  0.46999998093E+01 0. -1.
</event>
<event>
 5   0  0.1733962E-04  0.2178429E+04  0.7818609E-02  0.8527460E-01
       -2   -1    0    0    0  501  0.00000000000E+00  0.00000000000E+00  0.10708170091E+04  0.10708170091E+04  0.25500000920E-02 0. -1.
        2   -1    0    0  501    0  0.00000000000E+00  0.00000000000E+00 -0.11079282308E+04  0.11079282308E+04  0.25500000920E-02 0.  1.
    10030    2    1    2    0    0  0.00000000000E+00  0.00000000000E+00 -0.37111221678E+02  0.21787452400E+04  0.21784291537E+04 0.  0.
        3    1    3    3  502    0  0.46713516693E+03 -0.95598362482E+03  0.21443404307E+03  0.10854040373E+04  0.10100000352E+00 0. -1.
       -3    1    3    3    0  502 -0.46713516693E+03  0.95598362482E+03 -0.25154526475E+03  0.10933412027E+04  0.10100000352E+00 0.  1.
</event>
<event>
 5   0  0.8784659E-05  0.2294299E+04  0.7818609E-02  0.8480172E-01
        1   -1    0    0  501    0  0.00000000000E+00  0.00000000000E+00  0.10107871184E+04  0.10107871184E+04  0.50400001928E-02 0.  1.
       -1   -1    0    0    0  501  0.00000000000E+00  0.00000000000E+00 -0.13019077709E+04  0.13019077709E+04  0.50400001928E-02 0. -1.
    10030    2    1    2    0    0  0.00000000000E+00  0.00000000000E+00 -0.29112065254E+03  0.23126948894E+04  0.22942986765E+04 0.  0.
        4    1    3    3  502    0  0.81530839826E+03 -0.37739444584E+03  0.57345819297E+03  0.10658378226E+04  0.12699999809E+01 0.  1.
       -4    1    3    3    0  502 -0.81530839826E+03  0.37739444584E+03 -0.86457884551E+03  0.12468570668E+04  0.12699999809E+01 0. -1.
</event>
<event>
 5   0  0.8306787E-05  0.2092207E+04  0.7818609E-02  0.8564684E-01
        1   -1    0    0  501    0  0.00000000000E+00  0.00000000000E+00  0.66073256403E+03  0.66073256405E+03  0.50400001928E-02 0.  1.
       -1   -1    0    0    0  501  0.00000000000E+00  0.00000000000E+00 -0.16562420056E+04  0.16562420056E+04  0.50400001928E-02 0. -1.
    10030    2    1    2    0    0  0.00000000000E+00  0.00000000000E+00 -0.99550944153E+03  0.23169745696E+04  0.20922074725E+04 0.  0.
        1    1    3    3  502    0  0.50501989216E+03  0.75886667065E+03 -0.10661259422E+04  0.14026932095E+04  0.50400001928E-02 0. -1.
       -1    1    3    3    0  502 -0.50501989216E+03 -0.75886667065E+03  0.70616500652E+02  0.91428136014E+03  0.50400001928E-02 0.  1.
</event>
<event>
 5   0  0.7954459E-05  0.2218080E+04  0.7818609E-02  0.8510940E-01
        1   -1    0    0  501    0  0.00000000000E+00  0.00000000000E+00  0.15408961792E+04  0.15408961792E+04  0.50400001928E-02 0. -1.
       -1   -1    0    0    0  501  0.00000000000E+00  0.00000000000E+00 -0.79821684425E+03  0.79821684426E+03  0.50400001928E-02 0.  1.
    10030    2    1    2    0    0  0.00000000000E+00  0.00000000000E+00  0.74267933499E+03  0.23391130235E+04  0.22180796068E+04 0.  0.
        5    1    3    3  502    0  0.23770428586E+03  0.26038756420E+03 -0.73753223276E+03  0.81748449249E+03  0.46999998093E+01 0.  1.
       -5    1    3    3    0  502 -0.23770428586E+03 -0.26038756420E+03  0.14802115678E+04  0.15216285310E+04  0.46999998093E+01 0. -1.
</event>
<event>
 5   0  0.1798917E-04  0.2314099E+04  0.7818609E-02  0.8472383E-01
       -2   -1    0    0    0  501  0.00000000000E+00  0.00000000000E+00  0.12605559307E+04  0.12605559307E+04  0.25500000920E-02 0. -1.
        2   -1    0    0  501    0  0.00000000000E+00  0.00000000000E+00 -0.10620423766E+04  0.10620423766E+04  0.25500000920E-02 0.  1.
    10030    2    1    2    0    0  0.00000000000E+00  0.00000000000E+00  0.19851355412E+03  0.23225983074E+04  0.23140992343E+04 0.  0.
        4    1    3    3  502    0  0.66815045799E+03  0.15589319470E+03 -0.83584873089E+03  0.10813752524E+04  0.12699999809E+01 0.  1.
       -4    1    3    3    0  502 -0.66815045799E+03 -0.15589319470E+03  0.10343622850E+04  0.12412230550E+04  0.12699999809E+01 0. -1.
</event>
<event>
 5   0  0.1798917E-04  0.2238417E+04  0.7818609E-02  0.8502606E-01
        2   -1    0    0  501    0  0.00000000000E+00  0.00000000000E+00  0.16911478969E+04  0.16911478969E+04  0.25500000920E-02 0. -1.
       -2   -1    0    0    0  501  0.00000000000E+00  0.00000000000E+00 -0.74069686987E+03  0.74069686987E+03  0.25500000920E-02 0.  1.
    10030    2    1    2    0    0  0.00000000000E+00  0.00000000000E+00  0.95045102708E+03  0.24318447668E+04  0.22384172567E+04 0.  0.
        4    1    3    3  502    0  0.20010795792E+03  0.10285725329E+04  0.48026725139E+02  0.10489579732E+04  0.12699999809E+01 0. -1.
       -4    1    3    3    0  502 -0.20010795792E+03 -0.10285725329E+04  0.90242430194E+03  0.13828867936E+04  0.12699999809E+01 0.  1.
</event>
<event>
 5   0  0.6250625E-05  0.1595920E+04  0.7818609E-02  0.8823058E-01
       -4   -1    0    0    0  501  0.00000000000E+00  0.00000000000E+00  0.16198674717E+04  0.16198679696E+04  0.12699999809E+01 0. -1.
        4   -1    0    0  501    0  0.00000000000E+00  0.00000000000E+00 -0.39308026797E+03  0.39308231959E+03  0.12699999809E+01 0.  1.
    10030    2    1    2    0    0  0.00000000000E+00  0.00000000000E+00  0.12267872038E+04  0.20129502892E+04  0.15959204314E+04 0.  0.
        5    1    3    3  502    0 -0.13128856302E+03 -0.77221794369E+03  0.42143741103E+03  0.88948795425E+03  0.46999998093E+01 0. -1.
       -5    1    3    3    0  502  0.13128856302E+03  0.77221794369E+03  0.80534979273E+03  0.11234623349E+04  0.46999998093E+01 0.  1.
</event>
<event>
 5   0  0.7954459E-05  0.2298916E+04  0.7818609E-02  0.8478349E-01
       -1   -1    0    0    0  501  0.00000000000E+00  0.00000000000E+00  0.95548641711E+03  0.95548641712E+03  0.50400001928E-02 0. -1.
        1   -1    0    0  501    0  0.00000000000E+00  0.00000000000E+00 -0.13828070772E+04  0.13828070772E+04  0.50400001928E-02 0.  1.
    10030    2    1    2    0    0  0.00000000000E+00  0.00000000000E+00 -0.42732066005E+03  0.23382934943E+04  0.22989157268E+04 0.  0.
        5    1    3    3  502    0  0.34464795252E+03  0.10950974133E+04 -0.27129424538E+03  0.11796792841E+04  0.46999998093E+01 0.  1.
       -5    1    3    3    0  502 -0.34464795252E+03 -0.10950974133E+04 -0.15602641467E+03  0.11586142101E+04  0.46999998093E+01 0. -1.
</event>
<event>
 5   0  0.7954459E-05  0.2052894E+04  0.7818609E-02  0.8582283E-01
        1   -1    0    0  501    0  0.00000000000E+00  0.00000000000E+00  0.12895418988E+04  0.12895418988E+04  0.50400001928E-02 0. -1.
       -1   -1    0    0    0  501  0.00000000000E+00  0.00000000000E+00 -0.81702931733E+03  0.81702931735E+03  0.50400001928E-02 0.  1.
    10030    2    1    2    0    0  0.00000000000E+00  0.00000000000E+00  0.47251258147E+03  0.21065712162E+04  0.20528940911E+04 0.  0.
        5    1    3    3  502    0 -0.12075361568E+03 -0.55007688761E+03 -0.64432223838E+03  0.85576822496E+03  0.46999998093E+01 0.  1.
       -5    1    3    3    0  502  0.12075361568E+03  0.55007688761E+03  0.11168348198E+04  0.12508029912E+04  0.46999998093E+01 0. -1.
</event>
<event>
 5   0  0.1805501E-04  0.2329343E+04  0.7818609E-02  0.8466441E-01
        2   -1    0    0  501    0  0.00000000000E+00  0.00000000000E+00  0.13234285929E+04  0.13234285929E+04  0.25500000920E-02 0. -1.
       -2   -1    0    0    0  501  0.00000000000E+00  0.00000000000E+00 -0.10249586004E+04  0.10249586004E+04  0.25500000920E-02 0.  1.
    10030    2    1    2    0    0  0.00000000000E+00  0.00000000000E+00  0.29846999255E+03  0.23483871933E+04  0.23293428415E+04 0.  0.
        2    1    3    3  502    0 -0.13523979004E+03  0.60391913801E+03 -0.84546799575E+03  0.10477710904E+04  0.25500000920E-02 0.  1.
       -2    1    3    3    0  502  0.13523979004E+03 -0.60391913801E+03  0.11439379883E+04  0.13006161029E+04  0.25500000920E-02 0. -1.
</event>
<event>
 5   0  0.1733962E-04  0.2182715E+04  0.7818609E-02  0.8525657E-01
        2   -1    0    0  501    0  0.00000000000E+00  0.00000000000E+00  0.94302515613E+03  0.94302515613E+03  0.25500000920E-02 0. -1.
       -2   -1    0    0    0  501  0.00000000000E+00  0.00000000000E+00 -0.12630212847E+04  0.12630212847E+04  0.25500000920E-02 0.  1.
    10030    2    1    2    0    0  0.00000000000E+00  0.00000000000E+00 -0.31999612856E+03  0.22060464408E+04  0.21827146806E+04 0.  0.
        3    1    3    3  502    0  0.60113867910E+03  0.30606069416E+03 -0.10270846779E+04  0.12287977075E+04  0.10100000352E+00 0.  1.
       -3    1    3    3    0  502 -0.60113867910E+03 -0.30606069416E+03  0.70708854937E+03  0.97724873337E+03  0.10100000352E+00 0. -1.
</event>
<event>
 5   0  0.1754356E-04  0.2178013E+04  0.7818609E-02  0.8527636E-01
        2   -1    0    0  501    0  0.00000000000E+00  0.00000000000E+00  0.14213496164E+04  0.14213496164E+04  0.25500000920E-02 0. -1.
       -2   -1    0    0    0  501  0.00000000000E+00  0.00000000000E+00 -0.83437228258E+03  0.83437228258E+03  0.25500000920E-02 0.  1.
    10030    2    1    2    0    0  0.00000000000E+00  0.00000000000E+00  0.58697733383E+03  0.22557218990E+04  0.21780126022E+04 0.  0.
        1    1    3    3  502    0  0.29142027320E+03  0.10404205468E+04  0.15249157896E+03  0.10911711010E+04  0.50400001928E-02 0.  1.
       -1    1    3    3    0  502 -0.29142027320E+03 -0.10404205468E+04  0.43448575487E+03  0.11645507980E+04  0.50400001928E-02 0. -1.
</event>
<event>
 5   0  0.1805501E-04  0.1710142E+04  0.7818609E-02  0.8755601E-01
       -2   -1    0    0    0  501  0.00000000000E+00  0.00000000000E+00  0.13513849682E+04  0.13513849682E+04  0.25500000920E-02 0.  1.
        2   -1    0    0  501    0  0.00000000000E+00  0.00000000000E+00 -0.54103496860E+03  0.54103496861E+03  0.25500000920E-02 0. -1.
    10030    2    1    2    0    0  0.00000000000E+00  0.00000000000E+00  0.81034999959E+03  0.18924199368E+04  0.17101421272E+04 0.  0.
        2    1    3    3  502    0 -0.66035421504E+03 -0.54286436830E+03  0.38368578358E+03  0.93700810680E+03  0.25500000920E-02 0. -1.
       -2    1    3    3    0  502  0.66035421504E+03  0.54286436830E+03  0.42666421601E+03  0.95541183000E+03  0.25500000920E-02 0.  1.
</event>
<event>
 5   0  0.1733962E-04  0.2179878E+04  0.7818609E-02  0.8526850E-01
        2   -1    0    0  501    0  0.00000000000E+00  0.00000000000E+00  0.13980243710E+04  0.13980243710E+04  0.25500000920E-02 0.  1.
       -2   -1    0    0    0  501  0.00000000000E+00  0.00000000000E+00 -0.84974718845E+03  0.84974718845E+03  0.25500000920E-02 0. -1.
    10030    2    1    2    0    0  0.00000000000E+00  0.00000000000E+00  0.54827718257E+03  0.22477715595E+04  0.21798782339E+04 0.  0.
        3    1    3    3  502    0 -0.83641240721E+03 -0.14050615426E+03  0.98003247148E+03  0.12960676486E+04  0.10100000352E+00 0. -1.
       -3    1    3    3    0  502  0.83641240721E+03  0.14050615426E+03 -0.43175528891E+03  0.95170391090E+03  0.10100000352E+00 0.  1.
</event>
<event>
 5   0  0.7954459E-05  0.2273362E+04  0.7818609E-02  0.8488499E-01
        1   -1    0    0  501    0  0.00000000000E+00  0.00000000000E+00  0.85204601434E+03  0.85204601435E+03  0.50400001928E-02 0.  1.
       -1   -1    0    0    0  501  0.00000000000E+00  0.00000000000E+00 -0.15164011730E+04  0.15164011730E+04  0.50400001928E-02 0. -1.
    10030    2    1    2    0    0  0.00000000000E+00  0.00000000000E+00 -0.66435515864E+03  0.23684471873E+04  0.22733618943E+04 0.  0.
        5    1    3    3  502    0 -0.89973977698E+03 -0.74846007748E+02 -0.10516319877E+04  0.13860322936E+04  0.46999998093E+01 0. -1.
       -5    1    3    3    0  502  0.89973977698E+03  0.74846007748E+02  0.38727682910E+03  0.98241489378E+03  0.46999998093E+01 0.  1.
</event>
<event>
 5   0  0.1680258E-04  0.2197774E+04  0.7818609E-02  0.8519355E-01
       -2   -1    0    0    0  501  0.00000000000E+00  0.00000000000E+00  0.65269540368E+03  0.65269540369E+03  0.25500000920E-02 0.  1.
        2   -1    0    0  501    0  0.00000000000E+00  0.00000000000E+00 -0.18501013781E+04  0.18501013781E+04  0.25500000920E-02 0. -1.
    10030    2    1    2    0    0  0.00000000000E+00  0.00000000000E+00 -0.11974059744E+04  0.25027967818E+04  0.21977740246E+04 0.  0.
        5    1    3    3  502    0  0.96520366373E+03 -0.49717207933E+03 -0.40567138982E+03  0.11590468306E+04  0.46999998093E+01 0.  1.
       -5    1    3    3    0  502 -0.96520366373E+03  0.49717207933E+03 -0.79173458461E+03  0.13437499512E+04  0.46999998093E+01 0. -1.
</event>
<event>
 5   0  0.7954459E-05  0.2140212E+04  0.7818609E-02  0.8543734E-01
        1   -1    0    0  501    0  0.00000000000E+00  0.00000000000E+00  0.14690602120E+04  0.14690602120E+04  0.50400001928E-02 0.  1.
       -1   -1    0    0    0  501  0.00000000000E+00  0.00000000000E+00 -0.77949625866E+03  0.77949625867E+03  0.50400001928E-02 0. -1.
    10030    2    1    2    0    0  0.00000000000E+00  0.00000000000E+00  0.68956395330E+03  0.22485564706E+04  0.21402120820E+04 0.  0.
        5    1    3    3  502    0 -0.91222238194E+03  0.40385040320E+03 -0.61932742919E+02  0.99955118775E+03  0.46999998093E+01 0. -1.
       -5    1    3    3    0  502  0.91222238194E+03 -0.40385040320E+03  0.75149669622E+03  0.12490052829E+04  0.46999998093E+01 0.  1.
</event>
<event>
 5   0  0.8602414E-05  0.2256622E+04  0.7818609E-02  0.8495224E-01
        1   -1    0    0  501    0  0.00000000000E+00  0.00000000000E+00  0.17342737740E+04  0.17342737740E+04  0.50400001928E-02 0. -1.
       -1   -1    0    0    0  501  0.00000000000E+00  0.00000000000E+00 -0.73407416455E+03  0.73407416457E+03  0.50400001928E-02 0.  1.
    10030    2    1    2    0    0  0.00000000000E+00  0.00000000000E+00  0.10001996094E+04  0.24683479385E+04  0.22566218751E+04 0.  0.
        3    1    3    3  502    0 -0.30857336093E+03 -0.10492100967E+04  0.19652420309E+03  0.11111620578E+04  0.10100000352E+00 0. -1.
       -3    1    3    3    0  502  0.30857336093E+03  0.10492100967E+04  0.80367540632E+03  0.13571858808E+04  0.10100000352E+00 0.  1.
</event>
<event>
 5   0  0.1733962E-04  0.2174101E+04  0.7818609E-02  0.8529286E-01
        2   -1    0    0  501    0  0.00000000000E+00  0.00000000000E+00  0.20435445163E+04  0.20435445163E+04  0.25500000920E-02 0. -1.
       -2   -1    0    0    0  501  0.00000000000E+00  0.00000000000E+00 -0.57824975683E+03  0.57824975683E+03  0.25500000920E-02 0.  1.
    10030    2    1    2    0    0  0.00000000000E+00  0.00000000000E+00  0.14652947594E+04  0.26217942731E+04  0.21741013036E+04 0.  0.
        3    1    3    3  502    0  0.16449563678E+03 -0.38151023135E+03 -0.47873020330E+03  0.63387024611E+03  0.10100000352E+00 0.  1.
       -3    1    3    3    0  502 -0.16449563678E+03  0.38151023135E+03  0.19440249627E+04  0.19879240270E+04  0.10100000352E+00 0. -1.
</event>
<event>
 5   0  0.8306787E-05  0.2179218E+04  0.7818609E-02  0.8527128E-01
       -1   -1    0    0    0  501  0.00000000000E+00  0.00000000000E+00  0.99345870594E+03  0.99345870596E+03  0.50400001928E-02 0. -1.
        1   -1    0    0  501    0  0.00000000000E+00  0.00000000000E+00 -0.11950651098E+04  0.11950651098E+04  0.50400001928E-02 0.  1.
    10030    2    1    2    0    0  0.00000000000E+00  0.00000000000E+00 -0.20160640382E+03  0.21885238157E+04  0.21792180593E+04 0.  0.
        1    1    3    3  502    0  0.32751318406E+03  0.52039879421E+03 -0.10041821173E+04  0.11774810043E+04  0.50400001928E-02 0.  1.
       -1    1    3    3    0  502 -0.32751318406E+03 -0.52039879421E+03  0.80257571345E+03  0.10110428115E+04  0.50400001928E-02 0. -1.
</event>
<event>
 5   0  0.8602414E-05  0.2206286E+04  0.7818609E-02  0.8515816E-01
       -1   -1    0    0    0  501  0.00000000000E+00  0.00000000000E+00  0.81897702876E+03  0.81897702878E+03  0.50400001928E-02 0. -1.
        1   -1    0    0  501    0  0.00000000000E+00  0.00000000000E+00 -0.14859086222E+04  0.14859086222E+04  0.50400001928E-02 0.  1.
    10030    2    1    2    0    0  0.00000000000E+00  0.00000000000E+00 -0.66693159343E+03  0.23048856510E+04  0.22062864986E+04 0.  0.
        3    1    3    3  502    0  0.75285997049E+03  0.51306852709E+03 -0.98326603325E+03  0.13404661693E+04  0.10100000352E+00 0.  1.
       -3    1    3    3    0  502 -0.75285997049E+03 -0.51306852709E+03  0.31633443982E+03  0.96441948169E+03  0.10100000352E+00 0. -1.
</event>
<event>
 5   0  0.8470971E-05  0.2146985E+04  0.7818609E-02  0.8540824E-01
       -1   -1    0    0    0  501  0.00000000000E+00  0.00000000000E+00  0.10737471572E+04  0.10737471572E+04  0.50400001928E-02 0.  1.
        1   -1    0    0  501    0  0.00000000000E+00  0.00000000000E+00 -0.10732376297E+04  0.10732376297E+04  0.50400001928E-02 0. -1.
    10030    2    1    2    0    0  0.00000000000E+00  0.00000000000E+00  0.50952746943E+00  0.21469847869E+04  0.21469847264E+04 0.  0.
        2    1    3    3  502    0  0.17628207521E+03 -0.89665936573E+03  0.56355972868E+03  0.10736260783E+04  0.25500000920E-02 0. -1.
       -2    1    3    3    0  502 -0.17628207521E+03  0.89665936573E+03 -0.56305020121E+03  0.10733587086E+04  0.25500000920E-02 0.  1.
</event>
<event>
 5   0  0.7954459E-05  0.2149083E+04  0.7818609E-02  0.8539925E-01
       -1   -1    0    0    0  501  0.00000000000E+00  0.00000000000E+00  0.11509500629E+04  0.11509500629E+04  0.50400001928E-02 0.  1.
        1   -1    0    0  501    0  0.00000000000E+00  0.00000000000E+00 -0.10032057662E+04  0.10032057662E+04  0.50400001928E-02 0. -1.
    10030    2    1    2    0    0  0.00000000000E+00  0.00000000000E+00  0.14774429674E+03  0.21541558291E+04  0.21490832833E+04 0.  0.
        5    1    3    3  502    0 -0.11191042544E+03  0.35177702404E+03  0.10853856546E+04  0.11464532817E+04  0.46999998093E+01 0.  1.
       -5    1    3    3    0  502  0.11191042544E+03 -0.35177702404E+03 -0.93764135786E+03  0.10077025474E+04  0.46999998093E+01 0. -1.
</event>
<event>
 5   0  0.1798917E-04  0.2204100E+04  0.7818609E-02  0.8516724E-01
        2   -1    0    0  501    0  0.00000000000E+00  0.00000000000E+00  0.81279962820E+03  0.81279962820E+03  0.25500000920E-02 0.  1.
       -2   -1    0    0    0  501  0.00000000000E+00  0.00000000000E+00 -0.14942354170E+04  0.14942354170E+04  0.25500000920E-02 0. -1.
    10030    2    1    2    0    0  0.00000000000E+00  0.00000000000E+00 -0.68143578880E+03  0.23070350452E+04  0.22040998084E+04 0.  0.
        4    1    3    3  502    0 -0.45878628887E+03  0.13911931668E+03 -0.13793674119E+04  0.14603065134E+04  0.12699999809E+01 0. -1.
       -4    1    3    3    0  502  0.45878628887E+03 -0.13911931668E+03  0.69793162311E+03  0.84672853180E+03  0.12699999809E+01 0.  1.
</event>
<event>
 5   0  0.1754356E-04  0.2296536E+04  0.7818609E-02  0.8479288E-01
       -2   -1    0    0    0  501  0.00000000000E+00  0.00000000000E+00  0.15005110341E+04  0.15005110341E+04  0.25500000920E-02 0.  1.
        2   -1    0    0  501    0  0.00000000000E+00  0.00000000000E+00 -0.87871342785E+03  0.87871342786E+03  0.25500000920E-02 0. -1.
    10030    2    1    2    0    0  0.00000000000E+00  0.00000000000E+00  0.62179760625E+03  0.23792244620E+04  0.22965358210E+04 0.  0.
        1    1    3    3  502    0 -0.71387474140E+03  0.77808630774E+03 -0.15643484789E+03  0.10674770772E+04  0.50400001928E-02 0. -1.
       -1    1    3    3    0  502  0.71387474140E+03 -0.77808630774E+03  0.77823245414E+03  0.13117473848E+04  0.50400001928E-02 0.  1.
</event>
<event>
 5   0  0.8784659E-05  0.2234863E+04  0.7818609E-02  0.8504056E-01
       -1   -1    0    0    0  501  0.00000000000E+00  0.00000000000E+00  0.11844647716E+04  0.11844647717E+04  0.50400001928E-02 0. -1.
        1   -1    0    0  501    0  0.00000000000E+00  0.00000000000E+00 -0.10541916249E+04  0.10541916249E+04  0.50400001928E-02 0.  1.
    10030    2    1    2    0    0  0.00000000000E+00  0.00000000000E+00  0.13027314673E+03  0.22386563966E+04  0.22348627182E+04 0.  0.
        4    1    3    3  502    0 -0.70857819243E+03  0.95842135798E+02 -0.79503085052E+03  0.10692728538E+04  0.12699999809E+01 0.  1.
       -4    1    3    3    0  502  0.70857819243E+03 -0.95842135798E+02  0.92530399725E+03  0.11693835427E+04  0.12699999809E+01 0. -1.
</event>
<event>
 5   0  0.1805501E-04  0.1555397E+04  0.7818609E-02  0.8848428E-01
       -2   -1    0    0    0  501  0.00000000000E+00  0.00000000000E+00  0.65180679186E+03  0.65180679187E+03  0.25500000920E-02 0. -1.
        2   -1    0    0  501    0  0.00000000000E+00  0.00000000000E+00 -0.92790564559E+03  0.92790564559E+03  0.25500000920E-02 0.  1.
    10030    2    1    2    0    0  0.00000000000E+00  0.00000000000E+00 -0.27609885373E+03  0.15797124375E+04  0.15553973152E+04 0.  0.
        2    1    3    3  502    0 -0.20538383369E+03 -0.63788149119E+03  0.26275879231E+03  0.71980379194E+03  0.25500000920E-02 0. -1.
       -2    1    3    3    0  502  0.20538383369E+03  0.63788149119E+03 -0.53885764604E+03  0.85990864552E+03  0.25500000920E-02 0.  1.
</event>
<event>
 5   0  0.7954459E-05  0.2014725E+04  0.7818609E-02  0.8599767E-01
        1   -1    0    0  501    0  0.00000000000E+00  0.00000000000E+00  0.12129036786E+04  0.12129036786E+04  0.50400001928E-02 0.  1.
       -1   -1    0    0    0  501  0.00000000000E+00  0.00000000000E+00 -0.83665248780E+03  0.83665248782E+03  0.50400001928E-02 0. -1.
    10030    2    1    2    0    0  0.00000000000E+00  0.00000000000E+00  0.37625119081E+03  0.20495561664E+04  0.20147246762E+04 0.  0.
        5    1    3    3  502    0  0.57942703102E+03 -0.19396522811E+03  0.10028451143E+04  0.11743417762E+04  0.46999998093E+01 0.  1.
       -5    1    3    3    0  502 -0.57942703102E+03  0.19396522811E+03 -0.62659392349E+03  0.87521439027E+03  0.46999998093E+01 0. -1.
</event>
<event>
 5   0  0.1805501E-04  0.2177255E+04  0.7818609E-02  0.8527955E-01
       -2   -1    0    0    0  501  0.00000000000E+00  0.00000000000E+00  0.14074253092E+04  0.14074253092E+04  0.25500000920E-02 0. -1.
        2   -1    0    0  501    0  0.00000000000E+00  0.00000000000E+00 -0.84204114340E+03  0.84204114341E+03  0.25500000920E-02 0.  1.
    10030    2    1    2    0    0  0.00000000000E+00  0.00000000000E+00  0.56538416582E+03  0.22494664526E+04  0.21772551680E+04 0.  0.
        2    1    3    3  502    0 -0.29936379507E+03 -0.10364501749E+04  0.13203969327E+03  0.10868680359E+04  0.25500000920E-02 0.  1.
       -2    1    3    3    0  502  0.29936379507E+03  0.10364501749E+04  0.43334447255E+03  0.11625984168E+04  0.25500000920E-02 0. -1.
</event>
<event>
 5   0  0.8784659E-05  0.2135568E+04  0.7818609E-02  0.8545735E-01
       -1   -1    0    0    0  501  0.00000000000E+00  0.00000000000E+00  0.62835735061E+03  0.62835735063E+03  0.50400001928E-02 0.  1.
        1   -1    0    0  501    0  0.00000000000E+00  0.00000000000E+00 -0.18145136917E+04  0.18145136917E+04  0.50400001928E-02 0. -1.
    10030    2    1    2    0    0  0.00000000000E+00  0.00000000000E+00 -0.11861563411E+04  0.24428710423E+04  0.21355683234E+04 0.  0.
        4    1    3    3  502    0 -0.21060161494E+03 -0.58380124119E+03 -0.15870088160E+04  0.17040468082E+04  0.12699999809E+01 0. -1.
       -4    1    3    3    0  502  0.21060161494E+03  0.58380124119E+03  0.40085247493E+03  0.73882423417E+03  0.12699999809E+01 0.  1.
</event>
<event>
 5   0  0.8784659E-05  0.2204265E+04  0.7818609E-02  0.8516655E-01
       -1   -1    0    0    0  501  0.00000000000E+00  0.00000000000E+00  0.98740444214E+03  0.98740444216E+03  0.50400001928E-02 0.  1.
        1   -1    0    0  501    0  0.00000000000E+00  0.00000000000E+00 -0.12301913508E+04  0.12301913509E+04  0.50400001928E-02 0. -1.
    10030    2    1    2    0    0  0.00000000000E+00  0.00000000000E+00 -0.24278690870E+03  0.22175957930E+04  0.22042653239E+04 0.  0.
        4    1    3    3  502    0  0.79193254278E+02 -0.10817415901E+04 -0.31817376968E+03  0.11303418066E+04  0.12699999809E+01 0. -1.
       -4    1    3    3    0  502 -0.79193254278E+02  0.10817415901E+04  0.75386860972E+02  0.10872539864E+04  0.12699999809E+01 0.  1.
</event>
<event>
 5   0  0.8470971E-05  0.1963171E+04  0.7818609E-02  0.8624036E-01
        1   -1    0    0  501    0  0.00000000000E+00  0.00000000000E+00  0.27094030373E+04  0.27094030373E+04  0.50400001928E-02 0. -1.
       -1   -1    0    0    0  501  0.00000000000E+00  0.00000000000E+00 -0.35561717251E+03  0.35561717255E+03  0.50400001928E-02 0.  1.
    10030    2    1    2    0    0  0.00000000000E+00  0.00000000000E+00  0.23537858648E+04  0.30650202099E+04  0.19631711565E+04 0.  0.
        2    1    3    3  502    0  0.55948476128E+03 -0.72634085480E+03  0.62952492734E+03  0.11121582035E+04  0.25500000920E-02 0.  1.
       -2    1    3    3    0  502 -0.55948476128E+03  0.72634085480E+03  0.17242609375E+04  0.19528620064E+04  0.25500000920E-02 0. -1.
</event>
<event>
 5   0  0.1798917E-04  0.2186441E+04  0.7818609E-02  0.8524093E-01
        2   -1    0    0  501    0  0.00000000000E+00  0.00000000000E+00  0.19517957836E+04  0.19517957836E+04  0.25500000920E-02 0.  1.
       -2   -1    0    0    0  501  0.00000000000E+00  0.00000000000E+00 -0.61232406755E+03  0.61232406755E+03  0.25500000920E-02 0. -1.
    10030    2    1    2    0    0  0.00000000000E+00  0.00000000000E+00  0.13394717161E+04  0.25641198512E+04  0.21864414314E+04 0.  0.
        4    1    3    3  502    0 -0.55416078212E+03 -0.94222635142E+03  0.68810147455E+03  0.12916539482E+04  0.12699999809E+01 0.  1.
       -4    1    3    3    0  502  0.55416078212E+03  0.94222635142E+03  0.65137024151E+03  0.12724659030E+04  0.12699999809E+01 0. -1.
</event>
<event>
 5   0  0.6250625E-05  0.2181103E+04  0.7818609E-02  0.8526335E-01
        3   -1    0    0  501    0  0.00000000000E+00  0.00000000000E+00  0.11153564825E+04  0.11153564871E+04  0.10100000352E+00 0.  1.
       -3   -1    0    0    0  501  0.00000000000E+00  0.00000000000E+00 -0.10662983774E+04  0.10662983822E+04  0.10100000352E+00 0. -1.
    10030    2    1    2    0    0  0.00000000000E+00  0.00000000000E+00  0.49058105098E+02  0.21816548692E+04  0.21811032233E+04 0.  0.
        1    1    3    3  502    0 -0.19105293878E+03 -0.13391255256E+03  0.10901008036E+04  0.11147885715E+04  0.50400001928E-02 0.  1.
       -1    1    3    3    0  502  0.19105293878E+03  0.13391255256E+03 -0.10410426985E+04  0.10668662977E+04  0.50400001928E-02 0. -1.
</event>
<event>
 5   0  0.1680258E-04  0.1986613E+04  0.7818609E-02  0.8612905E-01
       -2   -1    0    0    0  501  0.00000000000E+00  0.00000000000E+00  0.11627645760E+04  0.11627645760E+04  0.25500000920E-02 0. -1.
        2   -1    0    0  501    0  0.00000000000E+00  0.00000000000E+00 -0.84854457473E+03  0.84854457473E+03  0.25500000920E-02 0.  1.
    10030    2    1    2    0    0  0.00000000000E+00  0.00000000000E+00  0.31422000125E+03  0.20113091507E+04  0.19866127681E+04 0.  0.
        5    1    3    3  502    0 -0.85329270064E+03 -0.42965806425E+03  0.43237406395E+03  0.10486581456E+04  0.46999998093E+01 0. -1.
       -5    1    3    3    0  502  0.85329270064E+03  0.42965806425E+03 -0.11815406270E+03  0.96265100512E+03  0.46999998093E+01 0.  1.
</event>
<event>
 5   0  0.1680258E-04  0.2221875E+04  0.7818609E-02  0.8509378E-01
        2   -1    0    0  501    0  0.00000000000E+00  0.00000000000E+00  0.11558917590E+04  0.11558917590E+04  0.25500000920E-02 0. -1.
       -2   -1    0    0    0  501  0.00000000000E+00  0.00000000000E+00 -0.10677315523E+04  0.10677315523E+04  0.25500000920E-02 0.  1.
    10030    2    1    2    0    0  0.00000000000E+00  0.00000000000E+00  0.88160206660E+02  0.22236233113E+04  0.22218749759E+04 0.  0.
        5    1    3    3  502    0  0.41590723050E+03 -0.10218505474E+04 -0.86416697341E+02  0.11066378365E+04  0.46999998093E+01 0. -1.
       -5    1    3    3    0  502 -0.41590723050E+03  0.10218505474E+04  0.17457690400E+03  0.11169854748E+04  0.46999998093E+01 0.  1.
</event>
<event>
 5   0  0.1798917E-04  0.2038213E+04  0.7818609E-02  0.8588960E-01
       -2   -1    0    0    0  501  0.00000000000E+00  0.00000000000E+00  0.54963293251E+03  0.54963293252E+03  0.25500000920E-02 0.  1.
        2   -1    0    0  501    0  0.00000000000E+00  0.00000000000E+00 -0.18895854733E+04  0.18895854733E+04  0.25500000920E-02 0. -1.
    10030    2    1    2    0    0  0.00000000000E+00  0.00000000000E+00 -0.13399525408E+04  0.24392184058E+04  0.20382133401E+04 0.  0.
        4    1    3    3  502    0 -0.51368945494E+03 -0.51703903798E+03 -0.15224160037E+04  0.16878857557E+04  0.12699999809E+01 0. -1.
       -4    1    3    3    0  502  0.51368945494E+03  0.51703903798E+03  0.18246346297E+03  0.75133265011E+03  0.12699999809E+01 0.  1.
</event>
<event>
 5   0  0.8784659E-05  0.2255195E+04  0.7818609E-02  0.8495800E-01
       -1   -1    0    0    0  501  0.00000000000E+00  0.00000000000E+00  0.87551794193E+03  0.87551794194E+03  0.50400001928E-02 0. -1.
        1   -1    0    0  501    0  0.00000000000E+00  0.00000000000E+00 -0.14522558118E+04  0.14522558118E+04  0.50400001928E-02 0.  1.
    10030    2    1    2    0    0  0.00000000000E+00  0.00000000000E+00 -0.57673786982E+03  0.23277737537E+04  0.22551949091E+04 0.  0.
        4    1    3    3  502    0  0.51104856554E+03 -0.61703186480E+03  0.53062479376E+03  0.96096994916E+03  0.12699999809E+01 0. -1.
       -4    1    3    3    0  502 -0.51104856554E+03  0.61703186480E+03 -0.11073626636E+04  0.13668038045E+04  0.12699999809E+01 0.  1.
</event>
<event>
 5   0  0.8470971E-05  0.2183897E+04  0.7818609E-02  0.8525161E-01
       -1   -1    0    0    0  501  0.00000000000E+00  0.00000000000E+00  0.89419260287E+03  0.89419260289E+03  0.50400001928E-02 0.  1.
        1   -1    0    0  501    0  0.00000000000E+00  0.00000000000E+00 -0.13334390402E+04  0.13334390402E+04  0.50400001928E-02 0. -1.
    10030    2    1    2    0    0  0.00000000000E+00  0.00000000000E+00 -0.43924643730E+03  0.22276316431E+04  0.21838968164E+04 0.  0.
        2    1    3    3  502    0  0.38637004035E+03 -0.72304299213E+03 -0.95537130313E+03  0.12588912993E+04  0.25500000920E-02 0. -1.
       -2    1    3    3    0  502 -0.38637004035E+03  0.72304299213E+03  0.51612486583E+03  0.96874034379E+03  0.25500000920E-02 0.  1.
</event>
<event>
 5   0  0.1805501E-04  0.2183374E+04  0.7818609E-02  0.8525380E-01
        2   -1    0    0  501    0  0.00000000000E+00  0.00000000000E+00  0.24556699468E+04  0.24556699468E+04  0.25500000920E-02 0. -1.
       -2   -1    0    0    0  501  0.00000000000E+00  0.00000000000E+00 -0.48531792161E+03  0.48531792162E+03  0.25500000920E-02 0.  1.
    10030    2    1    2    0    0  0.00000000000E+00  0.00000000000E+00  0.19703520252E+04  0.29409878684E+04  0.21833741180E+04 0.  0.
        2    1    3    3  502    0  0.37246805428E+03 -0.61775468485E+03  0.20889104257E+04  0.22099547663E+04  0.25500000920E-02 0. -1.
       -2    1    3    3    0  502 -0.37246805428E+03  0.61775468485E+03 -0.11855840055E+03  0.73103310217E+03  0.25500000920E-02 0.  1.
</event>
<event>
 5   0  0.8470971E-05  0.2212092E+04  0.7818609E-02  0.8513412E-01
        1   -1    0    0  501    0  0.00000000000E+00  0.00000000000E+00  0.17171909913E+04  0.17171909913E+04  0.50400001928E-02 0.  1.
       -1   -1    0    0    0  501  0.00000000000E+00  0.00000000000E+00 -0.71240605265E+03  0.71240605267E+03  0.50400001928E-02 0. -1.
    10030    2    1    2    0    0  0.00000000000E+00  0.00000000000E+00  0.10047849387E+04  0.24295970440E+04  0.22120915495E+04 0.  0.
        2    1    3    3  502    0 -0.87300320845E+03  0.15443255755E+03 -0.22395984969E+03  0.91440802221E+03  0.25500000920E-02 0. -1.
       -2    1    3    3    0  502  0.87300320845E+03 -0.15443255755E+03  0.12287447883E+04  0.15151890218E+04  0.25500000920E-02 0.  1.
</event>
<event>
 5   0  0.1733962E-04  0.2214364E+04  0.7818609E-02  0.8512473E-01
       -2   -1    0    0    0  501  0.00000000000E+00  0.00000000000E+00  0.13567290511E+04  0.13567290511E+04  0.25500000920E-02 0.  1.
        2   -1    0    0  501    0  0.00000000000E+00  0.00000000000E+00 -0.90353460959E+03  0.90353460960E+03  0.25500000920E-02 0. -1.
    10030    2    1    2    0    0  0.00000000000E+00  0.00000000000E+00  0.45319444153E+03  0.22602636607E+04  0.22143637041E+04 0.  0.
        3    1    3    3  502    0  0.75983279403E+03  0.60648090955E+03 -0.31418330824E+03  0.10217025643E+04  0.10100000352E+00 0. -1.
       -3    1    3    3    0  502 -0.75983279403E+03 -0.60648090955E+03  0.76737774978E+03  0.12385610964E+04  0.10100000352E+00 0.  1.
</event>
<event>
 5   0  0.1680258E-04  0.1552082E+04  0.7818609E-02  0.8850539E-01
        2   -1    0    0  501    0  0.00000000000E+00  0.00000000000E+00  0.12835318574E+04  0.12835318574E+04  0.25500000920E-02 0. -1.
       -2   -1    0    0    0  501  0.00000000000E+00  0.00000000000E+00 -0.46920509870E+03  0.46920509871E+03  0.25500000920E-02 0.  1.
    10030    2    1    2    0    0  0.00000000000E+00  0.00000000000E+00  0.81432675871E+03  0.17527369561E+04  0.15520820749E+04 0.  0.
        5    1    3    3  502    0 -0.95156704882E+02  0.61809156419E+03  0.92605006990E+03  0.11174447647E+04  0.46999998093E+01 0. -1.
       -5    1    3    3    0  502  0.95156704882E+02 -0.61809156419E+03 -0.11172331119E+03  0.63529219141E+03  0.46999998093E+01 0.  1.
</event>
<event>
 5   0  0.7954459E-05  0.2214275E+04  0.7818609E-02  0.8512510E-01
       -1   -1    0    0    0  501  0.00000000000E+00  0.00000000000E+00  0.84410075852E+03  0.84410075853E+03  0.50400001928E-02 0.  1.
        1   -1    0    0  501    0  0.00000000000E+00  0.00000000000E+00 -0.14521408849E+04  0.14521408849E+04  0.50400001928E-02 0. -1.
    10030    2    1    2    0    0  0.00000000000E+00  0.00000000000E+00 -0.60804012641E+03  0.22962416435E+04  0.22142748000E+04 0.  0.
        5    1    3    3  502    0  0.84222763176E+03  0.80130942296E+02  0.43653151476E+03  0.95202426702E+03  0.46999998093E+01 0.  1.
       -5    1    3    3    0  502 -0.84222763176E+03 -0.80130942296E+02 -0.10445716412E+04  0.13442173765E+04  0.46999998093E+01 0. -1.
</event>
<event>
 5   0  0.8602414E-05  0.2168538E+04  0.7818609E-02  0.8531639E-01
        1   -1    0    0  501    0  0.00000000000E+00  0.00000000000E+00  0.12760099462E+04  0.12760099462E+04  0.50400001928E-02 0. -1.
       -1   -1    0    0    0  501  0.00000000000E+00  0.00000000000E+00 -0.92134014899E+03  0.92134014900E+03  0.50400001928E-02 0.  1.
    10030    2    1    2    0    0  0.00000000000E+00  0.00000000000E+00  0.35466979720E+03  0.21973500952E+04  0.21685379351E+04 0.  0.
        3    1    3    3  502    0 -0.21714526708E+03  0.27050104810E+03  0.12182697661E+04  0.12666902215E+04  0.10100000352E+00 0. -1.
       -3    1    3    3    0  502  0.21714526708E+03 -0.27050104810E+03 -0.86359996890E+03  0.93065987371E+03  0.10100000352E+00 0.  1.
</event>
<event>
 5   0  0.1733962E-04  0.2202692E+04  0.7818609E-02  0.8517308E-01
       -2   -1    0    0    0  501  0.00000000000E+00  0.00000000000E+00  0.12285414438E+04  0.12285414438E+04  0.25500000920E-02 0.  1.
        2   -1    0    0  501    0  0.00000000000E+00  0.00000000000E+00 -0.98731978750E+03  0.98731978750E+03  0.25500000920E-02 0. -1.
    10030    2    1    2    0    0  0.00000000000E+00  0.00000000000E+00  0.24122165633E+03  0.22158612313E+04  0.22026922411E+04 0.  0.
        3    1    3    3  502    0 -0.82906611975E+03 -0.60198377333E+03  0.52704133299E+03  0.11521751912E+04  0.10100000352E+00 0.  1.
       -3    1    3    3    0  502  0.82906611975E+03  0.60198377333E+03 -0.28581967666E+03  0.10636860402E+04  0.10100000352E+00 0. -1.
</event>
<event>
 5   0  0.1754356E-04  0.2247925E+04  0.7818609E-02  0.8498741E-01
        2   -1    0    0  501    0  0.00000000000E+00  0.00000000000E+00  0.16027798717E+04  0.16027798717E+04  0.25500000920E-02 0.  1.
       -2   -1    0    0    0  501  0.00000000000E+00  0.00000000000E+00 -0.78818786285E+03  0.78818786285E+03  0.25500000920E-02 0. -1.
    10030    2    1    2    0    0  0.00000000000E+00  0.00000000000E+00  0.81459200886E+03  0.23909677346E+04  0.22479249469E+04 0.  0.
        1    1    3    3  502    0  0.55001708400E+03  0.80229510347E+03  0.10062409307E+04  0.13995417237E+04  0.50400001928E-02 0.  1.
       -1    1    3    3    0  502 -0.55001708400E+03 -0.80229510347E+03 -0.19164892183E+03  0.99142601086E+03  0.50400001928E-02 0. -1.
</event>
<event>
 5   0  0.1754356E-04  0.1580013E+04  0.7818609E-02  0.8832922E-01
        2   -1    0    0  501    0  0.00000000000E+00  0.00000000000E+00  0.68046320828E+03  0.68046320829E+03  0.25500000920E-02 0.  1.
       -2   -1    0    0    0  501  0.00000000000E+00  0.00000000000E+00 -0.91718414881E+03  0.91718414882E+03  0.25500000920E-02 0. -1.
    10030    2    1    2    0    0  0.00000000000E+00  0.00000000000E+00 -0.23672094053E+03  0.15976473571E+04  0.15800127449E+04 0.  0.
        1    1    3    3  502    0 -0.28704718771E+03  0.39020212175E+03 -0.74939001512E+03  0.89232235127E+03  0.50400001928E-02 0. -1.
       -1    1    3    3    0  502  0.28704718771E+03 -0.39020212175E+03  0.51266907459E+03  0.70532500584E+03  0.50400001928E-02 0.  1.
</event>
<event>
 5   0  0.1805501E-04  0.2156150E+04  0.7818609E-02  0.8536904E-01
        2   -1    0    0  501    0  0.00000000000E+00  0.00000000000E+00  0.11009903963E+04  0.11009903963E+04  0.25500000920E-02 0.  1.
       -2   -1    0    0    0  501  0.00000000000E+00  0.00000000000E+00 -0.10556368677E+04  0.10556368677E+04  0.25500000920E-02 0. -1.
    10030    2    1    2    0    0  0.00000000000E+00  0.00000000000E+00  0.45353528538E+02  0.21566272640E+04  0.21561503225E+04 0.  0.
        2    1    3    3  502    0  0.25946509226E+03 -0.26406856492E+03  0.10354182457E+04  0.10996114244E+04  0.25500000920E-02 0.  1.
       -2    1    3    3    0  502 -0.25946509226E+03  0.26406856492E+03 -0.99006471714E+03  0.10570158396E+04  0.25500000920E-02 0. -1.
</event>
<event>
 5   0  0.8306787E-05  0.1507365E+04  0.7818609E-02  0.8879570E-01
       -1   -1    0    0    0  501  0.00000000000E+00  0.00000000000E+00  0.94622629313E+03  0.94622629314E+03  0.50400001928E-02 0. -1.
        1   -1    0    0  501    0  0.00000000000E+00  0.00000000000E+00 -0.60031828728E+03  0.60031828730E+03  0.50400001928E-02 0.  1.
    10030    2    1    2    0    0  0.00000000000E+00  0.00000000000E+00  0.34590800585E+03  0.15465445804E+04  0.15073645182E+04 0.  0.
        1    1    3    3  502    0 -0.28902889843E+02  0.75075350623E+03  0.11164510862E+03  0.75955963193E+03  0.50400001928E-02 0.  1.
       -1    1    3    3    0  502  0.28902889843E+02 -0.75075350623E+03  0.23426289723E+03  0.78698494852E+03  0.50400001928E-02 0. -1.
</event>
<event>
 5   0  0.1754356E-04  0.2128039E+04  0.7818609E-02  0.8548991E-01
       -2   -1    0    0    0  501  0.00000000000E+00  0.00000000000E+00  0.10215833990E+04  0.10215833990E+04  0.25500000920E-02 0.  1.
        2   -1    0    0  501    0  0.00000000000E+00  0.00000000000E+00 -0.11082187214E+04  0.11082187214E+04  0.25500000920E-02 0. -1.
    10030    2    1    2    0    0  0.00000000000E+00  0.00000000000E+00 -0.86635322395E+02  0.21298021205E+04  0.21280393308E+04 0.  0.
        1    1    3    3  502    0 -0.88463191341E+03 -0.55673498436E+03 -0.24250609970E+03  0.10730035757E+04  0.50400001928E-02 0.  1.
       -1    1    3    3    0  502  0.88463191341E+03  0.55673498436E+03  0.15587077730E+03  0.10567985448E+04  0.50400001928E-02 0. -1.
</event>
<event>
 5   0  0.1798917E-04  0.2351984E+04  0.7818609E-02  0.8457702E-01
       -2   -1    0    0    0  501  0.00000000000E+00  0.00000000000E+00  0.59670093606E+03  0.59670093606E+03  0.25500000920E-02 0.  1.
        2   -1    0    0  501    0  0.00000000000E+00  0.00000000000E+00 -0.23176720107E+04  0.23176720107E+04  0.25500000920E-02 0. -1.
    10030    2    1    2    0    0  0.00000000000E+00  0.00000000000E+00 -0.17209710746E+04  0.29143729468E+04  0.23519838930E+04 0.  0.
        4    1    3    3  502    0 -0.22844783614E+03  0.11524088739E+04 -0.79585160314E+03  0.14190193845E+04  0.12699999809E+01 0. -1.
       -4    1    3    3    0  502  0.22844783614E+03 -0.11524088739E+04 -0.92511947150E+03  0.14953535622E+04  0.12699999809E+01 0.  1.
</event>
<event>
 5   0  0.1733962E-04  0.2176330E+04  0.7818609E-02  0.8528345E-01
        2   -1    0    0  501    0  0.00000000000E+00  0.00000000000E+00  0.11167113403E+04  0.11167113403E+04  0.25500000920E-02 0.  1.
       -2   -1    0    0    0  501  0.00000000000E+00  0.00000000000E+00 -0.10603484490E+04  0.10603484490E+04  0.25500000920E-02 0. -1.
    10030    2    1    2    0    0  0.00000000000E+00  0.00000000000E+00  0.56362891262E+02  0.21770597893E+04  0.21763300648E+04 0.  0.
        3    1    3    3  502    0 -0.76299126478E+03  0.21285551301E+03 -0.71815181362E+03  0.10692077334E+04  0.10100000352E+00 0. -1.
       -3    1    3    3    0  502  0.76299126478E+03 -0.21285551301E+03  0.77451470488E+03  0.11078520559E+04  0.10100000352E+00 0.  1.
</event>
<event>
 5   0  0.7954459E-05  0.1661557E+04  0.7818609E-02  0.8783599E-01
       -1   -1    0    0    0  501  0.00000000000E+00  0.00000000000E+00  0.70932333736E+03  0.70932333738E+03  0.50400001928E-02 0.  1.
        1   -1    0    0  501    0  0.00000000000E+00  0.00000000000E+00 -0.97303030408E+03  0.97303030410E+03  0.50400001928E-02 0. -1.
    10030    2    1    2    0    0  0.00000000000E+00  0.00000000000E+00 -0.26370696672E+03  0.16823536415E+04  0.16615572246E+04 0.  0.
        5    1    3    3  502    0  0.27729969069E+03 -0.46133335849E+02  0.65969049269E+03  0.71710322776E+03  0.46999998093E+01 0.  1.
       -5    1    3    3    0  502 -0.27729969069E+03  0.46133335849E+02 -0.92339745941E+03  0.96525041371E+03  0.46999998093E+01 0. -1.
</event>
<event>
 5   0  0.8470971E-05  0.2216589E+04  0.7818609E-02  0.8511555E-01
        1   -1    0    0  501    0  0.00000000000E+00  0.00000000000E+00  0.11773044719E+04  0.11773044719E+04  0.50400001928E-02 0.  1.
       -1   -1    0    0    0  501  0.00000000000E+00  0.00000000000E+00 -0.10433292616E+04  0.10433292616E+04  0.50400001928E-02 0. -1.
    10030    2    1    2    0    0  0.00000000000E+00  0.00000000000E+00  0.13397521035E+03  0.22206337335E+04  0.22165885549E+04 0.  0.
        2    1    3    3  502    0  0.84749653894E+03  0.32868263385E+03  0.70220589431E+03  0.11486408383E+04  0.25500000920E-02 0.  1.
       -2    1    3    3    0  502 -0.84749653894E+03 -0.32868263385E+03 -0.56823068396E+03  0.10719928953E+04  0.25500000920E-02 0. -1.
</event>
<event>
 5   0  0.1754356E-04  0.1555359E+04  0.7818609E-02  0.8848452E-01
        2   -1    0    0  501    0  0.00000000000E+00  0.00000000000E+00  0.75349342770E+03  0.75349342771E+03  0.25500000920E-02 0.  1.
       -2   -1    0    0    0  501  0.00000000000E+00  0.00000000000E+00 -0.80264181094E+03  0.80264181095E+03  0.25500000920E-02 0. -1.
    10030    2    1    2    0    0  0.00000000000E+00  0.00000000000E+00 -0.49148383237E+02  0.15561352387E+04  0.15553589031E+04 0.  0.
        1    1    3    3  502    0  0.69553049894E+03 -0.33148778367E+03  0.81017596284E+02  0.77473264848E+03  0.50400001928E-02 0.  1.
       -1    1    3    3    0  502 -0.69553049894E+03  0.33148778367E+03 -0.13016597952E+03  0.78140259018E+03  0.50400001928E-02 0. -1.
</event>
<event>
 5   0  0.1798917E-04  0.2235509E+04  0.7818609E-02  0.8503792E-01
       -2   -1    0    0    0  501  0.00000000000E+00  0.00000000000E+00  0.74443651919E+03  0.74443651919E+03  0.25500000920E-02 0.  1.
        2   -1    0    0  501    0  0.00000000000E+00  0.00000000000E+00 -0.16782829089E+04  0.16782829089E+04  0.25500000920E-02 0. -1.
    10030    2    1    2    0    0  0.00000000000E+00  0.00000000000E+00 -0.93384638973E+03  0.24227194281E+04  0.22355089684E+04 0.  0.
        4    1    3    3  502    0  0.67592025064E+03 -0.37901553703E+03 -0.13398939612E+04  0.15478496060E+04  0.12699999809E+01 0. -1.
       -4    1    3    3    0  502 -0.67592025064E+03  0.37901553703E+03  0.40604757146E+03  0.87486982216E+03  0.12699999809E+01 0.  1.
</event>
<event>
 5   0  0.1733962E-04  0.1946313E+04  0.7818609E-02  0.8632141E-01
        2   -1    0    0  501    0  0.00000000000E+00  0.00000000000E+00  0.16652235358E+04  0.16652235358E+04  0.25500000920E-02 0. -1.
       -2   -1    0    0    0  501  0.00000000000E+00  0.00000000000E+00 -0.56871263748E+03  0.56871263749E+03  0.25500000920E-02 0.  1.
    10030    2    1    2    0    0  0.00000000000E+00  0.00000000000E+00  0.10965108983E+04  0.22339361733E+04  0.19463130982E+04 0.  0.
        3    1    3    3  502    0  0.14828752856E+03  0.16161621151E+02 -0.55551315659E+03  0.57519150417E+03  0.10100000352E+00 0.  1.
       -3    1    3    3    0  502 -0.14828752856E+03 -0.16161621151E+02  0.16520240549E+04  0.16587446691E+04  0.10100000352E+00 0. -1.
</event>
<event>
 5   0  0.8306787E-05  0.2207515E+04  0.7818609E-02  0.8515307E-01
       -1   -1    0    0    0  501  0.00000000000E+00  0.00000000000E+00  0.95481852080E+03  0.95481852081E+03  0.50400001928E-02 0.  1.
        1   -1    0    0  501    0  0.00000000000E+00  0.00000000000E+00 -0.12759295422E+04  0.12759295422E+04  0.50400001928E-02 0. -1.
    10030    2    1    2    0    0  0.00000000000E+00  0.00000000000E+00 -0.32111102138E+03  0.22307480630E+04  0.22075154886E+04 0.  0.
        1    1    3    3  502    0 -0.20765259782E+03 -0.98003807458E+03  0.30766406501E+03  0.10479749071E+04  0.50400001928E-02 0.  1.
       -1    1    3    3    0  502  0.20765259782E+03  0.98003807458E+03 -0.62877508639E+03  0.11827731559E+04  0.50400001928E-02 0. -1.
</event>
<event>
 5   0  0.1805501E-04  0.1915158E+04  0.7818609E-02  0.8647348E-01
       -2   -1    0    0    0  501  0.00000000000E+00  0.00000000000E+00  0.79329271213E+03  0.79329271214E+03  0.25500000920E-02 0. -1.
        2   -1    0    0  501    0  0.00000000000E+00  0.00000000000E+00 -0.11558881544E+04  0.11558881544E+04  0.25500000920E-02 0.  1.
    10030    2    1    2    0    0  0.00000000000E+00  0.00000000000E+00 -0.36259544223E+03  0.19491808665E+04  0.19151581124E+04 0.  0.
        2    1    3    3  502    0 -0.94152550685E+03  0.22735405326E+02 -0.51024357480E+01  0.94181378922E+03  0.25500000920E-02 0. -1.
       -2    1    3    3    0  502  0.94152550685E+03 -0.22735405326E+02 -0.35749300649E+03  0.10073670773E+04  0.25500000920E-02 0.  1.
</event>
<event>
 5   0  0.8306787E-05  0.2213616E+04  0.7818609E-02  0.8512782E-01
       -1   -1    0    0    0  501  0.00000000000E+00  0.00000000000E+00  0.14373227003E+04  0.14373227003E+04  0.50400001928E-02 0.  1.
        1   -1    0    0  501    0  0.00000000000E+00  0.00000000000E+00 -0.85229555434E+03  0.85229555435E+03  0.50400001928E-02 0. -1.
    10030    2    1    2    0    0  0.00000000000E+00  0.00000000000E+00  0.58502714594E+03  0.22896182546E+04  0.22136158182E+04 0.  0.
        1    1    3    3  502    0 -0.80884842650E+02  0.48547329212E+03 -0.73288511283E+03  0.88280647016E+03  0.50400001928E-02 0. -1.
       -1    1    3    3    0  502  0.80884842650E+02 -0.48547329212E+03  0.13179122588E+04  0.14068117845E+04  0.50400001928E-02 0.  1.
</event>
<event>
 5   0  0.8470971E-05  0.2153088E+04  0.7818609E-02  0.8538212E-01
        1   -1    0    0  501    0  0.00000000000E+00  0.00000000000E+00  0.10065159538E+04  0.10065159538E+04  0.50400001928E-02 0. -1.
       -1   -1    0    0    0  501  0.00000000000E+00  0.00000000000E+00 -0.11514438134E+04  0.11514438135E+04  0.50400001928E-02 0.  1.
    10030    2    1    2    0    0  0.00000000000E+00  0.00000000000E+00 -0.14492785963E+03  0.21579597673E+04  0.21530876138E+04 0.  0.
        2    1    3    3  502    0 -0.81155606492E+02  0.58166578501E+03 -0.97673904406E+03  0.11397106993E+04  0.25500000920E-02 0.  1.
       -2    1    3    3    0  502  0.81155606492E+02 -0.58166578501E+03  0.83181118443E+03  0.10182490680E+04  0.25500000920E-02 0. -1.
</event>
<event>
 5   0  0.1680258E-04  0.1670125E+04  0.7818609E-02  0.8778589E-01
        2   -1    0    0  501    0  0.00000000000E+00  0.00000000000E+00  0.16837172915E+04  0.16837172915E+04  0.25500000920E-02 0.  1.
       -2   -1    0    0    0  501  0.00000000000E+00  0.00000000000E+00 -0.41416060521E+03  0.41416060521E+03  0.25500000920E-02 0. -1.
    10030    2    1    2    0    0  0.00000000000E+00  0.00000000000E+00  0.12695566863E+04  0.20978778967E+04  0.16701249923E+04 0.  0.
        5    1    3    3  502    0  0.65695793875E+02 -0.77281585663E+03  0.10234597918E+04  0.12841543213E+04  0.46999998093E+01 0.  1.
       -5    1    3    3    0  502 -0.65695793875E+02  0.77281585663E+03  0.24609689444E+03  0.81372357533E+03  0.46999998093E+01 0. -1.
</event>
<event>
 5   0  0.8306787E-05  0.1485697E+04  0.7818609E-02  0.8894020E-01
        1   -1    0    0  501    0  0.00000000000E+00  0.00000000000E+00  0.13244454278E+04  0.13244454278E+04  0.50400001928E-02 0. -1.
       -1   -1    0    0    0  501  0.00000000000E+00  0.00000000000E+00 -0.41664536112E+03  0.41664536115E+03  0.50400001928E-02 0.  1.
    10030    2    1    2    0    0  0.00000000000E+00  0.00000000000E+00  0.90780006666E+03  0.17410907889E+04  0.14856972014E+04 0.  0.
        1    1    3    3  502    0  0.14234158104E+03 -0.19891226601E+03  0.12759008787E+04  0.12991344301E+04  0.50400001928E-02 0. -1.
       -1    1    3    3    0  502 -0.14234158104E+03  0.19891226601E+03 -0.36810081202E+03  0.44195635882E+03  0.50400001928E-02 0.  1.
</event>
<event>
 5   0  0.1798917E-04  0.2191564E+04  0.7818609E-02  0.8521948E-01
       -2   -1    0    0    0  501  0.00000000000E+00  0.00000000000E+00  0.44970702226E+03  0.44970702227E+03  0.25500000920E-02 0.  1.
        2   -1    0    0  501    0  0.00000000000E+00  0.00000000000E+00 -0.26700444053E+04  0.26700444053E+04  0.25500000920E-02 0. -1.
    10030    2    1    2    0    0  0.00000000000E+00  0.00000000000E+00 -0.22203373831E+04  0.31197514276E+04  0.21915635686E+04 0.  0.
        4    1    3    3  502    0  0.23310048612E+03 -0.10189492923E+04 -0.15782963931E+04  0.18930437434E+04  0.12699999809E+01 0. -1.
       -4    1    3    3    0  502 -0.23310048612E+03  0.10189492923E+04 -0.64204098995E+03  0.12267076842E+04  0.12699999809E+01 0.  1.
</event>
<event>
 5   0  0.6250625E-05  0.2238723E+04  0.7818609E-02  0.8502481E-01
        3   -1    0    0  501    0  0.00000000000E+00  0.00000000000E+00  0.12921369091E+04  0.12921369131E+04  0.10100000352E+00 0.  1.
       -3   -1    0    0    0  501  0.00000000000E+00  0.00000000000E+00 -0.96968833021E+03  0.96968833547E+03  0.10100000352E+00 0. -1.
    10030    2    1    2    0    0  0.00000000000E+00  0.00000000000E+00  0.32244857891E+03  0.22618252485E+04  0.22387229326E+04 0.  0.
        3    1    3    3  502    0  0.42635143571E+03  0.96021833066E+03 -0.22899357618E+03  0.10752826872E+04  0.10100000352E+00 0. -1.
       -3    1    3    3    0  502 -0.42635143571E+03 -0.96021833066E+03  0.55144215510E+03  0.11865425613E+04  0.10100000352E+00 0.  1.
</event>
<event>
 5   0  0.1733962E-04  0.1905385E+04  0.7818609E-02  0.8652180E-01
       -2   -1    0    0    0  501  0.00000000000E+00  0.00000000000E+00  0.30391505527E+03  0.30391505528E+03  0.25500000920E-02 0.  1.
        2   -1    0    0  501    0  0.00000000000E+00  0.00000000000E+00 -0.29864377931E+04  0.29864377931E+04  0.25500000920E-02 0. -1.
    10030    2    1    2    0    0  0.00000000000E+00  0.00000000000E+00 -0.26825227378E+04  0.32903528484E+04  0.19053854277E+04 0.  0.
        3    1    3    3  502    0  0.24904567592E+03 -0.85062862682E+03 -0.73801601698E+03  0.11533691781E+04  0.10100000352E+00 0.  1.
       -3    1    3    3    0  502 -0.24904567592E+03  0.85062862682E+03 -0.19445067209E+04  0.21369836703E+04  0.10100000352E+00 0. -1.
</event>
<event>
 5   0  0.1733962E-04  0.2237139E+04  0.7818609E-02  0.8503127E-01
       -2   -1    0    0    0  501  0.00000000000E+00  0.00000000000E+00  0.95882696041E+03  0.95882696041E+03  0.25500000920E-02 0. -1.
        2   -1    0    0  501    0  0.00000000000E+00  0.00000000000E+00 -0.13049259409E+04  0.13049259409E+04  0.25500000920E-02 0.  1.
    10030    2    1    2    0    0  0.00000000000E+00  0.00000000000E+00 -0.34609898045E+03  0.22637529013E+04  0.22371393997E+04 0.  0.
        3    1    3    3  502    0 -0.28566971812E+03  0.10652377172E+04 -0.36197780743E+03  0.11607611836E+04  0.10100000352E+00 0.  1.
       -3    1    3    3    0  502  0.28566971812E+03 -0.10652377172E+04  0.15878826986E+02  0.11029917177E+04  0.10100000352E+00 0. -1.
</event>
<event>
 5   0  0.8602414E-05  0.2336020E+04  0.7818609E-02  0.8463853E-01
       -1   -1    0    0    0  501  0.00000000000E+00  0.00000000000E+00  0.10846441657E+04  0.10846441657E+04  0.50400001928E-02 0. -1.
        1   -1    0    0  501    0  0.00000000000E+00  0.00000000000E+00 -0.12577833534E+04  0.12577833534E+04  0.50400001928E-02 0.  1.
    10030    2    1    2    0    0  0.00000000000E+00  0.00000000000E+00 -0.17313918762E+03  0.23424275191E+04  0.23360200136E+04 0.  0.
        3    1    3    3  502    0  0.15947947536E+02  0.93108460596E+02  0.10808074309E+04  0.10849277558E+04  0.10100000352E+00 0. -1.
       -3    1    3    3    0  502 -0.15947947536E+02 -0.93108460596E+02 -0.12539466185E+04  0.12574997633E+04  0.10100000352E+00 0.  1.
</event>
<event>
 5   0  0.1805501E-04  0.2223633E+04  0.7818609E-02  0.8508656E-01
        2   -1    0    0  501    0  0.00000000000E+00  0.00000000000E+00  0.21717445281E+04  0.21717445281E+04  0.25500000920E-02 0. -1.
       -2   -1    0    0    0  501  0.00000000000E+00  0.00000000000E+00 -0.56919022513E+03  0.56919022514E+03  0.25500000920E-02 0.  1.
    10030    2    1    2    0    0  0.00000000000E+00  0.00000000000E+00  0.16025543030E+04  0.27409347533E+04  0.22236328446E+04 0.  0.
        2    1    3    3  502    0  0.27469919042E+03  0.39974303378E+03 -0.43190427201E+03  0.64945780344E+03  0.25500000920E-02 0.  1.
       -2    1    3    3    0  502 -0.27469919042E+03 -0.39974303378E+03  0.20344585750E+04  0.20914769498E+04  0.25500000920E-02 0. -1.
</event>
<event>
 5   0  0.1798917E-04  0.2212531E+04  0.7818609E-02  0.8513230E-01
        2   -1    0    0  501    0  0.00000000000E+00  0.00000000000E+00  0.84562390691E+03  0.84562390691E+03  0.25500000920E-02 0. -1.
       -2   -1    0    0    0  501  0.00000000000E+00  0.00000000000E+00 -0.14472436407E+04  0.14472436407E+04  0.25500000920E-02 0.  1.
    10030    2    1    2    0    0  0.00000000000E+00  0.00000000000E+00 -0.60161973383E+03  0.22928675477E+04  0.22125314206E+04 0.  0.
        4    1    3    3  502    0 -0.55611813767E+03  0.43440258449E+03 -0.11837123291E+04  0.13780963244E+04  0.12699999809E+01 0. -1.
       -4    1    3    3    0  502  0.55611813767E+03 -0.43440258449E+03  0.58209259527E+03  0.91477122322E+03  0.12699999809E+01 0.  1.
</event>
<event>
 5   0  0.1798917E-04  0.2114226E+04  0.7818609E-02  0.8555002E-01
       -2   -1    0    0    0  501  0.00000000000E+00  0.00000000000E+00  0.37930764898E+03  0.37930764899E+03  0.25500000920E-02 0. -1.
        2   -1    0    0  501    0  0.00000000000E+00  0.00000000000E+00 -0.29461255524E+04  0.29461255524E+04  0.25500000920E-02 0.  1.
    10030    2    1    2    0    0  0.00000000000E+00  0.00000000000E+00 -0.25668179034E+04  0.33254332014E+04  0.21142260588E+04 0.  0.
        4    1    3    3  502    0  0.79566104936E+03  0.46133758534E+03 -0.46373020049E+03  0.10300272738E+04  0.12699999809E+01 0. -1.
       -4    1    3    3    0  502 -0.79566104936E+03 -0.46133758534E+03 -0.21030877029E+04  0.22954059275E+04  0.12699999809E+01 0.  1.
</event>
<event>
 5   0  0.8784659E-05  0.2479336E+04  0.7818609E-02  0.8410384E-01
       -1   -1    0    0    0  501  0.00000000000E+00  0.00000000000E+00  0.81326158993E+03  0.81326158995E+03  0.50400001928E-02 0. -1.
        1   -1    0    0  501    0  0.00000000000E+00  0.00000000000E+00 -0.18896458229E+04  0.18896458229E+04  0.50400001928E-02 0.  1.
    10030    2    1    2    0    0  0.00000000000E+00  0.00000000000E+00 -0.10763842330E+04  0.27029074129E+04  0.24793356904E+04 0.  0.
        4    1    3    3  502    0 -0.40253792936E+03  0.11236843738E+04 -0.90315040374E+03  0.14967917762E+04  0.12699999809E+01 0.  1.
       -4    1    3    3    0  502  0.40253792936E+03 -0.11236843738E+04 -0.17323382928E+03  0.12061156367E+04  0.12699999809E+01 0. -1.
</event>
<event>
 5   0  0.7954459E-05  0.2173678E+04  0.7818609E-02  0.8529464E-01
        1   -1    0    0  501    0  0.00000000000E+00  0.00000000000E+00  0.16995113319E+04  0.16995113319E+04  0.50400001928E-02 0.  1.
       -1   -1    0    0    0  501  0.00000000000E+00  0.00000000000E+00 -0.69503468586E+03  0.69503468588E+03  0.50400001928E-02 0. -1.
    10030    2    1    2    0    0  0.00000000000E+00  0.00000000000E+00  0.10044766461E+04  0.23945460178E+04  0.21736782878E+04 0.  0.
        5    1    3    3  502    0  0.34369293305E+03 -0.10295528362E+04  0.56350765568E+03  0.12229745880E+04  0.46999998093E+01 0. -1.
       -5    1    3    3    0  502 -0.34369293305E+03  0.10295528362E+04  0.44096899039E+03  0.11715714299E+04  0.46999998093E+01 0.  1.
</event>
<event>
 5   0  0.8306787E-05  0.2197505E+04  0.7818609E-02  0.8519467E-01
       -1   -1    0    0    0  501  0.00000000000E+00  0.00000000000E+00  0.11900017871E+04  0.11900017871E+04  0.50400001928E-02 0.  1.
        1   -1    0    0  501    0  0.00000000000E+00  0.00000000000E+00 -0.10144999118E+04  0.10144999118E+04  0.50400001928E-02 0. -1.
    10030    2    1    2    0    0  0.00000000000E+00  0.00000000000E+00  0.17550187529E+03  0.22045016988E+04  0.21975046830E+04 0.  0.
        1    1    3    3  502    0 -0.45967327094E+03 -0.17655512770E+03  0.10731133864E+04  0.11806962222E+04  0.50400001928E-02 0.  1.
       -1    1    3    3    0  502  0.45967327094E+03  0.17655512770E+03 -0.89761151107E+03  0.10238054766E+04  0.50400001928E-02 0. -1.
</event>
<event>
 5   0  0.8784659E-05  0.2200188E+04  0.7818609E-02  0.8518350E-01
       -1   -1    0    0    0  501  0.00000000000E+00  0.00000000000E+00  0.10616326737E+04  0.10616326737E+04  0.50400001928E-02 0. -1.
        1   -1    0    0  501    0  0.00000000000E+00  0.00000000000E+00 -0.11399487934E+04  0.11399487934E+04  0.50400001928E-02 0.  1.
    10030    2    1    2    0    0  0.00000000000E+00  0.00000000000E+00 -0.78316119641E+02  0.22015814671E+04  0.22001880697E+04 0.  0.
        4    1    3    3  502    0  0.79096328552E+03  0.16182113726E+03 -0.78689047924E+03  0.11273895683E+04  0.12699999809E+01 0.  1.
       -4    1    3    3    0  502 -0.79096328552E+03 -0.16182113726E+03  0.70857435960E+03  0.10741918988E+04  0.12699999809E+01 0. -1.
</event>
<event>
 5   0  0.8306787E-05  0.2196995E+04  0.7818609E-02  0.8519680E-01
        1   -1    0    0  501    0  0.00000000000E+00  0.00000000000E+00  0.19456905200E+04  0.19456905200E+04  0.50400001928E-02 0. -1.
       -1   -1    0    0    0  501  0.00000000000E+00  0.00000000000E+00 -0.62018939709E+03  0.62018939711E+03  0.50400001928E-02 0.  1.
    10030    2    1    2    0    0  0.00000000000E+00  0.00000000000E+00  0.13255011229E+04  0.25658799171E+04  0.21969948844E+04 0.  0.
        1    1    3    3  502    0 -0.47178266233E+03 -0.17078959234E+02  0.18211716172E+04  0.18813656292E+04  0.50400001928E-02 0. -1.
       -1    1    3    3    0  502  0.47178266233E+03  0.17078959234E+02 -0.49567049435E+03  0.68451428789E+03  0.50400001928E-02 0.  1.
</event>
<event>
 5   0  0.1805501E-04  0.1631218E+04  0.7818609E-02  0.8801596E-01
        2   -1    0    0  501    0  0.00000000000E+00  0.00000000000E+00  0.10911906544E+04  0.10911906544E+04  0.25500000920E-02 0. -1.
       -2   -1    0    0    0  501  0.00000000000E+00  0.00000000000E+00 -0.60962605668E+03  0.60962605669E+03  0.25500000920E-02 0.  1.
    10030    2    1    2    0    0  0.00000000000E+00  0.00000000000E+00  0.48156459770E+03  0.17008167111E+04  0.16312182634E+04 0.  0.
        2    1    3    3  502    0 -0.28035753406E+03 -0.15538605489E+03 -0.54119889931E+03  0.62900033512E+03  0.25500000920E-02 0.  1.
       -2    1    3    3    0  502  0.28035753406E+03  0.15538605489E+03  0.10227634970E+04  0.10718163760E+04  0.25500000920E-02 0. -1.
</event>
<event>
 5   0  0.8784659E-05  0.2152163E+04  0.7818609E-02  0.8538607E-01
       -1   -1    0    0    0  501  0.00000000000E+00  0.00000000000E+00  0.49145521219E+03  0.49145521222E+03  0.50400001928E-02 0. -1.
        1   -1    0    0  501    0  0.00000000000E+00  0.00000000000E+00 -0.23561677876E+04  0.23561677876E+04  0.50400001928E-02 0.  1.
    10030    2    1    2    0    0  0.00000000000E+00  0.00000000000E+00 -0.18647125754E+04  0.28476229998E+04  0.21521625775E+04 0.  0.
        4    1    3    3  502    0  0.77265114090E+03  0.10797050871E+03  0.48291316005E+02  0.78165278761E+03  0.12699999809E+01 0. -1.
       -4    1    3    3    0  502 -0.77265114090E+03 -0.10797050871E+03 -0.19130038914E+04  0.20659702122E+04  0.12699999809E+01 0.  1.
</event>
<event>
 5   0  0.1798917E-04  0.2215503E+04  0.7818609E-02  0.8512003E-01
        2   -1    0    0  501    0  0.00000000000E+00  0.00000000000E+00  0.17182404056E+04  0.17182404056E+04  0.25500000920E-02 0.  1.
       -2   -1    0    0    0  501  0.00000000000E+00  0.00000000000E+00 -0.71416833429E+03  0.71416833429E+03  0.25500000920E-02 0. -1.
    10030    2    1    2    0    0  0.00000000000E+00  0.00000000000E+00  0.10040720713E+04  0.24324087399E+04  0.22155025510E+04 0.  0.
        4    1    3    3  502    0 -0.94814538406E+03  0.39527674311E+03  0.95722000305E+03  0.14040993982E+04  0.12699999809E+01 0.  1.
       -4    1    3    3    0  502  0.94814538406E+03 -0.39527674311E+03  0.46852068262E+02  0.10283093417E+04  0.12699999809E+01 0. -1.
</event>
<event>
 5   0  0.8306787E-05  0.2236083E+04  0.7818609E-02  0.8503558E-01
        1   -1    0    0  501    0  0.00000000000E+00  0.00000000000E+00  0.13563695535E+04  0.13563695535E+04  0.50400001928E-02 0. -1.
       -1   -1    0    0    0  501  0.00000000000E+00  0.00000000000E+00 -0.92159006901E+03  0.92159006903E+03  0.50400001928E-02 0.  1.
    10030    2    1    2    0    0  0.00000000000E+00  0.00000000000E+00  0.43477948444E+03  0.22779596225E+04  0.22360829237E+04 0.  0.
        1    1    3    3  502    0  0.38308239097E+02 -0.82347571887E+03  0.98680701845E+03  0.12858335322E+04  0.50400001928E-02 0. -1.
       -1    1    3    3    0  502 -0.38308239097E+02  0.82347571887E+03 -0.55202753401E+03  0.99212609032E+03  0.50400001928E-02 0.  1.
</event>
<event>
 5   0  0.8602414E-05  0.2242447E+04  0.7818609E-02  0.8500966E-01
       -1   -1    0    0    0  501  0.00000000000E+00  0.00000000000E+00  0.89356925324E+03  0.89356925326E+03  0.50400001928E-02 0. -1.
        1   -1    0    0  501    0  0.00000000000E+00  0.00000000000E+00 -0.14068771273E+04  0.14068771273E+04  0.50400001928E-02 0.  1.
    10030    2    1    2    0    0  0.00000000000E+00  0.00000000000E+00 -0.51330787407E+03  0.23004463806E+04  0.22424470064E+04 0.  0.
        3    1    3    3  502    0  0.48604394917E+03 -0.17283556827E+03 -0.12779075539E+04  0.13780996265E+04  0.10100000352E+00 0.  1.
       -3    1    3    3    0  502 -0.48604394917E+03  0.17283556827E+03  0.76459967979E+03  0.92234675406E+03  0.10100000352E+00 0. -1.
</event>
<event>
 5   0  0.1805501E-04  0.2219917E+04  0.7818609E-02  0.8510184E-01
        2   -1    0    0  501    0  0.00000000000E+00  0.00000000000E+00  0.19239674068E+04  0.19239674068E+04  0.25500000920E-02 0. -1.
       -2   -1    0    0    0  501  0.00000000000E+00  0.00000000000E+00 -0.64034762333E+03  0.64034762333E+03  0.25500000920E-02 0.  1.
    10030    2    1    2    0    0  0.00000000000E+00  0.00000000000E+00  0.12836197835E+04  0.25643150301E+04  0.22199170762E+04 0.  0.
        2    1    3    3  502    0 -0.10274321294E+04 -0.26019028504E+02  0.15759511533E+03  0.10397740095E+04  0.25500000920E-02 0.  1.
       -2    1    3    3    0  502  0.10274321294E+04  0.26019028504E+02  0.11260246681E+04  0.15245410206E+04  0.25500000920E-02 0. -1.
</event>
<event>
 5   0  0.1733962E-04  0.2197591E+04  0.7818609E-02  0.8519432E-01
       -2   -1    0    0    0  501  0.00000000000E+00  0.00000000000E+00  0.53161899050E+03  0.53161899050E+03  0.25500000920E-02 0. -1.
        2   -1    0    0  501    0  0.00000000000E+00  0.00000000000E+00 -0.22710837515E+04  0.22710837515E+04  0.25500000920E-02 0.  1.
    10030    2    1    2    0    0  0.00000000000E+00  0.00000000000E+00 -0.17394647610E+04  0.28027027420E+04  0.21975907274E+04 0.  0.
        3    1    3    3  502    0 -0.73160600195E+03 -0.58128853970E+03 -0.13244238387E+03  0.94376093568E+03  0.10100000352E+00 0. -1.
       -3    1    3    3    0  502  0.73160600195E+03  0.58128853970E+03 -0.16070223771E+04  0.18589418063E+04  0.10100000352E+00 0.  1.
</event>
<event>
 5   0  0.1680258E-04  0.2244045E+04  0.7818609E-02  0.8500316E-01
        2   -1    0    0  501    0  0.00000000000E+00  0.00000000000E+00  0.66009826315E+03  0.66009826315E+03  0.25500000920E-02 0. -1.
       -2   -1    0    0    0  501  0.00000000000E+00  0.00000000000E+00 -0.19071932884E+04  0.19071932884E+04  0.25500000920E-02 0.  1.
    10030    2    1    2    0    0  0.00000000000E+00  0.00000000000E+00 -0.12470950253E+04  0.25672915516E+04  0.22440454337E+04 0.  0.
        5    1    3    3  502    0  0.91377613046E+03 -0.31289887114E+03  0.29682171955E+02  0.96633102066E+03  0.46999998093E+01 0. -1.
       -5    1    3    3    0  502 -0.91377613046E+03  0.31289887114E+03 -0.12767771972E+04  0.16009605309E+04  0.46999998093E+01 0.  1.
</event>
<event>
 5   0  0.8784659E-05  0.2327996E+04  0.7818609E-02  0.8466964E-01
        1   -1    0    0  501    0  0.00000000000E+00  0.00000000000E+00  0.14836896520E+04  0.14836896520E+04  0.50400001928E-02 0. -1.
       -1   -1    0    0    0  501  0.00000000000E+00  0.00000000000E+00 -0.91319048562E+03  0.91319048563E+03  0.50400001928E-02 0.  1.
    10030    2    1    2    0    0  0.00000000000E+00  0.00000000000E+00  0.57049916634E+03  0.23968801376E+04  0.23279959397E+04 0.  0.
        4    1    3    3  502    0 -0.69793611654E+02  0.93008840108E+03  0.10022417421E+04  0.13690966747E+04  0.12699999809E+01 0. -1.
       -4    1    3    3    0  502  0.69793611654E+02 -0.93008840108E+03 -0.43174257577E+03  0.10277834629E+04  0.12699999809E+01 0.  1.
</event>
<event>
 5   0  0.8306787E-05  0.2180629E+04  0.7818609E-02  0.8526534E-01
        1   -1    0    0  501    0  0.00000000000E+00  0.00000000000E+00  0.10560986173E+04  0.10560986173E+04  0.50400001928E-02 0.  1.
       -1   -1    0    0    0  501  0.00000000000E+00  0.00000000000E+00 -0.11256390544E+04  0.11256390544E+04  0.50400001928E-02 0. -1.
    10030    2    1    2    0    0  0.00000000000E+00  0.00000000000E+00 -0.69540437096E+02  0.21817376716E+04  0.21806291284E+04 0.  0.
        1    1    3    3  502    0  0.13895111594E+03  0.35420579119E+02  0.10466232694E+04  0.10564006333E+04  0.50400001928E-02 0.  1.
       -1    1    3    3    0  502 -0.13895111594E+03 -0.35420579119E+02 -0.11161637065E+04  0.11253370383E+04  0.50400001928E-02 0. -1.
</event>
<event>
 5   0  0.7954459E-05  0.1824504E+04  0.7818609E-02  0.8693376E-01
        1   -1    0    0  501    0  0.00000000000E+00  0.00000000000E+00  0.99227985356E+03  0.99227985357E+03  0.50400001928E-02 0. -1.
       -1   -1    0    0    0  501  0.00000000000E+00  0.00000000000E+00 -0.83867860088E+03  0.83867860089E+03  0.50400001928E-02 0.  1.
    10030    2    1    2    0    0  0.00000000000E+00  0.00000000000E+00  0.15360125268E+03  0.18309584545E+04  0.18245041839E+04 0.  0.
        5    1    3    3  502    0  0.35754582767E+03  0.53778492978E+03  0.72338582573E+03  0.96972201813E+03  0.46999998093E+01 0. -1.
       -5    1    3    3    0  502 -0.35754582767E+03 -0.53778492978E+03 -0.56978457305E+03  0.86123643633E+03  0.46999998093E+01 0.  1.
</event>
<event>
 5   0  0.1733962E-04  0.2238952E+04  0.7818609E-02  0.8502388E-01
        2   -1    0    0  501    0  0.00000000000E+00  0.00000000000E+00  0.15668723154E+04  0.15668723154E+04  0.25500000920E-02 0.  1.
       -2   -1    0    0    0  501  0.00000000000E+00  0.00000000000E+00 -0.79982669834E+03  0.79982669835E+03  0.25500000920E-02 0. -1.
    10030    2    1    2    0    0  0.00000000000E+00  0.00000000000E+00  0.76704561710E+03  0.23666990138E+04  0.22389518180E+04 0.  0.
        3    1    3    3  502    0 -0.23999652768E+03 -0.59982462146E+03  0.13499284122E+04  0.14965609369E+04  0.10100000352E+00 0.  1.
       -3    1    3    3    0  502  0.23999652768E+03  0.59982462146E+03 -0.58288279506E+03  0.87013807685E+03  0.10100000352E+00 0. -1.
</event>
<event>
 5   0  0.1805501E-04  0.2137580E+04  0.7818609E-02  0.8544868E-01
       -2   -1    0    0    0  501  0.00000000000E+00  0.00000000000E+00  0.82714538532E+03  0.82714538533E+03  0.25500000920E-02 0. -1.
        2   -1    0    0  501    0  0.00000000000E+00  0.00000000000E+00 -0.13810287699E+04  0.13810287699E+04  0.25500000920E-02 0.  1.
    10030    2    1    2    0    0  0.00000000000E+00  0.00000000000E+00 -0.55388338455E+03  0.22081741552E+04  0.21375795414E+04 0.  0.
        2    1    3    3  502    0 -0.79992403340E+03 -0.23430399790E+03  0.41413209515E+03  0.93074282962E+03  0.25500000920E-02 0. -1.
       -2    1    3    3    0  502  0.79992403340E+03  0.23430399790E+03 -0.96801547970E+03  0.12774313256E+04  0.25500000920E-02 0.  1.
</event>
<event>
 5   0  0.8470971E-05  0.2177686E+04  0.7818609E-02  0.8527774E-01
        1   -1    0    0  501    0  0.00000000000E+00  0.00000000000E+00  0.18759330831E+04  0.18759330831E+04  0.50400001928E-02 0.  1.
       -1   -1    0    0    0  501  0.00000000000E+00  0.00000000000E+00 -0.63199405458E+03  0.63199405460E+03  0.50400001928E-02 0. -1.
    10030    2    1    2    0    0  0.00000000000E+00  0.00000000000E+00  0.12439390285E+04  0.25079271377E+04  0.21776855194E+04 0.  0.
        2    1    3    3  502    0 -0.10781726351E+04  0.14410265743E+03  0.56606120617E+03  0.12262328882E+04  0.25500000920E-02 0.  1.
       -2    1    3    3    0  502  0.10781726351E+04 -0.14410265743E+03  0.67787782231E+03  0.12816942494E+04  0.25500000920E-02 0. -1.
</event>
<event>
 5   0  0.8470971E-05  0.2230473E+04  0.7818609E-02  0.8505851E-01
       -1   -1    0    0    0  501  0.00000000000E+00  0.00000000000E+00  0.77976660738E+03  0.77976660740E+03  0.50400001928E-02 0. -1.
        1   -1    0    0  501    0  0.00000000000E+00  0.00000000000E+00 -0.15950317777E+04  0.15950317777E+04  0.50400001928E-02 0.  1.
    10030    2    1    2    0    0  0.00000000000E+00  0.00000000000E+00 -0.81526517033E+03  0.23747983851E+04  0.22304730601E+04 0.  0.
        2    1    3    3  502    0  0.75914053589E+03  0.66350285334E+03 -0.91515482099E+03  0.13616309103E+04  0.25500000920E-02 0.  1.
       -2    1    3    3    0  502 -0.75914053589E+03 -0.66350285334E+03  0.99889650669E+02  0.10131674748E+04  0.25500000920E-02 0. -1.
</event>
<event>
 5   0  0.1754356E-04  0.2170324E+04  0.7818609E-02  0.8530883E-01
       -2   -1    0    0    0  501  0.00000000000E+00  0.00000000000E+00  0.54398150088E+03  0.54398150089E+03  0.25500000920E-02 0. -1.
        2   -1    0    0  501    0  0.00000000000E+00  0.00000000000E+00 -0.21647358327E+04  0.21647358327E+04  0.25500000920E-02 0.  1.
    10030    2    1    2    0    0  0.00000000000E+00  0.00000000000E+00 -0.16207543319E+04  0.27087173336E+04  0.21703237061E+04 0.  0.
        1    1    3    3  502    0 -0.25434246247E+03  0.99878357761E+03 -0.38655191526E+03  0.11007638740E+04  0.50400001928E-02 0.  1.
       -1    1    3    3    0  502  0.25434246247E+03 -0.99878357761E+03 -0.12342024166E+04  0.16079534596E+04  0.50400001928E-02 0. -1.
</event>
<event>
 5   0  0.8602414E-05  0.2077731E+04  0.7818609E-02  0.8571117E-01
       -1   -1    0    0    0  501  0.00000000000E+00  0.00000000000E+00  0.65846516442E+03  0.65846516444E+03  0.50400001928E-02 0. -1.
        1   -1    0    0  501    0  0.00000000000E+00  0.00000000000E+00 -0.16390258580E+04  0.16390258580E+04  0.50400001928E-02 0.  1.
    10030    2    1    2    0    0  0.00000000000E+00  0.00000000000E+00 -0.98056069355E+03  0.22974910224E+04  0.20777309076E+04 0.  0.
        3    1    3    3  502    0 -0.47336838560E+03  0.55892146252E+03 -0.13049333764E+04  0.14964364192E+04  0.10100000352E+00 0. -1.
       -3    1    3    3    0  502  0.47336838560E+03 -0.55892146252E+03  0.32437268282E+03  0.80105460320E+03  0.10100000352E+00 0.  1.
</event>
<event>
 5   0  0.1754356E-04  0.2171052E+04  0.7818609E-02  0.8530574E-01
        2   -1    0    0  501    0  0.00000000000E+00  0.00000000000E+00  0.17476667390E+04  0.17476667390E+04  0.25500000920E-02 0. -1.
       -2   -1    0    0    0  501  0.00000000000E+00  0.00000000000E+00 -0.67425146225E+03  0.67425146225E+03  0.25500000920E-02 0.  1.
    10030    2    1    2    0    0  0.00000000000E+00  0.00000000000E+00  0.10734152768E+04  0.24219182013E+04  0.21710521452E+04 0.  0.
        1    1    3    3  502    0  0.18540815765E+03 -0.76597450024E+03 -0.29605935472E+03  0.84186950383E+03  0.50400001928E-02 0.  1.
       -1    1    3    3    0  502 -0.18540815765E+03  0.76597450024E+03  0.13694746315E+04  0.15800486975E+04  0.50400001928E-02 0. -1.
</event>
<event>
 5   0  0.8470971E-05  0.2181820E+04  0.7818609E-02  0.8526034E-01
       -1   -1    0    0    0  501  0.00000000000E+00  0.00000000000E+00  0.10194198086E+04  0.10194198086E+04  0.50400001928E-02 0. -1.
        1   -1    0    0  501    0  0.00000000000E+00  0.00000000000E+00 -0.11674132093E+04  0.11674132093E+04  0.50400001928E-02 0.  1.
    10030    2    1    2    0    0  0.00000000000E+00  0.00000000000E+00 -0.14799340070E+03  0.21868330180E+04  0.21818195622E+04 0.  0.
        2    1    3    3  502    0  0.11799755062E+03  0.25861896527E+02 -0.11606890507E+04  0.11669581535E+04  0.25500000920E-02 0.  1.
       -2    1    3    3    0  502 -0.11799755062E+03 -0.25861896527E+02  0.10126956500E+04  0.10198748645E+04  0.25500000920E-02 0. -1.
</event>
<event>
 5   0  0.8784659E-05  0.2185586E+04  0.7818609E-02  0.8524451E-01
       -1   -1    0    0    0  501  0.00000000000E+00  0.00000000000E+00  0.80249836294E+03  0.80249836295E+03  0.50400001928E-02 0.  1.
        1   -1    0    0  501    0  0.00000000000E+00  0.00000000000E+00 -0.14880987298E+04  0.14880987298E+04  0.50400001928E-02 0. -1.
    10030    2    1    2    0    0  0.00000000000E+00  0.00000000000E+00 -0.68560036682E+03  0.22905970927E+04  0.21855862322E+04 0.  0.
        4    1    3    3  502    0  0.23184948910E+03 -0.65550779809E+03  0.54076654318E+03  0.88083751400E+03  0.12699999809E+01 0.  1.
       -4    1    3    3    0  502 -0.23184948910E+03  0.65550779809E+03 -0.12263669100E+04  0.14097595787E+04  0.12699999809E+01 0. -1.
</event>
<event>
 5   0  0.1798917E-04  0.2019058E+04  0.7818609E-02  0.8597762E-01
        2   -1    0    0  501    0  0.00000000000E+00  0.00000000000E+00  0.11785715813E+04  0.11785715813E+04  0.25500000920E-02 0.  1.
       -2   -1    0    0    0  501  0.00000000000E+00  0.00000000000E+00 -0.86473199379E+03  0.86473199379E+03  0.25500000920E-02 0. -1.
    10030    2    1    2    0    0  0.00000000000E+00  0.00000000000E+00  0.31383958755E+03  0.20433035751E+04  0.20190577539E+04 0.  0.
        4    1    3    3  502    0 -0.77215808806E+03 -0.59122930595E+03 -0.11719580495E+03  0.97954922019E+03  0.12699999809E+01 0.  1.
       -4    1    3    3    0  502  0.77215808806E+03  0.59122930595E+03  0.43103539249E+03  0.10637543549E+04  0.12699999809E+01 0. -1.
</event>
<event>
 5   0  0.1805501E-04  0.2216423E+04  0.7818609E-02  0.8511623E-01
       -2   -1    0    0    0  501  0.00000000000E+00  0.00000000000E+00  0.65695739812E+03  0.65695739813E+03  0.25500000920E-02 0. -1.
        2   -1    0    0  501    0  0.00000000000E+00  0.00000000000E+00 -0.18694257753E+04  0.18694257753E+04  0.25500000920E-02 0.  1.
    10030    2    1    2    0    0  0.00000000000E+00  0.00000000000E+00 -0.12124683772E+04  0.25263831735E+04  0.22164233290E+04 0.  0.
        2    1    3    3  502    0 -0.24881694826E+03 -0.10617852447E+04 -0.38160824418E+03  0.11553885198E+04  0.25500000920E-02 0.  1.
       -2    1    3    3    0  502  0.24881694826E+03  0.10617852447E+04 -0.83086013302E+03  0.13709946536E+04  0.25500000920E-02 0. -1.
</event>
<event>
 5   0  0.7954459E-05  0.2264225E+04  0.7818609E-02  0.8492162E-01
       -1   -1    0    0    0  501  0.00000000000E+00  0.00000000000E+00  0.86845936425E+03  0.86845936426E+03  0.50400001928E-02 0. -1.
        1   -1    0    0  501    0  0.00000000000E+00  0.00000000000E+00 -0.14758073970E+04  0.14758073970E+04  0.50400001928E-02 0.  1.
    10030    2    1    2    0    0  0.00000000000E+00  0.00000000000E+00 -0.60734803272E+03  0.23442667612E+04  0.22642250363E+04 0.  0.
        5    1    3    3  502    0  0.86336682368E+03  0.26986230914E+03  0.40114711561E+03  0.98952970470E+03  0.46999998093E+01 0. -1.
       -5    1    3    3    0  502 -0.86336682368E+03 -0.26986230914E+03 -0.10084951483E+04  0.13547370565E+04  0.46999998093E+01 0.  1.
</event>
<event>
 5   0  0.1680258E-04  0.2086417E+04  0.7818609E-02  0.8567251E-01
        2   -1    0    0  501    0  0.00000000000E+00  0.00000000000E+00  0.19171546712E+04  0.19171546712E+04  0.25500000920E-02 0.  1.
       -2   -1    0    0    0  501  0.00000000000E+00  0.00000000000E+00 -0.56765576075E+03  0.56765576076E+03  0.25500000920E-02 0. -1.
    10030    2    1    2    0    0  0.00000000000E+00  0.00000000000E+00  0.13494989104E+04  0.24848104319E+04  0.20864169222E+04 0.  0.
        5    1    3    3  502    0 -0.25405556219E+03 -0.55927156972E+03  0.16789176626E+04  0.17877683086E+04  0.46999998093E+01 0.  1.
       -5    1    3    3    0  502  0.25405556219E+03  0.55927156972E+03 -0.32941875221E+03  0.69704212332E+03  0.46999998093E+01 0. -1.
</event>
<event>
 5   0  0.1805501E-04  0.1651099E+04  0.7818609E-02  0.8789757E-01
       -2   -1    0    0    0  501  0.00000000000E+00  0.00000000000E+00  0.27031781741E+03  0.27031781743E+03  0.25500000920E-02 0.  1.
        2   -1    0    0  501    0  0.00000000000E+00  0.00000000000E+00 -0.25212248823E+04  0.25212248823E+04  0.25500000920E-02 0. -1.
    10030    2    1    2    0    0  0.00000000000E+00  0.00000000000E+00 -0.22509070649E+04  0.27915426997E+04  0.16510990369E+04 0.  0.
        2    1    3    3  502    0 -0.30952602800E+03 -0.55999677558E+03 -0.20074335971E+04  0.21069391062E+04  0.25500000920E-02 0. -1.
       -2    1    3    3    0  502  0.30952602800E+03  0.55999677558E+03 -0.24347346778E+03  0.68460359347E+03  0.25500000920E-02 0.  1.
</event>
<event>
 5   0  0.1680258E-04  0.2202219E+04  0.7818609E-02  0.8517505E-01
       -2   -1    0    0    0  501  0.00000000000E+00  0.00000000000E+00  0.14443745853E+04  0.14443745853E+04  0.25500000920E-02 0.  1.
        2   -1    0    0  501    0  0.00000000000E+00  0.00000000000E+00 -0.83942327176E+03  0.83942327177E+03  0.25500000920E-02 0. -1.
    10030    2    1    2    0    0  0.00000000000E+00  0.00000000000E+00  0.60495131352E+03  0.22837978571E+04  0.22022185541E+04 0.  0.
        5    1    3    3  502    0 -0.83703900548E+03 -0.33131468369E+03 -0.35505926469E+03  0.96772562629E+03  0.46999998093E+01 0. -1.
       -5    1    3    3    0  502  0.83703900548E+03  0.33131468369E+03  0.96001057821E+03  0.13160722308E+04  0.46999998093E+01 0.  1.
</event>
<event>
 5   0  0.8602414E-05  0.2159823E+04  0.7818609E-02  0.8535339E-01
        1   -1    0    0  501    0  0.00000000000E+00  0.00000000000E+00  0.68138944729E+03  0.68138944731E+03  0.50400001928E-02 0.  1.
       -1   -1    0    0    0  501  0.00000000000E+00  0.00000000000E+00 -0.17115161244E+04  0.17115161244E+04  0.50400001928E-02 0. -1.
    10030    2    1    2    0    0  0.00000000000E+00  0.00000000000E+00 -0.10301266771E+04  0.23929055717E+04  0.21598231650E+04 0.  0.
        3    1    3    3  502    0 -0.66379980202E+03  0.49869824653E+03  0.25002471107E+03  0.86708851024E+03  0.10100000352E+00 0.  1.
       -3    1    3    3    0  502  0.66379980202E+03 -0.49869824653E+03 -0.12801513882E+04  0.15258170615E+04  0.10100000352E+00 0. -1.
</event>
<event>
 5   0  0.1754356E-04  0.2239350E+04  0.7818609E-02  0.8502226E-01
       -2   -1    0    0    0  501  0.00000000000E+00  0.00000000000E+00  0.58490497110E+03  0.58490497111E+03  0.25500000920E-02 0. -1.
        2   -1    0    0  501    0  0.00000000000E+00  0.00000000000E+00 -0.21433775874E+04  0.21433775874E+04  0.25500000920E-02 0.  1.
    10030    2    1    2    0    0  0.00000000000E+00  0.00000000000E+00 -0.15584726163E+04  0.27282825585E+04  0.22393500895E+04 0.  0.
        1    1    3    3  502    0 -0.63268134288E+03  0.68251945099E+03 -0.20775212748E+02  0.93088672356E+03  0.50400001928E-02 0. -1.
       -1    1    3    3    0  502  0.63268134288E+03 -0.68251945099E+03 -0.15376974036E+04  0.17973958350E+04  0.50400001928E-02 0.  1.
</event>
<event>
 5   0  0.8602414E-05  0.2221611E+04  0.7818609E-02  0.8509487E-01
       -1   -1    0    0    0  501  0.00000000000E+00  0.00000000000E+00  0.78338727219E+03  0.78338727221E+03  0.50400001928E-02 0. -1.
        1   -1    0    0  501    0  0.00000000000E+00  0.00000000000E+00 -0.15750691131E+04  0.15750691131E+04  0.50400001928E-02 0.  1.
    10030    2    1    2    0    0  0.00000000000E+00  0.00000000000E+00 -0.79168184091E+03  0.23584563853E+04  0.22216112136E+04 0.  0.
        3    1    3    3  502    0 -0.87265042546E+03 -0.33449657058E+03 -0.10332258670E+04  0.13931842747E+04  0.10100000352E+00 0.  1.
       -3    1    3    3    0  502  0.87265042546E+03  0.33449657058E+03  0.24154402611E+03  0.96527211062E+03  0.10100000352E+00 0. -1.
</event>
<event>
 5   0  0.1805501E-04  0.2160627E+04  0.7818609E-02  0.8534997E-01
       -2   -1    0    0    0  501  0.00000000000E+00  0.00000000000E+00  0.68767878414E+03  0.68767878414E+03  0.25500000920E-02 0.  1.
        2   -1    0    0  501    0  0.00000000000E+00  0.00000000000E+00 -0.16971263517E+04  0.16971263517E+04  0.25500000920E-02 0. -1.
    10030    2    1    2    0    0  0.00000000000E+00  0.00000000000E+00 -0.10094475676E+04  0.23848051358E+04  0.21606274886E+04 0.  0.
        2    1    3    3  502    0 -0.29875075398E+03  0.76171255065E+03  0.27388950445E+03  0.86282876834E+03  0.25500000920E-02 0.  1.
       -2    1    3    3    0  502  0.29875075398E+03 -0.76171255065E+03 -0.12833370720E+04  0.15219763675E+04  0.25500000920E-02 0. -1.
</event>
<event>
 5   0  0.1733962E-04  0.1672636E+04  0.7818609E-02  0.8777127E-01
        2   -1    0    0  501    0  0.00000000000E+00  0.00000000000E+00  0.23762266756E+04  0.23762266756E+04  0.25500000920E-02 0. -1.
       -2   -1    0    0    0  501  0.00000000000E+00  0.00000000000E+00 -0.29434402557E+03  0.29434402558E+03  0.25500000920E-02 0.  1.
    10030    2    1    2    0    0  0.00000000000E+00  0.00000000000E+00  0.20818826500E+04  0.26705707012E+04  0.16726363925E+04 0.  0.
        3    1    3    3  502    0  0.13086613777E+03 -0.36808875797E+02 -0.27658494010E+03  0.30818838174E+03  0.10100000352E+00 0.  1.
       -3    1    3    3    0  502 -0.13086613777E+03  0.36808875797E+02  0.23584675901E+04  0.23623823194E+04  0.10100000352E+00 0. -1.
</event>
<event>
 5   0  0.1754356E-04  0.1404998E+04  0.7818609E-02  0.8950208E-01
        2   -1    0    0  501    0  0.00000000000E+00  0.00000000000E+00  0.64751806923E+03  0.64751806924E+03  0.25500000920E-02 0.  1.
       -2   -1    0    0    0  501  0.00000000000E+00  0.00000000000E+00 -0.76214879057E+03  0.76214879057E+03  0.25500000920E-02 0. -1.
    10030    2    1    2    0    0  0.00000000000E+00  0.00000000000E+00 -0.11463072134E+03  0.14096668598E+04  0.14049983820E+04 0.  0.
        1    1    3    3  502    0 -0.18276506776E+03 -0.10246073669E+03 -0.73006840563E+03  0.75954009077E+03  0.50400001928E-02 0. -1.
       -1    1    3    3    0  502  0.18276506776E+03  0.10246073669E+03  0.61543768429E+03  0.65012676905E+03  0.50400001928E-02 0.  1.
</event>
<event>
 5   0  0.1680258E-04  0.1521549E+04  0.7818609E-02  0.8870248E-01
       -2   -1    0    0    0  501  0.00000000000E+00  0.00000000000E+00  0.40848844786E+03  0.40848844787E+03  0.25500000920E-02 0.  1.
        2   -1    0    0  501    0  0.00000000000E+00  0.00000000000E+00 -0.14168773241E+04  0.14168773241E+04  0.25500000920E-02 0. -1.
    10030    2    1    2    0    0  0.00000000000E+00  0.00000000000E+00 -0.10083888762E+04  0.18253657720E+04  0.15215492354E+04 0.  0.
        5    1    3    3  502    0  0.27493194310E+03 -0.42121903389E+03 -0.11888960640E+04  0.12909333789E+04  0.46999998093E+01 0. -1.
       -5    1    3    3    0  502 -0.27493194310E+03  0.42121903389E+03  0.18050718780E+03  0.53443239301E+03  0.46999998093E+01 0.  1.
</event>
<event>
 5   0  0.8784659E-05  0.2202105E+04  0.7818609E-02  0.8517553E-01
       -1   -1    0    0    0  501  0.00000000000E+00  0.00000000000E+00  0.66049935373E+03  0.66049935375E+03  0.50400001928E-02 0. -1.
        1   -1    0    0  501    0  0.00000000000E+00  0.00000000000E+00 -0.18354542094E+04  0.18354542094E+04  0.50400001928E-02 0.  1.
    10030    2    1    2    0    0  0.00000000000E+00  0.00000000000E+00 -0.11749548557E+04  0.24959535631E+04  0.22021047379E+04 0.  0.
        4    1    3    3  502    0 -0.93776221017E+03 -0.55435959852E+03 -0.40611931244E+03  0.11626035593E+04  0.12699999809E+01 0. -1.
       -4    1    3    3    0  502  0.93776221017E+03  0.55435959852E+03 -0.76883554321E+03  0.13333500038E+04  0.12699999809E+01 0.  1.
</event>
<event>
 5   0  0.7954459E-05  0.2181269E+04  0.7818609E-02  0.8526265E-01
        1   -1    0    0  501    0  0.00000000000E+00  0.00000000000E+00  0.13972271741E+04  0.13972271741E+04  0.50400001928E-02 0.  1.
       -1   -1    0    0    0  501  0.00000000000E+00  0.00000000000E+00 -0.85131691480E+03  0.85131691481E+03  0.50400001928E-02 0. -1.
    10030    2    1    2    0    0  0.00000000000E+00  0.00000000000E+00  0.54591025927E+03  0.22485440889E+04  0.21812685549E+04 0.  0.
        5    1    3    3  502    0  0.36179295904E+03 -0.41667850188E+03 -0.69677442984E+03  0.88883733901E+03  0.46999998093E+01 0. -1.
       -5    1    3    3    0  502 -0.36179295904E+03  0.41667850188E+03  0.12426846891E+04  0.13597067499E+04  0.46999998093E+01 0.  1.
</event>
<event>
 5   0  0.1798917E-04  0.2244262E+04  0.7818609E-02  0.8500228E-01
       -2   -1    0    0    0  501  0.00000000000E+00  0.00000000000E+00  0.10274040051E+04  0.10274040051E+04  0.25500000920E-02 0.  1.
        2   -1    0    0  501    0  0.00000000000E+00  0.00000000000E+00 -0.12255917235E+04  0.12255917235E+04  0.25500000920E-02 0. -1.
    10030    2    1    2    0    0  0.00000000000E+00  0.00000000000E+00 -0.19818771839E+03  0.22529957285E+04  0.22442618789E+04 0.  0.
        4    1    3    3  502    0  0.22644597884E+03  0.10559445272E+04 -0.40504143692E+03  0.11534109434E+04  0.12699999809E+01 0. -1.
       -4    1    3    3    0  502 -0.22644597884E+03 -0.10559445272E+04  0.20685371853E+03  0.10995847851E+04  0.12699999809E+01 0.  1.
</event>
<event>
 5   0  0.8784659E-05  0.2222340E+04  0.7818609E-02  0.8509187E-01
       -1   -1    0    0    0  501  0.00000000000E+00  0.00000000000E+00  0.11042425709E+04  0.11042425709E+04  0.50400001928E-02 0.  1.
        1   -1    0    0  501    0  0.00000000000E+00  0.00000000000E+00 -0.11181410421E+04  0.11181410421E+04  0.50400001928E-02 0. -1.
    10030    2    1    2    0    0  0.00000000000E+00  0.00000000000E+00 -0.13898471185E+02  0.22223836130E+04  0.22223401531E+04 0.  0.
        4    1    3    3  502    0 -0.18834244991E+03  0.50478914322E+03 -0.97877705298E+03  0.11172694795E+04  0.12699999809E+01 0. -1.
       -4    1    3    3    0  502  0.18834244991E+03 -0.50478914322E+03  0.96487858180E+03  0.11051141335E+04  0.12699999809E+01 0.  1.
</event>
<event>
 5   0  0.8602414E-05  0.2242709E+04  0.7818609E-02  0.8500859E-01
        1   -1    0    0  501    0  0.00000000000E+00  0.00000000000E+00  0.14439834196E+04  0.14439834196E+04  0.50400001928E-02 0. -1.
       -1   -1    0    0    0  501  0.00000000000E+00  0.00000000000E+00 -0.87081062898E+03  0.87081062899E+03  0.50400001928E-02 0.  1.
    10030    2    1    2    0    0  0.00000000000E+00  0.00000000000E+00  0.57317279060E+03  0.23147940486E+04  0.22427091741E+04 0.  0.
        3    1    3    3  502    0 -0.71044787750E+03 -0.54109422151E+03  0.98655588173E+03  0.13307184755E+04  0.10100000352E+00 0. -1.
       -3    1    3    3    0  502  0.71044787750E+03  0.54109422151E+03 -0.41338309113E+03  0.98407557303E+03  0.10100000352E+00 0.  1.
</event>
<event>
 5   0  0.1754356E-04  0.2183338E+04  0.7818609E-02  0.8525395E-01
        2   -1    0    0  501    0  0.00000000000E+00  0.00000000000E+00  0.16313522805E+04  0.16313522805E+04  0.25500000920E-02 0.  1.
       -2   -1    0    0    0  501  0.00000000000E+00  0.00000000000E+00 -0.73052364367E+03  0.73052364367E+03  0.25500000920E-02 0. -1.
    10030    2    1    2    0    0  0.00000000000E+00  0.00000000000E+00  0.90082863685E+03  0.23618759242E+04  0.21833381892E+04 0.  0.
        1    1    3    3  502    0 -0.84318483098E+03 -0.61668580915E+03  0.10750877155E+03  0.10501524567E+04  0.50400001928E-02 0. -1.
       -1    1    3    3    0  502  0.84318483098E+03  0.61668580915E+03  0.79331986529E+03  0.13117234675E+04  0.50400001928E-02 0.  1.
</event>
<event>
 5   0  0.7954459E-05  0.2225365E+04  0.7818609E-02  0.8507944E-01
        1   -1    0    0  501    0  0.00000000000E+00  0.00000000000E+00  0.14608386389E+04  0.14608386389E+04  0.50400001928E-02 0.  1.
       -1   -1    0    0    0  501  0.00000000000E+00  0.00000000000E+00 -0.84750080310E+03  0.84750080311E+03  0.50400001928E-02 0. -1.
    10030    2    1    2    0    0  0.00000000000E+00  0.00000000000E+00  0.61333783577E+03  0.23083394420E+04  0.22253646170E+04 0.  0.
        5    1    3    3  502    0 -0.86179559112E+03  0.67278388375E+03  0.52103864503E+03  0.12111288762E+04  0.46999998093E+01 0.  1.
       -5    1    3    3    0  502  0.86179559112E+03 -0.67278388375E+03  0.92299190743E+02  0.10972105658E+04  0.46999998093E+01 0. -1.
</event>
<event>
 5   0  0.1798917E-04  0.2174138E+04  0.7818609E-02  0.8529270E-01
        2   -1    0    0  501    0  0.00000000000E+00  0.00000000000E+00  0.27636395909E+04  0.27636395909E+04  0.25500000920E-02 0.  1.
       -2   -1    0    0    0  501  0.00000000000E+00  0.00000000000E+00 -0.42759529002E+03  0.42759529003E+03  0.25500000920E-02 0. -1.
    10030    2    1    2    0    0  0.00000000000E+00  0.00000000000E+00  0.23360443009E+04  0.31912348809E+04  0.21741382407E+04 0.  0.
        4    1    3    3  502    0 -0.56530279980E+03  0.39233488483E+03 -0.67233520254E+02  0.69138692240E+03  0.12699999809E+01 0. -1.
       -4    1    3    3    0  502  0.56530279980E+03 -0.39233488483E+03  0.24032778211E+04  0.24998479585E+04  0.12699999809E+01 0.  1.
</event>
<event>
 5   0  0.1754356E-04  0.1846376E+04  0.7818609E-02  0.8682019E-01
        2   -1    0    0  501    0  0.00000000000E+00  0.00000000000E+00  0.11608863449E+04  0.11608863449E+04  0.25500000920E-02 0. -1.
       -2   -1    0    0    0  501  0.00000000000E+00  0.00000000000E+00 -0.73415962023E+03  0.73415962024E+03  0.25500000920E-02 0.  1.
    10030    2    1    2    0    0  0.00000000000E+00  0.00000000000E+00  0.42672672469E+03  0.18950459652E+04  0.18463757777E+04 0.  0.
        1    1    3    3  502    0  0.33285027740E+03 -0.28913301892E+03 -0.61912056496E+03  0.76006413135E+03  0.50400001928E-02 0.  1.
       -1    1    3    3    0  502 -0.33285027740E+03  0.28913301892E+03  0.10458472896E+04  0.11349818338E+04  0.50400001928E-02 0. -1.
</event>
<event>
 5   0  0.1733962E-04  0.2106441E+04  0.7818609E-02  0.8558412E-01
       -2   -1    0    0    0  501  0.00000000000E+00  0.00000000000E+00  0.98919702685E+03  0.98919702686E+03  0.25500000920E-02 0.  1.
        2   -1    0    0  501    0  0.00000000000E+00  0.00000000000E+00 -0.11213872922E+04  0.11213872922E+04  0.25500000920E-02 0. -1.
    10030    2    1    2    0    0  0.00000000000E+00  0.00000000000E+00 -0.13219026530E+03  0.21105843190E+04  0.21064405763E+04 0.  0.
        3    1    3    3  502    0  0.81911534625E+03 -0.10679844696E+03  0.58857913905E+03  0.10142885545E+04  0.10100000352E+00 0.  1.
       -3    1    3    3    0  502 -0.81911534625E+03  0.10679844696E+03 -0.72076940436E+03  0.10962957645E+04  0.10100000352E+00 0. -1.
</event>
<event>
 5   0  0.1805501E-04  0.2160786E+04  0.7818609E-02  0.8534929E-01
       -2   -1    0    0    0  501  0.00000000000E+00  0.00000000000E+00  0.73955457535E+03  0.73955457535E+03  0.25500000920E-02 0.  1.
        2   -1    0    0  501    0  0.00000000000E+00  0.00000000000E+00 -0.15783140502E+04  0.15783140502E+04  0.25500000920E-02 0. -1.
    10030    2    1    2    0    0  0.00000000000E+00  0.00000000000E+00 -0.83875947488E+03  0.23178686256E+04  0.21607863172E+04 0.  0.
        2    1    3    3  502    0  0.76503132645E+03 -0.85784776916E+02  0.39376225454E+03  0.86468530201E+03  0.25500000920E-02 0. -1.
       -2    1    3    3    0  502 -0.76503132645E+03  0.85784776916E+02 -0.12325217294E+04  0.14531833236E+04  0.25500000920E-02 0.  1.
</event>
<event>
 5   0  0.1754356E-04  0.2164887E+04  0.7818609E-02  0.8533187E-01
        2   -1    0    0  501    0  0.00000000000E+00  0.00000000000E+00  0.10887860773E+04  0.10887860773E+04  0.25500000920E-02 0.  1.
       -2   -1    0    0    0  501  0.00000000000E+00  0.00000000000E+00 -0.10761379375E+04  0.10761379375E+04  0.25500000920E-02 0. -1.
    10030    2    1    2    0    0  0.00000000000E+00  0.00000000000E+00  0.12648139801E+02  0.21649240149E+04  0.21648870674E+04 0.  0.
        1    1    3    3  502    0  0.89039422184E+03  0.53795845010E+03 -0.29281785915E+03  0.10807143300E+04  0.50400001928E-02 0. -1.
       -1    1    3    3    0  502 -0.89039422184E+03 -0.53795845010E+03  0.30546599895E+03  0.10842096849E+04  0.50400001928E-02 0.  1.
</event>
<event>
 5   0  0.1680258E-04  0.1934987E+04  0.7818609E-02  0.8637635E-01
       -2   -1    0    0    0  501  0.00000000000E+00  0.00000000000E+00  0.50998318755E+03  0.50998318756E+03  0.25500000920E-02 0. -1.
        2   -1    0    0  501    0  0.00000000000E+00  0.00000000000E+00 -0.18354399253E+04  0.18354399253E+04  0.25500000920E-02 0.  1.
    10030    2    1    2    0    0  0.00000000000E+00  0.00000000000E+00 -0.13254567378E+04  0.23454231129E+04  0.19349868255E+04 0.  0.
        5    1    3    3  502    0  0.54761286614E+03  0.60278028149E+03 -0.12958153416E+04  0.15304846973E+04  0.46999998093E+01 0.  1.
       -5    1    3    3    0  502 -0.54761286614E+03 -0.60278028149E+03 -0.29641396151E+02  0.81493841564E+03  0.46999998093E+01 0. -1.
</event>
<event>
 5   0  0.1805501E-04  0.1848782E+04  0.7818609E-02  0.8680779E-01
        2   -1    0    0  501    0  0.00000000000E+00  0.00000000000E+00  0.14097206168E+04  0.14097206168E+04  0.25500000920E-02 0.  1.
       -2   -1    0    0    0  501  0.00000000000E+00  0.00000000000E+00 -0.60614769052E+03  0.60614769053E+03  0.25500000920E-02 0. -1.
    10030    2    1    2    0    0  0.00000000000E+00  0.00000000000E+00  0.80357292631E+03  0.20158683074E+04  0.18487821896E+04 0.  0.
        2    1    3    3  502    0 -0.17731227865E+03 -0.31407261917E+03  0.13298354855E+04  0.13778765085E+04  0.25500000920E-02 0.  1.
       -2    1    3    3    0  502  0.17731227865E+03  0.31407261917E+03 -0.52626255914E+03  0.63799179887E+03  0.25500000920E-02 0. -1.
</event>
<event>
 5   0  0.8602414E-05  0.2195873E+04  0.7818609E-02  0.8520148E-01
       -1   -1    0    0    0  501  0.00000000000E+00  0.00000000000E+00  0.11210347316E+04  0.11210347316E+04  0.50400001928E-02 0.  1.
        1   -1    0    0  501    0  0.00000000000E+00  0.00000000000E+00 -0.10753144487E+04  0.10753144487E+04  0.50400001928E-02 0. -1.
    10030    2    1    2    0    0  0.00000000000E+00  0.00000000000E+00  0.45720282890E+02  0.21963491804E+04  0.21958732609E+04 0.  0.
        3    1    3    3  502    0  0.95544077526E+02 -0.37130562672E+03  0.10519020046E+04  0.11195956308E+04  0.10100000352E+00 0.  1.
       -3    1    3    3    0  502 -0.95544077526E+02  0.37130562672E+03 -0.10061817217E+04  0.10767535495E+04  0.10100000352E+00 0. -1.
</event>
<event>
 5   0  0.8306787E-05  0.2003236E+04  0.7818609E-02  0.8605109E-01
        1   -1    0    0  501    0  0.00000000000E+00  0.00000000000E+00  0.15323575663E+04  0.15323575663E+04  0.50400001928E-02 0. -1.
       -1   -1    0    0    0  501  0.00000000000E+00  0.00000000000E+00 -0.65470294874E+03  0.65470294876E+03  0.50400001928E-02 0.  1.
    10030    2    1    2    0    0  0.00000000000E+00  0.00000000000E+00  0.87765461757E+03  0.21870605151E+04  0.20032363987E+04 0.  0.
        1    1    3    3  502    0  0.34511595358E+03 -0.44902114604E+03 -0.46312667547E+03  0.73158138889E+03  0.50400001928E-02 0.  1.
       -1    1    3    3    0  502 -0.34511595358E+03  0.44902114604E+03  0.13407812930E+04  0.14554791262E+04  0.50400001928E-02 0. -1.
</event>
<event>
 5   0  0.1798917E-04  0.2129204E+04  0.7818609E-02  0.8548487E-01
        2   -1    0    0  501    0  0.00000000000E+00  0.00000000000E+00  0.21584514371E+04  0.21584514371E+04  0.25500000920E-02 0. -1.
       -2   -1    0    0    0  501  0.00000000000E+00  0.00000000000E+00 -0.52508844418E+03  0.52508844418E+03  0.25500000920E-02 0.  1.
    10030    2    1    2    0    0  0.00000000000E+00  0.00000000000E+00  0.16333629929E+04  0.26835398812E+04  0.21292044589E+04 0.  0.
        4    1    3    3  502    0 -0.56158360443E+03  0.90354240334E+03  0.76609023927E+03  0.13109770734E+04  0.12699999809E+01 0.  1.
       -4    1    3    3    0  502  0.56158360443E+03 -0.90354240334E+03  0.86727275362E+03  0.13725628078E+04  0.12699999809E+01 0. -1.
</event>
<event>
 5   0  0.1680258E-04  0.2244025E+04  0.7818609E-02  0.8500324E-01
        2   -1    0    0  501    0  0.00000000000E+00  0.00000000000E+00  0.13424342079E+04  0.13424342079E+04  0.25500000920E-02 0. -1.
       -2   -1    0    0    0  501  0.00000000000E+00  0.00000000000E+00 -0.93778303864E+03  0.93778303864E+03  0.25500000920E-02 0.  1.
    10030    2    1    2    0    0  0.00000000000E+00  0.00000000000E+00  0.40465116924E+03  0.22802172465E+04  0.22440249826E+04 0.  0.
        5    1    3    3  502    0  0.65673489746E+02  0.70376078985E+03  0.10877562851E+04  0.12972386374E+04  0.46999998093E+01 0. -1.
       -5    1    3    3    0  502 -0.65673489746E+02 -0.70376078985E+03 -0.68310511589E+03  0.98297860910E+03  0.46999998093E+01 0.  1.
</event>
<event>
 5   0  0.1680258E-04  0.2174880E+04  0.7818609E-02  0.8528957E-01
       -2   -1    0    0    0  501  0.00000000000E+00  0.00000000000E+00  0.84127710137E+03  0.84127710137E+03  0.25500000920E-02 0.  1.
        2   -1    0    0  501    0  0.00000000000E+00  0.00000000000E+00 -0.14056312270E+04  0.14056312270E+04  0.25500000920E-02 0. -1.
    10030    2    1    2    0    0  0.00000000000E+00  0.00000000000E+00 -0.56435412563E+03  0.22469083284E+04  0.21748796420E+04 0.  0.
        5    1    3    3  502    0  0.61345130434E+03 -0.47308280193E+02  0.64414641926E+03  0.89079025343E+03  0.46999998093E+01 0.  1.
       -5    1    3    3    0  502 -0.61345130434E+03  0.47308280193E+02 -0.12085005449E+04  0.13561180749E+04  0.46999998093E+01 0. -1.
</event>
<event>
 5   0  0.8784659E-05  0.2200390E+04  0.7818609E-02  0.8518266E-01
       -1   -1    0    0    0  501  0.00000000000E+00  0.00000000000E+00  0.63557124112E+03  0.63557124114E+03  0.50400001928E-02 0.  1.
        1   -1    0    0  501    0  0.00000000000E+00  0.00000000000E+00 -0.19044746873E+04  0.19044746873E+04  0.50400001928E-02 0. -1.
    10030    2    1    2    0    0  0.00000000000E+00  0.00000000000E+00 -0.12689034461E+04  0.25400459284E+04  0.22003902751E+04 0.  0.
        4    1    3    3  502    0 -0.55753465962E+03 -0.88013028297E+03 -0.10425042704E+04  0.14738693899E+04  0.12699999809E+01 0. -1.
       -4    1    3    3    0  502  0.55753465962E+03  0.88013028297E+03 -0.22639917575E+03  0.10661765386E+04  0.12699999809E+01 0.  1.
</event>
<event>
 5   0  0.7954459E-05  0.2147248E+04  0.7818609E-02  0.8540711E-01
        1   -1    0    0  501    0  0.00000000000E+00  0.00000000000E+00  0.94625892531E+03  0.94625892532E+03  0.50400001928E-02 0. -1.
       -1   -1    0    0    0  501  0.00000000000E+00  0.00000000000E+00 -0.12181326283E+04  0.12181326283E+04  0.50400001928E-02 0.  1.
    10030    2    1    2    0    0  0.00000000000E+00  0.00000000000E+00 -0.27187370301E+03  0.21643915536E+04  0.21472483524E+04 0.  0.
        5    1    3    3  502    0 -0.54162976604E+03 -0.34964524400E+03  0.72942307119E+03  0.97349612577E+03  0.46999998093E+01 0. -1.
       -5    1    3    3    0  502  0.54162976604E+03  0.34964524400E+03 -0.10012967742E+04  0.11908954279E+04  0.46999998093E+01 0.  1.
</event>
<event>
 5   0  0.1754356E-04  0.2246420E+04  0.7818609E-02  0.8499352E-01
        2   -1    0    0  501    0  0.00000000000E+00  0.00000000000E+00  0.93855964169E+03  0.93855964169E+03  0.25500000920E-02 0. -1.
       -2   -1    0    0    0  501  0.00000000000E+00  0.00000000000E+00 -0.13441876168E+04  0.13441876168E+04  0.25500000920E-02 0.  1.
    10030    2    1    2    0    0  0.00000000000E+00  0.00000000000E+00 -0.40562797514E+03  0.22827472585E+04  0.22464195940E+04 0.  0.
        1    1    3    3  502    0  0.11084341335E+04 -0.68903804673E+02 -0.37353768798E+03  0.11717100183E+04  0.50400001928E-02 0.  1.
       -1    1    3    3    0  502 -0.11084341335E+04  0.68903804673E+02 -0.32090287160E+02  0.11110372402E+04  0.50400001928E-02 0. -1.
</event>
<event>
 5   0  0.1798917E-04  0.2071526E+04  0.7818609E-02  0.8573891E-01
        2   -1    0    0  501    0  0.00000000000E+00  0.00000000000E+00  0.13407865026E+04  0.13407865026E+04  0.25500000920E-02 0. -1.
       -2   -1    0    0    0  501  0.00000000000E+00  0.00000000000E+00 -0.80013143903E+03  0.80013143903E+03  0.25500000920E-02 0.  1.
    10030    2    1    2    0    0  0.00000000000E+00  0.00000000000E+00  0.54065506354E+03  0.21409179416E+04  0.20715264263E+04 0.  0.
        4    1    3    3  502    0 -0.27360312599E+03  0.49998802032E+03  0.11641430633E+04  0.12961779877E+04  0.12699999809E+01 0. -1.
       -4    1    3    3    0  502  0.27360312599E+03 -0.49998802032E+03 -0.62348799976E+03  0.84473995393E+03  0.12699999809E+01 0.  1.
</event>
<event>
 5   0  0.1805501E-04  0.2280401E+04  0.7818609E-02  0.8485689E-01
        2   -1    0    0  501    0  0.00000000000E+00  0.00000000000E+00  0.23471634591E+04  0.23471634591E+04  0.25500000920E-02 0. -1.
       -2   -1    0    0    0  501  0.00000000000E+00  0.00000000000E+00 -0.55388455337E+03  0.55388455337E+03  0.25500000920E-02 0.  1.
    10030    2    1    2    0    0  0.00000000000E+00  0.00000000000E+00  0.17932789058E+04  0.29010480125E+04  0.22804013544E+04 0.  0.
        2    1    3    3  502    0 -0.43292016465E+03  0.10535818313E+04  0.96154533348E+03  0.14906454886E+04  0.25500000920E-02 0.  1.
       -2    1    3    3    0  502  0.43292016465E+03 -0.10535818313E+04  0.83173357229E+03  0.14104025239E+04  0.25500000920E-02 0. -1.
</event>
<event>
 5   0  0.1805501E-04  0.1841466E+04  0.7818609E-02  0.8684554E-01
       -2   -1    0    0    0  501  0.00000000000E+00  0.00000000000E+00  0.41069735521E+03  0.41069735521E+03  0.25500000920E-02 0. -1.
        2   -1    0    0  501    0  0.00000000000E+00  0.00000000000E+00 -0.20641703270E+04  0.20641703270E+04  0.25500000920E-02 0.  1.
    10030    2    1    2    0    0  0.00000000000E+00  0.00000000000E+00 -0.16534729718E+04  0.24748676822E+04  0.18414660399E+04 0.  0.
        2    1    3    3  502    0  0.42834674861E+03  0.41665065301E+03  0.11468321947E+03  0.60846605866E+03  0.25500000920E-02 0. -1.
       -2    1    3    3    0  502 -0.42834674861E+03 -0.41665065301E+03 -0.17681561913E+04  0.18664016236E+04  0.25500000920E-02 0.  1.
</event>
<event>
 5   0  0.6250625E-05  0.1618843E+04  0.7818609E-02  0.8809055E-01
       -4   -1    0    0    0  501  0.00000000000E+00  0.00000000000E+00  0.34061689953E+03  0.34061926713E+03  0.12699999809E+01 0.  1.
        4   -1    0    0  501    0  0.00000000000E+00  0.00000000000E+00 -0.19234519894E+04  0.19234524086E+04  0.12699999809E+01 0. -1.
    10030    2    1    2    0    0  0.00000000000E+00  0.00000000000E+00 -0.15828350898E+04  0.22640716758E+04  0.16188433004E+04 0.  0.
        5    1    3    3  502    0 -0.28275250502E+03  0.74565908680E+03 -0.59770188367E+03  0.99660728703E+03  0.46999998093E+01 0.  1.
       -5    1    3    3    0  502  0.28275250502E+03 -0.74565908680E+03 -0.98513320617E+03  0.12674643887E+04  0.46999998093E+01 0. -1.
</event>
<event>
 5   0  0.8602414E-05  0.2189860E+04  0.7818609E-02  0.8522661E-01
        1   -1    0    0  501    0  0.00000000000E+00  0.00000000000E+00  0.80162809440E+03  0.80162809442E+03  0.50400001928E-02 0.  1.
       -1   -1    0    0    0  501  0.00000000000E+00  0.00000000000E+00 -0.14955457700E+04  0.14955457700E+04  0.50400001928E-02 0. -1.
    10030    2    1    2    0    0  0.00000000000E+00  0.00000000000E+00 -0.69391767558E+03  0.22971738644E+04  0.21898598181E+04 0.  0.
        3    1    3    3  502    0  0.38117924601E+03 -0.64780341964E+03  0.48825245352E+03  0.89629088842E+03  0.10100000352E+00 0.  1.
       -3    1    3    3    0  502 -0.38117924601E+03  0.64780341964E+03 -0.11821701291E+04  0.14008829760E+04  0.10100000352E+00 0. -1.
</event>
<event>
 5   0  0.1680258E-04  0.2226373E+04  0.7818609E-02  0.8507531E-01
       -2   -1    0    0    0  501  0.00000000000E+00  0.00000000000E+00  0.12034015801E+04  0.12034015801E+04  0.25500000920E-02 0. -1.
        2   -1    0    0  501    0  0.00000000000E+00  0.00000000000E+00 -0.10297342444E+04  0.10297342444E+04  0.25500000920E-02 0.  1.
    10030    2    1    2    0    0  0.00000000000E+00  0.00000000000E+00  0.17366733566E+03  0.22331358245E+04  0.22263726703E+04 0.  0.
        5    1    3    3  502    0  0.10547303677E+04  0.12803101286E+03  0.41997757883E+03  0.11424759716E+04  0.46999998093E+01 0. -1.
       -5    1    3    3    0  502 -0.10547303677E+04 -0.12803101286E+03 -0.24631024317E+03  0.10906598529E+04  0.46999998093E+01 0.  1.
</event>
<event>
 5   0  0.1754356E-04  0.2185290E+04  0.7818609E-02  0.8524576E-01
        2   -1    0    0  501    0  0.00000000000E+00  0.00000000000E+00  0.15743902012E+04  0.15743902012E+04  0.25500000920E-02 0.  1.
       -2   -1    0    0    0  501  0.00000000000E+00  0.00000000000E+00 -0.75830848220E+03  0.75830848221E+03  0.25500000920E-02 0. -1.
    10030    2    1    2    0    0  0.00000000000E+00  0.00000000000E+00  0.81608171896E+03  0.23326986834E+04  0.21852903183E+04 0.  0.
        1    1    3    3  502    0  0.49384748392E+03  0.93773898563E+03  0.12434337516E+03  0.10670993475E+04  0.50400001928E-02 0.  1.
       -1    1    3    3    0  502 -0.49384748392E+03 -0.93773898563E+03  0.69173834380E+03  0.12655993358E+04  0.50400001928E-02 0. -1.
</event>
<event>
 5   0  0.8784659E-05  0.2119331E+04  0.7818609E-02  0.8552775E-01
        1   -1    0    0  501    0  0.00000000000E+00  0.00000000000E+00  0.18423119294E+04  0.18423119294E+04  0.50400001928E-02 0.  1.
       -1   -1    0    0    0  501  0.00000000000E+00  0.00000000000E+00 -0.60950102074E+03  0.60950102076E+03  0.50400001928E-02 0. -1.
    10030    2    1    2    0    0  0.00000000000E+00  0.00000000000E+00  0.12328109087E+04  0.24518129502E+04  0.21193310280E+04 0.  0.
        4    1    3    3  502    0  0.50837261145E+03  0.89549386819E+03  0.90571214580E+03  0.13713745236E+04  0.12699999809E+01 0. -1.
       -4    1    3    3    0  502 -0.50837261145E+03 -0.89549386819E+03  0.32709876287E+03  0.10804384266E+04  0.12699999809E+01 0.  1.
</event>
<event>
 5   0  0.8602414E-05  0.2130693E+04  0.7818609E-02  0.8547842E-01
        1   -1    0    0  501    0  0.00000000000E+00  0.00000000000E+00  0.11809848559E+04  0.11809848559E+04  0.50400001928E-02 0.  1.
       -1   -1    0    0    0  501  0.00000000000E+00  0.00000000000E+00 -0.96103120126E+03  0.96103120127E+03  0.50400001928E-02 0. -1.
    10030    2    1    2    0    0  0.00000000000E+00  0.00000000000E+00  0.21995365464E+03  0.21420160572E+04  0.21306931217E+04 0.  0.
        3    1    3    3  502    0  0.96131916736E+03  0.43839477571E+03 -0.27272545593E+02  0.10569145296E+04  0.10100000352E+00 0. -1.
       -3    1    3    3    0  502 -0.96131916736E+03 -0.43839477571E+03  0.24722620023E+03  0.10851015276E+04  0.10100000352E+00 0.  1.
</event>
<event>
 5   0  0.1680258E-04  0.2151137E+04  0.7818609E-02  0.8539046E-01
        2   -1    0    0  501    0  0.00000000000E+00  0.00000000000E+00  0.11313004642E+04  0.11313004642E+04  0.25500000920E-02 0. -1.
       -2   -1    0    0    0  501  0.00000000000E+00  0.00000000000E+00 -0.10225817652E+04  0.10225817652E+04  0.25500000920E-02 0.  1.
    10030    2    1    2    0    0  0.00000000000E+00  0.00000000000E+00  0.10871869898E+03  0.21538822293E+04  0.21511366536E+04 0.  0.
        5    1    3    3  502    0  0.28462812849E+03 -0.86371307809E+03  0.62938467235E+03  0.11059659166E+04  0.46999998093E+01 0.  1.
       -5    1    3    3    0  502 -0.28462812849E+03  0.86371307809E+03 -0.52066597337E+03  0.10479163128E+04  0.46999998093E+01 0. -1.
</event>
<event>
 5   0  0.1680258E-04  0.2166888E+04  0.7818609E-02  0.8532338E-01
        2   -1    0    0  501    0  0.00000000000E+00  0.00000000000E+00  0.61573142869E+03  0.61573142870E+03  0.25500000920E-02 0. -1.
       -2   -1    0    0    0  501  0.00000000000E+00  0.00000000000E+00 -0.19064334975E+04  0.19064334975E+04  0.25500000920E-02 0.  1.
    10030    2    1    2    0    0  0.00000000000E+00  0.00000000000E+00 -0.12907020688E+04  0.25221649262E+04  0.21668881108E+04 0.  0.
        5    1    3    3  502    0 -0.14431859195E+03 -0.10709896354E+04 -0.55532456538E+03  0.12150119827E+04  0.46999998093E+01 0. -1.
       -5    1    3    3    0  502  0.14431859195E+03  0.10709896354E+04 -0.73537750346E+03  0.13071529435E+04  0.46999998093E+01 0.  1.
</event>
<event>
 5   0  0.1805501E-04  0.2270831E+04  0.7818609E-02  0.8489512E-01
       -2   -1    0    0    0  501  0.00000000000E+00  0.00000000000E+00  0.92465201715E+03  0.92465201715E+03  0.25500000920E-02 0.  1.
        2   -1    0    0  501    0  0.00000000000E+00  0.00000000000E+00 -0.13942202907E+04  0.13942202907E+04  0.25500000920E-02 0. -1.
    10030    2    1    2    0    0  0.00000000000E+00  0.00000000000E+00 -0.46956827357E+03  0.23188723079E+04  0.22708312171E+04 0.  0.
        2    1    3    3  502    0 -0.99214485234E+02 -0.29007554644E+03 -0.13511559617E+04  0.13854998267E+04  0.25500000920E-02 0. -1.
       -2    1    3    3    0  502  0.99214485234E+02  0.29007554644E+03  0.88158768817E+03  0.93337248120E+03  0.25500000920E-02 0.  1.
</event>
<event>
 5   0  0.1798917E-04  0.1453224E+04  0.7818609E-02  0.8916169E-01
       -2   -1    0    0    0  501  0.00000000000E+00  0.00000000000E+00  0.52757327344E+03  0.52757327345E+03  0.25500000920E-02 0.  1.
        2   -1    0    0  501    0  0.00000000000E+00  0.00000000000E+00 -0.10007421848E+04  0.10007421848E+04  0.25500000920E-02 0. -1.
    10030    2    1    2    0    0  0.00000000000E+00  0.00000000000E+00 -0.47316891132E+03  0.15283154582E+04  0.14532237684E+04 0.  0.
        4    1    3    3  502    0  0.61184167003E+03 -0.15283411937E+03  0.14297275687E+03  0.64664620878E+03  0.12699999809E+01 0.  1.
       -4    1    3    3    0  502 -0.61184167003E+03  0.15283411937E+03 -0.61614166819E+03  0.88166924944E+03  0.12699999809E+01 0. -1.
</event>
<event>
 5   0  0.8306787E-05  0.2232393E+04  0.7818609E-02  0.8505065E-01
       -1   -1    0    0    0  501  0.00000000000E+00  0.00000000000E+00  0.68819575157E+03  0.68819575159E+03  0.50400001928E-02 0.  1.
        1   -1    0    0  501    0  0.00000000000E+00  0.00000000000E+00 -0.18103774559E+04  0.18103774560E+04  0.50400001928E-02 0. -1.
    10030    2    1    2    0    0  0.00000000000E+00  0.00000000000E+00 -0.11221817044E+04  0.24985732075E+04  0.22323925049E+04 0.  0.
        1    1    3    3  502    0  0.62104659419E+03  0.22029430975E+03  0.44725635100E+03  0.79640862539E+03  0.50400001928E-02 0.  1.
       -1    1    3    3    0  502 -0.62104659419E+03 -0.22029430975E+03 -0.15694380554E+04  0.17021645822E+04  0.50400001928E-02 0. -1.
</event>
<event>
 5   0  0.8306787E-05  0.2183673E+04  0.7818609E-02  0.8525255E-01
       -1   -1    0    0    0  501  0.00000000000E+00  0.00000000000E+00  0.14037894472E+04  0.14037894472E+04  0.50400001928E-02 0.  1.
        1   -1    0    0  501    0  0.00000000000E+00  0.00000000000E+00 -0.84920657304E+03  0.84920657305E+03  0.50400001928E-02 0. -1.
    10030    2    1    2    0    0  0.00000000000E+00  0.00000000000E+00  0.55458287420E+03  0.22529960203E+04  0.21836732592E+04 0.  0.
        1    1    3    3  502    0  0.95096136769E+02  0.10682001591E+03 -0.83950071578E+03  0.85159570387E+03  0.50400001928E-02 0. -1.
       -1    1    3    3    0  502 -0.95096136769E+02 -0.10682001591E+03  0.13940835900E+04  0.14014003164E+04  0.50400001928E-02 0.  1.
</event>
<event>
 5   0  0.7954459E-05  0.1894364E+04  0.7818609E-02  0.8657667E-01
        1   -1    0    0  501    0  0.00000000000E+00  0.00000000000E+00  0.13597642669E+04  0.13597642670E+04  0.50400001928E-02 0.  1.
       -1   -1    0    0    0  501  0.00000000000E+00  0.00000000000E+00 -0.65978588576E+03  0.65978588578E+03  0.50400001928E-02 0. -1.
    10030    2    1    2    0    0  0.00000000000E+00  0.00000000000E+00  0.69997838118E+03  0.20195501527E+04  0.18943635040E+04 0.  0.
        5    1    3    3  502    0  0.61406240046E+03 -0.69366884206E+03  0.56020535591E+03  0.10826362385E+04  0.46999998093E+01 0. -1.
       -5    1    3    3    0  502 -0.61406240046E+03  0.69366884206E+03  0.13977302528E+03  0.93691391424E+03  0.46999998093E+01 0.  1.
</event>
<event>
 5   0  0.1754356E-04  0.1942324E+04  0.7818609E-02  0.8634071E-01
        2   -1    0    0  501    0  0.00000000000E+00  0.00000000000E+00  0.18639773411E+04  0.18639773411E+04  0.25500000920E-02 0. -1.
       -2   -1    0    0    0  501  0.00000000000E+00  0.00000000000E+00 -0.50599069607E+03  0.50599069607E+03  0.25500000920E-02 0.  1.
    10030    2    1    2    0    0  0.00000000000E+00  0.00000000000E+00  0.13579866450E+04  0.23699680372E+04  0.19423235490E+04 0.  0.
        1    1    3    3  502    0  0.44257495074E+03 -0.67963819621E+03  0.13308145743E+04  0.15584762096E+04  0.50400001928E-02 0.  1.
       -1    1    3    3    0  502 -0.44257495074E+03  0.67963819621E+03  0.27172070761E+02  0.81149182758E+03  0.50400001928E-02 0. -1.
</event>
<event>
 5   0  0.1798917E-04  0.2241601E+04  0.7818609E-02  0.8501310E-01
       -2   -1    0    0    0  501  0.00000000000E+00  0.00000000000E+00  0.56418150908E+03  0.56418150908E+03  0.25500000920E-02 0.  1.
        2   -1    0    0  501    0  0.00000000000E+00  0.00000000000E+00 -0.22265778593E+04  0.22265778593E+04  0.25500000920E-02 0. -1.
    10030    2    1    2    0    0  0.00000000000E+00  0.00000000000E+00 -0.16623963502E+04  0.27907593683E+04  0.22416012640E+04 0.  0.
        4    1    3    3  502    0  0.93794392363E+03 -0.54696630795E+03 -0.11772983303E+04  0.16015442290E+04  0.12699999809E+01 0. -1.
       -4    1    3    3    0  502 -0.93794392363E+03  0.54696630795E+03 -0.48509801988E+03  0.11892151394E+04  0.12699999809E+01 0.  1.
</event>
<event>
 5   0  0.8784659E-05  0.2174893E+04  0.7818609E-02  0.8528952E-01
        1   -1    0    0  501    0  0.00000000000E+00  0.00000000000E+00  0.19044536558E+04  0.19044536558E+04  0.50400001928E-02 0. -1.
       -1   -1    0    0    0  501  0.00000000000E+00  0.00000000000E+00 -0.62093365327E+03  0.62093365329E+03  0.50400001928E-02 0.  1.
    10030    2    1    2    0    0  0.00000000000E+00  0.00000000000E+00  0.12835200025E+04  0.25253873091E+04  0.21748925178E+04 0.  0.
        4    1    3    3  502    0 -0.78679499949E+03 -0.31808849569E+03  0.14312694839E+04  0.16639593176E+04  0.12699999809E+01 0. -1.
       -4    1    3    3    0  502  0.78679499949E+03  0.31808849569E+03 -0.14774948137E+03  0.86142799145E+03  0.12699999809E+01 0.  1.
</event>
<event>
 5   0  0.7954459E-05  0.2410858E+04  0.7818609E-02  0.8435450E-01
       -1   -1    0    0    0  501  0.00000000000E+00  0.00000000000E+00  0.16837281701E+04  0.16837281701E+04  0.50400001928E-02 0.  1.
        1   -1    0    0  501    0  0.00000000000E+00  0.00000000000E+00 -0.86300113822E+03  0.86300113823E+03  0.50400001928E-02 0. -1.
    10030    2    1    2    0    0  0.00000000000E+00  0.00000000000E+00  0.82072703187E+03  0.25467293083E+04  0.24108582101E+04 0.  0.
        5    1    3    3  502    0 -0.61504794650E+02  0.11077358263E+04  0.90828335630E+03  0.14338278300E+04  0.46999998093E+01 0.  1.
       -5    1    3    3    0  502  0.61504794650E+02 -0.11077358263E+04 -0.87556324429E+02  0.11129014784E+04  0.46999998093E+01 0. -1.
</event>
<event>
 5   0  0.1754356E-04  0.2191144E+04  0.7818609E-02  0.8522123E-01
        2   -1    0    0  501    0  0.00000000000E+00  0.00000000000E+00  0.14566788966E+04  0.14566788966E+04  0.25500000920E-02 0.  1.
       -2   -1    0    0    0  501  0.00000000000E+00  0.00000000000E+00 -0.82398243798E+03  0.82398243798E+03  0.25500000920E-02 0. -1.
    10030    2    1    2    0    0  0.00000000000E+00  0.00000000000E+00  0.63269645865E+03  0.22806613346E+04  0.21911438370E+04 0.  0.
        1    1    3    3  502    0  0.64019732135E+03  0.15814556760E+03 -0.59427442982E+03  0.88770756941E+03  0.50400001928E-02 0. -1.
       -1    1    3    3    0  502 -0.64019732135E+03 -0.15814556760E+03  0.12269708885E+04  0.13929537652E+04  0.50400001928E-02 0.  1.
</event>
<event>
 5   0  0.8602414E-05  0.2135748E+04  0.7818609E-02  0.8545658E-01
        1   -1    0    0  501    0  0.00000000000E+00  0.00000000000E+00  0.12904585546E+04  0.12904585546E+04  0.50400001928E-02 0.  1.
       -1   -1    0    0    0  501  0.00000000000E+00  0.00000000000E+00 -0.88368180032E+03  0.88368180033E+03  0.50400001928E-02 0. -1.
    10030    2    1    2    0    0  0.00000000000E+00  0.00000000000E+00  0.40677675427E+03  0.21741403549E+04  0.21357478679E+04 0.  0.
        3    1    3    3  502    0 -0.21527166789E+03  0.87592376869E+03  0.78530256134E+03  0.11959450082E+04  0.10100000352E+00 0.  1.
       -3    1    3    3    0  502  0.21527166789E+03 -0.87592376869E+03 -0.37852580707E+03  0.97819534674E+03  0.10100000352E+00 0. -1.
</event>
<event>
 5   0  0.1805501E-04  0.2208056E+04  0.7818609E-02  0.8515082E-01
       -2   -1    0    0    0  501  0.00000000000E+00  0.00000000000E+00  0.71217498129E+03  0.71217498130E+03  0.25500000920E-02 0.  1.
        2   -1    0    0  501    0  0.00000000000E+00  0.00000000000E+00 -0.17114869764E+04  0.17114869764E+04  0.25500000920E-02 0. -1.
    10030    2    1    2    0    0  0.00000000000E+00  0.00000000000E+00 -0.99931199514E+03  0.24236619577E+04  0.22080563448E+04 0.  0.
        2    1    3    3  502    0 -0.20680804810E+03  0.52024835692E+03 -0.15441217381E+04  0.16424797910E+04  0.25500000920E-02 0. -1.
       -2    1    3    3    0  502  0.20680804810E+03 -0.52024835692E+03  0.54480974297E+03  0.78118216677E+03  0.25500000920E-02 0.  1.
</event>
<event>
 5   0  0.1805501E-04  0.2239708E+04  0.7818609E-02  0.8502080E-01
       -2   -1    0    0    0  501  0.00000000000E+00  0.00000000000E+00  0.80962857467E+03  0.80962857468E+03  0.25500000920E-02 0. -1.
        2   -1    0    0  501    0  0.00000000000E+00  0.00000000000E+00 -0.15489482935E+04  0.15489482935E+04  0.25500000920E-02 0.  1.
    10030    2    1    2    0    0  0.00000000000E+00  0.00000000000E+00 -0.73931971882E+03  0.23585768682E+04  0.22397078373E+04 0.  0.
        2    1    3    3  502    0 -0.88478787784E+03 -0.32167906414E+03 -0.10082651615E+04  0.13794657099E+04  0.25500000920E-02 0. -1.
       -2    1    3    3    0  502  0.88478787784E+03  0.32167906414E+03  0.26894544263E+03  0.97911115824E+03  0.25500000920E-02 0.  1.
</event>
<event>
 5   0  0.1798917E-04  0.2176318E+04  0.7818609E-02  0.8528350E-01
        2   -1    0    0  501    0  0.00000000000E+00  0.00000000000E+00  0.10194913371E+04  0.10194913371E+04  0.25500000920E-02 0. -1.
       -2   -1    0    0    0  501  0.00000000000E+00  0.00000000000E+00 -0.11614520467E+04  0.11614520468E+04  0.25500000920E-02 0.  1.
    10030    2    1    2    0    0  0.00000000000E+00  0.00000000000E+00 -0.14196070968E+03  0.21809433838E+04  0.21763182673E+04 0.  0.
        4    1    3    3  502    0 -0.91559312947E+03 -0.47843504038E+03 -0.41358088973E+03  0.11127720485E+04  0.12699999809E+01 0.  1.
       -4    1    3    3    0  502  0.91559312947E+03  0.47843504038E+03  0.27162018006E+03  0.10681713354E+04  0.12699999809E+01 0. -1.
</event>
<event>
 5   0  0.1680258E-04  0.2247876E+04  0.7818609E-02  0.8498761E-01
        2   -1    0    0  501    0  0.00000000000E+00  0.00000000000E+00  0.11576521116E+04  0.11576521117E+04  0.25500000920E-02 0.  1.
       -2   -1    0    0    0  501  0.00000000000E+00  0.00000000000E+00 -0.10912053743E+04  0.10912053743E+04  0.25500000920E-02 0. -1.
    10030    2    1    2    0    0  0.00000000000E+00  0.00000000000E+00  0.66446737314E+02  0.22488574860E+04  0.22478756245E+04 0.  0.
        5    1    3    3  502    0  0.51941434316E+03 -0.35506677642E+03 -0.89849993516E+03  0.10968992201E+04  0.46999998093E+01 0. -1.
       -5    1    3    3    0  502 -0.51941434316E+03  0.35506677642E+03  0.96494667248E+03  0.11519582659E+04  0.46999998093E+01 0.  1.
</event>
<event>
 5   0  0.1754356E-04  0.2129372E+04  0.7818609E-02  0.8548414E-01
       -2   -1    0    0    0  501  0.00000000000E+00  0.00000000000E+00  0.72842284576E+03  0.72842284577E+03  0.25500000920E-02 0. -1.
        2   -1    0    0  501    0  0.00000000000E+00  0.00000000000E+00 -0.15561785414E+04  0.15561785414E+04  0.25500000920E-02 0.  1.
    10030    2    1    2    0    0  0.00000000000E+00  0.00000000000E+00 -0.82775569559E+03  0.22846013871E+04  0.21293717399E+04 0.  0.
        1    1    3    3  502    0 -0.92039773256E+03 -0.52073652014E+03 -0.28135201966E+03  0.10942839981E+04  0.50400001928E-02 0. -1.
       -1    1    3    3    0  502  0.92039773256E+03  0.52073652014E+03 -0.54640367594E+03  0.11903173890E+04  0.50400001928E-02 0.  1.
</event>
<event>
 5   0  0.1680258E-04  0.2197244E+04  0.7818609E-02  0.8519576E-01
       -2   -1    0    0    0  501  0.00000000000E+00  0.00000000000E+00  0.72409305130E+03  0.72409305131E+03  0.25500000920E-02 0. -1.
        2   -1    0    0  501    0  0.00000000000E+00  0.00000000000E+00 -0.16668724155E+04  0.16668724155E+04  0.25500000920E-02 0.  1.
    10030    2    1    2    0    0  0.00000000000E+00  0.00000000000E+00 -0.94277936424E+03  0.23909654669E+04  0.21972443956E+04 0.  0.
        5    1    3    3  502    0 -0.62714302016E+03  0.71894405481E+03 -0.10641749691E+04  0.14292233473E+04  0.46999998093E+01 0. -1.
       -5    1    3    3    0  502  0.62714302016E+03 -0.71894405481E+03  0.12139560482E+03  0.96174211956E+03  0.46999998093E+01 0.  1.
</event>
<event>
 5   0  0.8784659E-05  0.2209296E+04  0.7818609E-02  0.8514569E-01
        1   -1    0    0  501    0  0.00000000000E+00  0.00000000000E+00  0.96267074777E+03  0.96267074778E+03  0.50400001928E-02 0.  1.
       -1   -1    0    0    0  501  0.00000000000E+00  0.00000000000E+00 -0.12675639358E+04  0.12675639359E+04  0.50400001928E-02 0. -1.
    10030    2    1    2    0    0  0.00000000000E+00  0.00000000000E+00 -0.30489318808E+03  0.22302346836E+04  0.22092955637E+04 0.  0.
        4    1    3    3  502    0  0.10357235343E+04 -0.77507728684E+02  0.22730280501E+03  0.10632021753E+04  0.12699999809E+01 0.  1.
       -4    1    3    3    0  502 -0.10357235343E+04  0.77507728684E+02 -0.53219599308E+03  0.11670325083E+04  0.12699999809E+01 0. -1.
</event>
<event>
 5   0  0.7954459E-05  0.2199433E+04  0.7818609E-02  0.8518664E-01
        1   -1    0    0  501    0  0.00000000000E+00  0.00000000000E+00  0.17295213573E+04  0.17295213573E+04  0.50400001928E-02 0. -1.
       -1   -1    0    0    0  501  0.00000000000E+00  0.00000000000E+00 -0.69925498316E+03  0.69925498318E+03  0.50400001928E-02 0.  1.
    10030    2    1    2    0    0  0.00000000000E+00  0.00000000000E+00  0.10302663741E+04  0.24287763405E+04  0.21994330429E+04 0.  0.
        5    1    3    3  502    0  0.70135442830E+03 -0.17590872813E+03 -0.39982443317E+03  0.82627088905E+03  0.46999998093E+01 0.  1.
       -5    1    3    3    0  502 -0.70135442830E+03  0.17590872813E+03  0.14300908073E+04  0.16025054514E+04  0.46999998093E+01 0. -1.
</event>
<event>
 5   0  0.1798917E-04  0.2172068E+04  0.7818609E-02  0.8530145E-01
       -2   -1    0    0    0  501  0.00000000000E+00  0.00000000000E+00  0.98382225482E+03  0.98382225483E+03  0.25500000920E-02 0.  1.
        2   -1    0    0  501    0  0.00000000000E+00  0.00000000000E+00 -0.11988647673E+04  0.11988647673E+04  0.25500000920E-02 0. -1.
    10030    2    1    2    0    0  0.00000000000E+00  0.00000000000E+00 -0.21504251247E+03  0.21826870221E+04  0.21720679903E+04 0.  0.
        4    1    3    3  502    0  0.91789131342E+03 -0.48011488241E+03 -0.43535763613E+03  0.11236425801E+04  0.12699999809E+01 0.  1.
       -4    1    3    3    0  502 -0.91789131342E+03  0.48011488241E+03  0.22031512367E+03  0.10590444420E+04  0.12699999809E+01 0. -1.
</event>
<event>
 5   0  0.1805501E-04  0.2227731E+04  0.7818609E-02  0.8506974E-01
        2   -1    0    0  501    0  0.00000000000E+00  0.00000000000E+00  0.17242446842E+04  0.17242446842E+04  0.25500000920E-02 0. -1.
       -2   -1    0    0    0  501  0.00000000000E+00  0.00000000000E+00 -0.71955943001E+03  0.71955943002E+03  0.25500000920E-02 0.  1.
    10030    2    1    2    0    0  0.00000000000E+00  0.00000000000E+00  0.10046852542E+04  0.24438041142E+04  0.22277311527E+04 0.  0.
        2    1    3    3  502    0  0.82019592485E+03 -0.11784607404E+03  0.13189114196E+04  0.15576059787E+04  0.25500000920E-02 0. -1.
       -2    1    3    3    0  502 -0.82019592485E+03  0.11784607404E+03 -0.31422616539E+03  0.88619813548E+03  0.25500000920E-02 0.  1.
</event>
<event>
 5   0  0.7954459E-05  0.2538486E+04  0.7818609E-02  0.8389401E-01
       -1   -1    0    0    0  501  0.00000000000E+00  0.00000000000E+00  0.13142155036E+04  0.13142155036E+04  0.50400001928E-02 0. -1.
        1   -1    0    0  501    0  0.00000000000E+00  0.00000000000E+00 -0.12258097493E+04  0.12258097493E+04  0.50400001928E-02 0.  1.
    10030    2    1    2    0    0  0.00000000000E+00  0.00000000000E+00  0.88405754369E+02  0.25400252529E+04  0.25384863025E+04 0.  0.
        5    1    3    3  502    0  0.59966577667E+03 -0.32401464476E+03  0.11155393994E+04  0.13073005681E+04  0.46999998093E+01 0. -1.
       -5    1    3    3    0  502 -0.59966577667E+03  0.32401464476E+03 -0.10271336450E+04  0.12327246848E+04  0.46999998093E+01 0.  1.
</event>
<event>
 5   0  0.8470971E-05  0.2105865E+04  0.7818609E-02  0.8558664E-01
        1   -1    0    0  501    0  0.00000000000E+00  0.00000000000E+00  0.12911363188E+04  0.12911363188E+04  0.50400001928E-02 0.  1.
       -1   -1    0    0    0  501  0.00000000000E+00  0.00000000000E+00 -0.85867496043E+03  0.85867496044E+03  0.50400001928E-02 0. -1.
    10030    2    1    2    0    0  0.00000000000E+00  0.00000000000E+00  0.43246135840E+03  0.21498112793E+04  0.21058645992E+04 0.  0.
        2    1    3    3  502    0 -0.85451506673E+03 -0.47261680718E+03 -0.18582026538E+03  0.99402807643E+03  0.25500000920E-02 0. -1.
       -2    1    3    3    0  502  0.85451506673E+03  0.47261680718E+03  0.61828162379E+03  0.11557832029E+04  0.25500000920E-02 0.  1.
</event>
<event>
 5   0  0.1680258E-04  0.2222078E+04  0.7818609E-02  0.8509295E-01
        2   -1    0    0  501    0  0.00000000000E+00  0.00000000000E+00  0.60900918737E+03  0.60900918737E+03  0.25500000920E-02 0. -1.
       -2   -1    0    0    0  501  0.00000000000E+00  0.00000000000E+00 -0.20269109656E+04  0.20269109656E+04  0.25500000920E-02 0.  1.
    10030    2    1    2    0    0  0.00000000000E+00  0.00000000000E+00 -0.14179017782E+04  0.26359201530E+04  0.22220777664E+04 0.  0.
        5    1    3    3  502    0 -0.23930999782E+03  0.92219339212E+03 -0.30948536698E+02  0.95325223811E+03  0.46999998093E+01 0. -1.
       -5    1    3    3    0  502  0.23930999782E+03 -0.92219339212E+03 -0.13869532415E+04  0.16826679149E+04  0.46999998093E+01 0.  1.
</event>
<event>
 5   0  0.8470971E-05  0.1980538E+04  0.7818609E-02  0.8615774E-01
        1   -1    0    0  501    0  0.00000000000E+00  0.00000000000E+00  0.81138850774E+03  0.81138850775E+03  0.50400001928E-02 0.  1.
       -1   -1    0    0    0  501  0.00000000000E+00  0.00000000000E+00 -0.12085853281E+04  0.12085853281E+04  0.50400001928E-02 0. -1.
    10030    2    1    2    0    0  0.00000000000E+00  0.00000000000E+00 -0.39719682039E+03  0.20199738359E+04  0.19805375491E+04 0.  0.
        2    1    3    3  502    0 -0.92544662498E+03  0.28680513833E+03 -0.40742796495E+03  0.10510500415E+04  0.25500000920E-02 0.  1.
       -2    1    3    3    0  502  0.92544662498E+03 -0.28680513833E+03  0.10231144560E+02  0.96892379442E+03  0.25500000920E-02 0. -1.
</event>
<event>
 5   0  0.8602414E-05  0.2108034E+04  0.7818609E-02  0.8557713E-01
       -1   -1    0    0    0  501  0.00000000000E+00  0.00000000000E+00  0.11308540673E+04  0.11308540673E+04  0.50400001928E-02 0. -1.
        1   -1    0    0  501    0  0.00000000000E+00  0.00000000000E+00 -0.98240060981E+03  0.98240060983E+03  0.50400001928E-02 0.  1.
    10030    2    1    2    0    0  0.00000000000E+00  0.00000000000E+00  0.14845345746E+03  0.21132546771E+04  0.21080338947E+04 0.  0.
        3    1    3    3  502    0  0.38045207216E+03 -0.90924059354E+03 -0.30018114676E+03  0.10303256608E+04  0.10100000352E+00 0.  1.
       -3    1    3    3    0  502 -0.38045207216E+03  0.90924059354E+03  0.44863460422E+03  0.10829290164E+04  0.10100000352E+00 0. -1.
</event>
<event>
 5   0  0.8306787E-05  0.1439402E+04  0.7818609E-02  0.8925781E-01
        1   -1    0    0  501    0  0.00000000000E+00  0.00000000000E+00  0.16686716955E+04  0.16686716955E+04  0.50400001928E-02 0.  1.
       -1   -1    0    0    0  501  0.00000000000E+00  0.00000000000E+00 -0.31040844780E+03  0.31040844784E+03  0.50400001928E-02 0. -1.
    10030    2    1    2    0    0  0.00000000000E+00  0.00000000000E+00  0.13582632477E+04  0.19790801433E+04  0.14394023634E+04 0.  0.
        1    1    3    3  502    0 -0.21785668575E+02  0.71927214720E+03  0.69555925767E+03  0.10008145273E+04  0.50400001928E-02 0.  1.
       -1    1    3    3    0  502  0.21785668575E+02 -0.71927214720E+03  0.66270398998E+03  0.97826561600E+03  0.50400001928E-02 0. -1.
</event>
<event>
 5   0  0.1754356E-04  0.2393126E+04  0.7818609E-02  0.8442081E-01
       -2   -1    0    0    0  501  0.00000000000E+00  0.00000000000E+00  0.94575482833E+03  0.94575482833E+03  0.25500000920E-02 0. -1.
        2   -1    0    0  501    0  0.00000000000E+00  0.00000000000E+00 -0.15138841537E+04  0.15138841537E+04  0.25500000920E-02 0.  1.
    10030    2    1    2    0    0  0.00000000000E+00  0.00000000000E+00 -0.56812932540E+03  0.24596389821E+04  0.23931261964E+04 0.  0.
        1    1    3    3  502    0  0.24822475201E+03  0.62408448553E+03  0.73374457164E+03  0.99472512234E+03  0.50400001928E-02 0. -1.
       -1    1    3    3    0  502 -0.24822475201E+03 -0.62408448553E+03 -0.13018738970E+04  0.14649138597E+04  0.50400001928E-02 0.  1.
</event>
<event>
 5   0  0.1733962E-04  0.2212634E+04  0.7818609E-02  0.8513188E-01
       -2   -1    0    0    0  501  0.00000000000E+00  0.00000000000E+00  0.14061856200E+04  0.14061856200E+04  0.25500000920E-02 0. -1.
        2   -1    0    0  501    0  0.00000000000E+00  0.00000000000E+00 -0.87039516094E+03  0.87039516095E+03  0.25500000920E-02 0.  1.
    10030    2    1    2    0    0  0.00000000000E+00  0.00000000000E+00  0.53579045905E+03  0.22765807809E+04  0.22126338685E+04 0.  0.
        3    1    3    3  502    0  0.64944455854E+03 -0.41604671149E+02  0.11884182127E+04  0.13549343312E+04  0.10100000352E+00 0. -1.
       -3    1    3    3    0  502 -0.64944455854E+03  0.41604671149E+02 -0.65262775368E+03  0.92164644976E+03  0.10100000352E+00 0.  1.
</event>
<event>
 5   0  0.1680258E-04  0.2177318E+04  0.7818609E-02  0.8527928E-01
        2   -1    0    0  501    0  0.00000000000E+00  0.00000000000E+00  0.12544917989E+04  0.12544917989E+04  0.25500000920E-02 0.  1.
       -2   -1    0    0    0  501  0.00000000000E+00  0.00000000000E+00 -0.94474814175E+03  0.94474814175E+03  0.25500000920E-02 0. -1.
    10030    2    1    2    0    0  0.00000000000E+00  0.00000000000E+00  0.30974365717E+03  0.21992399407E+04  0.21773183468E+04 0.  0.
        5    1    3    3  502    0 -0.15246406866E+03 -0.10772053678E+04  0.11523377246E+03  0.10940372978E+04  0.46999998093E+01 0.  1.
       -5    1    3    3    0  502  0.15246406866E+03  0.10772053678E+04  0.19450988471E+03  0.11052026429E+04  0.46999998093E+01 0. -1.
</event>
<event>
 5   0  0.1798917E-04  0.2210809E+04  0.7818609E-02  0.8513943E-01
        2   -1    0    0  501    0  0.00000000000E+00  0.00000000000E+00  0.11074754044E+04  0.11074754044E+04  0.25500000920E-02 0. -1.
       -2   -1    0    0    0  501  0.00000000000E+00  0.00000000000E+00 -0.11033370273E+04  0.11033370273E+04  0.25500000920E-02 0.  1.
    10030    2    1    2    0    0  0.00000000000E+00  0.00000000000E+00  0.41383770531E+01  0.22108124317E+04  0.22108085585E+04 0.  0.
        4    1    3    3  502    0  0.89141101151E+03 -0.62373882190E+03 -0.19351565825E+03  0.11050401044E+04  0.12699999809E+01 0.  1.
       -4    1    3    3    0  502 -0.89141101151E+03  0.62373882190E+03  0.19765403530E+03  0.11057723274E+04  0.12699999809E+01 0. -1.
</event>
<event>
 5   0  0.1754356E-04  0.2199470E+04  0.7818609E-02  0.8518649E-01
       -2   -1    0    0    0  501  0.00000000000E+00  0.00000000000E+00  0.63066039077E+03  0.63066039077E+03  0.25500000920E-02 0.  1.
        2   -1    0    0  501    0  0.00000000000E+00  0.00000000000E+00 -0.19176986041E+04  0.19176986041E+04  0.25500000920E-02 0. -1.
    10030    2    1    2    0    0  0.00000000000E+00  0.00000000000E+00 -0.12870382134E+04  0.25483589949E+04  0.21994695279E+04 0.  0.
        1    1    3    3  502    0 -0.60154209565E+03 -0.66737699460E+03  0.91245724643E+02  0.90308954598E+03  0.50400001928E-02 0.  1.
       -1    1    3    3    0  502  0.60154209565E+03  0.66737699460E+03 -0.13782839380E+04  0.16452694489E+04  0.50400001928E-02 0. -1.
</event>
<event>
 5   0  0.8470971E-05  0.2209959E+04  0.7818609E-02  0.8514294E-01
       -1   -1    0    0    0  501  0.00000000000E+00  0.00000000000E+00  0.82018051689E+03  0.82018051690E+03  0.50400001928E-02 0.  1.
        1   -1    0    0  501    0  0.00000000000E+00  0.00000000000E+00 -0.14886725100E+04  0.14886725100E+04  0.50400001928E-02 0. -1.
    10030    2    1    2    0    0  0.00000000000E+00  0.00000000000E+00 -0.66849199313E+03  0.23088530269E+04  0.22099594465E+04 0.  0.
        2    1    3    3  502    0 -0.42034156828E+03  0.84299913680E+02 -0.13982431085E+04  0.14624901025E+04  0.25500000920E-02 0. -1.
       -2    1    3    3    0  502  0.42034156828E+03 -0.84299913680E+02  0.72975111536E+03  0.84636292443E+03  0.25500000920E-02 0.  1.
</event>
<event>
 5   0  0.8602414E-05  0.2242240E+04  0.7818609E-02  0.8501050E-01
        1   -1    0    0  501    0  0.00000000000E+00  0.00000000000E+00  0.79165586644E+03  0.79165586646E+03  0.50400001928E-02 0.  1.
       -1   -1    0    0    0  501  0.00000000000E+00  0.00000000000E+00 -0.15876971869E+04  0.15876971869E+04  0.50400001928E-02 0. -1.
    10030    2    1    2    0    0  0.00000000000E+00  0.00000000000E+00 -0.79604132049E+03  0.23793530534E+04  0.22422397661E+04 0.  0.
        3    1    3    3  502    0 -0.14824727309E+03  0.93818333263E+03 -0.10300463211E+04  0.14011283501E+04  0.10100000352E+00 0. -1.
       -3    1    3    3    0  502  0.14824727309E+03 -0.93818333263E+03  0.23400500064E+03  0.97822470329E+03  0.10100000352E+00 0.  1.
</event>
<event>
 5   0  0.1733962E-04  0.2116611E+04  0.7818609E-02  0.8553961E-01
        2   -1    0    0  501    0  0.00000000000E+00  0.00000000000E+00  0.12438107509E+04  0.12438107509E+04  0.25500000920E-02 0. -1.
       -2   -1    0    0    0  501  0.00000000000E+00  0.00000000000E+00 -0.90046669231E+03  0.90046669232E+03  0.25500000920E-02 0.  1.
    10030    2    1    2    0    0  0.00000000000E+00  0.00000000000E+00  0.34334405859E+03  0.21442774432E+04  0.21166106423E+04 0.  0.
        3    1    3    3  502    0 -0.45068770581E+03  0.86614274545E+03 -0.24193840909E+03  0.10059109641E+04  0.10100000352E+00 0.  1.
       -3    1    3    3    0  502  0.45068770581E+03 -0.86614274545E+03  0.58528246769E+03  0.11383664791E+04  0.10100000352E+00 0. -1.
</event>
<event>
 5   0  0.1733962E-04  0.2132592E+04  0.7818609E-02  0.8547021E-01
        2   -1    0    0  501    0  0.00000000000E+00  0.00000000000E+00  0.17108921264E+04  0.17108921264E+04  0.25500000920E-02 0. -1.
       -2   -1    0    0    0  501  0.00000000000E+00  0.00000000000E+00 -0.66455790388E+03  0.66455790389E+03  0.25500000920E-02 0.  1.
    10030    2    1    2    0    0  0.00000000000E+00  0.00000000000E+00  0.10463342225E+04  0.23754500303E+04  0.21325917427E+04 0.  0.
        3    1    3    3  502    0 -0.73194501495E+03  0.27005149981E+03 -0.28645968887E+03  0.83110196788E+03  0.10100000352E+00 0.  1.
       -3    1    3    3    0  502  0.73194501495E+03 -0.27005149981E+03  0.13327939114E+04  0.15443480624E+04  0.10100000352E+00 0. -1.
</event>
<event>
 5   0  0.8470971E-05  0.2183707E+04  0.7818609E-02  0.8525240E-01
        1   -1    0    0  501    0  0.00000000000E+00  0.00000000000E+00  0.28293475962E+04  0.28293475962E+04  0.50400001928E-02 0. -1.
       -1   -1    0    0    0  501  0.00000000000E+00  0.00000000000E+00 -0.42134956589E+03  0.42134956592E+03  0.50400001928E-02 0.  1.
    10030    2    1    2    0    0  0.00000000000E+00  0.00000000000E+00  0.24079980303E+04  0.32506971621E+04  0.21837072894E+04 0.  0.
        2    1    3    3  502    0 -0.50499653793E+03 -0.71879081071E+02 -0.23307738338E+03  0.56081473970E+03  0.25500000920E-02 0.  1.
       -2    1    3    3    0  502  0.50499653793E+03  0.71879081071E+02  0.26410754137E+04  0.26898824224E+04  0.25500000920E-02 0. -1.
</event>
<event>
 5   0  0.8306787E-05  0.2241476E+04  0.7818609E-02  0.8501361E-01
       -1   -1    0    0    0  501  0.00000000000E+00  0.00000000000E+00  0.15296688374E+04  0.15296688374E+04  0.50400001928E-02 0.  1.
        1   -1    0    0  501    0  0.00000000000E+00  0.00000000000E+00 -0.82112758741E+03  0.82112758742E+03  0.50400001928E-02 0. -1.
    10030    2    1    2    0    0  0.00000000000E+00  0.00000000000E+00  0.70854125003E+03  0.23507964249E+04  0.22414756586E+04 0.  0.
        1    1    3    3  502    0 -0.45102440026E+03  0.75432990633E+03 -0.37507204635E+03  0.95557085410E+03  0.50400001928E-02 0. -1.
       -1    1    3    3    0  502  0.45102440026E+03 -0.75432990633E+03  0.10836132964E+04  0.13952255708E+04  0.50400001928E-02 0.  1.
</event>
<event>
 5   0  0.1680258E-04  0.2213488E+04  0.7818609E-02  0.8512835E-01
       -2   -1    0    0    0  501  0.00000000000E+00  0.00000000000E+00  0.64817395169E+03  0.64817395170E+03  0.25500000920E-02 0.  1.
        2   -1    0    0  501    0  0.00000000000E+00  0.00000000000E+00 -0.18897436947E+04  0.18897436947E+04  0.25500000920E-02 0. -1.
    10030    2    1    2    0    0  0.00000000000E+00  0.00000000000E+00 -0.12415697430E+04  0.25379176464E+04  0.22134883224E+04 0.  0.
        5    1    3    3  502    0  0.14837382966E+03 -0.40256933748E+03  0.54893139088E+03  0.69672421136E+03  0.46999998093E+01 0.  1.
       -5    1    3    3    0  502 -0.14837382966E+03  0.40256933748E+03 -0.17905011339E+04  0.18411934351E+04  0.46999998093E+01 0. -1.
</event>
<event>
 5   0  0.8784659E-05  0.2225134E+04  0.7818609E-02  0.8508039E-01
       -1   -1    0    0    0  501  0.00000000000E+00  0.00000000000E+00  0.63592106256E+03  0.63592106258E+03  0.50400001928E-02 0.  1.
        1   -1    0    0  501    0  0.00000000000E+00  0.00000000000E+00 -0.19464771574E+04  0.19464771574E+04  0.50400001928E-02 0. -1.
    10030    2    1    2    0    0  0.00000000000E+00  0.00000000000E+00 -0.13105560948E+04  0.25823982200E+04  0.22251344429E+04 0.  0.
        4    1    3    3  502    0 -0.12047481846E+02  0.11123736334E+04 -0.63572110012E+03  0.12812740425E+04  0.12699999809E+01 0. -1.
       -4    1    3    3    0  502  0.12047481846E+02 -0.11123736334E+04 -0.67483499469E+03  0.13011241774E+04  0.12699999809E+01 0.  1.
</event>
<event>
 5   0  0.8306787E-05  0.2193473E+04  0.7818609E-02  0.8521150E-01
        1   -1    0    0  501    0  0.00000000000E+00  0.00000000000E+00  0.14661175884E+04  0.14661175884E+04  0.50400001928E-02 0.  1.
       -1   -1    0    0    0  501  0.00000000000E+00  0.00000000000E+00 -0.82041907139E+03  0.82041907140E+03  0.50400001928E-02 0. -1.
    10030    2    1    2    0    0  0.00000000000E+00  0.00000000000E+00  0.64569851699E+03  0.22865366598E+04  0.21934728906E+04 0.  0.
        1    1    3    3  502    0 -0.64735928512E+03  0.86225059453E+03  0.11363349938E+03  0.10841875779E+04  0.50400001928E-02 0. -1.
       -1    1    3    3    0  502  0.64735928512E+03 -0.86225059453E+03  0.53206501761E+03  0.12023490819E+04  0.50400001928E-02 0.  1.
</event>
<event>
 5   0  0.1798917E-04  0.1396694E+04  0.7818609E-02  0.8956215E-01
       -2   -1    0    0    0  501  0.00000000000E+00  0.00000000000E+00  0.40224445161E+03  0.40224445162E+03  0.25500000920E-02 0. -1.
        2   -1    0    0  501    0  0.00000000000E+00  0.00000000000E+00 -0.12124184245E+04  0.12124184245E+04  0.25500000920E-02 0.  1.
    10030    2    1    2    0    0  0.00000000000E+00  0.00000000000E+00 -0.81017397287E+03  0.16146628761E+04  0.13966940743E+04 0.  0.
        4    1    3    3  502    0 -0.52248154400E+02 -0.71151153377E+02 -0.12059412795E+04  0.12091684493E+04  0.12699999809E+01 0.  1.
       -4    1    3    3    0  502  0.52248154400E+02  0.71151153377E+02  0.39576730664E+03  0.40549442681E+03  0.12699999809E+01 0. -1.
</event>
<event>
 5   0  0.8602414E-05  0.2170001E+04  0.7818609E-02  0.8531019E-01
        1   -1    0    0  501    0  0.00000000000E+00  0.00000000000E+00  0.14929023624E+04  0.14929023624E+04  0.50400001928E-02 0. -1.
       -1   -1    0    0    0  501  0.00000000000E+00  0.00000000000E+00 -0.78854840218E+03  0.78854840219E+03  0.50400001928E-02 0.  1.
    10030    2    1    2    0    0  0.00000000000E+00  0.00000000000E+00  0.70435396022E+03  0.22814507646E+04  0.21700007120E+04 0.  0.
        3    1    3    3  502    0 -0.84575454250E+03  0.46267081996E+03  0.87560273177E+03  0.13023229968E+04  0.10100000352E+00 0. -1.
       -3    1    3    3    0  502  0.84575454250E+03 -0.46267081996E+03 -0.17124877155E+03  0.97912776784E+03  0.10100000352E+00 0.  1.
</event>
<event>
 5   0  0.8602414E-05  0.1645452E+04  0.7818609E-02  0.8793101E-01
        1   -1    0    0  501    0  0.00000000000E+00  0.00000000000E+00  0.52598765397E+03  0.52598765400E+03  0.50400001928E-02 0. -1.
       -1   -1    0    0    0  501  0.00000000000E+00  0.00000000000E+00 -0.12868711930E+04  0.12868711930E+04  0.50400001928E-02 0.  1.
    10030    2    1    2    0    0  0.00000000000E+00  0.00000000000E+00 -0.76088353906E+03  0.18128588470E+04  0.16454523510E+04 0.  0.
        3    1    3    3  502    0 -0.44454050844E+03 -0.39412869201E+03 -0.10074896233E+04  0.11696106364E+04  0.10100000352E+00 0.  1.
       -3    1    3    3    0  502  0.44454050844E+03  0.39412869201E+03  0.24660608424E+03  0.64324821064E+03  0.10100000352E+00 0. -1.
</event>
<event>
 5   0  0.8306787E-05  0.2120581E+04  0.7818609E-02  0.8552231E-01
        1   -1    0    0  501    0  0.00000000000E+00  0.00000000000E+00  0.10818618547E+04  0.10818618547E+04  0.50400001928E-02 0.  1.
       -1   -1    0    0    0  501  0.00000000000E+00  0.00000000000E+00 -0.10391496651E+04  0.10391496651E+04  0.50400001928E-02 0. -1.
    10030    2    1    2    0    0  0.00000000000E+00  0.00000000000E+00  0.42712189626E+02  0.21210115198E+04  0.21205814147E+04 0.  0.
        1    1    3    3  502    0  0.10378639169E+04 -0.20870133129E+03 -0.37805105651E+02  0.10593143923E+04  0.50400001928E-02 0.  1.
       -1    1    3    3    0  502 -0.10378639169E+04  0.20870133129E+03  0.80517295277E+02  0.10616971275E+04  0.50400001928E-02 0. -1.
</event>
<event>
 5   0  0.7954459E-05  0.1812599E+04  0.7818609E-02  0.8699628E-01
       -1   -1    0    0    0  501  0.00000000000E+00  0.00000000000E+00  0.63643760350E+03  0.63643760352E+03  0.50400001928E-02 0. -1.
        1   -1    0    0  501    0  0.00000000000E+00  0.00000000000E+00 -0.12905884870E+04  0.12905884870E+04  0.50400001928E-02 0.  1.
    10030    2    1    2    0    0  0.00000000000E+00  0.00000000000E+00 -0.65415088345E+03  0.19270260905E+04  0.18125992870E+04 0.  0.
        5    1    3    3  502    0  0.31554276689E+03 -0.10613314627E+03  0.56906404801E+03  0.65930832181E+03  0.46999998093E+01 0. -1.
       -5    1    3    3    0  502 -0.31554276689E+03  0.10613314627E+03 -0.12232149315E+04  0.12677177687E+04  0.46999998093E+01 0.  1.
</event>
<event>
 5   0  0.7954459E-05  0.2197325E+04  0.7818609E-02  0.8519542E-01
        1   -1    0    0  501    0  0.00000000000E+00  0.00000000000E+00  0.28170098053E+04  0.28170098053E+04  0.50400001928E-02 0. -1.
       -1   -1    0    0    0  501  0.00000000000E+00  0.00000000000E+00 -0.42848973338E+03  0.42848973341E+03  0.50400001928E-02 0.  1.
    10030    2    1    2    0    0  0.00000000000E+00  0.00000000000E+00  0.23885200719E+04  0.32454995387E+04  0.21973254474E+04 0.  0.
        5    1    3    3  502    0 -0.80307078219E+03  0.44439301219E+03  0.30236595503E+03  0.96636178072E+03  0.46999998093E+01 0.  1.
       -5    1    3    3    0  502  0.80307078219E+03 -0.44439301219E+03  0.20861541169E+04  0.22791377580E+04  0.46999998093E+01 0. -1.
</event>
<event>
 5   0  0.8470971E-05  0.2278452E+04  0.7818609E-02  0.8486466E-01
       -1   -1    0    0    0  501  0.00000000000E+00  0.00000000000E+00  0.17018583760E+04  0.17018583760E+04  0.50400001928E-02 0. -1.
        1   -1    0    0  501    0  0.00000000000E+00  0.00000000000E+00 -0.76259934340E+03  0.76259934341E+03  0.50400001928E-02 0.  1.
    10030    2    1    2    0    0  0.00000000000E+00  0.00000000000E+00  0.93925903263E+03  0.24644577194E+04  0.22784521765E+04 0.  0.
        2    1    3    3  502    0  0.29603507295E+03  0.10973950292E+04  0.55287666884E+03  0.12639561802E+04  0.25500000920E-02 0.  1.
       -2    1    3    3    0  502 -0.29603507295E+03 -0.10973950292E+04  0.38638236379E+03  0.12005015392E+04  0.25500000920E-02 0. -1.
</event>
<event>
 5   0  0.8470971E-05  0.2226191E+04  0.7818609E-02  0.8507605E-01
       -1   -1    0    0    0  501  0.00000000000E+00  0.00000000000E+00  0.70882954162E+03  0.70882954164E+03  0.50400001928E-02 0. -1.
        1   -1    0    0  501    0  0.00000000000E+00  0.00000000000E+00 -0.17479267108E+04  0.17479267108E+04  0.50400001928E-02 0.  1.
    10030    2    1    2    0    0  0.00000000000E+00  0.00000000000E+00 -0.10390971691E+04  0.24567562524E+04  0.22261914466E+04 0.  0.
        2    1    3    3  502    0  0.61922722598E+03 -0.81304284390E+01 -0.15402597680E+04  0.16600929535E+04  0.25500000920E-02 0.  1.
       -2    1    3    3    0  502 -0.61922722598E+03  0.81304284390E+01  0.50116259890E+03  0.79666329889E+03  0.25500000920E-02 0. -1.
</event>
<event>
 5   0  0.8470971E-05  0.2255863E+04  0.7818609E-02  0.8495530E-01
       -1   -1    0    0    0  501  0.00000000000E+00  0.00000000000E+00  0.59318641005E+03  0.59318641008E+03  0.50400001928E-02 0.  1.
        1   -1    0    0  501    0  0.00000000000E+00  0.00000000000E+00 -0.21447386926E+04  0.21447386926E+04  0.50400001928E-02 0. -1.
    10030    2    1    2    0    0  0.00000000000E+00  0.00000000000E+00 -0.15515522825E+04  0.27379251027E+04  0.22558633342E+04 0.  0.
        2    1    3    3  502    0 -0.82346896218E+03 -0.45043487068E+03 -0.15349282742E+04  0.17991657820E+04  0.25500000920E-02 0. -1.
       -2    1    3    3    0  502  0.82346896218E+03  0.45043487068E+03 -0.16624008348E+02  0.93875932062E+03  0.25500000920E-02 0.  1.
</event>
<event>
 5   0  0.1680258E-04  0.2000384E+04  0.7818609E-02  0.8606441E-01
       -2   -1    0    0    0  501  0.00000000000E+00  0.00000000000E+00  0.10612552058E+04  0.10612552058E+04  0.25500000920E-02 0.  1.
        2   -1    0    0  501    0  0.00000000000E+00  0.00000000000E+00 -0.94264202857E+03  0.94264202857E+03  0.25500000920E-02 0. -1.
    10030    2    1    2    0    0  0.00000000000E+00  0.00000000000E+00  0.11861317723E+03  0.20038972344E+04  0.20003837232E+04 0.  0.
        5    1    3    3  502    0  0.25708718318E+03  0.39568680226E+01 -0.90895832941E+03  0.94463580874E+03  0.46999998093E+01 0. -1.
       -5    1    3    3    0  502 -0.25708718318E+03 -0.39568680226E+01  0.10275715066E+04  0.10592614256E+04  0.46999998093E+01 0.  1.
</event>
<event>
 5   0  0.8306787E-05  0.2452471E+04  0.7818609E-02  0.8420116E-01
       -1   -1    0    0    0  501  0.00000000000E+00  0.00000000000E+00  0.12229289417E+04  0.12229289417E+04  0.50400001928E-02 0.  1.
        1   -1    0    0  501    0  0.00000000000E+00  0.00000000000E+00 -0.12295508309E+04  0.12295508309E+04  0.50400001928E-02 0. -1.
    10030    2    1    2    0    0  0.00000000000E+00  0.00000000000E+00 -0.66218892404E+01  0.24524797726E+04  0.24524708328E+04 0.  0.
        1    1    3    3  502    0  0.35679322296E+03 -0.37304745905E+03 -0.11156042986E+04  0.12292431663E+04  0.50400001928E-02 0. -1.
       -1    1    3    3    0  502 -0.35679322296E+03  0.37304745905E+03  0.11089824094E+04  0.12232366063E+04  0.50400001928E-02 0.  1.
</event>
<event>
 5   0  0.6250625E-05  0.2125181E+04  0.7818609E-02  0.8550231E-01
        3   -1    0    0  501    0  0.00000000000E+00  0.00000000000E+00  0.87452297077E+03  0.87452297660E+03  0.10100000352E+00 0.  1.
       -3   -1    0    0    0  501  0.00000000000E+00  0.00000000000E+00 -0.12911020441E+04  0.12911020480E+04  0.10100000352E+00 0. -1.
    10030    2    1    2    0    0  0.00000000000E+00  0.00000000000E+00 -0.41657907329E+03  0.21656250246E+04  0.21251808447E+04 0.  0.
        5    1    3    3  502    0 -0.61408992632E+03 -0.66629369222E+03  0.35727042365E+03  0.97402154366E+03  0.46999998093E+01 0.  1.
       -5    1    3    3    0  502  0.61408992632E+03  0.66629369222E+03 -0.77384949694E+03  0.11916034809E+04  0.46999998093E+01 0. -1.
</event>
<event>
 5   0  0.1733962E-04  0.2153571E+04  0.7818609E-02  0.8538005E-01
        2   -1    0    0  501    0  0.00000000000E+00  0.00000000000E+00  0.12260214416E+04  0.12260214416E+04  0.25500000920E-02 0.  1.
       -2   -1    0    0    0  501  0.00000000000E+00  0.00000000000E+00 -0.94571546035E+03  0.94571546036E+03  0.25500000920E-02 0. -1.
    10030    2    1    2    0    0  0.00000000000E+00  0.00000000000E+00  0.28030598122E+03  0.21717369019E+04  0.21535713891E+04 0.  0.
        3    1    3    3  502    0 -0.45430718819E+03 -0.74242777056E+03 -0.49912915009E+03  0.10033563347E+04  0.10100000352E+00 0. -1.
       -3    1    3    3    0  502  0.45430718819E+03  0.74242777056E+03  0.77943513131E+03  0.11683805672E+04  0.10100000352E+00 0.  1.
</event>
<event>
 5   0  0.8784659E-05  0.2166564E+04  0.7818609E-02  0.8532475E-01
        1   -1    0    0  501    0  0.00000000000E+00  0.00000000000E+00  0.11934768577E+04  0.11934768577E+04  0.50400001928E-02 0.  1.
       -1   -1    0    0    0  501  0.00000000000E+00  0.00000000000E+00 -0.98326111415E+03  0.98326111417E+03  0.50400001928E-02 0. -1.
    10030    2    1    2    0    0  0.00000000000E+00  0.00000000000E+00  0.21021574354E+03  0.21767379719E+04  0.21665635323E+04 0.  0.
        4    1    3    3  502    0  0.93137907532E+02  0.10792495233E+04  0.11173952653E+03  0.10890094297E+04  0.12699999809E+01 0.  1.
       -4    1    3    3    0  502 -0.93137907532E+02 -0.10792495233E+04  0.98476217014E+02  0.10877285422E+04  0.12699999809E+01 0. -1.
</event>
<event>
 5   0  0.1798917E-04  0.2223923E+04  0.7818609E-02  0.8508536E-01
        2   -1    0    0  501    0  0.00000000000E+00  0.00000000000E+00  0.14037639699E+04  0.14037639699E+04  0.25500000920E-02 0. -1.
       -2   -1    0    0    0  501  0.00000000000E+00  0.00000000000E+00 -0.88081668998E+03  0.88081668998E+03  0.25500000920E-02 0.  1.
    10030    2    1    2    0    0  0.00000000000E+00  0.00000000000E+00  0.52294727995E+03  0.22845806599E+04  0.22239233202E+04 0.  0.
        4    1    3    3  502    0  0.55574475254E+03 -0.91937680240E+03  0.55626965987E+03  0.12097700121E+04  0.12699999809E+01 0. -1.
       -4    1    3    3    0  502 -0.55574475254E+03  0.91937680240E+03 -0.33322379926E+02  0.10748106478E+04  0.12699999809E+01 0.  1.
</event>
<event>
 5   0  0.1754356E-04  0.2189438E+04  0.7818609E-02  0.8522837E-01
        2   -1    0    0  501    0  0.00000000000E+00  0.00000000000E+00  0.97553937100E+03  0.97553937101E+03  0.25500000920E-02 0.  1.
       -2   -1    0    0    0  501  0.00000000000E+00  0.00000000000E+00 -0.12284584453E+04  0.12284584453E+04  0.25500000920E-02 0. -1.
    10030    2    1    2    0    0  0.00000000000E+00  0.00000000000E+00 -0.25291907432E+03  0.22039978163E+04  0.21894378996E+04 0.  0.
        1    1    3    3  502    0 -0.80725370581E+03 -0.42793358903E+03 -0.73348194738E+03  0.11716575734E+04  0.50400001928E-02 0. -1.
       -1    1    3    3    0  502  0.80725370581E+03  0.42793358903E+03  0.48056287307E+03  0.10323402429E+04  0.50400001928E-02 0.  1.
</event>
<event>
 5   0  0.8602414E-05  0.2211889E+04  0.7818609E-02  0.8513496E-01
        1   -1    0    0  501    0  0.00000000000E+00  0.00000000000E+00  0.70264414609E+03  0.70264414611E+03  0.50400001928E-02 0.  1.
       -1   -1    0    0    0  501  0.00000000000E+00  0.00000000000E+00 -0.17407298748E+04  0.17407298748E+04  0.50400001928E-02 0. -1.
    10030    2    1    2    0    0  0.00000000000E+00  0.00000000000E+00 -0.10380857287E+04  0.24433740209E+04  0.22118893792E+04 0.  0.
        3    1    3    3  502    0 -0.14824638382E+03  0.10528839374E+04 -0.85514133568E+03  0.13644809599E+04  0.10100000352E+00 0. -1.
       -3    1    3    3    0  502  0.14824638382E+03 -0.10528839374E+04 -0.18294439302E+03  0.10788930610E+04  0.10100000352E+00 0.  1.
</event>
<event>
 5   0  0.1733962E-04  0.2195197E+04  0.7818609E-02  0.8520430E-01
       -2   -1    0    0    0  501  0.00000000000E+00  0.00000000000E+00  0.96366845393E+03  0.96366845394E+03  0.25500000920E-02 0.  1.
        2   -1    0    0  501    0  0.00000000000E+00  0.00000000000E+00 -0.12501422450E+04  0.12501422450E+04  0.25500000920E-02 0. -1.
    10030    2    1    2    0    0  0.00000000000E+00  0.00000000000E+00 -0.28647379107E+03  0.22138106989E+04  0.21951971615E+04 0.  0.
        3    1    3    3  502    0 -0.39535290151E+03 -0.13522686046E+01  0.88936746267E+03  0.97328322663E+03  0.10100000352E+00 0.  1.
       -3    1    3    3    0  502  0.39535290151E+03  0.13522686046E+01 -0.11758412537E+04  0.12405274723E+04  0.10100000352E+00 0. -1.
</event>
<event>
 5   0  0.8784659E-05  0.2191962E+04  0.7818609E-02  0.8521781E-01
       -1   -1    0    0    0  501  0.00000000000E+00  0.00000000000E+00  0.86491841874E+03  0.86491841875E+03  0.50400001928E-02 0. -1.
        1   -1    0    0  501    0  0.00000000000E+00  0.00000000000E+00 -0.13887716134E+04  0.13887716134E+04  0.50400001928E-02 0.  1.
    10030    2    1    2    0    0  0.00000000000E+00  0.00000000000E+00 -0.52385319464E+03  0.22536900321E+04  0.21919618134E+04 0.  0.
        4    1    3    3  502    0  0.53121057360E+03 -0.47349294806E+03 -0.11189421336E+04  0.13260517926E+04  0.12699999809E+01 0.  1.
       -4    1    3    3    0  502 -0.53121057360E+03  0.47349294806E+03  0.59508893894E+03  0.92763823957E+03  0.12699999809E+01 0. -1.
</event>
<event>
 5   0  0.1805501E-04  0.2228072E+04  0.7818609E-02  0.8506834E-01
        2   -1    0    0  501    0  0.00000000000E+00  0.00000000000E+00  0.67547265169E+03  0.67547265170E+03  0.25500000920E-02 0.  1.
       -2   -1    0    0    0  501  0.00000000000E+00  0.00000000000E+00 -0.18373443073E+04  0.18373443073E+04  0.25500000920E-02 0. -1.
    10030    2    1    2    0    0  0.00000000000E+00  0.00000000000E+00 -0.11618716556E+04  0.25128169590E+04  0.22280716607E+04 0.  0.
        2    1    3    3  502    0 -0.20228639983E+03 -0.11484303312E+03  0.64777884461E+03  0.68827766297E+03  0.25500000920E-02 0.  1.
       -2    1    3    3    0  502  0.20228639983E+03  0.11484303312E+03 -0.18096505002E+04  0.18245392960E+04  0.25500000920E-02 0. -1.
</event>
<event>
 5   0  0.8784659E-05  0.2329474E+04  0.7818609E-02  0.8466390E-01
       -1   -1    0    0    0  501  0.00000000000E+00  0.00000000000E+00  0.83692463521E+03  0.83692463523E+03  0.50400001928E-02 0. -1.
        1   -1    0    0  501    0  0.00000000000E+00  0.00000000000E+00 -0.16209492766E+04  0.16209492767E+04  0.50400001928E-02 0.  1.
    10030    2    1    2    0    0  0.00000000000E+00  0.00000000000E+00 -0.78402464143E+03  0.24578739119E+04  0.23294740884E+04 0.  0.
        4    1    3    3  502    0  0.71640344359E+03 -0.85119109363E+03 -0.75576181680E+03  0.13449675492E+04  0.12699999809E+01 0.  1.
       -4    1    3    3    0  502 -0.71640344359E+03  0.85119109363E+03 -0.28262824626E+02  0.11129063626E+04  0.12699999809E+01 0. -1.
</event>
<event>
 5   0  0.8784659E-05  0.2260544E+04  0.7818609E-02  0.8493643E-01
       -1   -1    0    0    0  501  0.00000000000E+00  0.00000000000E+00  0.89254982857E+03  0.89254982858E+03  0.50400001928E-02 0. -1.
        1   -1    0    0  501    0  0.00000000000E+00  0.00000000000E+00 -0.14313085840E+04  0.14313085840E+04  0.50400001928E-02 0.  1.
    10030    2    1    2    0    0  0.00000000000E+00  0.00000000000E+00 -0.53875875541E+03  0.23238584126E+04  0.22605435022E+04 0.  0.
        4    1    3    3  502    0  0.41894049051E+03 -0.44640944961E+02  0.80880950367E+03  0.91196402050E+03  0.12699999809E+01 0. -1.
       -4    1    3    3    0  502 -0.41894049051E+03  0.44640944961E+02 -0.13475682591E+04  0.14118943921E+04  0.12699999809E+01 0.  1.
</event>
<event>
 5   0  0.8470971E-05  0.2246788E+04  0.7818609E-02  0.8499202E-01
        1   -1    0    0  501    0  0.00000000000E+00  0.00000000000E+00  0.24554951144E+04  0.24554951144E+04  0.50400001928E-02 0.  1.
       -1   -1    0    0    0  501  0.00000000000E+00  0.00000000000E+00 -0.51395505892E+03  0.51395505894E+03  0.50400001928E-02 0. -1.
    10030    2    1    2    0    0  0.00000000000E+00  0.00000000000E+00  0.19415400555E+04  0.29694501733E+04  0.22467880507E+04 0.  0.
        2    1    3    3  502    0  0.64928367384E+03 -0.50643417302E+03  0.19807411025E+04  0.21450827899E+04  0.25500000920E-02 0.  1.
       -2    1    3    3    0  502 -0.64928367384E+03  0.50643417302E+03 -0.39201046989E+02  0.82436738340E+03  0.25500000920E-02 0. -1.
</event>
<event>
 5   0  0.1805501E-04  0.2189267E+04  0.7818609E-02  0.8522909E-01
        2   -1    0    0  501    0  0.00000000000E+00  0.00000000000E+00  0.96443720720E+03  0.96443720720E+03  0.25500000920E-02 0.  1.
       -2   -1    0    0    0  501  0.00000000000E+00  0.00000000000E+00 -0.12424056329E+04  0.12424056329E+04  0.25500000920E-02 0. -1.
    10030    2    1    2    0    0  0.00000000000E+00  0.00000000000E+00 -0.27796842569E+03  0.22068428401E+04  0.21892667437E+04 0.  0.
        2    1    3    3  502    0  0.50594183318E+03 -0.30480707228E+02  0.83901937501E+03  0.98023452486E+03  0.25500000920E-02 0.  1.
       -2    1    3    3    0  502 -0.50594183318E+03  0.30480707228E+02 -0.11169878007E+04  0.12266083152E+04  0.25500000920E-02 0. -1.
</event>
<event>
 5   0  0.1754356E-04  0.2242996E+04  0.7818609E-02  0.8500742E-01
       -2   -1    0    0    0  501  0.00000000000E+00  0.00000000000E+00  0.59335110259E+03  0.59335110259E+03  0.25500000920E-02 0. -1.
        2   -1    0    0  501    0  0.00000000000E+00  0.00000000000E+00 -0.21197524577E+04  0.21197524577E+04  0.25500000920E-02 0.  1.
    10030    2    1    2    0    0  0.00000000000E+00  0.00000000000E+00 -0.15264013551E+04  0.27131035603E+04  0.22429957271E+04 0.  0.
        1    1    3    3  502    0  0.80785756239E+02 -0.10875119284E+04 -0.10798935214E+04  0.15347242587E+04  0.50400001928E-02 0.  1.
       -1    1    3    3    0  502 -0.80785756239E+02  0.10875119284E+04 -0.44650783373E+03  0.11783793016E+04  0.50400001928E-02 0. -1.
</event>
<event>
 5   0  0.1680258E-04  0.2173400E+04  0.7818609E-02  0.8529582E-01
        2   -1    0    0  501    0  0.00000000000E+00  0.00000000000E+00  0.17255434709E+04  0.17255434709E+04  0.25500000920E-02 0.  1.
       -2   -1    0    0    0  501  0.00000000000E+00  0.00000000000E+00 -0.68437401243E+03  0.68437401244E+03  0.25500000920E-02 0. -1.
    10030    2    1    2    0    0  0.00000000000E+00  0.00000000000E+00  0.10411694584E+04  0.24099174833E+04  0.21734002013E+04 0.  0.
        5    1    3    3  502    0 -0.96089228887E+03 -0.37147109328E+03  0.90403616218E+03  0.13706233022E+04  0.46999998093E+01 0. -1.
       -5    1    3    3    0  502  0.96089228887E+03  0.37147109328E+03  0.13713329624E+03  0.10392941811E+04  0.46999998093E+01 0.  1.
</event>
<event>
 5   0  0.1754356E-04  0.2172815E+04  0.7818609E-02  0.8529829E-01
       -2   -1    0    0    0  501  0.00000000000E+00  0.00000000000E+00  0.13549344218E+04  0.13549344218E+04  0.25500000920E-02 0.  1.
        2   -1    0    0  501    0  0.00000000000E+00  0.00000000000E+00 -0.87109806885E+03  0.87109806886E+03  0.25500000920E-02 0. -1.
    10030    2    1    2    0    0  0.00000000000E+00  0.00000000000E+00  0.48383635295E+03  0.22260324907E+04  0.21728145418E+04 0.  0.
        1    1    3    3  502    0  0.10060345060E+03  0.98162080652E+03 -0.22372504761E+03  0.10118069772E+04  0.50400001928E-02 0. -1.
       -1    1    3    3    0  502 -0.10060345060E+03 -0.98162080652E+03  0.70756140057E+03  0.12142255135E+04  0.50400001928E-02 0.  1.
</event>
<event>
 5   0  0.8306787E-05  0.2179596E+04  0.7818609E-02  0.8526969E-01
        1   -1    0    0  501    0  0.00000000000E+00  0.00000000000E+00  0.11158929245E+04  0.11158929245E+04  0.50400001928E-02 0.  1.
       -1   -1    0    0    0  501  0.00000000000E+00  0.00000000000E+00 -0.10643131412E+04  0.10643131413E+04  0.50400001928E-02 0. -1.
    10030    2    1    2    0    0  0.00000000000E+00  0.00000000000E+00  0.51579783231E+02  0.21802060658E+04  0.21795958376E+04 0.  0.
        1    1    3    3  502    0 -0.54327445137E+03 -0.21943821282E+03 -0.89335759759E+03  0.10683576442E+04  0.50400001928E-02 0. -1.
       -1    1    3    3    0  502  0.54327445137E+03  0.21943821282E+03  0.94493738082E+03  0.11118484215E+04  0.50400001928E-02 0.  1.
</event>
<event>
 5   0  0.1680258E-04  0.2200148E+04  0.7818609E-02  0.8518367E-01
       -2   -1    0    0    0  501  0.00000000000E+00  0.00000000000E+00  0.18748989749E+04  0.18748989749E+04  0.25500000920E-02 0.  1.
        2   -1    0    0  501    0  0.00000000000E+00  0.00000000000E+00 -0.64545481390E+03  0.64545481390E+03  0.25500000920E-02 0. -1.
    10030    2    1    2    0    0  0.00000000000E+00  0.00000000000E+00  0.12294441610E+04  0.25203537888E+04  0.22001477850E+04 0.  0.
        5    1    3    3  502    0 -0.74337274787E+03  0.65791236273E+03  0.11577227036E+04  0.15250559556E+04  0.46999998093E+01 0.  1.
       -5    1    3    3    0  502  0.74337274787E+03 -0.65791236273E+03  0.71721457419E+02  0.99529783320E+03  0.46999998093E+01 0. -1.
</event>
<event>
 5   0  0.1798917E-04  0.2131758E+04  0.7818609E-02  0.8547381E-01
        2   -1    0    0  501    0  0.00000000000E+00  0.00000000000E+00  0.11259298604E+04  0.11259298604E+04  0.25500000920E-02 0. -1.
       -2   -1    0    0    0  501  0.00000000000E+00  0.00000000000E+00 -0.10090308514E+04  0.10090308514E+04  0.25500000920E-02 0.  1.
    10030    2    1    2    0    0  0.00000000000E+00  0.00000000000E+00  0.11689900899E+03  0.21349607119E+04  0.21317579278E+04 0.  0.
        4    1    3    3  502    0  0.13764908952E+03  0.10549347870E+04 -0.69300896118E+01  0.10639005197E+04  0.12699999809E+01 0. -1.
       -4    1    3    3    0  502 -0.13764908952E+03 -0.10549347870E+04  0.12382909860E+03  0.10710601922E+04  0.12699999809E+01 0.  1.
</event>
<event>
 5   0  0.1798917E-04  0.2159672E+04  0.7818609E-02  0.8535404E-01
        2   -1    0    0  501    0  0.00000000000E+00  0.00000000000E+00  0.12614837337E+04  0.12614837337E+04  0.25500000920E-02 0.  1.
       -2   -1    0    0    0  501  0.00000000000E+00  0.00000000000E+00 -0.92434458066E+03  0.92434458066E+03  0.25500000920E-02 0. -1.
    10030    2    1    2    0    0  0.00000000000E+00  0.00000000000E+00  0.33713915308E+03  0.21858283144E+04  0.21596718759E+04 0.  0.
        4    1    3    3  502    0 -0.67227103635E+03  0.48163929409E+03  0.87132713619E+03  0.12013065167E+04  0.12699999809E+01 0.  1.
       -4    1    3    3    0  502  0.67227103635E+03 -0.48163929409E+03 -0.53418798311E+03  0.98452179769E+03  0.12699999809E+01 0. -1.
</event>
<event>
 5   0  0.8470971E-05  0.2205372E+04  0.7818609E-02  0.8516195E-01
        1   -1    0    0  501    0  0.00000000000E+00  0.00000000000E+00  0.15091153843E+04  0.15091153844E+04  0.50400001928E-02 0.  1.
       -1   -1    0    0    0  501  0.00000000000E+00  0.00000000000E+00 -0.80571492410E+03  0.80571492412E+03  0.50400001928E-02 0. -1.
    10030    2    1    2    0    0  0.00000000000E+00  0.00000000000E+00  0.70340046024E+03  0.23148303085E+04  0.22053723381E+04 0.  0.
        2    1    3    3  502    0 -0.29305590462E+03  0.53113845259E+02  0.14660984592E+04  0.14960439619E+04  0.25500000920E-02 0.  1.
       -2    1    3    3    0  502  0.29305590462E+03 -0.53113845259E+02 -0.76269799895E+03  0.81878634661E+03  0.25500000920E-02 0. -1.
</event>
<event>
 5   0  0.8602414E-05  0.2132948E+04  0.7818609E-02  0.8546867E-01
        1   -1    0    0  501    0  0.00000000000E+00  0.00000000000E+00  0.17900315118E+04  0.17900315118E+04  0.50400001928E-02 0. -1.
       -1   -1    0    0    0  501  0.00000000000E+00  0.00000000000E+00 -0.63538931461E+03  0.63538931463E+03  0.50400001928E-02 0.  1.
    10030    2    1    2    0    0  0.00000000000E+00  0.00000000000E+00  0.11546421972E+04  0.24254208264E+04  0.21329480964E+04 0.  0.
        3    1    3    3  502    0 -0.23863035611E+03 -0.97368754973E+03  0.99101296394E+03  0.14096519415E+04  0.10100000352E+00 0. -1.
       -3    1    3    3    0  502  0.23863035611E+03  0.97368754973E+03  0.16362923324E+03  0.10157688849E+04  0.10100000352E+00 0.  1.
</event>
<event>
 5   0  0.7954459E-05  0.2162868E+04  0.7818609E-02  0.8534044E-01
        1   -1    0    0  501    0  0.00000000000E+00  0.00000000000E+00  0.20026263389E+04  0.20026263389E+04  0.50400001928E-02 0. -1.
       -1   -1    0    0    0  501  0.00000000000E+00  0.00000000000E+00 -0.58398282525E+03  0.58398282527E+03  0.50400001928E-02 0.  1.
    10030    2    1    2    0    0  0.00000000000E+00  0.00000000000E+00  0.14186435137E+04  0.25866091642E+04  0.21628678992E+04 0.  0.
        5    1    3    3  502    0 -0.38672557764E+03 -0.47753095636E+03  0.17735427539E+04  0.18769838776E+04  0.46999998093E+01 0. -1.
       -5    1    3    3    0  502  0.38672557764E+03  0.47753095636E+03 -0.35489924025E+03  0.70962528662E+03  0.46999998093E+01 0.  1.
</event>
<event>
 5   0  0.1798917E-04  0.1276097E+04  0.7818609E-02  0.9048739E-01
        2   -1    0    0  501    0  0.00000000000E+00  0.00000000000E+00  0.49999372976E+03  0.49999372977E+03  0.25500000920E-02 0. -1.
       -2   -1    0    0    0  501  0.00000000000E+00  0.00000000000E+00 -0.81422143233E+03  0.81422143234E+03  0.25500000920E-02 0.  1.
    10030    2    1    2    0    0  0.00000000000E+00  0.00000000000E+00 -0.31422770257E+03  0.13142151621E+04  0.12760965650E+04 0.  0.
        4    1    3    3  502    0  0.50279981712E+03  0.66964825669E+02  0.24150360446E+03  0.56179849398E+03  0.12699999809E+01 0. -1.
       -4    1    3    3    0  502 -0.50279981712E+03 -0.66964825669E+02 -0.55573130702E+03  0.75241666813E+03  0.12699999809E+01 0.  1.
</event>
<event>
 5   0  0.1680258E-04  0.2190704E+04  0.7818609E-02  0.8522307E-01
       -2   -1    0    0    0  501  0.00000000000E+00  0.00000000000E+00  0.38500306857E+03  0.38500306858E+03  0.25500000920E-02 0.  1.
        2   -1    0    0  501    0  0.00000000000E+00  0.00000000000E+00 -0.31163293490E+04  0.31163293490E+04  0.25500000920E-02 0. -1.
    10030    2    1    2    0    0  0.00000000000E+00  0.00000000000E+00 -0.27313262804E+04  0.35013324176E+04  0.21907043270E+04 0.  0.
        5    1    3    3  502    0 -0.53386144760E+02 -0.60001082849E+03  0.96477902189E+02  0.61007634798E+03  0.46999998093E+01 0.  1.
       -5    1    3    3    0  502  0.53386144760E+02  0.60001082849E+03 -0.28278041826E+04  0.28912560696E+04  0.46999998093E+01 0. -1.
</event>
<event>
 5   0  0.1754356E-04  0.2182380E+04  0.7818609E-02  0.8525798E-01
       -2   -1    0    0    0  501  0.00000000000E+00  0.00000000000E+00  0.78538467183E+03  0.78538467183E+03  0.25500000920E-02 0.  1.
        2   -1    0    0  501    0  0.00000000000E+00  0.00000000000E+00 -0.15160668915E+04  0.15160668915E+04  0.25500000920E-02 0. -1.
    10030    2    1    2    0    0  0.00000000000E+00  0.00000000000E+00 -0.73068221971E+03  0.23014515634E+04  0.21823800751E+04 0.  0.
        1    1    3    3  502    0  0.61791396175E+03 -0.89879199667E+03 -0.39952872552E+03  0.11615799240E+04  0.50400001928E-02 0. -1.
       -1    1    3    3    0  502 -0.61791396175E+03  0.89879199667E+03 -0.33115349419E+03  0.11398716393E+04  0.50400001928E-02 0.  1.
</event>
<event>
 5   0  0.1754356E-04  0.2193337E+04  0.7818609E-02  0.8521207E-01
       -2   -1    0    0    0  501  0.00000000000E+00  0.00000000000E+00  0.65437085883E+03  0.65437085884E+03  0.25500000920E-02 0. -1.
        2   -1    0    0  501    0  0.00000000000E+00  0.00000000000E+00 -0.18379206351E+04  0.18379206351E+04  0.25500000920E-02 0.  1.
    10030    2    1    2    0    0  0.00000000000E+00  0.00000000000E+00 -0.11835497762E+04  0.24922914939E+04  0.21933369139E+04 0.  0.
        1    1    3    3  502    0  0.88257604851E+03  0.77809190737E+02 -0.13261516775E+04  0.15948896587E+04  0.50400001928E-02 0.  1.
       -1    1    3    3    0  502 -0.88257604851E+03 -0.77809190737E+02  0.14260190129E+03  0.89740183521E+03  0.50400001928E-02 0. -1.
</event>
<event>
 5   0  0.6250625E-05  0.2223290E+04  0.7818609E-02  0.8508796E-01
       -3   -1    0    0    0  501  0.00000000000E+00  0.00000000000E+00  0.13324076575E+04  0.13324076613E+04  0.10100000352E+00 0.  1.
        3   -1    0    0  501    0  0.00000000000E+00  0.00000000000E+00 -0.92746019153E+03  0.92746019703E+03  0.10100000352E+00 0. -1.
    10030    2    1    2    0    0  0.00000000000E+00  0.00000000000E+00  0.40494746599E+03  0.22598678584E+04  0.22232904190E+04 0.  0.
        1    1    3    3  502    0  0.95315214201E+03  0.80179718730E+02 -0.37326108244E+03  0.10267675632E+04  0.50400001928E-02 0. -1.
       -1    1    3    3    0  502 -0.95315214201E+03 -0.80179718730E+02  0.77820854842E+03  0.12331002952E+04  0.50400001928E-02 0.  1.
</event>
<event>
 5   0  0.6250625E-05  0.2366850E+04  0.7818609E-02  0.8452020E-01
        3   -1    0    0  501    0  0.00000000000E+00  0.00000000000E+00  0.76737149654E+03  0.76737150319E+03  0.10100000352E+00 0.  1.
       -3   -1    0    0    0  501  0.00000000000E+00  0.00000000000E+00 -0.18250542695E+04  0.18250542723E+04  0.10100000352E+00 0. -1.
    10030    2    1    2    0    0  0.00000000000E+00  0.00000000000E+00 -0.10576827730E+04  0.25924257755E+04  0.23668499220E+04 0.  0.
        1    1    3    3  502    0  0.30188031516E+03  0.65932966692E+03 -0.15532001584E+04  0.17141406204E+04  0.50400001928E-02 0. -1.
       -1    1    3    3    0  502 -0.30188031516E+03 -0.65932966692E+03  0.49551738545E+03  0.87828515510E+03  0.50400001928E-02 0.  1.
</event>
<event>
 5   0  0.1798917E-04  0.2136488E+04  0.7818609E-02  0.8545338E-01
       -2   -1    0    0    0  501  0.00000000000E+00  0.00000000000E+00  0.90797484906E+03  0.90797484907E+03  0.25500000920E-02 0.  1.
        2   -1    0    0  501    0  0.00000000000E+00  0.00000000000E+00 -0.12568024096E+04  0.12568024096E+04  0.25500000920E-02 0. -1.
    10030    2    1    2    0    0  0.00000000000E+00  0.00000000000E+00 -0.34882756052E+03  0.21647772587E+04  0.21364877516E+04 0.  0.
        4    1    3    3  502    0 -0.66471490909E+03  0.20873657647E+03 -0.99490544988E+03  0.12146008957E+04  0.12699999809E+01 0. -1.
       -4    1    3    3    0  502  0.66471490909E+03 -0.20873657647E+03  0.64607788936E+03  0.95017636296E+03  0.12699999809E+01 0.  1.
</event>
<event>
 5   0  0.8784659E-05  0.2191805E+04  0.7818609E-02  0.8521847E-01
        1   -1    0    0  501    0  0.00000000000E+00  0.00000000000E+00  0.11967371993E+04  0.11967371993E+04  0.50400001928E-02 0. -1.
       -1   -1    0    0    0  501  0.00000000000E+00  0.00000000000E+00 -0.10035643303E+04  0.10035643303E+04  0.50400001928E-02 0.  1.
    10030    2    1    2    0    0  0.00000000000E+00  0.00000000000E+00  0.19317286898E+03  0.22003015296E+04  0.21918054348E+04 0.  0.
        4    1    3    3  502    0  0.10548916780E+04 -0.28994932417E+03  0.32040309430E+02  0.10944840141E+04  0.12699999809E+01 0.  1.
       -4    1    3    3    0  502 -0.10548916780E+04  0.28994932417E+03  0.16113255955E+03  0.11058175155E+04  0.12699999809E+01 0. -1.
</event>
<event>
 5   0  0.1798917E-04  0.2178859E+04  0.7818609E-02  0.8527279E-01
        2   -1    0    0  501    0  0.00000000000E+00  0.00000000000E+00  0.14539293014E+04  0.14539293014E+04  0.25500000920E-02 0. -1.
       -2   -1    0    0    0  501  0.00000000000E+00  0.00000000000E+00 -0.81631003176E+03  0.81631003177E+03  0.25500000920E-02 0.  1.
    10030    2    1    2    0    0  0.00000000000E+00  0.00000000000E+00  0.63761926967E+03  0.22702393332E+04  0.21788594028E+04 0.  0.
        4    1    3    3  502    0 -0.45956083762E+03  0.44656623663E+03 -0.59918439518E+03  0.87729192376E+03  0.12699999809E+01 0.  1.
       -4    1    3    3    0  502  0.45956083762E+03 -0.44656623663E+03  0.12368036648E+04  0.13929474094E+04  0.12699999809E+01 0. -1.
</event>
<event>
 5   0  0.8602414E-05  0.2109716E+04  0.7818609E-02  0.8556975E-01
        1   -1    0    0  501    0  0.00000000000E+00  0.00000000000E+00  0.15844686088E+04  0.15844686088E+04  0.50400001928E-02 0. -1.
       -1   -1    0    0    0  501  0.00000000000E+00  0.00000000000E+00 -0.70227038522E+03  0.70227038523E+03  0.50400001928E-02 0.  1.
    10030    2    1    2    0    0  0.00000000000E+00  0.00000000000E+00  0.88219822354E+03  0.22867389940E+04  0.21097159811E+04 0.  0.
        3    1    3    3  502    0 -0.10498325239E+04  0.11327526621E+01  0.32963158349E+03  0.11003665764E+04  0.10100000352E+00 0. -1.
       -3    1    3    3    0  502  0.10498325239E+04 -0.11327526621E+01  0.55256664005E+03  0.11863724176E+04  0.10100000352E+00 0.  1.
</event>
<event>
 5   0  0.8784659E-05  0.1988549E+04  0.7818609E-02  0.8611993E-01
        1   -1    0    0  501    0  0.00000000000E+00  0.00000000000E+00  0.14949578514E+04  0.14949578514E+04  0.50400001928E-02 0. -1.
       -1   -1    0    0    0  501  0.00000000000E+00  0.00000000000E+00 -0.66127704364E+03  0.66127704366E+03  0.50400001928E-02 0.  1.
    10030    2    1    2    0    0  0.00000000000E+00  0.00000000000E+00  0.83368080778E+03  0.21562348951E+04  0.19885485243E+04 0.  0.
        4    1    3    3  502    0 -0.97610057011E+03 -0.17677112950E+03  0.34362358088E+03  0.10498090938E+04  0.12699999809E+01 0. -1.
       -4    1    3    3    0  502  0.97610057011E+03  0.17677112950E+03  0.49005722689E+03  0.11064258013E+04  0.12699999809E+01 0.  1.
</event>
<event>
 5   0  0.8470971E-05  0.2143140E+04  0.7818609E-02  0.8542474E-01
       -1   -1    0    0    0  501  0.00000000000E+00  0.00000000000E+00  0.66056690740E+03  0.66056690742E+03  0.50400001928E-02 0. -1.
        1   -1    0    0  501    0  0.00000000000E+00  0.00000000000E+00 -0.17382982669E+04  0.17382982669E+04  0.50400001928E-02 0.  1.
    10030    2    1    2    0    0  0.00000000000E+00  0.00000000000E+00 -0.10777313595E+04  0.23988651743E+04  0.21431400424E+04 0.  0.
        2    1    3    3  502    0 -0.68190467180E+03 -0.79793097875E+03 -0.78042806303E+03  0.13079586346E+04  0.25500000920E-02 0.  1.
       -2    1    3    3    0  502  0.68190467180E+03  0.79793097875E+03 -0.29730329645E+03  0.10909065397E+04  0.25500000920E-02 0. -1.
</event>
<event>
 5   0  0.1754356E-04  0.2186777E+04  0.7818609E-02  0.8523952E-01
        2   -1    0    0  501    0  0.00000000000E+00  0.00000000000E+00  0.10752768090E+04  0.10752768090E+04  0.25500000920E-02 0.  1.
       -2   -1    0    0    0  501  0.00000000000E+00  0.00000000000E+00 -0.11118055672E+04  0.11118055672E+04  0.25500000920E-02 0. -1.
    10030    2    1    2    0    0  0.00000000000E+00  0.00000000000E+00 -0.36528758240E+02  0.21870823762E+04  0.21867773024E+04 0.  0.
        1    1    3    3  502    0  0.34256498780E+03 -0.82527034503E+03 -0.64849261410E+03  0.11040672913E+04  0.50400001928E-02 0. -1.
       -1    1    3    3    0  502 -0.34256498780E+03  0.82527034503E+03  0.61196385586E+03  0.10830150849E+04  0.50400001928E-02 0.  1.
</event>
<event>
 5   0  0.8602414E-05  0.2254143E+04  0.7818609E-02  0.8496224E-01
       -1   -1    0    0    0  501  0.00000000000E+00  0.00000000000E+00  0.62584280287E+03  0.62584280289E+03  0.50400001928E-02 0. -1.
        1   -1    0    0  501    0  0.00000000000E+00  0.00000000000E+00 -0.20297277209E+04  0.20297277209E+04  0.50400001928E-02 0.  1.
    10030    2    1    2    0    0  0.00000000000E+00  0.00000000000E+00 -0.14038849180E+04  0.26555705238E+04  0.22541432837E+04 0.  0.
        3    1    3    3  502    0  0.40339383491E+03  0.88474099670E+03 -0.30540663288E+02  0.97284426277E+03  0.10100000352E+00 0. -1.
       -3    1    3    3    0  502 -0.40339383491E+03 -0.88474099670E+03 -0.13733442547E+04  0.16827262610E+04  0.10100000352E+00 0.  1.
</event>
<event>
 5   0  0.1754356E-04  0.2181960E+04  0.7818609E-02  0.8525975E-01
        2   -1    0    0  501    0  0.00000000000E+00  0.00000000000E+00  0.22269649245E+04  0.22269649245E+04  0.25500000920E-02 0. -1.
       -2   -1    0    0    0  501  0.00000000000E+00  0.00000000000E+00 -0.53446600688E+03  0.53446600688E+03  0.25500000920E-02 0.  1.
    10030    2    1    2    0    0  0.00000000000E+00  0.00000000000E+00  0.16924989177E+04  0.27614309314E+04  0.21819597161E+04 0.  0.
        1    1    3    3  502    0  0.90190532922E+03 -0.90160041950E+02  0.77810635715E+02  0.90973432995E+03  0.50400001928E-02 0.  1.
       -1    1    3    3    0  502 -0.90190532922E+03  0.90160041950E+02  0.16146882820E+04  0.18516966015E+04  0.50400001928E-02 0. -1.
</event>
<event>
 5   0  0.1805501E-04  0.2143962E+04  0.7818609E-02  0.8542121E-01
       -2   -1    0    0    0  501  0.00000000000E+00  0.00000000000E+00  0.55846365283E+03  0.55846365284E+03  0.25500000920E-02 0.  1.
        2   -1    0    0  501    0  0.00000000000E+00  0.00000000000E+00 -0.20576872509E+04  0.20576872509E+04  0.25500000920E-02 0. -1.
    10030    2    1    2    0    0  0.00000000000E+00  0.00000000000E+00 -0.14992235980E+04  0.26161509037E+04  0.21439622558E+04 0.  0.
        2    1    3    3  502    0 -0.22262212586E+03  0.43752160841E+03  0.41324518953E+03  0.64168322047E+03  0.25500000920E-02 0.  1.
       -2    1    3    3    0  502  0.22262212586E+03 -0.43752160841E+03 -0.19124687876E+04  0.19744676833E+04  0.25500000920E-02 0. -1.
</event>
<event>
 5   0  0.1798917E-04  0.2186325E+04  0.7818609E-02  0.8524142E-01
        2   -1    0    0  501    0  0.00000000000E+00  0.00000000000E+00  0.20568379777E+04  0.20568379777E+04  0.25500000920E-02 0.  1.
       -2   -1    0    0    0  501  0.00000000000E+00  0.00000000000E+00 -0.58099088896E+03  0.58099088897E+03  0.25500000920E-02 0. -1.
    10030    2    1    2    0    0  0.00000000000E+00  0.00000000000E+00  0.14758470888E+04  0.26378288667E+04  0.21863248845E+04 0.  0.
        4    1    3    3  502    0 -0.71761496483E+03  0.47205590244E+03 -0.77874043827E+02  0.86248129973E+03  0.12699999809E+01 0. -1.
       -4    1    3    3    0  502  0.71761496483E+03 -0.47205590244E+03  0.15537211326E+04  0.17753475670E+04  0.12699999809E+01 0.  1.
</event>
<event>
 5   0  0.8784659E-05  0.1739521E+04  0.7818609E-02  0.8739140E-01
       -1   -1    0    0    0  501  0.00000000000E+00  0.00000000000E+00  0.94289594848E+03  0.94289594849E+03  0.50400001928E-02 0. -1.
        1   -1    0    0  501    0  0.00000000000E+00  0.00000000000E+00 -0.80229798271E+03  0.80229798273E+03  0.50400001928E-02 0.  1.
    10030    2    1    2    0    0  0.00000000000E+00  0.00000000000E+00  0.14059796576E+03  0.17451939312E+04  0.17395212185E+04 0.  0.
        4    1    3    3  502    0  0.38307432234E+03 -0.77583557259E+03 -0.18392544150E+02  0.86545171484E+03  0.12699999809E+01 0.  1.
       -4    1    3    3    0  502 -0.38307432234E+03  0.77583557259E+03  0.15899050991E+03  0.87974221638E+03  0.12699999809E+01 0. -1.
</event>
<event>
 5   0  0.8306787E-05  0.2183526E+04  0.7818609E-02  0.8525316E-01
       -1   -1    0    0    0  501  0.00000000000E+00  0.00000000000E+00  0.77265542184E+03  0.77265542185E+03  0.50400001928E-02 0.  1.
        1   -1    0    0  501    0  0.00000000000E+00  0.00000000000E+00 -0.15426624810E+04  0.15426624810E+04  0.50400001928E-02 0. -1.
    10030    2    1    2    0    0  0.00000000000E+00  0.00000000000E+00 -0.77000705918E+03  0.23153179029E+04  0.21835260750E+04 0.  0.
        1    1    3    3  502    0 -0.32398073856E+03  0.91717152294E+03 -0.91068781529E+03  0.13324861794E+04  0.50400001928E-02 0. -1.
       -1    1    3    3    0  502  0.32398073856E+03 -0.91717152294E+03  0.14068075610E+03  0.98283172345E+03  0.50400001928E-02 0.  1.
</event>
<event>
 5   0  0.1798917E-04  0.2218156E+04  0.7818609E-02  0.8510909E-01
        2   -1    0    0  501    0  0.00000000000E+00  0.00000000000E+00  0.15485960438E+04  0.15485960438E+04  0.25500000920E-02 0.  1.
       -2   -1    0    0    0  501  0.00000000000E+00  0.00000000000E+00 -0.79430250166E+03  0.79430250166E+03  0.25500000920E-02 0. -1.
    10030    2    1    2    0    0  0.00000000000E+00  0.00000000000E+00  0.75429354216E+03  0.23428985455E+04  0.22181557309E+04 0.  0.
        4    1    3    3  502    0  0.16791738772E+02 -0.10299223971E+04 -0.57106736497E+02  0.10316418461E+04  0.12699999809E+01 0. -1.
       -4    1    3    3    0  502 -0.16791738772E+02  0.10299223971E+04  0.81140027866E+03  0.13112566993E+04  0.12699999809E+01 0.  1.
</event>
<event>
 5   0  0.1680258E-04  0.2478619E+04  0.7818609E-02  0.8410643E-01
        2   -1    0    0  501    0  0.00000000000E+00  0.00000000000E+00  0.10522229949E+04  0.10522229949E+04  0.25500000920E-02 0.  1.
       -2   -1    0    0    0  501  0.00000000000E+00  0.00000000000E+00 -0.14596599151E+04  0.14596599151E+04  0.25500000920E-02 0. -1.
    10030    2    1    2    0    0  0.00000000000E+00  0.00000000000E+00 -0.40743692022E+03  0.25118829100E+04  0.24786187504E+04 0.  0.
        5    1    3    3  502    0 -0.41219894141E+03  0.10221735877E+04 -0.77799694316E+03  0.13490915997E+04  0.46999998093E+01 0. -1.
       -5    1    3    3    0  502  0.41219894141E+03 -0.10221735877E+04  0.37056002294E+03  0.11627913103E+04  0.46999998093E+01 0.  1.
</event>
<event>
 5   0  0.8470971E-05  0.2170486E+04  0.7818609E-02  0.8530814E-01
       -1   -1    0    0    0  501  0.00000000000E+00  0.00000000000E+00  0.13451065733E+04  0.13451065733E+04  0.50400001928E-02 0.  1.
        1   -1    0    0  501    0  0.00000000000E+00  0.00000000000E+00 -0.87558326116E+03  0.87558326118E+03  0.50400001928E-02 0. -1.
    10030    2    1    2    0    0  0.00000000000E+00  0.00000000000E+00  0.46952331214E+03  0.22206898345E+04  0.21704863972E+04 0.  0.
        2    1    3    3  502    0 -0.40921610572E+03 -0.58803639921E+03 -0.59926705112E+03  0.93400515338E+03  0.25500000920E-02 0. -1.
       -2    1    3    3    0  502  0.40921610572E+03  0.58803639921E+03  0.10687903633E+04  0.12866846811E+04  0.25500000920E-02 0.  1.
</event>
<event>
 5   0  0.8602414E-05  0.2180889E+04  0.7818609E-02  0.8526425E-01
       -1   -1    0    0    0  501  0.00000000000E+00  0.00000000000E+00  0.20736662458E+04  0.20736662458E+04  0.50400001928E-02 0. -1.
        1   -1    0    0  501    0  0.00000000000E+00  0.00000000000E+00 -0.57341417588E+03  0.57341417590E+03  0.50400001928E-02 0.  1.
    10030    2    1    2    0    0  0.00000000000E+00  0.00000000000E+00  0.15002520699E+04  0.26470804217E+04  0.21808893795E+04 0.  0.
        3    1    3    3  502    0  0.27761776594E+02  0.56963183033E+02  0.20714295346E+04  0.20723985735E+04  0.10100000352E+00 0. -1.
       -3    1    3    3    0  502 -0.27761776594E+02 -0.56963183033E+02 -0.57117746461E+03  0.57468184828E+03  0.10100000352E+00 0.  1.
</event>
<event>
 5   0  0.1805501E-04  0.2064642E+04  0.7818609E-02  0.8576981E-01
        2   -1    0    0  501    0  0.00000000000E+00  0.00000000000E+00  0.13001976117E+04  0.13001976117E+04  0.25500000920E-02 0.  1.
       -2   -1    0    0    0  501  0.00000000000E+00  0.00000000000E+00 -0.81963410047E+03  0.81963410047E+03  0.25500000920E-02 0. -1.
    10030    2    1    2    0    0  0.00000000000E+00  0.00000000000E+00  0.48056351121E+03  0.21198317122E+04  0.20646416637E+04 0.  0.
        2    1    3    3  502    0  0.55129013255E+03 -0.25034027185E+02  0.11360354845E+04  0.12629822385E+04  0.25500000920E-02 0.  1.
       -2    1    3    3    0  502 -0.55129013255E+03  0.25034027185E+02 -0.65547197326E+03  0.85684947366E+03  0.25500000920E-02 0. -1.
</event>
<event>
 5   0  0.1798917E-04  0.2322323E+04  0.7818609E-02  0.8469171E-01
       -2   -1    0    0    0  501  0.00000000000E+00  0.00000000000E+00  0.84352262563E+03  0.84352262564E+03  0.25500000920E-02 0. -1.
        2   -1    0    0  501    0  0.00000000000E+00  0.00000000000E+00 -0.15984105506E+04  0.15984105506E+04  0.25500000920E-02 0.  1.
    10030    2    1    2    0    0  0.00000000000E+00  0.00000000000E+00 -0.75488792493E+03  0.24419331762E+04  0.23223225137E+04 0.  0.
        4    1    3    3  502    0 -0.70331816852E+03  0.25669523585E+03 -0.13107069873E+04  0.15094712020E+04  0.12699999809E+01 0.  1.
       -4    1    3    3    0  502  0.70331816852E+03 -0.25669523585E+03  0.55581906238E+03  0.93246197417E+03  0.12699999809E+01 0. -1.
</event>
<event>
 5   0  0.8306787E-05  0.2137614E+04  0.7818609E-02  0.8544853E-01
        1   -1    0    0  501    0  0.00000000000E+00  0.00000000000E+00  0.17083352588E+04  0.17083352588E+04  0.50400001928E-02 0. -1.
       -1   -1    0    0    0  501  0.00000000000E+00  0.00000000000E+00 -0.66869114190E+03  0.66869114192E+03  0.50400001928E-02 0.  1.
    10030    2    1    2    0    0  0.00000000000E+00  0.00000000000E+00  0.10396441169E+04  0.23770264007E+04  0.21376142355E+04 0.  0.
        1    1    3    3  502    0 -0.52098972003E+03  0.91137088728E+03  0.29653021271E+03  0.10908516625E+04  0.50400001928E-02 0.  1.
       -1    1    3    3    0  502  0.52098972003E+03 -0.91137088728E+03  0.74311390418E+03  0.12861747382E+04  0.50400001928E-02 0. -1.
</event>
<event>
 5   0  0.8306787E-05  0.2166837E+04  0.7818609E-02  0.8532360E-01
        1   -1    0    0  501    0  0.00000000000E+00  0.00000000000E+00  0.11081657393E+04  0.11081657393E+04  0.50400001928E-02 0. -1.
       -1   -1    0    0    0  501  0.00000000000E+00  0.00000000000E+00 -0.10592234728E+04  0.10592234728E+04  0.50400001928E-02 0.  1.
    10030    2    1    2    0    0  0.00000000000E+00  0.00000000000E+00  0.48942266550E+02  0.21673892121E+04  0.21668365539E+04 0.  0.
        1    1    3    3  502    0  0.93820521175E+03  0.50785514717E+03  0.21332949331E+03  0.10879592559E+04  0.50400001928E-02 0. -1.
       -1    1    3    3    0  502 -0.93820521175E+03 -0.50785514717E+03 -0.16438722676E+03  0.10794299561E+04  0.50400001928E-02 0.  1.
</event>
<event>
 5   0  0.1733962E-04  0.2171323E+04  0.7818609E-02  0.8530460E-01
        2   -1    0    0  501    0  0.00000000000E+00  0.00000000000E+00  0.24149136140E+04  0.24149136140E+04  0.25500000920E-02 0. -1.
       -2   -1    0    0    0  501  0.00000000000E+00  0.00000000000E+00 -0.48807570465E+03  0.48807570466E+03  0.25500000920E-02 0.  1.
    10030    2    1    2    0    0  0.00000000000E+00  0.00000000000E+00  0.19268379093E+04  0.29029893186E+04  0.21713227893E+04 0.  0.
        3    1    3    3  502    0 -0.10746346517E+04 -0.13326590634E+03  0.10675070275E+04  0.15205823557E+04  0.10100000352E+00 0.  1.
       -3    1    3    3    0  502  0.10746346517E+04  0.13326590634E+03  0.85933088186E+03  0.13824069630E+04  0.10100000352E+00 0. -1.
</event>
<event>
 5   0  0.8784659E-05  0.1828462E+04  0.7818609E-02  0.8691308E-01
        1   -1    0    0  501    0  0.00000000000E+00  0.00000000000E+00  0.13256490170E+04  0.13256490170E+04  0.50400001928E-02 0. -1.
       -1   -1    0    0    0  501  0.00000000000E+00  0.00000000000E+00 -0.63049769734E+03  0.63049769736E+03  0.50400001928E-02 0.  1.
    10030    2    1    2    0    0  0.00000000000E+00  0.00000000000E+00  0.69515131962E+03  0.19561467143E+04  0.18284623624E+04 0.  0.
        4    1    3    3  502    0 -0.24783137169E+03 -0.37797317573E+03 -0.50260926437E+03  0.67594511308E+03  0.12699999809E+01 0.  1.
       -4    1    3    3    0  502  0.24783137169E+03  0.37797317573E+03  0.11977605840E+04  0.12802016012E+04  0.12699999809E+01 0. -1.
</event>
<event>
 5   0  0.8602414E-05  0.2452554E+04  0.7818609E-02  0.8420086E-01
        1   -1    0    0  501    0  0.00000000000E+00  0.00000000000E+00  0.10928531582E+04  0.10928531582E+04  0.50400001928E-02 0. -1.
       -1   -1    0    0    0  501  0.00000000000E+00  0.00000000000E+00 -0.13759898961E+04  0.13759898961E+04  0.50400001928E-02 0.  1.
    10030    2    1    2    0    0  0.00000000000E+00  0.00000000000E+00 -0.28313673790E+03  0.24688430543E+04  0.24525536924E+04 0.  0.
        3    1    3    3  502    0  0.89469602561E+02 -0.22110975562E+03  0.10692759198E+04  0.10955570896E+04  0.10100000352E+00 0. -1.
       -3    1    3    3    0  502 -0.89469602561E+02  0.22110975562E+03 -0.13524126577E+04  0.13732859646E+04  0.10100000352E+00 0.  1.
</event>
<event>
 5   0  0.8306787E-05  0.1221411E+04  0.7818609E-02  0.9094319E-01
       -1   -1    0    0    0  501  0.00000000000E+00  0.00000000000E+00  0.44281774131E+03  0.44281774134E+03  0.50400001928E-02 0. -1.
        1   -1    0    0  501    0  0.00000000000E+00  0.00000000000E+00 -0.84224584243E+03  0.84224584244E+03  0.50400001928E-02 0.  1.
    10030    2    1    2    0    0  0.00000000000E+00  0.00000000000E+00 -0.39942810112E+03  0.12850635838E+04  0.12214113174E+04 0.  0.
        1    1    3    3  502    0  0.34299190332E+03  0.53628438175E+02 -0.72833386385E+03  0.80683931013E+03  0.50400001928E-02 0.  1.
       -1    1    3    3    0  502 -0.34299190332E+03 -0.53628438175E+02  0.32890576272E+03  0.47822427365E+03  0.50400001928E-02 0. -1.
</event>
<event>
 5   0  0.8602414E-05  0.1448576E+04  0.7818609E-02  0.8919388E-01
       -1   -1    0    0    0  501  0.00000000000E+00  0.00000000000E+00  0.72653061647E+03  0.72653061648E+03  0.50400001928E-02 0.  1.
        1   -1    0    0  501    0  0.00000000000E+00  0.00000000000E+00 -0.72205208791E+03  0.72205208793E+03  0.50400001928E-02 0. -1.
    10030    2    1    2    0    0  0.00000000000E+00  0.00000000000E+00  0.44785285540E+01  0.14485827044E+04  0.14485757813E+04 0.  0.
        3    1    3    3  502    0  0.60580917086E+03 -0.81499334908E+02  0.39075887524E+03  0.72549252365E+03  0.10100000352E+00 0.  1.
       -3    1    3    3    0  502 -0.60580917086E+03  0.81499334908E+02 -0.38628034669E+03  0.72309018077E+03  0.10100000352E+00 0. -1.
</event>
<event>
 5   0  0.1680258E-04  0.2194697E+04  0.7818609E-02  0.8520639E-01
        2   -1    0    0  501    0  0.00000000000E+00  0.00000000000E+00  0.12069270759E+04  0.12069270759E+04  0.25500000920E-02 0.  1.
       -2   -1    0    0    0  501  0.00000000000E+00  0.00000000000E+00 -0.99771863606E+03  0.99771863606E+03  0.25500000920E-02 0. -1.
    10030    2    1    2    0    0  0.00000000000E+00  0.00000000000E+00  0.20920843986E+03  0.22046457120E+04  0.21946969139E+04 0.  0.
        5    1    3    3  502    0  0.16373683543E+03  0.98288505583E+03  0.56633856154E+03  0.11461388400E+04  0.46999998093E+01 0.  1.
       -5    1    3    3    0  502 -0.16373683543E+03 -0.98288505583E+03 -0.35713012168E+03  0.10585068720E+04  0.46999998093E+01 0. -1.
</event>
<event>
 5   0  0.8784659E-05  0.2131323E+04  0.7818609E-02  0.8547569E-01
       -1   -1    0    0    0  501  0.00000000000E+00  0.00000000000E+00  0.69394340826E+03  0.69394340828E+03  0.50400001928E-02 0.  1.
        1   -1    0    0  501    0  0.00000000000E+00  0.00000000000E+00 -0.16364946529E+04  0.16364946529E+04  0.50400001928E-02 0. -1.
    10030    2    1    2    0    0  0.00000000000E+00  0.00000000000E+00 -0.94255124462E+03  0.23304380612E+04  0.21313232294E+04 0.  0.
        4    1    3    3  502    0 -0.59044168115E+03  0.88658109569E+03 -0.50560364144E+03  0.11791030800E+04  0.12699999809E+01 0.  1.
       -4    1    3    3    0  502  0.59044168115E+03 -0.88658109569E+03 -0.43694760317E+03  0.11513349812E+04  0.12699999809E+01 0. -1.
</event>
<event>
 5   0  0.8306787E-05  0.2241238E+04  0.7818609E-02  0.8501457E-01
       -1   -1    0    0    0  501  0.00000000000E+00  0.00000000000E+00  0.95804902276E+03  0.95804902277E+03  0.50400001928E-02 0. -1.
        1   -1    0    0  501    0  0.00000000000E+00  0.00000000000E+00 -0.13107750582E+04  0.13107750582E+04  0.50400001928E-02 0.  1.
    10030    2    1    2    0    0  0.00000000000E+00  0.00000000000E+00 -0.35272603543E+03  0.22688240810E+04  0.22412378397E+04 0.  0.
        1    1    3    3  502    0  0.62501546253E+03  0.89194351601E+03 -0.44338842766E+03  0.11759255342E+04  0.50400001928E-02 0.  1.
       -1    1    3    3    0  502 -0.62501546253E+03 -0.89194351601E+03  0.90662392233E+02  0.10928985468E+04  0.50400001928E-02 0. -1.
</event>
<event>
 5   0  0.8602414E-05  0.2348033E+04  0.7818609E-02  0.8459220E-01
        1   -1    0    0  501    0  0.00000000000E+00  0.00000000000E+00  0.15213244514E+04  0.15213244514E+04  0.50400001928E-02 0.  1.
       -1   -1    0    0    0  501  0.00000000000E+00  0.00000000000E+00 -0.90599656881E+03  0.90599656882E+03  0.50400001928E-02 0. -1.
    10030    2    1    2    0    0  0.00000000000E+00  0.00000000000E+00  0.61532788260E+03  0.24273210202E+04  0.23480329921E+04 0.  0.
        3    1    3    3  502    0  0.88575130521E+03 -0.72935594633E+03  0.56465299799E+03  0.12788074482E+04  0.10100000352E+00 0.  1.
       -3    1    3    3    0  502 -0.88575130521E+03  0.72935594633E+03  0.50674884614E+02  0.11485135721E+04  0.10100000352E+00 0. -1.
</event>
<event>
 5   0  0.1680258E-04  0.2154941E+04  0.7818609E-02  0.8537420E-01
       -2   -1    0    0    0  501  0.00000000000E+00  0.00000000000E+00  0.68872208412E+03  0.68872208413E+03  0.25500000920E-02 0.  1.
        2   -1    0    0  501    0  0.00000000000E+00  0.00000000000E+00 -0.16856476963E+04  0.16856476963E+04  0.25500000920E-02 0. -1.
    10030    2    1    2    0    0  0.00000000000E+00  0.00000000000E+00 -0.99692561213E+03  0.23743697804E+04  0.21549411078E+04 0.  0.
        5    1    3    3  502    0  0.10055637104E+03 -0.73670595340E+03  0.36073067696E+03  0.82643569431E+03  0.46999998093E+01 0.  1.
       -5    1    3    3    0  502 -0.10055637104E+03  0.73670595340E+03 -0.13576562891E+04  0.15479340861E+04  0.46999998093E+01 0. -1.
</event>
<event>
 5   0  0.1798917E-04  0.2262416E+04  0.7818609E-02  0.8492889E-01
       -2   -1    0    0    0  501  0.00000000000E+00  0.00000000000E+00  0.95590021690E+03  0.95590021691E+03  0.25500000920E-02 0. -1.
        2   -1    0    0  501    0  0.00000000000E+00  0.00000000000E+00 -0.13386660057E+04  0.13386660057E+04  0.25500000920E-02 0.  1.
    10030    2    1    2    0    0  0.00000000000E+00  0.00000000000E+00 -0.38276578882E+03  0.22945662226E+04  0.22624156340E+04 0.  0.
        4    1    3    3  502    0  0.10341816978E+04  0.30674200356E+03 -0.53682115240E+03  0.12049070517E+04  0.12699999809E+01 0.  1.
       -4    1    3    3    0  502 -0.10341816978E+04 -0.30674200356E+03  0.15405536359E+03  0.10896591709E+04  0.12699999809E+01 0. -1.
</event>
<event>
 5   0  0.7954459E-05  0.2211270E+04  0.7818609E-02  0.8513752E-01
       -1   -1    0    0    0  501  0.00000000000E+00  0.00000000000E+00  0.10756613600E+04  0.10756613600E+04  0.50400001928E-02 0. -1.
        1   -1    0    0  501    0  0.00000000000E+00  0.00000000000E+00 -0.11364437064E+04  0.11364437064E+04  0.50400001928E-02 0.  1.
    10030    2    1    2    0    0  0.00000000000E+00  0.00000000000E+00 -0.60782346400E+02  0.22121050665E+04  0.22112698459E+04 0.  0.
        5    1    3    3  502    0 -0.64837153975E+03 -0.73376675895E+03 -0.54401200118E+03  0.11201653706E+04  0.46999998093E+01 0.  1.
       -5    1    3    3    0  502  0.64837153975E+03  0.73376675895E+03  0.48322965478E+03  0.10919396958E+04  0.46999998093E+01 0. -1.
</event>
<event>
 5   0  0.1798917E-04  0.1494741E+04  0.7818609E-02  0.8887957E-01
       -2   -1    0    0    0  501  0.00000000000E+00  0.00000000000E+00  0.38743805150E+03  0.38743805150E+03  0.25500000920E-02 0. -1.
        2   -1    0    0  501    0  0.00000000000E+00  0.00000000000E+00 -0.14416831219E+04  0.14416831219E+04  0.25500000920E-02 0.  1.
    10030    2    1    2    0    0  0.00000000000E+00  0.00000000000E+00 -0.10542450704E+04  0.18291211734E+04  0.14947413149E+04 0.  0.
        4    1    3    3  502    0  0.72847379094E+03 -0.16557992091E+03 -0.55366626792E+03  0.92985951811E+03  0.12699999809E+01 0.  1.
       -4    1    3    3    0  502 -0.72847379094E+03  0.16557992091E+03 -0.50057880251E+03  0.89926165531E+03  0.12699999809E+01 0. -1.
</event>
<event>
 5   0  0.7954459E-05  0.2184583E+04  0.7818609E-02  0.8524872E-01
        1   -1    0    0  501    0  0.00000000000E+00  0.00000000000E+00  0.15660868854E+04  0.15660868854E+04  0.50400001928E-02 0.  1.
       -1   -1    0    0    0  501  0.00000000000E+00  0.00000000000E+00 -0.76183574012E+03  0.76183574013E+03  0.50400001928E-02 0. -1.
    10030    2    1    2    0    0  0.00000000000E+00  0.00000000000E+00  0.80425114525E+03  0.23279226255E+04  0.21845832201E+04 0.  0.
        5    1    3    3  502    0  0.94404867023E+03  0.32186554038E+03  0.87659740829E+03  0.13278819315E+04  0.46999998093E+01 0.  1.
       -5    1    3    3    0  502 -0.94404867023E+03 -0.32186554038E+03 -0.72346263040E+02  0.10000406940E+04  0.46999998093E+01 0. -1.
</event>
<event>
 5   0  0.1805501E-04  0.2275367E+04  0.7818609E-02  0.8487697E-01
        2   -1    0    0  501    0  0.00000000000E+00  0.00000000000E+00  0.81098106291E+03  0.81098106292E+03  0.25500000920E-02 0. -1.
       -2   -1    0    0    0  501  0.00000000000E+00  0.00000000000E+00 -0.15959973623E+04  0.15959973623E+04  0.25500000920E-02 0.  1.
    10030    2    1    2    0    0  0.00000000000E+00  0.00000000000E+00 -0.78501629937E+03  0.24069784252E+04  0.22753669043E+04 0.  0.
        2    1    3    3  502    0 -0.56826511746E+02  0.96962453000E+03 -0.10191601990E+04  0.14078666460E+04  0.25500000920E-02 0.  1.
       -2    1    3    3    0  502  0.56826511746E+02 -0.96962453000E+03  0.23414389964E+03  0.99911177921E+03  0.25500000920E-02 0. -1.
</event>
<event>
 5   0  0.1754356E-04  0.2213854E+04  0.7818609E-02  0.8512684E-01
       -2   -1    0    0    0  501  0.00000000000E+00  0.00000000000E+00  0.76628386017E+03  0.76628386018E+03  0.25500000920E-02 0. -1.
        2   -1    0    0  501    0  0.00000000000E+00  0.00000000000E+00 -0.15989997221E+04  0.15989997221E+04  0.25500000920E-02 0.  1.
    10030    2    1    2    0    0  0.00000000000E+00  0.00000000000E+00 -0.83271586192E+03  0.23652835823E+04  0.22138542675E+04 0.  0.
        1    1    3    3  502    0  0.27820611393E+03 -0.35212240816E+03 -0.14974500847E+04  0.15632484090E+04  0.50400001928E-02 0.  1.
       -1    1    3    3    0  502 -0.27820611393E+03  0.35212240816E+03  0.66473422278E+03  0.80203517324E+03  0.50400001928E-02 0. -1.
</event>
<event>
 5   0  0.8784659E-05  0.2297119E+04  0.7818609E-02  0.8479058E-01
        1   -1    0    0  501    0  0.00000000000E+00  0.00000000000E+00  0.96781624309E+03  0.96781624311E+03  0.50400001928E-02 0. -1.
       -1   -1    0    0    0  501  0.00000000000E+00  0.00000000000E+00 -0.13630570898E+04  0.13630570898E+04  0.50400001928E-02 0.  1.
    10030    2    1    2    0    0  0.00000000000E+00  0.00000000000E+00 -0.39524084668E+03  0.23308733329E+04  0.22971188840E+04 0.  0.
        4    1    3    3  502    0  0.35348973836E+03 -0.14101612796E+03  0.90197609253E+03  0.97898060648E+03  0.12699999809E+01 0. -1.
       -4    1    3    3    0  502 -0.35348973836E+03  0.14101612796E+03 -0.12972169392E+04  0.13518927264E+04  0.12699999809E+01 0.  1.
</event>
<event>
 5   0  0.1754356E-04  0.2139765E+04  0.7818609E-02  0.8543926E-01
       -2   -1    0    0    0  501  0.00000000000E+00  0.00000000000E+00  0.60858629984E+03  0.60858629985E+03  0.25500000920E-02 0.  1.
        2   -1    0    0  501    0  0.00000000000E+00  0.00000000000E+00 -0.18808314121E+04  0.18808314121E+04  0.25500000920E-02 0. -1.
    10030    2    1    2    0    0  0.00000000000E+00  0.00000000000E+00 -0.12722451122E+04  0.24894177119E+04  0.21397646877E+04 0.  0.
        1    1    3    3  502    0  0.69960642448E+03  0.78853854854E+03 -0.42348290830E+03  0.11360369560E+04  0.50400001928E-02 0.  1.
       -1    1    3    3    0  502 -0.69960642448E+03 -0.78853854854E+03 -0.84876220395E+03  0.13533807560E+04  0.50400001928E-02 0. -1.
</event>
<event>
 5   0  0.8470971E-05  0.2184495E+04  0.7818609E-02  0.8524909E-01
        1   -1    0    0  501    0  0.00000000000E+00  0.00000000000E+00  0.51837996812E+03  0.51837996815E+03  0.50400001928E-02 0. -1.
       -1   -1    0    0    0  501  0.00000000000E+00  0.00000000000E+00 -0.23014103369E+04  0.23014103369E+04  0.50400001928E-02 0.  1.
    10030    2    1    2    0    0  0.00000000000E+00  0.00000000000E+00 -0.17830303688E+04  0.28197903050E+04  0.21844953807E+04 0.  0.
        2    1    3    3  502    0 -0.13174864303E+03  0.92219491452E+03 -0.16276265490E+04  0.18753584586E+04  0.25500000920E-02 0.  1.
       -2    1    3    3    0  502  0.13174864303E+03 -0.92219491452E+03 -0.15540381975E+03  0.94443184641E+03  0.25500000920E-02 0. -1.
</event>
<event>
 5   0  0.1798917E-04  0.2205675E+04  0.7818609E-02  0.8516070E-01
        2   -1    0    0  501    0  0.00000000000E+00  0.00000000000E+00  0.28369384421E+04  0.28369384421E+04  0.25500000920E-02 0. -1.
       -2   -1    0    0    0  501  0.00000000000E+00  0.00000000000E+00 -0.42871954149E+03  0.42871954150E+03  0.25500000920E-02 0.  1.
    10030    2    1    2    0    0  0.00000000000E+00  0.00000000000E+00  0.24082189006E+04  0.32656579836E+04  0.22056753598E+04 0.  0.
        4    1    3    3  502    0  0.42703945723E+02  0.13131531671E+03 -0.41586884366E+03  0.43819612893E+03  0.12699999809E+01 0.  1.
       -4    1    3    3    0  502 -0.42703945723E+02 -0.13131531671E+03  0.28240877443E+04  0.28274618547E+04  0.12699999809E+01 0. -1.
</event>
<event>
 5   0  0.1733962E-04  0.2183088E+04  0.7818609E-02  0.8525500E-01
       -2   -1    0    0    0  501  0.00000000000E+00  0.00000000000E+00  0.16195771202E+04  0.16195771202E+04  0.25500000920E-02 0. -1.
        2   -1    0    0  501    0  0.00000000000E+00  0.00000000000E+00 -0.73566638789E+03  0.73566638789E+03  0.25500000920E-02 0.  1.
    10030    2    1    2    0    0  0.00000000000E+00  0.00000000000E+00  0.88391073229E+03  0.23552435081E+04  0.21830881337E+04 0.  0.
        3    1    3    3  502    0  0.58098218792E+03 -0.91727709328E+03  0.32118644719E+03  0.11322978021E+04  0.10100000352E+00 0.  1.
       -3    1    3    3    0  502 -0.58098218792E+03  0.91727709328E+03  0.56272428510E+03  0.12229457060E+04  0.10100000352E+00 0. -1.
</event>
<event>
 5   0  0.8470971E-05  0.2202221E+04  0.7818609E-02  0.8517504E-01
       -1   -1    0    0    0  501  0.00000000000E+00  0.00000000000E+00  0.60260040469E+03  0.60260040471E+03  0.50400001928E-02 0.  1.
        1   -1    0    0  501    0  0.00000000000E+00  0.00000000000E+00 -0.20120205379E+04  0.20120205379E+04  0.50400001928E-02 0. -1.
    10030    2    1    2    0    0  0.00000000000E+00  0.00000000000E+00 -0.14094201332E+04  0.26146209426E+04  0.22022210519E+04 0.  0.
        2    1    3    3  502    0 -0.81146614009E+03 -0.58796656761E+03 -0.16289226525E+03  0.10152417797E+04  0.25500000920E-02 0.  1.
       -2    1    3    3    0  502  0.81146614009E+03  0.58796656761E+03 -0.12465278679E+04  0.15993791629E+04  0.25500000920E-02 0. -1.
</event>
<event>
 5   0  0.8784659E-05  0.2215601E+04  0.7818609E-02  0.8511962E-01
        1   -1    0    0  501    0  0.00000000000E+00  0.00000000000E+00  0.20912008044E+04  0.20912008044E+04  0.50400001928E-02 0. -1.
       -1   -1    0    0    0  501  0.00000000000E+00  0.00000000000E+00 -0.58685048714E+03  0.58685048716E+03  0.50400001928E-02 0.  1.
    10030    2    1    2    0    0  0.00000000000E+00  0.00000000000E+00  0.15043503173E+04  0.26780512916E+04  0.22156012374E+04 0.  0.
        4    1    3    3  502    0  0.60191239864E+03 -0.83013251677E+03  0.12589782787E+04  0.16237137834E+04  0.12699999809E+01 0.  1.
       -4    1    3    3    0  502 -0.60191239864E+03  0.83013251677E+03  0.24537203853E+03  0.10543375082E+04  0.12699999809E+01 0. -1.
</event>
<event>
 5   0  0.8602414E-05  0.1121908E+04  0.7818609E-02  0.9184098E-01
       -1   -1    0    0    0  501  0.00000000000E+00  0.00000000000E+00  0.30059875902E+03  0.30059875906E+03  0.50400001928E-02 0.  1.
        1   -1    0    0  501    0  0.00000000000E+00  0.00000000000E+00 -0.10468086651E+04  0.10468086652E+04  0.50400001928E-02 0. -1.
    10030    2    1    2    0    0  0.00000000000E+00  0.00000000000E+00 -0.74620990613E+03  0.13474074242E+04  0.11219079921E+04 0.  0.
        3    1    3    3  502    0  0.53815110104E+02  0.10749496418E+03  0.28494696704E+03  0.30926690354E+03  0.10100000352E+00 0.  1.
       -3    1    3    3    0  502 -0.53815110104E+02 -0.10749496418E+03 -0.10311568732E+04  0.10381405207E+04  0.10100000352E+00 0. -1.
</event>
<event>
 5   0  0.8602414E-05  0.2203170E+04  0.7818609E-02  0.8517110E-01
       -1   -1    0    0    0  501  0.00000000000E+00  0.00000000000E+00  0.11988733134E+04  0.11988733134E+04  0.50400001928E-02 0.  1.
        1   -1    0    0  501    0  0.00000000000E+00  0.00000000000E+00 -0.10121919116E+04  0.10121919116E+04  0.50400001928E-02 0. -1.
    10030    2    1    2    0    0  0.00000000000E+00  0.00000000000E+00  0.18668140176E+03  0.22110652250E+04  0.22031703255E+04 0.  0.
        3    1    3    3  502    0 -0.24620123967E+03  0.62516819672E+03 -0.78273620614E+03  0.10315649777E+04  0.10100000352E+00 0. -1.
       -3    1    3    3    0  502  0.24620123967E+03 -0.62516819672E+03  0.96941760790E+03  0.11795002473E+04  0.10100000352E+00 0.  1.
</event>
<event>
 5   0  0.1733962E-04  0.1256732E+04  0.7818609E-02  0.9064599E-01
        2   -1    0    0  501    0  0.00000000000E+00  0.00000000000E+00  0.66711766709E+03  0.66711766709E+03  0.25500000920E-02 0.  1.
       -2   -1    0    0    0  501  0.00000000000E+00  0.00000000000E+00 -0.59186518547E+03  0.59186518548E+03  0.25500000920E-02 0. -1.
    10030    2    1    2    0    0  0.00000000000E+00  0.00000000000E+00  0.75252481617E+02  0.12589828526E+04  0.12567318278E+04 0.  0.
        3    1    3    3  502    0 -0.25223103927E+03  0.57380112031E+03 -0.68998409081E+01  0.62682999357E+03  0.10100000352E+00 0.  1.
       -3    1    3    3    0  502  0.25223103927E+03 -0.57380112031E+03  0.82152322526E+02  0.63215285899E+03  0.10100000352E+00 0. -1.
</event>
<event>
 5   0  0.1680258E-04  0.2278905E+04  0.7818609E-02  0.8486285E-01
        2   -1    0    0  501    0  0.00000000000E+00  0.00000000000E+00  0.11294485723E+04  0.11294485723E+04  0.25500000920E-02 0. -1.
       -2   -1    0    0    0  501  0.00000000000E+00  0.00000000000E+00 -0.11495449512E+04  0.11495449512E+04  0.25500000920E-02 0.  1.
    10030    2    1    2    0    0  0.00000000000E+00  0.00000000000E+00 -0.20096378842E+02  0.22789935235E+04  0.22789049159E+04 0.  0.
        5    1    3    3  502    0 -0.98060311443E+03  0.38738118307E+03 -0.44213346141E+03  0.11433069302E+04  0.46999998093E+01 0.  1.
       -5    1    3    3    0  502  0.98060311443E+03 -0.38738118307E+03  0.42203708257E+03  0.11356865933E+04  0.46999998093E+01 0. -1.
</event>
<event>
 5   0  0.1805501E-04  0.2283109E+04  0.7818609E-02  0.8484611E-01
       -2   -1    0    0    0  501  0.00000000000E+00  0.00000000000E+00  0.12528765291E+04  0.12528765291E+04  0.25500000920E-02 0. -1.
        2   -1    0    0  501    0  0.00000000000E+00  0.00000000000E+00 -0.10401242312E+04  0.10401242312E+04  0.25500000920E-02 0.  1.
    10030    2    1    2    0    0  0.00000000000E+00  0.00000000000E+00  0.21275229787E+03  0.22930007603E+04  0.22831094907E+04 0.  0.
        2    1    3    3  502    0  0.17821625208E+03 -0.11043590420E+04 -0.12215594701E+03  0.11252964061E+04  0.25500000920E-02 0. -1.
       -2    1    3    3    0  502 -0.17821625208E+03  0.11043590420E+04  0.33490824487E+03  0.11677043542E+04  0.25500000920E-02 0.  1.
</event>
<event>
 5   0  0.8602414E-05  0.2095900E+04  0.7818609E-02  0.8563052E-01
       -1   -1    0    0    0  501  0.00000000000E+00  0.00000000000E+00  0.66518865002E+03  0.66518865004E+03  0.50400001928E-02 0.  1.
        1   -1    0    0  501    0  0.00000000000E+00  0.00000000000E+00 -0.16509591414E+04  0.16509591414E+04  0.50400001928E-02 0. -1.
    10030    2    1    2    0    0  0.00000000000E+00  0.00000000000E+00 -0.98577049142E+03  0.23161477915E+04  0.20959000764E+04 0.  0.
        3    1    3    3  502    0 -0.55509191069E+03  0.86526295963E+03 -0.26805474316E+03  0.10623842874E+04  0.10100000352E+00 0. -1.
       -3    1    3    3    0  502  0.55509191069E+03 -0.86526295963E+03 -0.71771574826E+03  0.12537635041E+04  0.10100000352E+00 0.  1.
</event>
<event>
 5   0  0.1805501E-04  0.1901201E+04  0.7818609E-02  0.8654259E-01
        2   -1    0    0  501    0  0.00000000000E+00  0.00000000000E+00  0.85941098746E+03  0.85941098746E+03  0.25500000920E-02 0. -1.
       -2   -1    0    0    0  501  0.00000000000E+00  0.00000000000E+00 -0.10514660892E+04  0.10514660892E+04  0.25500000920E-02 0.  1.
    10030    2    1    2    0    0  0.00000000000E+00  0.00000000000E+00 -0.19205510177E+03  0.19108770767E+04  0.19012012098E+04 0.  0.
        2    1    3    3  502    0  0.18439036224E+03 -0.33251622417E+03 -0.97171054732E+03  0.10434501583E+04  0.25500000920E-02 0.  1.
       -2    1    3    3    0  502 -0.18439036224E+03  0.33251622417E+03  0.77965544555E+03  0.86742691842E+03  0.25500000920E-02 0. -1.
</event>
<event>
 5   0  0.8306787E-05  0.2226423E+04  0.7818609E-02  0.8507510E-01
        1   -1    0    0  501    0  0.00000000000E+00  0.00000000000E+00  0.15578699608E+04  0.15578699608E+04  0.50400001928E-02 0. -1.
       -1   -1    0    0    0  501  0.00000000000E+00  0.00000000000E+00 -0.79547067673E+03  0.79547067674E+03  0.50400001928E-02 0.  1.
    10030    2    1    2    0    0  0.00000000000E+00  0.00000000000E+00  0.76239928405E+03  0.23533406375E+04  0.22264230254E+04 0.  0.
        1    1    3    3  502    0  0.23788929243E+03 -0.87209925641E+03  0.10679207295E+04  0.13991437071E+04  0.50400001928E-02 0. -1.
       -1    1    3    3    0  502 -0.23788929243E+03  0.87209925641E+03 -0.30552144544E+03  0.95419693048E+03  0.50400001928E-02 0.  1.
</event>
<event>
 5   0  0.7954459E-05  0.2204118E+04  0.7818609E-02  0.8516716E-01
        1   -1    0    0  501    0  0.00000000000E+00  0.00000000000E+00  0.27192474313E+04  0.27192474313E+04  0.50400001928E-02 0. -1.
       -1   -1    0    0    0  501  0.00000000000E+00  0.00000000000E+00 -0.44664336210E+03  0.44664336212E+03  0.50400001928E-02 0.  1.
    10030    2    1    2    0    0  0.00000000000E+00  0.00000000000E+00  0.22726040692E+04  0.31658907934E+04  0.22041177964E+04 0.  0.
        5    1    3    3  502    0  0.46390736285E+03  0.81778430394E+03  0.31051718718E+03  0.99016373525E+03  0.46999998093E+01 0. -1.
       -5    1    3    3    0  502 -0.46390736285E+03 -0.81778430394E+03  0.19620868820E+04  0.21757270582E+04  0.46999998093E+01 0.  1.
</event>
<event>
 5   0  0.1798917E-04  0.1773705E+04  0.7818609E-02  0.8720409E-01
       -2   -1    0    0    0  501  0.00000000000E+00  0.00000000000E+00  0.51299399472E+03  0.51299399473E+03  0.25500000920E-02 0. -1.
        2   -1    0    0  501    0  0.00000000000E+00  0.00000000000E+00 -0.15331709705E+04  0.15331709705E+04  0.25500000920E-02 0.  1.
    10030    2    1    2    0    0  0.00000000000E+00  0.00000000000E+00 -0.10201769757E+04  0.20461649652E+04  0.17737051624E+04 0.  0.
        4    1    3    3  502    0 -0.33687383655E+03  0.79383233243E+03 -0.74889460201E+03  0.11421464405E+04  0.12699999809E+01 0.  1.
       -4    1    3    3    0  502  0.33687383655E+03 -0.79383233243E+03 -0.27128237373E+03  0.90401852468E+03  0.12699999809E+01 0. -1.
</event>
<event>
 5   0  0.8602414E-05  0.2246884E+04  0.7818609E-02  0.8499164E-01
        1   -1    0    0  501    0  0.00000000000E+00  0.00000000000E+00  0.17131532187E+04  0.17131532188E+04  0.50400001928E-02 0.  1.
       -1   -1    0    0    0  501  0.00000000000E+00  0.00000000000E+00 -0.73672420208E+03  0.73672420210E+03  0.50400001928E-02 0. -1.
    10030    2    1    2    0    0  0.00000000000E+00  0.00000000000E+00  0.97642901666E+03  0.24498774208E+04  0.22468835645E+04 0.  0.
        3    1    3    3  502    0  0.16310491024E+03 -0.10306684410E+04  0.94203996555E+03  0.14058164724E+04  0.10100000352E+00 0.  1.
       -3    1    3    3    0  502 -0.16310491024E+03  0.10306684410E+04  0.34389051116E+02  0.10440609485E+04  0.10100000352E+00 0. -1.
</event>
<event>
 5   0  0.6250625E-05  0.2281814E+04  0.7818609E-02  0.8485126E-01
       -3   -1    0    0    0  501  0.00000000000E+00  0.00000000000E+00  0.95358221382E+03  0.95358221917E+03  0.10100000352E+00 0.  1.
        3   -1    0    0  501    0  0.00000000000E+00  0.00000000000E+00 -0.13650305235E+04  0.13650305272E+04  0.10100000352E+00 0. -1.
    10030    2    1    2    0    0  0.00000000000E+00  0.00000000000E+00 -0.41144830965E+03  0.23186127464E+04  0.22818140494E+04 0.  0.
        5    1    3    3  502    0 -0.33052237957E+03  0.40678607199E+03  0.82399244178E+03  0.97657850984E+03  0.46999998093E+01 0.  1.
       -5    1    3    3    0  502  0.33052237957E+03 -0.40678607199E+03 -0.12354407514E+04  0.13420342365E+04  0.46999998093E+01 0. -1.
</event>
<event>
 5   0  0.8306787E-05  0.2206633E+04  0.7818609E-02  0.8515672E-01
        1   -1    0    0  501    0  0.00000000000E+00  0.00000000000E+00  0.10883804534E+04  0.10883804534E+04  0.50400001928E-02 0. -1.
       -1   -1    0    0    0  501  0.00000000000E+00  0.00000000000E+00 -0.11184573212E+04  0.11184573212E+04  0.50400001928E-02 0.  1.
    10030    2    1    2    0    0  0.00000000000E+00  0.00000000000E+00 -0.30076867829E+02  0.22068377746E+04  0.22066328071E+04 0.  0.
        1    1    3    3  502    0 -0.22297331105E+03 -0.57063460281E+03  0.90263392683E+03  0.10909119824E+04  0.50400001928E-02 0. -1.
       -1    1    3    3    0  502  0.22297331105E+03  0.57063460281E+03 -0.93271079466E+03  0.11159257923E+04  0.50400001928E-02 0.  1.
</event>
<event>
 5   0  0.8470971E-05  0.2155822E+04  0.7818609E-02  0.8537044E-01
        1   -1    0    0  501    0  0.00000000000E+00  0.00000000000E+00  0.85766458284E+03  0.85766458285E+03  0.50400001928E-02 0.  1.
       -1   -1    0    0    0  501  0.00000000000E+00  0.00000000000E+00 -0.13547168032E+04  0.13547168032E+04  0.50400001928E-02 0. -1.
    10030    2    1    2    0    0  0.00000000000E+00  0.00000000000E+00 -0.49705222036E+03  0.22123813861E+04  0.21558224620E+04 0.  0.
        2    1    3    3  502    0  0.74922473931E+02 -0.35733871189E+03  0.79227510612E+03  0.87235553297E+03  0.25500000920E-02 0.  1.
       -2    1    3    3    0  502 -0.74922473931E+02  0.35733871189E+03 -0.12893273265E+04  0.13400258531E+04  0.25500000920E-02 0. -1.
</event>
<event>
 5   0  0.8784659E-05  0.2213828E+04  0.7818609E-02  0.8512695E-01
        1   -1    0    0  501    0  0.00000000000E+00  0.00000000000E+00  0.23499082508E+04  0.23499082508E+04  0.50400001928E-02 0.  1.
       -1   -1    0    0    0  501  0.00000000000E+00  0.00000000000E+00 -0.52140702658E+03  0.52140702660E+03  0.50400001928E-02 0. -1.
    10030    2    1    2    0    0  0.00000000000E+00  0.00000000000E+00  0.18285012242E+04  0.28713152774E+04  0.22138280636E+04 0.  0.
        4    1    3    3  502    0  0.86912627147E+03 -0.22795459265E+03  0.75794984946E+02  0.90171517937E+03  0.12699999809E+01 0.  1.
       -4    1    3    3    0  502 -0.86912627147E+03  0.22795459265E+03  0.17527062392E+04  0.19696000980E+04  0.12699999809E+01 0. -1.
</event>
<event>
 5   0  0.6250625E-05  0.2446759E+04  0.7818609E-02  0.8422202E-01
        3   -1    0    0  501    0  0.00000000000E+00  0.00000000000E+00  0.11779566404E+04  0.11779566447E+04  0.10100000352E+00 0.  1.
       -3   -1    0    0    0  501  0.00000000000E+00  0.00000000000E+00 -0.12705539479E+04  0.12705539519E+04  0.10100000352E+00 0. -1.
    10030    2    1    2    0    0  0.00000000000E+00  0.00000000000E+00 -0.92597307564E+02  0.24485105966E+04  0.24467590565E+04 0.  0.
        4    1    3    3  502    0 -0.11359065529E+04 -0.13929586160E+03  0.38640980064E+03  0.12078912124E+04  0.12699999809E+01 0.  1.
       -4    1    3    3    0  502  0.11359065529E+04  0.13929586160E+03 -0.47900710820E+03  0.12406193843E+04  0.12699999809E+01 0. -1.
</event>
<event>
 5   0  0.1754356E-04  0.2192777E+04  0.7818609E-02  0.8521441E-01
        2   -1    0    0  501    0  0.00000000000E+00  0.00000000000E+00  0.21283008803E+04  0.21283008803E+04  0.25500000920E-02 0. -1.
       -2   -1    0    0    0  501  0.00000000000E+00  0.00000000000E+00 -0.56480148838E+03  0.56480148839E+03  0.25500000920E-02 0.  1.
    10030    2    1    2    0    0  0.00000000000E+00  0.00000000000E+00  0.15634993919E+04  0.26931023687E+04  0.21927767829E+04 0.  0.
        1    1    3    3  502    0 -0.57370883884E+02  0.98630767072E+03  0.19791894205E+03  0.10076041620E+04  0.50400001928E-02 0.  1.
       -1    1    3    3    0  502  0.57370883884E+02 -0.98630767072E+03  0.13655804499E+04  0.16854982067E+04  0.50400001928E-02 0. -1.
</event>
<event>
 5   0  0.8470971E-05  0.2220842E+04  0.7818609E-02  0.8509803E-01
        1   -1    0    0  501    0  0.00000000000E+00  0.00000000000E+00  0.15269797818E+04  0.15269797819E+04  0.50400001928E-02 0. -1.
       -1   -1    0    0    0  501  0.00000000000E+00  0.00000000000E+00 -0.80749946018E+03  0.80749946019E+03  0.50400001928E-02 0.  1.
    10030    2    1    2    0    0  0.00000000000E+00  0.00000000000E+00  0.71948032167E+03  0.23344792420E+04  0.22208424974E+04 0.  0.
        2    1    3    3  502    0  0.10456381820E+04  0.37209990270E+03  0.39642283791E+03  0.11785451250E+04  0.25500000920E-02 0.  1.
       -2    1    3    3    0  502 -0.10456381820E+04 -0.37209990270E+03  0.32305748376E+03  0.11559341171E+04  0.25500000920E-02 0. -1.
</event>
<event>
 5   0  0.1733962E-04  0.2197546E+04  0.7818609E-02  0.8519450E-01
       -2   -1    0    0    0  501  0.00000000000E+00  0.00000000000E+00  0.60339146434E+03  0.60339146435E+03  0.25500000920E-02 0.  1.
        2   -1    0    0  501    0  0.00000000000E+00  0.00000000000E+00 -0.20008606737E+04  0.20008606737E+04  0.25500000920E-02 0. -1.
    10030    2    1    2    0    0  0.00000000000E+00  0.00000000000E+00 -0.13974692094E+04  0.26042521380E+04  0.21975461332E+04 0.  0.
        3    1    3    3  502    0  0.99302247403E+03  0.16371631196E+03 -0.17621885188E+03  0.10217385961E+04  0.10100000352E+00 0.  1.
       -3    1    3    3    0  502 -0.99302247403E+03 -0.16371631196E+03 -0.12212503575E+04  0.15825135420E+04  0.10100000352E+00 0. -1.
</event>
<event>
 5   0  0.8784659E-05  0.1452225E+04  0.7818609E-02  0.8916860E-01
       -1   -1    0    0    0  501  0.00000000000E+00  0.00000000000E+00  0.42244860179E+03  0.42244860182E+03  0.50400001928E-02 0.  1.
        1   -1    0    0  501    0  0.00000000000E+00  0.00000000000E+00 -0.12480548927E+04  0.12480548927E+04  0.50400001928E-02 0. -1.
    10030    2    1    2    0    0  0.00000000000E+00  0.00000000000E+00 -0.82560629090E+03  0.16705034945E+04  0.14522245617E+04 0.  0.
        4    1    3    3  502    0 -0.65844636785E+02  0.12014630009E+03  0.40744433223E+03  0.42986410223E+03  0.12699999809E+01 0.  1.
       -4    1    3    3    0  502  0.65844636785E+02 -0.12014630009E+03 -0.12330506231E+04  0.12406393923E+04  0.12699999809E+01 0. -1.
</event>
<event>
 5   0  0.1754356E-04  0.2122390E+04  0.7818609E-02  0.8551444E-01
        2   -1    0    0  501    0  0.00000000000E+00  0.00000000000E+00  0.11095629645E+04  0.11095629645E+04  0.25500000920E-02 0. -1.
       -2   -1    0    0    0  501  0.00000000000E+00  0.00000000000E+00 -0.10149351766E+04  0.10149351766E+04  0.25500000920E-02 0.  1.
    10030    2    1    2    0    0  0.00000000000E+00  0.00000000000E+00  0.94627787886E+02  0.21244981410E+04  0.21223896751E+04 0.  0.
        1    1    3    3  502    0 -0.53988782160E+03  0.17964361356E+03  0.94396255812E+03  0.11021869165E+04  0.50400001928E-02 0. -1.
       -1    1    3    3    0  502  0.53988782160E+03 -0.17964361356E+03 -0.84933477023E+03  0.10223112245E+04  0.50400001928E-02 0.  1.
</event>
<event>
 5   0  0.8602414E-05  0.2147683E+04  0.7818609E-02  0.8540525E-01
        1   -1    0    0  501    0  0.00000000000E+00  0.00000000000E+00  0.13164184959E+04  0.13164184959E+04  0.50400001928E-02 0.  1.
       -1   -1    0    0    0  501  0.00000000000E+00  0.00000000000E+00 -0.87596417714E+03  0.87596417716E+03  0.50400001928E-02 0. -1.
    10030    2    1    2    0    0  0.00000000000E+00  0.00000000000E+00  0.44045431871E+03  0.21923826730E+04  0.21476828858E+04 0.  0.
        3    1    3    3  502    0  0.82147532371E+02 -0.76127185556E+03 -0.54833888210E+03  0.94178479228E+03  0.10100000352E+00 0. -1.
       -3    1    3    3    0  502 -0.82147532371E+02  0.76127185556E+03  0.98879320081E+03  0.12505978807E+04  0.10100000352E+00 0.  1.
</event>
<event>
 5   0  0.1798917E-04  0.2271767E+04  0.7818609E-02  0.8489137E-01
       -2   -1    0    0    0  501  0.00000000000E+00  0.00000000000E+00  0.16101939123E+04  0.16101939123E+04  0.25500000920E-02 0.  1.
        2   -1    0    0  501    0  0.00000000000E+00  0.00000000000E+00 -0.80128954100E+03  0.80128954100E+03  0.25500000920E-02 0. -1.
    10030    2    1    2    0    0  0.00000000000E+00  0.00000000000E+00  0.80890437129E+03  0.24114834533E+04  0.22717671896E+04 0.  0.
        4    1    3    3  502    0 -0.92986779893E+03 -0.31124722986E+03 -0.20413240792E+03  0.10015990288E+04  0.12699999809E+01 0. -1.
       -4    1    3    3    0  502  0.92986779893E+03  0.31124722986E+03  0.10130367792E+04  0.14098844245E+04  0.12699999809E+01 0.  1.
</event>
<event>
 5   0  0.1798917E-04  0.2231656E+04  0.7818609E-02  0.8505366E-01
       -2   -1    0    0    0  501  0.00000000000E+00  0.00000000000E+00  0.13111102865E+04  0.13111102865E+04  0.25500000920E-02 0.  1.
        2   -1    0    0  501    0  0.00000000000E+00  0.00000000000E+00 -0.94963227901E+03  0.94963227901E+03  0.25500000920E-02 0. -1.
    10030    2    1    2    0    0  0.00000000000E+00  0.00000000000E+00  0.36147800745E+03  0.22607425655E+04  0.22316564694E+04 0.  0.
        4    1    3    3  502    0 -0.30132958946E+03  0.99777556568E+03  0.58432245666E+03  0.11949016475E+04  0.12699999809E+01 0. -1.
       -4    1    3    3    0  502  0.30132958946E+03 -0.99777556568E+03 -0.22284444921E+03  0.10658409180E+04  0.12699999809E+01 0.  1.
</event>
<event>
 5   0  0.1680258E-04  0.2298510E+04  0.7818609E-02  0.8478509E-01
        2   -1    0    0  501    0  0.00000000000E+00  0.00000000000E+00  0.17606692787E+04  0.17606692787E+04  0.25500000920E-02 0. -1.
       -2   -1    0    0    0  501  0.00000000000E+00  0.00000000000E+00 -0.75016224679E+03  0.75016224679E+03  0.25500000920E-02 0.  1.
    10030    2    1    2    0    0  0.00000000000E+00  0.00000000000E+00  0.10105070319E+04  0.25108315255E+04  0.22985104933E+04 0.  0.
        5    1    3    3  502    0 -0.47062500180E+03  0.97046043768E+03  0.71753071680E+02  0.10809495579E+04  0.46999998093E+01 0.  1.
       -5    1    3    3    0  502  0.47062500180E+03 -0.97046043768E+03  0.93875396026E+03  0.14298819676E+04  0.46999998093E+01 0. -1.
</event>
<event>
 5   0  0.1805501E-04  0.2166063E+04  0.7818609E-02  0.8532688E-01
       -2   -1    0    0    0  501  0.00000000000E+00  0.00000000000E+00  0.52015982873E+03  0.52015982874E+03  0.25500000920E-02 0. -1.
        2   -1    0    0  501    0  0.00000000000E+00  0.00000000000E+00 -0.22549944262E+04  0.22549944262E+04  0.25500000920E-02 0.  1.
    10030    2    1    2    0    0  0.00000000000E+00  0.00000000000E+00 -0.17348345975E+04  0.27751542550E+04  0.21660632627E+04 0.  0.
        2    1    3    3  502    0 -0.32701290191E+03 -0.98109959076E+03 -0.12795242406E+04  0.16451978991E+04  0.25500000920E-02 0.  1.
       -2    1    3    3    0  502  0.32701290191E+03  0.98109959076E+03 -0.45531035690E+03  0.11299563558E+04  0.25500000920E-02 0. -1.
</event>
<event>
 5   0  0.1733962E-04  0.2185772E+04  0.7818609E-02  0.8524374E-01
        2   -1    0    0  501    0  0.00000000000E+00  0.00000000000E+00  0.11935314300E+04  0.11935314300E+04  0.25500000920E-02 0.  1.
       -2   -1    0    0    0  501  0.00000000000E+00  0.00000000000E+00 -0.10007275584E+04  0.10007275584E+04  0.25500000920E-02 0. -1.
    10030    2    1    2    0    0  0.00000000000E+00  0.00000000000E+00  0.19280387153E+03  0.21942589884E+04  0.21857719861E+04 0.  0.
        3    1    3    3  502    0 -0.53490536781E+03  0.54446053523E+03  0.88164032294E+03  0.11661263637E+04  0.10100000352E+00 0.  1.
       -3    1    3    3    0  502  0.53490536781E+03 -0.54446053523E+03 -0.68883645141E+03  0.10281326247E+04  0.10100000352E+00 0. -1.
</event>
<event>
 5   0  0.1733962E-04  0.2162150E+04  0.7818609E-02  0.8534349E-01
       -2   -1    0    0    0  501  0.00000000000E+00  0.00000000000E+00  0.11688140310E+04  0.11688140310E+04  0.25500000920E-02 0. -1.
        2   -1    0    0  501    0  0.00000000000E+00  0.00000000000E+00 -0.99992250479E+03  0.99992250479E+03  0.25500000920E-02 0.  1.
    10030    2    1    2    0    0  0.00000000000E+00  0.00000000000E+00  0.16889152621E+03  0.21687365358E+04  0.21621502755E+04 0.  0.
        3    1    3    3  502    0 -0.95944087299E+03  0.25559483356E+03  0.51337900174E+03  0.11177716750E+04  0.10100000352E+00 0. -1.
       -3    1    3    3    0  502  0.95944087299E+03 -0.25559483356E+03 -0.34448747553E+03  0.10509648608E+04  0.10100000352E+00 0.  1.
</event>
<event>
 5   0  0.1805501E-04  0.2213620E+04  0.7818609E-02  0.8512780E-01
       -2   -1    0    0    0  501  0.00000000000E+00  0.00000000000E+00  0.69932230865E+03  0.69932230866E+03  0.25500000920E-02 0.  1.
        2   -1    0    0  501    0  0.00000000000E+00  0.00000000000E+00 -0.17517366156E+04  0.17517366156E+04  0.25500000920E-02 0. -1.
    10030    2    1    2    0    0  0.00000000000E+00  0.00000000000E+00 -0.10524143070E+04  0.24510589243E+04  0.22136201067E+04 0.  0.
        2    1    3    3  502    0 -0.50189606854E+03 -0.81800208272E+03 -0.11367110912E+04  0.14876623192E+04  0.25500000920E-02 0. -1.
       -2    1    3    3    0  502  0.50189606854E+03  0.81800208272E+03  0.84296784234E+02  0.96339660514E+03  0.25500000920E-02 0.  1.
</event>
<event>
 5   0  0.1680258E-04  0.2221788E+04  0.7818609E-02  0.8509414E-01
       -2   -1    0    0    0  501  0.00000000000E+00  0.00000000000E+00  0.94799050139E+03  0.94799050139E+03  0.25500000920E-02 0.  1.
        2   -1    0    0  501    0  0.00000000000E+00  0.00000000000E+00 -0.13017905345E+04  0.13017905345E+04  0.25500000920E-02 0. -1.
    10030    2    1    2    0    0  0.00000000000E+00  0.00000000000E+00 -0.35380003307E+03  0.22497810358E+04  0.22217876239E+04 0.  0.
        5    1    3    3  502    0  0.10772263704E+01  0.90658896065E+03  0.47318434125E+03  0.10226584057E+04  0.46999998093E+01 0.  1.
       -5    1    3    3    0  502 -0.10772263704E+01 -0.90658896065E+03 -0.82698437432E+03  0.12271226301E+04  0.46999998093E+01 0. -1.
</event>
<event>
 5   0  0.1733962E-04  0.2178879E+04  0.7818609E-02  0.8527271E-01
        2   -1    0    0  501    0  0.00000000000E+00  0.00000000000E+00  0.14244340595E+04  0.14244340595E+04  0.25500000920E-02 0. -1.
       -2   -1    0    0    0  501  0.00000000000E+00  0.00000000000E+00 -0.83322777770E+03  0.83322777770E+03  0.25500000920E-02 0.  1.
    10030    2    1    2    0    0  0.00000000000E+00  0.00000000000E+00  0.59120628177E+03  0.22576618372E+04  0.21788786344E+04 0.  0.
        3    1    3    3  502    0  0.59183085891E+03  0.82349458374E+03  0.70808100046E+03  0.12368451028E+04  0.10100000352E+00 0.  1.
       -3    1    3    3    0  502 -0.59183085891E+03 -0.82349458374E+03 -0.11687471869E+03  0.10208167343E+04  0.10100000352E+00 0. -1.
</event>
<event>
 5   0  0.8306787E-05  0.2077380E+04  0.7818609E-02  0.8571273E-01
        1   -1    0    0  501    0  0.00000000000E+00  0.00000000000E+00  0.15615359039E+04  0.15615359039E+04  0.50400001928E-02 0.  1.
       -1   -1    0    0    0  501  0.00000000000E+00  0.00000000000E+00 -0.69090783039E+03  0.69090783041E+03  0.50400001928E-02 0. -1.
    10030    2    1    2    0    0  0.00000000000E+00  0.00000000000E+00  0.87062807352E+03  0.22524437343E+04  0.20773804500E+04 0.  0.
        1    1    3    3  502    0 -0.15214684907E+03 -0.10176013278E+04  0.28114814777E+03  0.10666327423E+04  0.50400001928E-02 0. -1.
       -1    1    3    3    0  502  0.15214684907E+03  0.10176013278E+04  0.58947992575E+03  0.11858109920E+04  0.50400001928E-02 0.  1.
</event>
<event>
 5   0  0.1754356E-04  0.2215359E+04  0.7818609E-02  0.8512062E-01
        2   -1    0    0  501    0  0.00000000000E+00  0.00000000000E+00  0.13586203795E+04  0.13586203795E+04  0.25500000920E-02 0. -1.
       -2   -1    0    0    0  501  0.00000000000E+00  0.00000000000E+00 -0.90308830610E+03  0.90308830611E+03  0.25500000920E-02 0.  1.
    10030    2    1    2    0    0  0.00000000000E+00  0.00000000000E+00  0.45553207339E+03  0.22617086856E+04  0.22153592730E+04 0.  0.
        1    1    3    3  502    0 -0.96802146803E+03 -0.23536664341E+03 -0.26660809022E+03  0.10312821598E+04  0.50400001928E-02 0.  1.
       -1    1    3    3    0  502  0.96802146803E+03  0.23536664341E+03  0.72214016362E+03  0.12304265258E+04  0.50400001928E-02 0. -1.
</event>
<event>
 5   0  0.1805501E-04  0.2181650E+04  0.7818609E-02  0.8526105E-01
       -2   -1    0    0    0  501  0.00000000000E+00  0.00000000000E+00  0.57831875642E+03  0.57831875643E+03  0.25500000920E-02 0.  1.
        2   -1    0    0  501    0  0.00000000000E+00  0.00000000000E+00 -0.20575145229E+04  0.20575145229E+04  0.25500000920E-02 0. -1.
    10030    2    1    2    0    0  0.00000000000E+00  0.00000000000E+00 -0.14791957665E+04  0.26358332794E+04  0.21816500546E+04 0.  0.
        2    1    3    3  502    0  0.38334998082E+03  0.34155335218E+03  0.42320145032E+03  0.66536859539E+03  0.25500000920E-02 0.  1.
       -2    1    3    3    0  502 -0.38334998082E+03 -0.34155335218E+03 -0.19023972168E+04  0.19704646840E+04  0.25500000920E-02 0. -1.
</event>
<event>
 5   0  0.8470971E-05  0.2231818E+04  0.7818609E-02  0.8505300E-01
       -1   -1    0    0    0  501  0.00000000000E+00  0.00000000000E+00  0.88571099641E+03  0.88571099643E+03  0.50400001928E-02 0.  1.
        1   -1    0    0  501    0  0.00000000000E+00  0.00000000000E+00 -0.14059364445E+04  0.14059364445E+04  0.50400001928E-02 0. -1.
    10030    2    1    2    0    0  0.00000000000E+00  0.00000000000E+00 -0.52022544805E+03  0.22916474409E+04  0.22318184237E+04 0.  0.
        2    1    3    3  502    0 -0.39576925687E+03  0.60567429332E+02 -0.13296455992E+04  0.13886177075E+04  0.25500000920E-02 0. -1.
       -2    1    3    3    0  502  0.39576925687E+03 -0.60567429332E+02  0.80942015117E+03  0.90302973335E+03  0.25500000920E-02 0.  1.
</event>
<event>
 5   0  0.1680258E-04  0.1752589E+04  0.7818609E-02  0.8731926E-01
        2   -1    0    0  501    0  0.00000000000E+00  0.00000000000E+00  0.98542760131E+03  0.98542760131E+03  0.25500000920E-02 0.  1.
       -2   -1    0    0    0  501  0.00000000000E+00  0.00000000000E+00 -0.77924760961E+03  0.77924760962E+03  0.25500000920E-02 0. -1.
    10030    2    1    2    0    0  0.00000000000E+00  0.00000000000E+00  0.20617999169E+03  0.17646752109E+04  0.17525890594E+04 0.  0.
        5    1    3    3  502    0  0.86634699645E+03  0.13071951492E+01  0.23556931789E+03  0.89781613962E+03  0.46999998093E+01 0. -1.
       -5    1    3    3    0  502 -0.86634699645E+03 -0.13071951492E+01 -0.29389326202E+02  0.86685907131E+03  0.46999998093E+01 0.  1.
</event>
<event>
 5   0  0.8602414E-05  0.2200189E+04  0.7818609E-02  0.8518350E-01
        1   -1    0    0  501    0  0.00000000000E+00  0.00000000000E+00  0.11770072745E+04  0.11770072746E+04  0.50400001928E-02 0.  1.
       -1   -1    0    0    0  501  0.00000000000E+00  0.00000000000E+00 -0.10282073071E+04  0.10282073071E+04  0.50400001928E-02 0. -1.
    10030    2    1    2    0    0  0.00000000000E+00  0.00000000000E+00  0.14879996747E+03  0.22052145816E+04  0.22001886103E+04 0.  0.
        3    1    3    3  502    0  0.81649790941E+03 -0.54045621714E+03 -0.42818910950E+03  0.10686943821E+04  0.10100000352E+00 0. -1.
       -3    1    3    3    0  502 -0.81649790941E+03  0.54045621714E+03  0.57698907697E+03  0.11365201995E+04  0.10100000352E+00 0.  1.
</event>
<event>
 5   0  0.8602414E-05  0.2088923E+04  0.7818609E-02  0.8566139E-01
        1   -1    0    0  501    0  0.00000000000E+00  0.00000000000E+00  0.11444523411E+04  0.11444523411E+04  0.50400001928E-02 0. -1.
       -1   -1    0    0    0  501  0.00000000000E+00  0.00000000000E+00 -0.95320703102E+03  0.95320703103E+03  0.50400001928E-02 0.  1.
    10030    2    1    2    0    0  0.00000000000E+00  0.00000000000E+00  0.19124531006E+03  0.20976593721E+04  0.20889231850E+04 0.  0.
        3    1    3    3  502    0  0.81581988056E+03  0.63232535914E+03  0.25598576735E+03  0.10634501214E+04  0.10100000352E+00 0.  1.
       -3    1    3    3    0  502 -0.81581988056E+03 -0.63232535914E+03 -0.64740457294E+02  0.10342092508E+04  0.10100000352E+00 0. -1.
</event>
<event>
 5   0  0.8784659E-05  0.2152915E+04  0.7818609E-02  0.8538286E-01
       -1   -1    0    0    0  501  0.00000000000E+00  0.00000000000E+00  0.10139262550E+04  0.10139262550E+04  0.50400001928E-02 0. -1.
        1   -1    0    0  501    0  0.00000000000E+00  0.00000000000E+00 -0.11428451727E+04  0.11428451727E+04  0.50400001928E-02 0.  1.
    10030    2    1    2    0    0  0.00000000000E+00  0.00000000000E+00 -0.12891891772E+03  0.21567714278E+04  0.21529149784E+04 0.  0.
        4    1    3    3  502    0 -0.92306329948E+03  0.54627784516E+03  0.26773833262E+02  0.10729323324E+04  0.12699999809E+01 0.  1.
       -4    1    3    3    0  502  0.92306329948E+03 -0.54627784516E+03 -0.15569275098E+03  0.10838390953E+04  0.12699999809E+01 0. -1.
</event>
<event>
 5   0  0.1798917E-04  0.2196371E+04  0.7818609E-02  0.8519940E-01
        2   -1    0    0  501    0  0.00000000000E+00  0.00000000000E+00  0.95832777027E+03  0.95832777027E+03  0.25500000920E-02 0. -1.
       -2   -1    0    0    0  501  0.00000000000E+00  0.00000000000E+00 -0.12584534964E+04  0.12584534964E+04  0.25500000920E-02 0.  1.
    10030    2    1    2    0    0  0.00000000000E+00  0.00000000000E+00 -0.30012572609E+03  0.22167812666E+04  0.21963705818E+04 0.  0.
        4    1    3    3  502    0 -0.59042577889E+02 -0.12210071991E+03  0.94984171170E+03  0.95947668132E+03  0.12699999809E+01 0. -1.
       -4    1    3    3    0  502  0.59042577889E+02  0.12210071991E+03 -0.12499674378E+04  0.12573045853E+04  0.12699999809E+01 0.  1.
</event>
<event>
 5   0  0.1805501E-04  0.1639107E+04  0.7818609E-02  0.8796877E-01
        2   -1    0    0  501    0  0.00000000000E+00  0.00000000000E+00  0.16668386581E+04  0.16668386581E+04  0.25500000920E-02 0. -1.
       -2   -1    0    0    0  501  0.00000000000E+00  0.00000000000E+00 -0.40295921825E+03  0.40295921826E+03  0.25500000920E-02 0.  1.
    10030    2    1    2    0    0  0.00000000000E+00  0.00000000000E+00  0.12638794399E+04  0.20697978764E+04  0.16391070772E+04 0.  0.
        2    1    3    3  502    0  0.22758509458E+03  0.62213316705E+03  0.22635931662E+02  0.66284013022E+03  0.25500000920E-02 0.  1.
       -2    1    3    3    0  502 -0.22758509458E+03 -0.62213316705E+03  0.12412435082E+04  0.14069577462E+04  0.25500000920E-02 0. -1.
</event>
<event>
 5   0  0.1798917E-04  0.1228622E+04  0.7818609E-02  0.9088166E-01
       -2   -1    0    0    0  501  0.00000000000E+00  0.00000000000E+00  0.11862275914E+04  0.11862275914E+04  0.25500000920E-02 0.  1.
        2   -1    0    0  501    0  0.00000000000E+00  0.00000000000E+00 -0.31813283695E+03  0.31813283696E+03  0.25500000920E-02 0. -1.
    10030    2    1    2    0    0  0.00000000000E+00  0.00000000000E+00  0.86809475443E+03  0.15043604283E+04  0.12286219092E+04 0.  0.
        4    1    3    3  502    0  0.46778511867E+03 -0.39802057610E+03  0.44817029437E+03  0.76032987703E+03  0.12699999809E+01 0.  1.
       -4    1    3    3    0  502 -0.46778511867E+03  0.39802057610E+03  0.41992446005E+03  0.74403055132E+03  0.12699999809E+01 0. -1.
</event>
<event>
 5   0  0.1754356E-04  0.2285452E+04  0.7818609E-02  0.8483679E-01
        2   -1    0    0  501    0  0.00000000000E+00  0.00000000000E+00  0.10299676528E+04  0.10299676528E+04  0.25500000920E-02 0.  1.
       -2   -1    0    0    0  501  0.00000000000E+00  0.00000000000E+00 -0.12678284972E+04  0.12678284972E+04  0.25500000920E-02 0. -1.
    10030    2    1    2    0    0  0.00000000000E+00  0.00000000000E+00 -0.23786084445E+03  0.22977961500E+04  0.22854516765E+04 0.  0.
        1    1    3    3  502    0 -0.93413904153E+03  0.44346162522E+03  0.37005897567E+03  0.10982793850E+04  0.50400001928E-02 0. -1.
       -1    1    3    3    0  502  0.93413904153E+03 -0.44346162522E+03 -0.60791982012E+03  0.11995167651E+04  0.50400001928E-02 0.  1.
</event>
<event>
 5   0  0.1733962E-04  0.2207119E+04  0.7818609E-02  0.8515471E-01
        2   -1    0    0  501    0  0.00000000000E+00  0.00000000000E+00  0.13958726578E+04  0.13958726578E+04  0.25500000920E-02 0. -1.
       -2   -1    0    0    0  501  0.00000000000E+00  0.00000000000E+00 -0.87246008431E+03  0.87246008431E+03  0.25500000920E-02 0.  1.
    10030    2    1    2    0    0  0.00000000000E+00  0.00000000000E+00  0.52341257352E+03  0.22683327421E+04  0.22071186436E+04 0.  0.
        3    1    3    3  502    0 -0.11174041937E+03  0.10768950448E+04  0.48130104187E+03  0.11848373568E+04  0.10100000352E+00 0. -1.
       -3    1    3    3    0  502  0.11174041937E+03 -0.10768950448E+04  0.42111531646E+02  0.10834953854E+04  0.10100000352E+00 0.  1.
</event>
<event>
 5   0  0.8306787E-05  0.1478240E+04  0.7818609E-02  0.8899054E-01
       -1   -1    0    0    0  501  0.00000000000E+00  0.00000000000E+00  0.51486405497E+03  0.51486405500E+03  0.50400001928E-02 0. -1.
        1   -1    0    0  501    0  0.00000000000E+00  0.00000000000E+00 -0.10610531723E+04  0.10610531723E+04  0.50400001928E-02 0.  1.
    10030    2    1    2    0    0  0.00000000000E+00  0.00000000000E+00 -0.54618911732E+03  0.15759172273E+04  0.14782396813E+04 0.  0.
        1    1    3    3  502    0  0.77350156721E+02  0.71322328209E+03 -0.46268740816E+03  0.85366863276E+03  0.50400001928E-02 0. -1.
       -1    1    3    3    0  502 -0.77350156721E+02 -0.71322328209E+03 -0.83501709151E+02  0.72224859454E+03  0.50400001928E-02 0.  1.
</event>
<event>
 5   0  0.1805501E-04  0.2234096E+04  0.7818609E-02  0.8504369E-01
        2   -1    0    0  501    0  0.00000000000E+00  0.00000000000E+00  0.16508714966E+04  0.16508714966E+04  0.25500000920E-02 0.  1.
       -2   -1    0    0    0  501  0.00000000000E+00  0.00000000000E+00 -0.75584120574E+03  0.75584120575E+03  0.25500000920E-02 0. -1.
    10030    2    1    2    0    0  0.00000000000E+00  0.00000000000E+00  0.89503029089E+03  0.24067127024E+04  0.22340964192E+04 0.  0.
        2    1    3    3  502    0  0.84523548224E+01 -0.10623876308E+04  0.75807724295E+02  0.10651224021E+04  0.25500000920E-02 0. -1.
       -2    1    3    3    0  502 -0.84523548224E+01  0.10623876308E+04  0.81922256659E+03  0.13415903003E+04  0.25500000920E-02 0.  1.
</event>
<event>
 5   0  0.8470971E-05  0.1504254E+04  0.7818609E-02  0.8881629E-01
       -1   -1    0    0    0  501  0.00000000000E+00  0.00000000000E+00  0.73977952048E+03  0.73977952050E+03  0.50400001928E-02 0.  1.
        1   -1    0    0  501    0  0.00000000000E+00  0.00000000000E+00 -0.76468051471E+03  0.76468051473E+03  0.50400001928E-02 0. -1.
    10030    2    1    2    0    0  0.00000000000E+00  0.00000000000E+00 -0.24900994234E+02  0.15044600352E+04  0.15042539473E+04 0.  0.
        2    1    3    3  502    0 -0.43802558247E+03  0.37454476763E+03  0.47088043289E+03  0.74423019015E+03  0.25500000920E-02 0.  1.
       -2    1    3    3    0  502  0.43802558247E+03 -0.37454476763E+03 -0.49578142712E+03  0.76022984507E+03  0.25500000920E-02 0. -1.
</event>
<event>
 5   0  0.1798917E-04  0.2241837E+04  0.7818609E-02  0.8501214E-01
        2   -1    0    0  501    0  0.00000000000E+00  0.00000000000E+00  0.11017482465E+04  0.11017482465E+04  0.25500000920E-02 0. -1.
       -2   -1    0    0    0  501  0.00000000000E+00  0.00000000000E+00 -0.11404219448E+04  0.11404219448E+04  0.25500000920E-02 0.  1.
    10030    2    1    2    0    0  0.00000000000E+00  0.00000000000E+00 -0.38673698322E+02  0.22421701912E+04  0.22418366380E+04 0.  0.
        4    1    3    3  502    0  0.25111377629E+03  0.15173647587E+03  0.10626624457E+04  0.11024224114E+04  0.12699999809E+01 0. -1.
       -4    1    3    3    0  502 -0.25111377629E+03 -0.15173647587E+03 -0.11013361440E+04  0.11397477799E+04  0.12699999809E+01 0.  1.
</event>
<event>
 5   0  0.1798917E-04  0.2286882E+04  0.7818609E-02  0.8483111E-01
       -2   -1    0    0    0  501  0.00000000000E+00  0.00000000000E+00  0.68765881418E+03  0.68765881419E+03  0.25500000920E-02 0. -1.
        2   -1    0    0  501    0  0.00000000000E+00  0.00000000000E+00 -0.19013169624E+04  0.19013169624E+04  0.25500000920E-02 0.  1.
    10030    2    1    2    0    0  0.00000000000E+00  0.00000000000E+00 -0.12136581482E+04  0.25889757765E+04  0.22868820413E+04 0.  0.
        4    1    3    3  502    0  0.29308375928E+03 -0.11027987587E+04 -0.52369447138E+03  0.12555161108E+04  0.12699999809E+01 0. -1.
       -4    1    3    3    0  502 -0.29308375928E+03  0.11027987587E+04 -0.68996367679E+03  0.13334596658E+04  0.12699999809E+01 0.  1.
</event>
<event>
 5   0  0.8306787E-05  0.2311141E+04  0.7818609E-02  0.8473541E-01
       -1   -1    0    0    0  501  0.00000000000E+00  0.00000000000E+00  0.93791504193E+03  0.93791504194E+03  0.50400001928E-02 0. -1.
        1   -1    0    0  501    0  0.00000000000E+00  0.00000000000E+00 -0.14237359516E+04  0.14237359517E+04  0.50400001928E-02 0.  1.
    10030    2    1    2    0    0  0.00000000000E+00  0.00000000000E+00 -0.48582090971E+03  0.23616509936E+04  0.23111411595E+04 0.  0.
        1    1    3    3  502    0  0.55304230212E+03 -0.33371262119E+03 -0.12220391730E+04  0.13822444219E+04  0.50400001928E-02 0.  1.
       -1    1    3    3    0  502 -0.55304230212E+03  0.33371262119E+03  0.73621826329E+03  0.97940657170E+03  0.50400001928E-02 0. -1.
</event>
<event>
 5   0  0.7954459E-05  0.2270943E+04  0.7818609E-02  0.8489467E-01
       -1   -1    0    0    0  501  0.00000000000E+00  0.00000000000E+00  0.79874262857E+03  0.79874262859E+03  0.50400001928E-02 0. -1.
        1   -1    0    0  501    0  0.00000000000E+00  0.00000000000E+00 -0.16141565967E+04  0.16141565967E+04  0.50400001928E-02 0.  1.
    10030    2    1    2    0    0  0.00000000000E+00  0.00000000000E+00 -0.81541396811E+03  0.24128992253E+04  0.22709431371E+04 0.  0.
        5    1    3    3  502    0  0.79773735025E+03 -0.27732513056E+03  0.39866685872E+03  0.93394403593E+03  0.46999998093E+01 0. -1.
       -5    1    3    3    0  502 -0.79773735025E+03  0.27732513056E+03 -0.12140808268E+04  0.14789551893E+04  0.46999998093E+01 0.  1.
</event>
<event>
 5   0  0.1733962E-04  0.2227032E+04  0.7818609E-02  0.8507260E-01
        2   -1    0    0  501    0  0.00000000000E+00  0.00000000000E+00  0.95124308284E+03  0.95124308284E+03  0.25500000920E-02 0.  1.
       -2   -1    0    0    0  501  0.00000000000E+00  0.00000000000E+00 -0.13034706205E+04  0.13034706205E+04  0.25500000920E-02 0. -1.
    10030    2    1    2    0    0  0.00000000000E+00  0.00000000000E+00 -0.35222753764E+03  0.22547137033E+04  0.22270315772E+04 0.  0.
        3    1    3    3  502    0  0.19352252240E+03 -0.98669832012E+02  0.92958347763E+03  0.95462670951E+03  0.10100000352E+00 0.  1.
       -3    1    3    3    0  502 -0.19352252240E+03  0.98669832012E+02 -0.12818110153E+04  0.13000869938E+04  0.10100000352E+00 0. -1.
</event>
<event>
 5   0  0.7954459E-05  0.2050540E+04  0.7818609E-02  0.8583350E-01
       -1   -1    0    0    0  501  0.00000000000E+00  0.00000000000E+00  0.56646343972E+03  0.56646343974E+03  0.50400001928E-02 0.  1.
        1   -1    0    0  501    0  0.00000000000E+00  0.00000000000E+00 -0.18556858931E+04  0.18556858931E+04  0.50400001928E-02 0. -1.
    10030    2    1    2    0    0  0.00000000000E+00  0.00000000000E+00 -0.12892224534E+04  0.24221493329E+04  0.20505396500E+04 0.  0.
        5    1    3    3  502    0 -0.99582242658E+03 -0.21143032685E+03 -0.50095249214E+03  0.11346103198E+04  0.46999998093E+01 0.  1.
       -5    1    3    3    0  502  0.99582242658E+03  0.21143032685E+03 -0.78826996127E+03  0.12875390131E+04  0.46999998093E+01 0. -1.
</event>
<event>
 5   0  0.8784659E-05  0.2263790E+04  0.7818609E-02  0.8492337E-01
        1   -1    0    0  501    0  0.00000000000E+00  0.00000000000E+00  0.11754791499E+04  0.11754791499E+04  0.50400001928E-02 0. -1.
       -1   -1    0    0    0  501  0.00000000000E+00  0.00000000000E+00 -0.10899267478E+04  0.10899267478E+04  0.50400001928E-02 0.  1.
    10030    2    1    2    0    0  0.00000000000E+00  0.00000000000E+00  0.85552402111E+02  0.22654058977E+04  0.22637898904E+04 0.  0.
        4    1    3    3  502    0  0.10275157886E+04  0.36205655150E+03 -0.26454383988E+03  0.11210970959E+04  0.12699999809E+01 0. -1.
       -4    1    3    3    0  502 -0.10275157886E+04 -0.36205655150E+03  0.35009624199E+03  0.11443088018E+04  0.12699999809E+01 0.  1.
</event>
<event>
 5   0  0.1798917E-04  0.2194899E+04  0.7818609E-02  0.8520554E-01
        2   -1    0    0  501    0  0.00000000000E+00  0.00000000000E+00  0.21522185556E+04  0.21522185556E+04  0.25500000920E-02 0.  1.
       -2   -1    0    0    0  501  0.00000000000E+00  0.00000000000E+00 -0.55960621380E+03  0.55960621381E+03  0.25500000920E-02 0. -1.
    10030    2    1    2    0    0  0.00000000000E+00  0.00000000000E+00  0.15926123418E+04  0.27118247694E+04  0.21948985190E+04 0.  0.
        4    1    3    3  502    0  0.64176479683E+03  0.73339455076E+03  0.17281450713E+03  0.98974546643E+03  0.12699999809E+01 0. -1.
       -4    1    3    3    0  502 -0.64176479683E+03 -0.73339455076E+03  0.14197978346E+04  0.17220793029E+04  0.12699999809E+01 0.  1.
</event>
<event>
 5   0  0.1754356E-04  0.2230614E+04  0.7818609E-02  0.8505793E-01
        2   -1    0    0  501    0  0.00000000000E+00  0.00000000000E+00  0.12402020744E+04  0.12402020744E+04  0.25500000920E-02 0.  1.
       -2   -1    0    0    0  501  0.00000000000E+00  0.00000000000E+00 -0.10029893198E+04  0.10029893198E+04  0.25500000920E-02 0. -1.
    10030    2    1    2    0    0  0.00000000000E+00  0.00000000000E+00  0.23721275467E+03  0.22431913942E+04  0.22306137586E+04 0.  0.
        1    1    3    3  502    0 -0.76966844669E+03  0.50282840553E+03 -0.51636783939E+03  0.10544485141E+04  0.50400001928E-02 0. -1.
       -1    1    3    3    0  502  0.76966844669E+03 -0.50282840553E+03  0.75358059406E+03  0.11887428801E+04  0.50400001928E-02 0.  1.
</event>
<event>
 5   0  0.8470971E-05  0.2137745E+04  0.7818609E-02  0.8544796E-01
       -1   -1    0    0    0  501  0.00000000000E+00  0.00000000000E+00  0.11587885520E+04  0.11587885520E+04  0.50400001928E-02 0. -1.
        1   -1    0    0  501    0  0.00000000000E+00  0.00000000000E+00 -0.98593332824E+03  0.98593332825E+03  0.50400001928E-02 0.  1.
    10030    2    1    2    0    0  0.00000000000E+00  0.00000000000E+00  0.17285522371E+03  0.21447218802E+04  0.21377448433E+04 0.  0.
        2    1    3    3  502    0  0.15241457880E+03  0.26837447234E+03 -0.94025643645E+03  0.98961468639E+03  0.25500000920E-02 0.  1.
       -2    1    3    3    0  502 -0.15241457880E+03 -0.26837447234E+03  0.11131116602E+04  0.11551071938E+04  0.25500000920E-02 0. -1.
</event>
<event>
 5   0  0.1805501E-04  0.2172515E+04  0.7818609E-02  0.8529956E-01
        2   -1    0    0  501    0  0.00000000000E+00  0.00000000000E+00  0.11625566210E+04  0.11625566210E+04  0.25500000920E-02 0. -1.
       -2   -1    0    0    0  501  0.00000000000E+00  0.00000000000E+00 -0.10149662884E+04  0.10149662884E+04  0.25500000920E-02 0.  1.
    10030    2    1    2    0    0  0.00000000000E+00  0.00000000000E+00  0.14759033268E+03  0.21775229094E+04  0.21725153888E+04 0.  0.
        2    1    3    3  502    0  0.11350028067E+03  0.98143124337E+03 -0.37876097577E+03  0.10580876504E+04  0.25500000920E-02 0. -1.
       -2    1    3    3    0  502 -0.11350028067E+03 -0.98143124337E+03  0.52635130845E+03  0.11194352590E+04  0.25500000920E-02 0.  1.
</event>
<event>
 5   0  0.1754356E-04  0.2258785E+04  0.7818609E-02  0.8494351E-01
       -2   -1    0    0    0  501  0.00000000000E+00  0.00000000000E+00  0.64161580711E+03  0.64161580711E+03  0.25500000920E-02 0.  1.
        2   -1    0    0  501    0  0.00000000000E+00  0.00000000000E+00 -0.19879923927E+04  0.19879923927E+04  0.25500000920E-02 0. -1.
    10030    2    1    2    0    0  0.00000000000E+00  0.00000000000E+00 -0.13463765856E+04  0.26296081998E+04  0.22587849332E+04 0.  0.
        1    1    3    3  502    0  0.23876437866E+03  0.90599477148E+02 -0.19539389592E+04  0.19705568121E+04  0.50400001928E-02 0. -1.
       -1    1    3    3    0  502 -0.23876437866E+03 -0.90599477148E+02  0.60756237357E+03  0.65905138766E+03  0.50400001928E-02 0.  1.
</event>
<event>
 5   0  0.1733962E-04  0.2248250E+04  0.7818609E-02  0.8498609E-01
        2   -1    0    0  501    0  0.00000000000E+00  0.00000000000E+00  0.10102156022E+04  0.10102156022E+04  0.25500000920E-02 0. -1.
       -2   -1    0    0    0  501  0.00000000000E+00  0.00000000000E+00 -0.12508789814E+04  0.12508789814E+04  0.25500000920E-02 0.  1.
    10030    2    1    2    0    0  0.00000000000E+00  0.00000000000E+00 -0.24066337914E+03  0.22610945836E+04  0.22482503984E+04 0.  0.
        3    1    3    3  502    0  0.28785516222E+03 -0.26590569088E+03  0.93929611545E+03  0.10177640363E+04  0.10100000352E+00 0. -1.
       -3    1    3    3    0  502 -0.28785516222E+03  0.26590569088E+03 -0.11799594946E+04  0.12433305473E+04  0.10100000352E+00 0.  1.
</event>
<event>
 5   0  0.1805501E-04  0.2194636E+04  0.7818609E-02  0.8520664E-01
        2   -1    0    0  501    0  0.00000000000E+00  0.00000000000E+00  0.15100792467E+04  0.15100792467E+04  0.25500000920E-02 0.  1.
       -2   -1    0    0    0  501  0.00000000000E+00  0.00000000000E+00 -0.79738016471E+03  0.79738016472E+03  0.25500000920E-02 0. -1.
    10030    2    1    2    0    0  0.00000000000E+00  0.00000000000E+00  0.71269908201E+03  0.23074594114E+04  0.21946364059E+04 0.  0.
        2    1    3    3  502    0  0.70226880805E+03 -0.80252474896E+03  0.62825562923E+03  0.12377126432E+04  0.25500000920E-02 0.  1.
       -2    1    3    3    0  502 -0.70226880805E+03  0.80252474896E+03  0.84443452784E+02  0.10697467682E+04  0.25500000920E-02 0. -1.
</event>
<event>
 5   0  0.7954459E-05  0.2158354E+04  0.7818609E-02  0.8535965E-01
       -1   -1    0    0    0  501  0.00000000000E+00  0.00000000000E+00  0.22369828021E+04  0.22369828021E+04  0.50400001928E-02 0.  1.
        1   -1    0    0  501    0  0.00000000000E+00  0.00000000000E+00 -0.52062218675E+03  0.52062218677E+03  0.50400001928E-02 0. -1.
    10030    2    1    2    0    0  0.00000000000E+00  0.00000000000E+00  0.17163606153E+04  0.27576049888E+04  0.21583538896E+04 0.  0.
        5    1    3    3  502    0  0.38105429661E+03  0.12637980155E+03 -0.42164943072E+03  0.58222380888E+03  0.46999998093E+01 0. -1.
       -5    1    3    3    0  502 -0.38105429661E+03 -0.12637980155E+03  0.21380100460E+04  0.21753811800E+04  0.46999998093E+01 0.  1.
</event>
<event>
 5   0  0.1798917E-04  0.2127931E+04  0.7818609E-02  0.8549038E-01
        2   -1    0    0  501    0  0.00000000000E+00  0.00000000000E+00  0.14793972476E+04  0.14793972476E+04  0.25500000920E-02 0.  1.
       -2   -1    0    0    0  501  0.00000000000E+00  0.00000000000E+00 -0.76519185665E+03  0.76519185666E+03  0.25500000920E-02 0. -1.
    10030    2    1    2    0    0  0.00000000000E+00  0.00000000000E+00  0.71420539097E+03  0.22445891043E+04  0.21279311329E+04 0.  0.
        4    1    3    3  502    0 -0.33962307957E+03  0.98993702607E+03  0.55918296961E+03  0.11865944371E+04  0.12699999809E+01 0. -1.
       -4    1    3    3    0  502  0.33962307957E+03 -0.98993702607E+03  0.15502242137E+03  0.10579946672E+04  0.12699999809E+01 0.  1.
</event>
<event>
 5   0  0.8602414E-05  0.2089469E+04  0.7818609E-02  0.8565897E-01
        1   -1    0    0  501    0  0.00000000000E+00  0.00000000000E+00  0.19192672263E+04  0.19192672264E+04  0.50400001928E-02 0. -1.
       -1   -1    0    0    0  501  0.00000000000E+00  0.00000000000E+00 -0.56869113417E+03  0.56869113420E+03  0.50400001928E-02 0.  1.
    10030    2    1    2    0    0  0.00000000000E+00  0.00000000000E+00  0.13505760922E+04  0.24879583606E+04  0.20894690768E+04 0.  0.
        3    1    3    3  502    0 -0.12493161216E+03 -0.47204168601E+03 -0.42445594824E+03  0.64698850318E+03  0.10100000352E+00 0.  1.
       -3    1    3    3    0  502  0.12493161216E+03  0.47204168601E+03  0.17750320404E+04  0.18409698574E+04  0.10100000352E+00 0. -1.
</event>
<event>
 5   0  0.8602414E-05  0.2203630E+04  0.7818609E-02  0.8516919E-01
        1   -1    0    0  501    0  0.00000000000E+00  0.00000000000E+00  0.10433170609E+04  0.10433170609E+04  0.50400001928E-02 0.  1.
       -1   -1    0    0    0  501  0.00000000000E+00  0.00000000000E+00 -0.11635926297E+04  0.11635926297E+04  0.50400001928E-02 0. -1.
    10030    2    1    2    0    0  0.00000000000E+00  0.00000000000E+00 -0.12027556876E+03  0.22069096906E+04  0.22036297715E+04 0.  0.
        3    1    3    3  502    0 -0.33404956778E+03 -0.61842363084E+03 -0.90990476690E+03  0.11497667572E+04  0.10100000352E+00 0. -1.
       -3    1    3    3    0  502  0.33404956778E+03  0.61842363084E+03  0.78962919814E+03  0.10571429334E+04  0.10100000352E+00 0.  1.
</event>
<event>
 5   0  0.1733962E-04  0.2202724E+04  0.7818609E-02  0.8517295E-01
        2   -1    0    0  501    0  0.00000000000E+00  0.00000000000E+00  0.97686149382E+03  0.97686149382E+03  0.25500000920E-02 0.  1.
       -2   -1    0    0    0  501  0.00000000000E+00  0.00000000000E+00 -0.12417296853E+04  0.12417296853E+04  0.25500000920E-02 0. -1.
    10030    2    1    2    0    0  0.00000000000E+00  0.00000000000E+00 -0.26486819152E+03  0.22185911792E+04  0.22027236916E+04 0.  0.
        3    1    3    3  502    0  0.55154249352E+03  0.54643928026E+03 -0.91921605173E+03  0.12032261504E+04  0.10100000352E+00 0. -1.
       -3    1    3    3    0  502 -0.55154249352E+03 -0.54643928026E+03  0.65434786021E+03  0.10153650287E+04  0.10100000352E+00 0.  1.
</event>
<event>
 5   0  0.6250625E-05  0.2186766E+04  0.7818609E-02  0.8523956E-01
        3   -1    0    0  501    0  0.00000000000E+00  0.00000000000E+00  0.76456943052E+03  0.76456943720E+03  0.10100000352E+00 0. -1.
       -3   -1    0    0    0  501  0.00000000000E+00  0.00000000000E+00 -0.15636080066E+04  0.15636080098E+04  0.10100000352E+00 0.  1.
    10030    2    1    2    0    0  0.00000000000E+00  0.00000000000E+00 -0.79903857606E+03  0.23281774470E+04  0.21867664665E+04 0.  0.
        5    1    3    3  502    0 -0.80880671644E+03  0.70410324635E+03 -0.17233049271E+03  0.10861167409E+04  0.46999998093E+01 0. -1.
       -5    1    3    3    0  502  0.80880671644E+03 -0.70410324635E+03 -0.62670808335E+03  0.12420607062E+04  0.46999998093E+01 0.  1.
</event>
<event>
 5   0  0.8602414E-05  0.1103847E+04  0.7818609E-02  0.9201450E-01
       -1   -1    0    0    0  501  0.00000000000E+00  0.00000000000E+00  0.32054506646E+03  0.32054506650E+03  0.50400001928E-02 0.  1.
        1   -1    0    0  501    0  0.00000000000E+00  0.00000000000E+00 -0.95031773983E+03  0.95031773985E+03  0.50400001928E-02 0. -1.
    10030    2    1    2    0    0  0.00000000000E+00  0.00000000000E+00 -0.62977267337E+03  0.12708628063E+04  0.11038472052E+04 0.  0.
        3    1    3    3  502    0  0.33698137332E+03 -0.31864993030E+03  0.29592790639E+02  0.46472569060E+03  0.10100000352E+00 0.  1.
       -3    1    3    3    0  502 -0.33698137332E+03  0.31864993030E+03 -0.65936546401E+03  0.80613711574E+03  0.10100000352E+00 0. -1.
</event>
<event>
 5   0  0.8784659E-05  0.1910984E+04  0.7818609E-02  0.8649408E-01
        1   -1    0    0  501    0  0.00000000000E+00  0.00000000000E+00  0.60601115493E+03  0.60601115495E+03  0.50400001928E-02 0. -1.
       -1   -1    0    0    0  501  0.00000000000E+00  0.00000000000E+00 -0.15065144353E+04  0.15065144353E+04  0.50400001928E-02 0.  1.
    10030    2    1    2    0    0  0.00000000000E+00  0.00000000000E+00 -0.90050328039E+03  0.21125255903E+04  0.19109835718E+04 0.  0.
        4    1    3    3  502    0 -0.87356546327E+02 -0.28802859081E+03 -0.14527392159E+04  0.14835917490E+04  0.12699999809E+01 0.  1.
       -4    1    3    3    0  502  0.87356546327E+02  0.28802859081E+03  0.55223593554E+03  0.62893384128E+03  0.12699999809E+01 0. -1.
</event>
<event>
 5   0  0.7954459E-05  0.2187285E+04  0.7818609E-02  0.8523739E-01
       -1   -1    0    0    0  501  0.00000000000E+00  0.00000000000E+00  0.96734467792E+03  0.96734467794E+03  0.50400001928E-02 0. -1.
        1   -1    0    0  501    0  0.00000000000E+00  0.00000000000E+00 -0.12364295425E+04  0.12364295425E+04  0.50400001928E-02 0.  1.
    10030    2    1    2    0    0  0.00000000000E+00  0.00000000000E+00 -0.26908486458E+03  0.22037742204E+04  0.21872846523E+04 0.  0.
        5    1    3    3  502    0 -0.87077340422E+03 -0.34215616900E+03 -0.70512821091E+03  0.11715566778E+04  0.46999998093E+01 0.  1.
       -5    1    3    3    0  502  0.87077340422E+03  0.34215616900E+03  0.43604334633E+03  0.10322175426E+04  0.46999998093E+01 0. -1.
</event>
<event>
 5   0  0.8784659E-05  0.2147597E+04  0.7818609E-02  0.8540561E-01
       -1   -1    0    0    0  501  0.00000000000E+00  0.00000000000E+00  0.74015962736E+03  0.74015962738E+03  0.50400001928E-02 0. -1.
        1   -1    0    0  501    0  0.00000000000E+00  0.00000000000E+00 -0.15578310951E+04  0.15578310951E+04  0.50400001928E-02 0.  1.
    10030    2    1    2    0    0  0.00000000000E+00  0.00000000000E+00 -0.81767146777E+03  0.22979907225E+04  0.21475974324E+04 0.  0.
        4    1    3    3  502    0 -0.69157126013E+03  0.30335147294E+03 -0.12256742691E+04  0.14396429942E+04  0.12699999809E+01 0.  1.
       -4    1    3    3    0  502  0.69157126013E+03 -0.30335147294E+03  0.40800280129E+03  0.85834772833E+03  0.12699999809E+01 0. -1.
</event>
<event>
 5   0  0.1733962E-04  0.2193187E+04  0.7818609E-02  0.8521269E-01
       -2   -1    0    0    0  501  0.00000000000E+00  0.00000000000E+00  0.97925614789E+03  0.97925614789E+03  0.25500000920E-02 0.  1.
        2   -1    0    0  501    0  0.00000000000E+00  0.00000000000E+00 -0.12279902248E+04  0.12279902248E+04  0.25500000920E-02 0. -1.
    10030    2    1    2    0    0  0.00000000000E+00  0.00000000000E+00 -0.24873407687E+03  0.22072463727E+04  0.21931867017E+04 0.  0.
        3    1    3    3  502    0 -0.67328545935E+03  0.19404221405E+03 -0.97330960292E+03  0.11992903251E+04  0.10100000352E+00 0. -1.
       -3    1    3    3    0  502  0.67328545935E+03 -0.19404221405E+03  0.72457552604E+03  0.10079560475E+04  0.10100000352E+00 0.  1.
</event>
<event>
 5   0  0.8306787E-05  0.2133190E+04  0.7818609E-02  0.8546762E-01
       -1   -1    0    0    0  501  0.00000000000E+00  0.00000000000E+00  0.61414605548E+03  0.61414605550E+03  0.50400001928E-02 0. -1.
        1   -1    0    0  501    0  0.00000000000E+00  0.00000000000E+00 -0.18523689893E+04  0.18523689893E+04  0.50400001928E-02 0.  1.
    10030    2    1    2    0    0  0.00000000000E+00  0.00000000000E+00 -0.12382229338E+04  0.24665150448E+04  0.21331902007E+04 0.  0.
        1    1    3    3  502    0  0.79609998382E+03  0.59288635999E+03 -0.16782218625E+03  0.10067043788E+04  0.50400001928E-02 0. -1.
       -1    1    3    3    0  502 -0.79609998382E+03 -0.59288635999E+03 -0.10704007475E+04  0.14598106660E+04  0.50400001928E-02 0.  1.
</event>
<event>
 5   0  0.1733962E-04  0.2275012E+04  0.7818609E-02  0.8487839E-01
        2   -1    0    0  501    0  0.00000000000E+00  0.00000000000E+00  0.63898734202E+03  0.63898734203E+03  0.25500000920E-02 0.  1.
       -2   -1    0    0    0  501  0.00000000000E+00  0.00000000000E+00 -0.20249534899E+04  0.20249534899E+04  0.25500000920E-02 0. -1.
    10030    2    1    2    0    0  0.00000000000E+00  0.00000000000E+00 -0.13859661479E+04  0.26639408320E+04  0.22750117787E+04 0.  0.
        3    1    3    3  502    0 -0.73616931934E+03 -0.20774963662E+03 -0.16788248307E+04  0.18448734376E+04  0.10100000352E+00 0. -1.
       -3    1    3    3    0  502  0.73616931934E+03  0.20774963662E+03  0.29285868280E+03  0.81906739439E+03  0.10100000352E+00 0.  1.
</event>
<event>
 5   0  0.1798917E-04  0.2257116E+04  0.7818609E-02  0.8495024E-01
        2   -1    0    0  501    0  0.00000000000E+00  0.00000000000E+00  0.12118177989E+04  0.12118177989E+04  0.25500000920E-02 0. -1.
       -2   -1    0    0    0  501  0.00000000000E+00  0.00000000000E+00 -0.10510186346E+04  0.10510186346E+04  0.25500000920E-02 0.  1.
    10030    2    1    2    0    0  0.00000000000E+00  0.00000000000E+00  0.16079916422E+03  0.22628364335E+04  0.22571159371E+04 0.  0.
        4    1    3    3  502    0 -0.67510448194E+02 -0.61599669985E+03  0.10259930517E+04  0.11986129275E+04  0.12699999809E+01 0. -1.
       -4    1    3    3    0  502  0.67510448194E+02  0.61599669985E+03 -0.86519388752E+03  0.10642235060E+04  0.12699999809E+01 0.  1.
</event>
<event>
 5   0  0.8784659E-05  0.2146546E+04  0.7818609E-02  0.8541012E-01
       -1   -1    0    0    0  501  0.00000000000E+00  0.00000000000E+00  0.41122958999E+03  0.41122959002E+03  0.50400001928E-02 0. -1.
        1   -1    0    0  501    0  0.00000000000E+00  0.00000000000E+00 -0.28011468139E+04  0.28011468139E+04  0.50400001928E-02 0.  1.
    10030    2    1    2    0    0  0.00000000000E+00  0.00000000000E+00 -0.23899172239E+04  0.32123764039E+04  0.21465455559E+04 0.  0.
        4    1    3    3  502    0 -0.83879542099E+03  0.28945851933E+03 -0.29138365914E+03  0.93395398302E+03  0.12699999809E+01 0. -1.
       -4    1    3    3    0  502  0.83879542099E+03 -0.28945851933E+03 -0.20985335648E+04  0.22784224209E+04  0.12699999809E+01 0.  1.
</event>
<event>
 5   0  0.8306787E-05  0.1998922E+04  0.7818609E-02  0.8607125E-01
        1   -1    0    0  501    0  0.00000000000E+00  0.00000000000E+00  0.18725232027E+04  0.18725232027E+04  0.50400001928E-02 0. -1.
       -1   -1    0    0    0  501  0.00000000000E+00  0.00000000000E+00 -0.53346319348E+03  0.53346319351E+03  0.50400001928E-02 0.  1.
    10030    2    1    2    0    0  0.00000000000E+00  0.00000000000E+00  0.13390600092E+04  0.24059863962E+04  0.19989219171E+04 0.  0.
        1    1    3    3  502    0 -0.82879409123E+03 -0.14618218837E+03  0.20619224543E+02  0.84183967018E+03  0.50400001928E-02 0.  1.
       -1    1    3    3    0  502  0.82879409123E+03  0.14618218837E+03  0.13184407847E+04  0.15641467260E+04  0.50400001928E-02 0. -1.
</event>
<event>
 5   0  0.1805501E-04  0.2162314E+04  0.7818609E-02  0.8534280E-01
       -2   -1    0    0    0  501  0.00000000000E+00  0.00000000000E+00  0.88035382632E+03  0.88035382633E+03  0.25500000920E-02 0.  1.
        2   -1    0    0  501    0  0.00000000000E+00  0.00000000000E+00 -0.13277618303E+04  0.13277618303E+04  0.25500000920E-02 0. -1.
    10030    2    1    2    0    0  0.00000000000E+00  0.00000000000E+00 -0.44740800394E+03  0.22081156566E+04  0.21623137679E+04 0.  0.
        2    1    3    3  502    0 -0.68958379813E+03  0.73732669379E+03  0.17143366980E+03  0.10239951031E+04  0.25500000920E-02 0.  1.
       -2    1    3    3    0  502  0.68958379813E+03 -0.73732669379E+03 -0.61884167374E+03  0.11841205535E+04  0.25500000920E-02 0. -1.
</event>
<event>
 5   0  0.1733962E-04  0.2229556E+04  0.7818609E-02  0.8506226E-01
       -2   -1    0    0    0  501  0.00000000000E+00  0.00000000000E+00  0.95331733763E+03  0.95331733764E+03  0.25500000920E-02 0. -1.
        2   -1    0    0  501    0  0.00000000000E+00  0.00000000000E+00 -0.13035844282E+04  0.13035844282E+04  0.25500000920E-02 0.  1.
    10030    2    1    2    0    0  0.00000000000E+00  0.00000000000E+00 -0.35026709058E+03  0.22569017659E+04  0.22295556835E+04 0.  0.
        3    1    3    3  502    0 -0.18006492865E+03  0.10350642730E+04  0.20219598346E+03  0.10698900194E+04  0.10100000352E+00 0. -1.
       -3    1    3    3    0  502  0.18006492865E+03 -0.10350642730E+04 -0.55246307404E+03  0.11870117464E+04  0.10100000352E+00 0.  1.
</event>
<event>
 5   0  0.8784659E-05  0.1963549E+04  0.7818609E-02  0.8623855E-01
       -1   -1    0    0    0  501  0.00000000000E+00  0.00000000000E+00  0.99523284307E+03  0.99523284308E+03  0.50400001928E-02 0. -1.
        1   -1    0    0  501    0  0.00000000000E+00  0.00000000000E+00 -0.96849824350E+03  0.96849824351E+03  0.50400001928E-02 0.  1.
    10030    2    1    2    0    0  0.00000000000E+00  0.00000000000E+00  0.26734599569E+02  0.19637310866E+04  0.19635490933E+04 0.  0.
        4    1    3    3  502    0  0.62522614768E+03  0.34957343441E+03 -0.65808924364E+03  0.97272420926E+03  0.12699999809E+01 0.  1.
       -4    1    3    3    0  502 -0.62522614768E+03 -0.34957343441E+03  0.68482384321E+03  0.99100687733E+03  0.12699999809E+01 0. -1.
</event>
<event>
 5   0  0.8470971E-05  0.2100879E+04  0.7818609E-02  0.8560856E-01
       -1   -1    0    0    0  501  0.00000000000E+00  0.00000000000E+00  0.11205224719E+04  0.11205224719E+04  0.50400001928E-02 0. -1.
        1   -1    0    0  501    0  0.00000000000E+00  0.00000000000E+00 -0.98474016727E+03  0.98474016728E+03  0.50400001928E-02 0.  1.
    10030    2    1    2    0    0  0.00000000000E+00  0.00000000000E+00  0.13578230462E+03  0.21052626392E+04  0.21008793268E+04 0.  0.
        2    1    3    3  502    0 -0.97799983821E+03  0.30534493112E+03  0.30011649294E+03  0.10676090670E+04  0.25500000920E-02 0. -1.
       -2    1    3    3    0  502  0.97799983821E+03 -0.30534493112E+03 -0.16433418832E+03  0.10376535722E+04  0.25500000920E-02 0.  1.
</event>
<event>
 5   0  0.8306787E-05  0.2223534E+04  0.7818609E-02  0.8508696E-01
        1   -1    0    0  501    0  0.00000000000E+00  0.00000000000E+00  0.18371240265E+04  0.18371240265E+04  0.50400001928E-02 0. -1.
       -1   -1    0    0    0  501  0.00000000000E+00  0.00000000000E+00 -0.67280456698E+03  0.67280456700E+03  0.50400001928E-02 0.  1.
    10030    2    1    2    0    0  0.00000000000E+00  0.00000000000E+00  0.11643194595E+04  0.25099285935E+04  0.22235336158E+04 0.  0.
        1    1    3    3  502    0  0.53570502248E+03 -0.35080244026E+00 -0.51750721383E+03  0.74484475602E+03  0.50400001928E-02 0.  1.
       -1    1    3    3    0  502 -0.53570502248E+03  0.35080244026E+00  0.16818266733E+04  0.17650838374E+04  0.50400001928E-02 0. -1.
</event>
<event>
 5   0  0.1805501E-04  0.2249052E+04  0.7818609E-02  0.8498285E-01
       -2   -1    0    0    0  501  0.00000000000E+00  0.00000000000E+00  0.58527155964E+03  0.58527155965E+03  0.25500000920E-02 0. -1.
        2   -1    0    0  501    0  0.00000000000E+00  0.00000000000E+00 -0.21606349299E+04  0.21606349299E+04  0.25500000920E-02 0.  1.
    10030    2    1    2    0    0  0.00000000000E+00  0.00000000000E+00 -0.15753633702E+04  0.27459064895E+04  0.22490515114E+04 0.  0.
        2    1    3    3  502    0 -0.39095872506E+03  0.73000459296E+03  0.14118124708E+03  0.84005212634E+03  0.25500000920E-02 0. -1.
       -2    1    3    3    0  502  0.39095872506E+03 -0.73000459296E+03 -0.17165446173E+04  0.19058543632E+04  0.25500000920E-02 0.  1.
</event>
<event>
 5   0  0.7954459E-05  0.2102187E+04  0.7818609E-02  0.8560281E-01
        1   -1    0    0  501    0  0.00000000000E+00  0.00000000000E+00  0.10288055683E+04  0.10288055683E+04  0.50400001928E-02 0. -1.
       -1   -1    0    0    0  501  0.00000000000E+00  0.00000000000E+00 -0.10738641116E+04  0.10738641116E+04  0.50400001928E-02 0.  1.
    10030    2    1    2    0    0  0.00000000000E+00  0.00000000000E+00 -0.45058543288E+02  0.21026696798E+04  0.21021868400E+04 0.  0.
        5    1    3    3  502    0  0.10386881074E+04  0.11894104437E+03  0.85917635638E+02  0.10490109087E+04  0.46999998093E+01 0. -1.
       -5    1    3    3    0  502 -0.10386881074E+04 -0.11894104437E+03 -0.13097617893E+03  0.10536587711E+04  0.46999998093E+01 0.  1.
</event>
<event>
 5   0  0.8602414E-05  0.1817770E+04  0.7818609E-02  0.8696906E-01
       -1   -1    0    0    0  501  0.00000000000E+00  0.00000000000E+00  0.78668387151E+03  0.78668387153E+03  0.50400001928E-02 0.  1.
        1   -1    0    0  501    0  0.00000000000E+00  0.00000000000E+00 -0.10500689596E+04  0.10500689596E+04  0.50400001928E-02 0. -1.
    10030    2    1    2    0    0  0.00000000000E+00  0.00000000000E+00 -0.26338508811E+03  0.18367528312E+04  0.18177704085E+04 0.  0.
        3    1    3    3  502    0  0.11790418969E+03 -0.90037676226E+03 -0.17073007109E+03  0.92397428500E+03  0.10100000352E+00 0.  1.
       -3    1    3    3    0  502 -0.11790418969E+03  0.90037676226E+03 -0.92655017024E+02  0.91277854617E+03  0.10100000352E+00 0. -1.
</event>
<event>
 5   0  0.1733962E-04  0.1955201E+04  0.7818609E-02  0.8627857E-01
       -2   -1    0    0    0  501  0.00000000000E+00  0.00000000000E+00  0.67545165096E+03  0.67545165096E+03  0.25500000920E-02 0.  1.
        2   -1    0    0  501    0  0.00000000000E+00  0.00000000000E+00 -0.14149097794E+04  0.14149097794E+04  0.25500000920E-02 0. -1.
    10030    2    1    2    0    0  0.00000000000E+00  0.00000000000E+00 -0.73945812847E+03  0.20903614304E+04  0.19552014182E+04 0.  0.
        3    1    3    3  502    0  0.74803574469E+02  0.71612889645E+03  0.33724456439E+03  0.79509123847E+03  0.10100000352E+00 0.  1.
       -3    1    3    3    0  502 -0.74803574469E+02 -0.71612889645E+03 -0.10767026929E+04  0.12952701919E+04  0.10100000352E+00 0. -1.
</event>
<event>
 5   0  0.1733962E-04  0.2217115E+04  0.7818609E-02  0.8511338E-01
        2   -1    0    0  501    0  0.00000000000E+00  0.00000000000E+00  0.92274514681E+03  0.92274514682E+03  0.25500000920E-02 0. -1.
       -2   -1    0    0    0  501  0.00000000000E+00  0.00000000000E+00 -0.13317865431E+04  0.13317865431E+04  0.25500000920E-02 0.  1.
    10030    2    1    2    0    0  0.00000000000E+00  0.00000000000E+00 -0.40904139624E+03  0.22545316899E+04  0.22171148542E+04 0.  0.
        3    1    3    3  502    0  0.83010496443E+02 -0.29553431246E+03  0.87866423610E+03  0.93074277992E+03  0.10100000352E+00 0. -1.
       -3    1    3    3    0  502 -0.83010496443E+02  0.29553431246E+03 -0.12877056323E+04  0.13237889100E+04  0.10100000352E+00 0.  1.
</event>
<event>
 5   0  0.8306787E-05  0.2187901E+04  0.7818609E-02  0.8523481E-01
       -1   -1    0    0    0  501  0.00000000000E+00  0.00000000000E+00  0.11764057455E+04  0.11764057455E+04  0.50400001928E-02 0.  1.
        1   -1    0    0  501    0  0.00000000000E+00  0.00000000000E+00 -0.10172741700E+04  0.10172741701E+04  0.50400001928E-02 0. -1.
    10030    2    1    2    0    0  0.00000000000E+00  0.00000000000E+00  0.15913157548E+03  0.21936799156E+04  0.21879005265E+04 0.  0.
        1    1    3    3  502    0 -0.22171742256E+03 -0.32791345908E+03  0.11020838409E+04  0.11710143657E+04  0.50400001928E-02 0.  1.
       -1    1    3    3    0  502  0.22171742256E+03  0.32791345908E+03 -0.94295226544E+03  0.10226655499E+04  0.50400001928E-02 0. -1.
</event>
<event>
 5   0  0.1754356E-04  0.2158786E+04  0.7818609E-02  0.8535781E-01
       -2   -1    0    0    0  501  0.00000000000E+00  0.00000000000E+00  0.83832112215E+03  0.83832112216E+03  0.25500000920E-02 0. -1.
        2   -1    0    0  501    0  0.00000000000E+00  0.00000000000E+00 -0.13897891066E+04  0.13897891066E+04  0.25500000920E-02 0.  1.
    10030    2    1    2    0    0  0.00000000000E+00  0.00000000000E+00 -0.55146798445E+03  0.22281102288E+04  0.21587862918E+04 0.  0.
        1    1    3    3  502    0 -0.10083110014E+04  0.85541072705E+02 -0.66340347311E+03  0.12100051731E+04  0.50400001928E-02 0.  1.
       -1    1    3    3    0  502  0.10083110014E+04 -0.85541072705E+02  0.11193548867E+03  0.10181050557E+04  0.50400001928E-02 0. -1.
</event>
<event>
 5   0  0.8470971E-05  0.2182820E+04  0.7818609E-02  0.8525613E-01
        1   -1    0    0  501    0  0.00000000000E+00  0.00000000000E+00  0.17283860793E+04  0.17283860793E+04  0.50400001928E-02 0.  1.
       -1   -1    0    0    0  501  0.00000000000E+00  0.00000000000E+00 -0.68918411065E+03  0.68918411066E+03  0.50400001928E-02 0. -1.
    10030    2    1    2    0    0  0.00000000000E+00  0.00000000000E+00  0.10392019687E+04  0.24175701900E+04  0.21828203984E+04 0.  0.
        2    1    3    3  502    0  0.63092058336E+03  0.70977105958E+03 -0.76151263553E+02  0.95269866929E+03  0.25500000920E-02 0. -1.
       -2    1    3    3    0  502 -0.63092058336E+03 -0.70977105958E+03  0.11153532322E+04  0.14648715207E+04  0.25500000920E-02 0.  1.
</event>
<event>
 5   0  0.8306787E-05  0.2743080E+04  0.7818609E-02  0.8321161E-01
        1   -1    0    0  501    0  0.00000000000E+00  0.00000000000E+00  0.12352376236E+04  0.12352376236E+04  0.50400001928E-02 0. -1.
       -1   -1    0    0    0  501  0.00000000000E+00  0.00000000000E+00 -0.15228828474E+04  0.15228828474E+04  0.50400001928E-02 0.  1.
    10030    2    1    2    0    0  0.00000000000E+00  0.00000000000E+00 -0.28764522382E+03  0.27581204711E+04  0.27430801589E+04 0.  0.
        1    1    3    3  502    0 -0.49216572671E+03 -0.70747312424E+03 -0.12166201383E+04  0.14909426162E+04  0.50400001928E-02 0.  1.
       -1    1    3    3    0  502  0.49216572671E+03  0.70747312424E+03  0.92897491444E+03  0.12671778548E+04  0.50400001928E-02 0. -1.
</event>
<event>
 5   0  0.6250625E-05  0.2149639E+04  0.7818609E-02  0.8539687E-01
        4   -1    0    0  501    0  0.00000000000E+00  0.00000000000E+00  0.13499356825E+04  0.13499362799E+04  0.12699999809E+01 0. -1.
       -4   -1    0    0    0  501  0.00000000000E+00  0.00000000000E+00 -0.85577022365E+03  0.85577116602E+03  0.12699999809E+01 0.  1.
    10030    2    1    2    0    0  0.00000000000E+00  0.00000000000E+00  0.49416545886E+03  0.22057074459E+04  0.21496385362E+04 0.  0.
        2    1    3    3  502    0 -0.69362211741E+03 -0.17092885786E+03  0.10710906770E+04  0.12874640013E+04  0.25500000920E-02 0.  1.
       -2    1    3    3    0  502  0.69362211741E+03  0.17092885786E+03 -0.57692521818E+03  0.91824344462E+03  0.25500000920E-02 0. -1.
</event>
<event>
 5   0  0.1754356E-04  0.2407971E+04  0.7818609E-02  0.8436525E-01
       -2   -1    0    0    0  501  0.00000000000E+00  0.00000000000E+00  0.12682669486E+04  0.12682669486E+04  0.25500000920E-02 0.  1.
        2   -1    0    0  501    0  0.00000000000E+00  0.00000000000E+00 -0.11429624712E+04  0.11429624712E+04  0.25500000920E-02 0. -1.
    10030    2    1    2    0    0  0.00000000000E+00  0.00000000000E+00  0.12530447738E+03  0.24112294198E+04  0.24079713667E+04 0.  0.
        1    1    3    3  502    0  0.65179797982E+03 -0.88741354719E+03 -0.42507773733E+03  0.11802688224E+04  0.50400001928E-02 0. -1.
       -1    1    3    3    0  502 -0.65179797982E+03  0.88741354719E+03  0.55038221472E+03  0.12309605975E+04  0.50400001928E-02 0.  1.
</event>
<event>
 5   0  0.8470971E-05  0.2394103E+04  0.7818609E-02  0.8441715E-01
        1   -1    0    0  501    0  0.00000000000E+00  0.00000000000E+00  0.22657533695E+04  0.22657533695E+04  0.50400001928E-02 0. -1.
       -1   -1    0    0    0  501  0.00000000000E+00  0.00000000000E+00 -0.63243093813E+03  0.63243093815E+03  0.50400001928E-02 0.  1.
    10030    2    1    2    0    0  0.00000000000E+00  0.00000000000E+00  0.16333224313E+04  0.28981843076E+04  0.23941031967E+04 0.  0.
        2    1    3    3  502    0 -0.11286060198E+04 -0.38564415353E+03  0.69285569663E+03  0.13793193892E+04  0.25500000920E-02 0. -1.
       -2    1    3    3    0  502  0.11286060198E+04  0.38564415353E+03  0.94046673471E+03  0.15188649184E+04  0.25500000920E-02 0.  1.
</event>
<event>
 5   0  0.8470971E-05  0.2056970E+04  0.7818609E-02  0.8580439E-01
       -1   -1    0    0    0  501  0.00000000000E+00  0.00000000000E+00  0.77211901054E+03  0.77211901056E+03  0.50400001928E-02 0.  1.
        1   -1    0    0  501    0  0.00000000000E+00  0.00000000000E+00 -0.13699716655E+04  0.13699716655E+04  0.50400001928E-02 0. -1.
    10030    2    1    2    0    0  0.00000000000E+00  0.00000000000E+00 -0.59785265493E+03  0.21420906760E+04  0.20569697779E+04 0.  0.
        2    1    3    3  502    0 -0.78141042417E+03 -0.31676708654E+02 -0.99453149628E+03  0.12651871648E+04  0.25500000920E-02 0. -1.
       -2    1    3    3    0  502  0.78141042417E+03  0.31676708654E+02  0.39667884134E+03  0.87690351125E+03  0.25500000920E-02 0.  1.
</event>
<event>
 5   0  0.1805501E-04  0.2213544E+04  0.7818609E-02  0.8512812E-01
       -2   -1    0    0    0  501  0.00000000000E+00  0.00000000000E+00  0.59389489757E+03  0.59389489758E+03  0.25500000920E-02 0.  1.
        2   -1    0    0  501    0  0.00000000000E+00  0.00000000000E+00 -0.20625603442E+04  0.20625603442E+04  0.25500000920E-02 0. -1.
    10030    2    1    2    0    0  0.00000000000E+00  0.00000000000E+00 -0.14686654467E+04  0.26564552418E+04  0.22135438233E+04 0.  0.
        2    1    3    3  502    0  0.28084669070E+03  0.40708595421E+03  0.45390956730E+03  0.67128811481E+03  0.25500000920E-02 0.  1.
       -2    1    3    3    0  502 -0.28084669070E+03 -0.40708595421E+03 -0.19225750140E+04  0.19851671270E+04  0.25500000920E-02 0. -1.
</event>
<event>
 5   0  0.8602414E-05  0.2128943E+04  0.7818609E-02  0.8548600E-01
       -1   -1    0    0    0  501  0.00000000000E+00  0.00000000000E+00  0.63231325775E+03  0.63231325777E+03  0.50400001928E-02 0.  1.
        1   -1    0    0  501    0  0.00000000000E+00  0.00000000000E+00 -0.17919910954E+04  0.17919910954E+04  0.50400001928E-02 0. -1.
    10030    2    1    2    0    0  0.00000000000E+00  0.00000000000E+00 -0.11596778376E+04  0.24243043531E+04  0.21289431438E+04 0.  0.
        3    1    3    3  502    0  0.61672544646E+03  0.17440284225E+03  0.38797493183E+03  0.74919369033E+03  0.10100000352E+00 0.  1.
       -3    1    3    3    0  502 -0.61672544646E+03 -0.17440284225E+03 -0.15476527695E+04  0.16751106628E+04  0.10100000352E+00 0. -1.
</event>
<event>
 5   0  0.1680258E-04  0.2271867E+04  0.7818609E-02  0.8489097E-01
       -2   -1    0    0    0  501  0.00000000000E+00  0.00000000000E+00  0.59015155981E+03  0.59015155982E+03  0.25500000920E-02 0. -1.
        2   -1    0    0  501    0  0.00000000000E+00  0.00000000000E+00 -0.21864629252E+04  0.21864629252E+04  0.25500000920E-02 0.  1.
    10030    2    1    2    0    0  0.00000000000E+00  0.00000000000E+00 -0.15963113654E+04  0.27766144851E+04  0.22718666385E+04 0.  0.
        5    1    3    3  502    0 -0.18181068336E+03  0.65690835657E+03 -0.19087464815E+04  0.20268001712E+04  0.46999998093E+01 0.  1.
       -5    1    3    3    0  502  0.18181068336E+03 -0.65690835657E+03  0.31243511604E+03  0.74981431385E+03  0.46999998093E+01 0. -1.
</event>
<event>
 5   0  0.8602414E-05  0.2151331E+04  0.7818609E-02  0.8538963E-01
       -1   -1    0    0    0  501  0.00000000000E+00  0.00000000000E+00  0.80378863921E+03  0.80378863923E+03  0.50400001928E-02 0. -1.
        1   -1    0    0  501    0  0.00000000000E+00  0.00000000000E+00 -0.14395037379E+04  0.14395037380E+04  0.50400001928E-02 0.  1.
    10030    2    1    2    0    0  0.00000000000E+00  0.00000000000E+00 -0.63571509874E+03  0.22432923772E+04  0.21513314488E+04 0.  0.
        3    1    3    3  502    0  0.10727205328E+04 -0.46393327825E+02 -0.38523426244E+03  0.11407397291E+04  0.10100000352E+00 0. -1.
       -3    1    3    3    0  502 -0.10727205328E+04  0.46393327825E+02 -0.25048083630E+03  0.11025526481E+04  0.10100000352E+00 0.  1.
</event>
<event>
 5   0  0.1805501E-04  0.2201153E+04  0.7818609E-02  0.8517949E-01
       -2   -1    0    0    0  501  0.00000000000E+00  0.00000000000E+00  0.58147609292E+03  0.58147609293E+03  0.25500000920E-02 0. -1.
        2   -1    0    0  501    0  0.00000000000E+00  0.00000000000E+00 -0.20830918027E+04  0.20830918027E+04  0.25500000920E-02 0.  1.
    10030    2    1    2    0    0  0.00000000000E+00  0.00000000000E+00 -0.15016157098E+04  0.26645678957E+04  0.22011525005E+04 0.  0.
        2    1    3    3  502    0 -0.35269823461E+03 -0.48868795867E+03  0.36397159447E+03  0.70405062832E+03  0.25500000920E-02 0. -1.
       -2    1    3    3    0  502  0.35269823461E+03  0.48868795867E+03 -0.18655873043E+04  0.19605172673E+04  0.25500000920E-02 0.  1.
</event>
<event>
 5   0  0.1805501E-04  0.2220277E+04  0.7818609E-02  0.8510035E-01
        2   -1    0    0  501    0  0.00000000000E+00  0.00000000000E+00  0.26106809022E+04  0.26106809022E+04  0.25500000920E-02 0. -1.
       -2   -1    0    0    0  501  0.00000000000E+00  0.00000000000E+00 -0.47206374314E+03  0.47206374315E+03  0.25500000920E-02 0.  1.
    10030    2    1    2    0    0  0.00000000000E+00  0.00000000000E+00  0.21386171591E+04  0.30827446454E+04  0.22202772790E+04 0.  0.
        2    1    3    3  502    0  0.98248403662E+03  0.41737399340E+03  0.14925738806E+04  0.18350075535E+04  0.25500000920E-02 0.  1.
       -2    1    3    3    0  502 -0.98248403662E+03 -0.41737399340E+03  0.64604327849E+03  0.12477370918E+04  0.25500000920E-02 0. -1.
</event>
<event>
 5   0  0.8306787E-05  0.2055106E+04  0.7818609E-02  0.8581281E-01
        1   -1    0    0  501    0  0.00000000000E+00  0.00000000000E+00  0.10431409161E+04  0.10431409162E+04  0.50400001928E-02 0. -1.
       -1   -1    0    0    0  501  0.00000000000E+00  0.00000000000E+00 -0.10121982960E+04  0.10121982960E+04  0.50400001928E-02 0.  1.
    10030    2    1    2    0    0  0.00000000000E+00  0.00000000000E+00  0.30942620108E+02  0.20553392122E+04  0.20551062823E+04 0.  0.
        1    1    3    3  502    0  0.23998988975E+03 -0.25607086750E+03 -0.95040107346E+03  0.10131286378E+04  0.50400001928E-02 0.  1.
       -1    1    3    3    0  502 -0.23998988975E+03  0.25607086750E+03  0.98134369357E+03  0.10422105744E+04  0.50400001928E-02 0. -1.
</event>
<event>
 5   0  0.1733962E-04  0.2194759E+04  0.7818609E-02  0.8520613E-01
        2   -1    0    0  501    0  0.00000000000E+00  0.00000000000E+00  0.18251921777E+04  0.18251921777E+04  0.25500000920E-02 0.  1.
       -2   -1    0    0    0  501  0.00000000000E+00  0.00000000000E+00 -0.65978874815E+03  0.65978874816E+03  0.25500000920E-02 0. -1.
    10030    2    1    2    0    0  0.00000000000E+00  0.00000000000E+00  0.11654034296E+04  0.24849809259E+04  0.21947585399E+04 0.  0.
        3    1    3    3  502    0 -0.21783333842E+01  0.10747610763E+04  0.83365228873E+03  0.13601809677E+04  0.10100000352E+00 0.  1.
       -3    1    3    3    0  502  0.21783333842E+01 -0.10747610763E+04  0.33175114082E+03  0.11247999581E+04  0.10100000352E+00 0. -1.
</event>
<event>
 5   0  0.1805501E-04  0.2170051E+04  0.7818609E-02  0.8530998E-01
        2   -1    0    0  501    0  0.00000000000E+00  0.00000000000E+00  0.67652617297E+03  0.67652617297E+03  0.25500000920E-02 0. -1.
       -2   -1    0    0    0  501  0.00000000000E+00  0.00000000000E+00 -0.17401850176E+04  0.17401850176E+04  0.25500000920E-02 0.  1.
    10030    2    1    2    0    0  0.00000000000E+00  0.00000000000E+00 -0.10636588447E+04  0.24167111906E+04  0.21700513452E+04 0.  0.
        2    1    3    3  502    0  0.93710131380E+03 -0.41878193967E+03 -0.92358571836E+03  0.13807779563E+04  0.25500000920E-02 0.  1.
       -2    1    3    3    0  502 -0.93710131380E+03  0.41878193967E+03 -0.14007312631E+03  0.10359332344E+04  0.25500000920E-02 0. -1.
</event>
<event>
 5   0  0.8602414E-05  0.2210099E+04  0.7818609E-02  0.8514236E-01
        1   -1    0    0  501    0  0.00000000000E+00  0.00000000000E+00  0.99347505708E+03  0.99347505709E+03  0.50400001928E-02 0. -1.
       -1   -1    0    0    0  501  0.00000000000E+00  0.00000000000E+00 -0.12291546448E+04  0.12291546448E+04  0.50400001928E-02 0.  1.
    10030    2    1    2    0    0  0.00000000000E+00  0.00000000000E+00 -0.23567958774E+03  0.22226297019E+04  0.22100990756E+04 0.  0.
        3    1    3    3  502    0 -0.59907735722E+03  0.10338301026E+03 -0.10458679379E+04  0.12097195876E+04  0.10100000352E+00 0.  1.
       -3    1    3    3    0  502  0.59907735722E+03 -0.10338301026E+03  0.81018835020E+03  0.10129101143E+04  0.10100000352E+00 0. -1.
</event>
<event>
 5   0  0.7954459E-05  0.2195408E+04  0.7818609E-02  0.8520342E-01
        1   -1    0    0  501    0  0.00000000000E+00  0.00000000000E+00  0.10660882810E+04  0.10660882810E+04  0.50400001928E-02 0.  1.
       -1   -1    0    0    0  501  0.00000000000E+00  0.00000000000E+00 -0.11302572646E+04  0.11302572646E+04  0.50400001928E-02 0. -1.
    10030    2    1    2    0    0  0.00000000000E+00  0.00000000000E+00 -0.64168983619E+02  0.21963455456E+04  0.21954079569E+04 0.  0.
        5    1    3    3  502    0  0.28316092357E+03 -0.65476294338E+03 -0.86672929722E+03  0.11225579652E+04  0.46999998093E+01 0. -1.
       -5    1    3    3    0  502 -0.28316092357E+03  0.65476294338E+03  0.80256031360E+03  0.10737875803E+04  0.46999998093E+01 0.  1.
</event>
<event>
 5   0  0.8784659E-05  0.2098183E+04  0.7818609E-02  0.8562044E-01
        1   -1    0    0  501    0  0.00000000000E+00  0.00000000000E+00  0.10644810331E+04  0.10644810331E+04  0.50400001928E-02 0. -1.
       -1   -1    0    0    0  501  0.00000000000E+00  0.00000000000E+00 -0.10339243859E+04  0.10339243859E+04  0.50400001928E-02 0.  1.
    10030    2    1    2    0    0  0.00000000000E+00  0.00000000000E+00  0.30556647179E+02  0.20984054190E+04  0.20981829267E+04 0.  0.
        4    1    3    3  502    0  0.32830033135E+03 -0.65494414390E+03  0.76626296812E+03  0.10601384289E+04  0.12699999809E+01 0. -1.
       -4    1    3    3    0  502 -0.32830033135E+03  0.65494414390E+03 -0.73570632094E+03  0.10382669901E+04  0.12699999809E+01 0.  1.
</event>
<event>
 5   0  0.1733962E-04  0.2105379E+04  0.7818609E-02  0.8558878E-01
        2   -1    0    0  501    0  0.00000000000E+00  0.00000000000E+00  0.15113458939E+04  0.15113458939E+04  0.25500000920E-02 0. -1.
       -2   -1    0    0    0  501  0.00000000000E+00  0.00000000000E+00 -0.73322413438E+03  0.73322413439E+03  0.25500000920E-02 0.  1.
    10030    2    1    2    0    0  0.00000000000E+00  0.00000000000E+00  0.77812175956E+03  0.22445700283E+04  0.21053790964E+04 0.  0.
        3    1    3    3  502    0 -0.88793031774E+03 -0.55502725260E+03  0.27384294691E+03  0.10823425844E+04  0.10100000352E+00 0.  1.
       -3    1    3    3    0  502  0.88793031774E+03  0.55502725260E+03  0.50427881265E+03  0.11622274439E+04  0.10100000352E+00 0. -1.
</event>
<event>
 5   0  0.1805501E-04  0.1277589E+04  0.7818609E-02  0.9047528E-01
        2   -1    0    0  501    0  0.00000000000E+00  0.00000000000E+00  0.80910158481E+03  0.80910158482E+03  0.25500000920E-02 0.  1.
       -2   -1    0    0    0  501  0.00000000000E+00  0.00000000000E+00 -0.50433554000E+03  0.50433554001E+03  0.25500000920E-02 0. -1.
    10030    2    1    2    0    0  0.00000000000E+00  0.00000000000E+00  0.30476604481E+03  0.13134371248E+04  0.12775894250E+04 0.  0.
        2    1    3    3  502    0  0.41655347429E+03  0.77010114617E+02 -0.33916602004E+03  0.54266098427E+03  0.25500000920E-02 0. -1.
       -2    1    3    3    0  502 -0.41655347429E+03 -0.77010114617E+02  0.64393206485E+03  0.77077614055E+03  0.25500000920E-02 0.  1.
</event>
<event>
 5   0  0.1798917E-04  0.2203845E+04  0.7818609E-02  0.8516830E-01
        2   -1    0    0  501    0  0.00000000000E+00  0.00000000000E+00  0.15290615498E+04  0.15290615498E+04  0.25500000920E-02 0.  1.
       -2   -1    0    0    0  501  0.00000000000E+00  0.00000000000E+00 -0.79410321753E+03  0.79410321754E+03  0.25500000920E-02 0. -1.
    10030    2    1    2    0    0  0.00000000000E+00  0.00000000000E+00  0.73495833229E+03  0.23231647674E+04  0.22038445467E+04 0.  0.
        4    1    3    3  502    0  0.77102819125E+03  0.64397869998E+03 -0.10984814326E+03  0.10105747203E+04  0.12699999809E+01 0. -1.
       -4    1    3    3    0  502 -0.77102819125E+03 -0.64397869998E+03  0.84480647555E+03  0.13125900471E+04  0.12699999809E+01 0.  1.
</event>
<event>
 5   0  0.8470971E-05  0.2215880E+04  0.7818609E-02  0.8511848E-01
       -1   -1    0    0    0  501  0.00000000000E+00  0.00000000000E+00  0.92845392296E+03  0.92845392297E+03  0.50400001928E-02 0. -1.
        1   -1    0    0  501    0  0.00000000000E+00  0.00000000000E+00 -0.13221234299E+04  0.13221234299E+04  0.50400001928E-02 0.  1.
    10030    2    1    2    0    0  0.00000000000E+00  0.00000000000E+00 -0.39366950694E+03  0.22505773529E+04  0.22158796765E+04 0.  0.
        2    1    3    3  502    0  0.48580412561E+03  0.89855933788E+03 -0.63264126617E+03  0.12015196643E+04  0.25500000920E-02 0.  1.
       -2    1    3    3    0  502 -0.48580412561E+03 -0.89855933788E+03  0.23897175923E+03  0.10490576885E+04  0.25500000920E-02 0. -1.
</event>
<event>
 5   0  0.1733962E-04  0.2168185E+04  0.7818609E-02  0.8531788E-01
       -2   -1    0    0    0  501  0.00000000000E+00  0.00000000000E+00  0.60771323291E+03  0.60771323292E+03  0.25500000920E-02 0. -1.
        2   -1    0    0  501    0  0.00000000000E+00  0.00000000000E+00 -0.19339007684E+04  0.19339007684E+04  0.25500000920E-02 0.  1.
    10030    2    1    2    0    0  0.00000000000E+00  0.00000000000E+00 -0.13261875355E+04  0.25416140013E+04  0.21681854977E+04 0.  0.
        3    1    3    3  502    0 -0.84269611175E+03 -0.64594582878E+03 -0.40660727328E+03  0.11369750373E+04  0.10100000352E+00 0.  1.
       -3    1    3    3    0  502  0.84269611175E+03  0.64594582878E+03 -0.91958026219E+03  0.14046389640E+04  0.10100000352E+00 0. -1.
</event>
<event>
 5   0  0.1805501E-04  0.2187468E+04  0.7818609E-02  0.8523662E-01
        2   -1    0    0  501    0  0.00000000000E+00  0.00000000000E+00  0.11109198647E+04  0.11109198647E+04  0.25500000920E-02 0. -1.
       -2   -1    0    0    0  501  0.00000000000E+00  0.00000000000E+00 -0.10768138917E+04  0.10768138917E+04  0.25500000920E-02 0.  1.
    10030    2    1    2    0    0  0.00000000000E+00  0.00000000000E+00  0.34105972999E+02  0.21877337565E+04  0.21874678904E+04 0.  0.
        2    1    3    3  502    0 -0.39447888493E+03  0.99323112373E+03  0.24974472776E+03  0.10974944578E+04  0.25500000920E-02 0.  1.
       -2    1    3    3    0  502  0.39447888493E+03 -0.99323112373E+03 -0.21563875476E+03  0.10902392987E+04  0.25500000920E-02 0. -1.
</event>
<event>
 5   0  0.8306787E-05  0.1315103E+04  0.7818609E-02  0.9017673E-01
       -1   -1    0    0    0  501  0.00000000000E+00  0.00000000000E+00  0.74900710345E+03  0.74900710346E+03  0.50400001928E-02 0. -1.
        1   -1    0    0  501    0  0.00000000000E+00  0.00000000000E+00 -0.57726322842E+03  0.57726322844E+03  0.50400001928E-02 0.  1.
    10030    2    1    2    0    0  0.00000000000E+00  0.00000000000E+00  0.17174387503E+03  0.13262703319E+04  0.13151034312E+04 0.  0.
        1    1    3    3  502    0 -0.44389554693E+03  0.26340730381E+03  0.49669765693E+03  0.71633457735E+03  0.50400001928E-02 0. -1.
       -1    1    3    3    0  502  0.44389554693E+03 -0.26340730381E+03 -0.32495378191E+03  0.60993575455E+03  0.50400001928E-02 0.  1.
</event>
<event>
 5   0  0.7954459E-05  0.2163479E+04  0.7818609E-02  0.8533784E-01
        1   -1    0    0  501    0  0.00000000000E+00  0.00000000000E+00  0.67192156994E+03  0.67192156996E+03  0.50400001928E-02 0. -1.
       -1   -1    0    0    0  501  0.00000000000E+00  0.00000000000E+00 -0.17415140534E+04  0.17415140534E+04  0.50400001928E-02 0.  1.
    10030    2    1    2    0    0  0.00000000000E+00  0.00000000000E+00 -0.10695924834E+04  0.24134356234E+04  0.21634794724E+04 0.  0.
        5    1    3    3  502    0  0.66053006050E+03  0.34306754723E+03 -0.14104327549E+04  0.15947846089E+04  0.46999998093E+01 0.  1.
       -5    1    3    3    0  502 -0.66053006050E+03 -0.34306754723E+03  0.34084027145E+03  0.81865101443E+03  0.46999998093E+01 0. -1.
</event>
<event>
 5   0  0.8784659E-05  0.2207395E+04  0.7818609E-02  0.8515357E-01
        1   -1    0    0  501    0  0.00000000000E+00  0.00000000000E+00  0.79224160222E+03  0.79224160224E+03  0.50400001928E-02 0. -1.
       -1   -1    0    0    0  501  0.00000000000E+00  0.00000000000E+00 -0.15375964396E+04  0.15375964396E+04  0.50400001928E-02 0.  1.
    10030    2    1    2    0    0  0.00000000000E+00  0.00000000000E+00 -0.74535483733E+03  0.23298380418E+04  0.22073947240E+04 0.  0.
        4    1    3    3  502    0  0.10693907123E+04  0.20660452285E+03 -0.18426994559E+03  0.11046442641E+04  0.12699999809E+01 0. -1.
       -4    1    3    3    0  502 -0.10693907123E+04 -0.20660452285E+03 -0.56108489174E+03  0.12251937777E+04  0.12699999809E+01 0.  1.
</event>
<event>
 5   0  0.8602414E-05  0.2092100E+04  0.7818609E-02  0.8564731E-01
       -1   -1    0    0    0  501  0.00000000000E+00  0.00000000000E+00  0.12971026789E+04  0.12971026789E+04  0.50400001928E-02 0.  1.
        1   -1    0    0  501    0  0.00000000000E+00  0.00000000000E+00 -0.84358813817E+03  0.84358813819E+03  0.50400001928E-02 0. -1.
    10030    2    1    2    0    0  0.00000000000E+00  0.00000000000E+00  0.45351454071E+03  0.21406908171E+04  0.20920998389E+04 0.  0.
        3    1    3    3  502    0  0.73188945907E+03  0.40549675727E+03  0.86913670688E+03  0.12064362502E+04  0.10100000352E+00 0.  1.
       -3    1    3    3    0  502 -0.73188945907E+03 -0.40549675727E+03 -0.41562216617E+03  0.93425456684E+03  0.10100000352E+00 0. -1.
</event>
<event>
 5   0  0.1733962E-04  0.2290684E+04  0.7818609E-02  0.8481603E-01
       -2   -1    0    0    0  501  0.00000000000E+00  0.00000000000E+00  0.75206087580E+03  0.75206087581E+03  0.25500000920E-02 0.  1.
        2   -1    0    0  501    0  0.00000000000E+00  0.00000000000E+00 -0.17442841707E+04  0.17442841707E+04  0.25500000920E-02 0. -1.
    10030    2    1    2    0    0  0.00000000000E+00  0.00000000000E+00 -0.99222329486E+03  0.24963450465E+04  0.22906836369E+04 0.  0.
        3    1    3    3  502    0 -0.71058231113E+03  0.34666060065E+03  0.40696635144E+03  0.88922573869E+03  0.10100000352E+00 0.  1.
       -3    1    3    3    0  502  0.71058231113E+03 -0.34666060065E+03 -0.13991896463E+04  0.16071193078E+04  0.10100000352E+00 0. -1.
</event>
<event>
 5   0  0.8470971E-05  0.1947720E+04  0.7818609E-02  0.8631461E-01
        1   -1    0    0  501    0  0.00000000000E+00  0.00000000000E+00  0.12497710542E+04  0.12497710542E+04  0.50400001928E-02 0.  1.
       -1   -1    0    0    0  501  0.00000000000E+00  0.00000000000E+00 -0.75886140169E+03  0.75886140171E+03  0.50400001928E-02 0. -1.
    10030    2    1    2    0    0  0.00000000000E+00  0.00000000000E+00  0.49090965254E+03  0.20086324560E+04  0.19477197068E+04 0.  0.
        2    1    3    3  502    0 -0.15284496492E+03  0.17760296501E+03 -0.72935738278E+03  0.76607218217E+03  0.25500000920E-02 0. -1.
       -2    1    3    3    0  502  0.15284496492E+03 -0.17760296501E+03  0.12202670353E+04  0.12425602738E+04  0.25500000920E-02 0.  1.
</event>
<event>
 5   0  0.1754356E-04  0.2208281E+04  0.7818609E-02  0.8514989E-01
        2   -1    0    0  501    0  0.00000000000E+00  0.00000000000E+00  0.21931600613E+04  0.21931600613E+04  0.25500000920E-02 0. -1.
       -2   -1    0    0    0  501  0.00000000000E+00  0.00000000000E+00 -0.55587664410E+03  0.55587664411E+03  0.25500000920E-02 0.  1.
    10030    2    1    2    0    0  0.00000000000E+00  0.00000000000E+00  0.16372834172E+04  0.27490367054E+04  0.22082811912E+04 0.  0.
        1    1    3    3  502    0  0.37606830845E+02  0.49284465759E+03 -0.41045926283E+03  0.64248497002E+03  0.50400001928E-02 0.  1.
       -1    1    3    3    0  502 -0.37606830845E+02 -0.49284465759E+03  0.20477426800E+04  0.21065517354E+04  0.50400001928E-02 0. -1.
</event>
<event>
 5   0  0.8470971E-05  0.2137381E+04  0.7818609E-02  0.8544953E-01
       -1   -1    0    0    0  501  0.00000000000E+00  0.00000000000E+00  0.12223213770E+04  0.12223213770E+04  0.50400001928E-02 0. -1.
        1   -1    0    0  501    0  0.00000000000E+00  0.00000000000E+00 -0.93436905534E+03  0.93436905536E+03  0.50400001928E-02 0.  1.
    10030    2    1    2    0    0  0.00000000000E+00  0.00000000000E+00  0.28795232162E+03  0.21566904323E+04  0.21373808929E+04 0.  0.
        2    1    3    3  502    0 -0.28423536073E+03  0.65804307390E+03 -0.65583150586E+03  0.97155822856E+03  0.25500000920E-02 0.  1.
       -2    1    3    3    0  502  0.28423536073E+03 -0.65804307390E+03  0.94378382747E+03  0.11851322038E+04  0.25500000920E-02 0. -1.
</event>
<event>
 5   0  0.8602414E-05  0.2242536E+04  0.7818609E-02  0.8500930E-01
       -1   -1    0    0    0  501  0.00000000000E+00  0.00000000000E+00  0.79036802660E+03  0.79036802661E+03  0.50400001928E-02 0. -1.
        1   -1    0    0  501    0  0.00000000000E+00  0.00000000000E+00 -0.15907039648E+04  0.15907039648E+04  0.50400001928E-02 0.  1.
    10030    2    1    2    0    0  0.00000000000E+00  0.00000000000E+00 -0.80033593818E+03  0.23810719914E+04  0.22425356662E+04 0.  0.
        3    1    3    3  502    0  0.88238938765E+03  0.66075309741E+03 -0.18247564480E+03  0.11173643355E+04  0.10100000352E+00 0. -1.
       -3    1    3    3    0  502 -0.88238938765E+03 -0.66075309741E+03 -0.61786029337E+03  0.12637076559E+04  0.10100000352E+00 0.  1.
</event>
<event>
 5   0  0.1754356E-04  0.2203764E+04  0.7818609E-02  0.8516863E-01
        2   -1    0    0  501    0  0.00000000000E+00  0.00000000000E+00  0.16605828102E+04  0.16605828102E+04  0.25500000920E-02 0.  1.
       -2   -1    0    0    0  501  0.00000000000E+00  0.00000000000E+00 -0.73115512689E+03  0.73115512690E+03  0.25500000920E-02 0. -1.
    10030    2    1    2    0    0  0.00000000000E+00  0.00000000000E+00  0.92942768332E+03  0.23917379371E+04  0.22037637218E+04 0.  0.
        1    1    3    3  502    0  0.28801488880E+03 -0.10914067289E+03  0.16129145564E+04  0.16420589603E+04  0.50400001928E-02 0.  1.
       -1    1    3    3    0  502 -0.28801488880E+03  0.10914067289E+03 -0.68348687309E+03  0.74967897686E+03  0.50400001928E-02 0. -1.
</event>
<event>
 5   0  0.8784659E-05  0.2134499E+04  0.7818609E-02  0.8546197E-01
        1   -1    0    0  501    0  0.00000000000E+00  0.00000000000E+00  0.17611209624E+04  0.17611209624E+04  0.50400001928E-02 0. -1.
       -1   -1    0    0    0  501  0.00000000000E+00  0.00000000000E+00 -0.64675940363E+03  0.64675940364E+03  0.50400001928E-02 0.  1.
    10030    2    1    2    0    0  0.00000000000E+00  0.00000000000E+00  0.11143615588E+04  0.24078803661E+04  0.21344990451E+04 0.  0.
        4    1    3    3  502    0  0.43884126010E+03  0.96967667217E+03  0.64575771258E+03  0.12449333863E+04  0.12699999809E+01 0.  1.
       -4    1    3    3    0  502 -0.43884126010E+03 -0.96967667217E+03  0.46860384621E+03  0.11629469797E+04  0.12699999809E+01 0. -1.
</event>
<event>
 5   0  0.1805501E-04  0.1704875E+04  0.7818609E-02  0.8758589E-01
        2   -1    0    0  501    0  0.00000000000E+00  0.00000000000E+00  0.73466541290E+03  0.73466541291E+03  0.25500000920E-02 0.  1.
       -2   -1    0    0    0  501  0.00000000000E+00  0.00000000000E+00 -0.98908904130E+03  0.98908904131E+03  0.25500000920E-02 0. -1.
    10030    2    1    2    0    0  0.00000000000E+00  0.00000000000E+00 -0.25442362840E+03  0.17237544542E+04  0.17048747859E+04 0.  0.
        2    1    3    3  502    0 -0.24161703503E+03 -0.18777127559E+03  0.67721976897E+03  0.74314430567E+03  0.25500000920E-02 0.  1.
       -2    1    3    3    0  502  0.24161703503E+03  0.18777127559E+03 -0.93164339738E+03  0.98061014855E+03  0.25500000920E-02 0. -1.
</event>
<event>
 5   0  0.7954459E-05  0.2200402E+04  0.7818609E-02  0.8518261E-01
       -1   -1    0    0    0  501  0.00000000000E+00  0.00000000000E+00  0.12091294655E+04  0.12091294655E+04  0.50400001928E-02 0.  1.
        1   -1    0    0  501    0  0.00000000000E+00  0.00000000000E+00 -0.10010855441E+04  0.10010855441E+04  0.50400001928E-02 0. -1.
    10030    2    1    2    0    0  0.00000000000E+00  0.00000000000E+00  0.20804392138E+03  0.22102150096E+04  0.22004018077E+04 0.  0.
        5    1    3    3  502    0 -0.90809777979E+03 -0.52336312203E+03 -0.23193851877E+03  0.10734840947E+04  0.46999998093E+01 0. -1.
       -5    1    3    3    0  502  0.90809777979E+03  0.52336312203E+03  0.43998244015E+03  0.11367309149E+04  0.46999998093E+01 0.  1.
</event>
<event>
 5   0  0.1733962E-04  0.1140787E+04  0.7818609E-02  0.9166325E-01
       -2   -1    0    0    0  501  0.00000000000E+00  0.00000000000E+00  0.17269520355E+03  0.17269520357E+03  0.25500000920E-02 0.  1.
        2   -1    0    0  501    0  0.00000000000E+00  0.00000000000E+00 -0.18839490988E+04  0.18839490988E+04  0.25500000920E-02 0. -1.
    10030    2    1    2    0    0  0.00000000000E+00  0.00000000000E+00 -0.17112538952E+04  0.20566443023E+04  0.11407874002E+04 0.  0.
        3    1    3    3  502    0  0.56124789514E+02  0.64149549855E+02  0.16114896831E+03  0.18230237775E+03  0.10100000352E+00 0.  1.
       -3    1    3    3    0  502 -0.56124789514E+02 -0.64149549855E+02 -0.18724028635E+04  0.18743419246E+04  0.10100000352E+00 0. -1.
</event>
<event>
 5   0  0.8470971E-05  0.2232820E+04  0.7818609E-02  0.8504890E-01
        1   -1    0    0  501    0  0.00000000000E+00  0.00000000000E+00  0.18155464325E+04  0.18155464325E+04  0.50400001928E-02 0. -1.
       -1   -1    0    0    0  501  0.00000000000E+00  0.00000000000E+00 -0.68649947578E+03  0.68649947580E+03  0.50400001928E-02 0.  1.
    10030    2    1    2    0    0  0.00000000000E+00  0.00000000000E+00  0.11290469567E+04  0.25020459083E+04  0.22328203458E+04 0.  0.
        2    1    3    3  502    0  0.65710923883E+03  0.60241331555E+03 -0.18858170196E+03  0.91118462060E+03  0.25500000920E-02 0.  1.
       -2    1    3    3    0  502 -0.65710923883E+03 -0.60241331555E+03  0.13176286586E+04  0.15908612877E+04  0.25500000920E-02 0. -1.
</event>
<event>
 5   0  0.1805501E-04  0.2200422E+04  0.7818609E-02  0.8518253E-01
       -2   -1    0    0    0  501  0.00000000000E+00  0.00000000000E+00  0.63935233970E+03  0.63935233970E+03  0.25500000920E-02 0.  1.
        2   -1    0    0  501    0  0.00000000000E+00  0.00000000000E+00 -0.18932656144E+04  0.18932656144E+04  0.25500000920E-02 0. -1.
    10030    2    1    2    0    0  0.00000000000E+00  0.00000000000E+00 -0.12539132747E+04  0.25326179541E+04  0.22004215962E+04 0.  0.
        2    1    3    3  502    0 -0.35079359325E+03 -0.51432132088E+03 -0.16710332358E+04  0.17832371243E+04  0.25500000920E-02 0. -1.
       -2    1    3    3    0  502  0.35079359325E+03  0.51432132088E+03  0.41711996111E+03  0.74938082984E+03  0.25500000920E-02 0.  1.
</event>
<event>
 5   0  0.1754356E-04  0.2186834E+04  0.7818609E-02  0.8523928E-01
        2   -1    0    0  501    0  0.00000000000E+00  0.00000000000E+00  0.13240322329E+04  0.13240322329E+04  0.25500000920E-02 0. -1.
       -2   -1    0    0    0  501  0.00000000000E+00  0.00000000000E+00 -0.90296922122E+03  0.90296922122E+03  0.25500000920E-02 0.  1.
    10030    2    1    2    0    0  0.00000000000E+00  0.00000000000E+00  0.42106301164E+03  0.22270014541E+04  0.21868336509E+04 0.  0.
        1    1    3    3  502    0 -0.76281660331E+02 -0.12169282652E+03  0.13143843409E+04  0.13222080893E+04  0.50400001928E-02 0. -1.
       -1    1    3    3    0  502  0.76281660331E+02  0.12169282652E+03 -0.89332132924E+03  0.90479336482E+03  0.50400001928E-02 0.  1.
</event>
<event>
 5   0  0.8602414E-05  0.2308695E+04  0.7818609E-02  0.8474501E-01
        1   -1    0    0  501    0  0.00000000000E+00  0.00000000000E+00  0.71182772856E+03  0.71182772858E+03  0.50400001928E-02 0.  1.
       -1   -1    0    0    0  501  0.00000000000E+00  0.00000000000E+00 -0.18719670131E+04  0.18719670131E+04  0.50400001928E-02 0. -1.
    10030    2    1    2    0    0  0.00000000000E+00  0.00000000000E+00 -0.11601392846E+04  0.25837947417E+04  0.23086948927E+04 0.  0.
        3    1    3    3  502    0 -0.54619956677E+03  0.11897285043E+03  0.55024105086E+03  0.78438111281E+03  0.10100000352E+00 0.  1.
       -3    1    3    3    0  502  0.54619956677E+03 -0.11897285043E+03 -0.17103803354E+04  0.17994136289E+04  0.10100000352E+00 0. -1.
</event>
<event>
 5   0  0.8784659E-05  0.1947646E+04  0.7818609E-02  0.8631497E-01
        1   -1    0    0  501    0  0.00000000000E+00  0.00000000000E+00  0.25056865539E+04  0.25056865539E+04  0.50400001928E-02 0. -1.
       -1   -1    0    0    0  501  0.00000000000E+00  0.00000000000E+00 -0.37847152325E+03  0.37847152328E+03  0.50400001928E-02 0.  1.
    10030    2    1    2    0    0  0.00000000000E+00  0.00000000000E+00  0.21272150306E+04  0.28841580772E+04  0.19476457654E+04 0.  0.
        4    1    3    3  502    0 -0.30255591710E+02  0.96067046876E+03  0.12955202557E+04  0.16131266212E+04  0.12699999809E+01 0.  1.
       -4    1    3    3    0  502  0.30255591710E+02 -0.96067046876E+03  0.83169477495E+03  0.12710314559E+04  0.12699999809E+01 0. -1.
</event>
<event>
 5   0  0.1805501E-04  0.1895100E+04  0.7818609E-02  0.8657299E-01
       -2   -1    0    0    0  501  0.00000000000E+00  0.00000000000E+00  0.78520786473E+03  0.78520786473E+03  0.25500000920E-02 0. -1.
        2   -1    0    0  501    0  0.00000000000E+00  0.00000000000E+00 -0.11434563117E+04  0.11434563117E+04  0.25500000920E-02 0.  1.
    10030    2    1    2    0    0  0.00000000000E+00  0.00000000000E+00 -0.35824844693E+03  0.19286641764E+04  0.18950998801E+04 0.  0.
        2    1    3    3  502    0  0.13096153384E+03  0.93837363706E+03 -0.19178983353E+03  0.96668471920E+03  0.25500000920E-02 0.  1.
       -2    1    3    3    0  502 -0.13096153384E+03 -0.93837363706E+03 -0.16645861340E+03  0.96197945719E+03  0.25500000920E-02 0. -1.
</event>
<event>
 5   0  0.1798917E-04  0.1083288E+04  0.7818609E-02  0.9221635E-01
       -2   -1    0    0    0  501  0.00000000000E+00  0.00000000000E+00  0.44449422710E+03  0.44449422711E+03  0.25500000920E-02 0. -1.
        2   -1    0    0  501    0  0.00000000000E+00  0.00000000000E+00 -0.66002685777E+03  0.66002685778E+03  0.25500000920E-02 0.  1.
    10030    2    1    2    0    0  0.00000000000E+00  0.00000000000E+00 -0.21553263067E+03  0.11045210849E+04  0.10832878251E+04 0.  0.
        4    1    3    3  502    0 -0.48156646152E+03  0.55807661922E+02  0.13853800232E+03  0.50419752377E+03  0.12699999809E+01 0. -1.
       -4    1    3    3    0  502  0.48156646152E+03 -0.55807661922E+02 -0.35407063298E+03  0.60032356112E+03  0.12699999809E+01 0.  1.
</event>
<event>
 5   0  0.1733962E-04  0.2199843E+04  0.7818609E-02  0.8518494E-01
       -2   -1    0    0    0  501  0.00000000000E+00  0.00000000000E+00  0.11356437926E+04  0.11356437926E+04  0.25500000920E-02 0.  1.
        2   -1    0    0  501    0  0.00000000000E+00  0.00000000000E+00 -0.10653225517E+04  0.10653225517E+04  0.25500000920E-02 0. -1.
    10030    2    1    2    0    0  0.00000000000E+00  0.00000000000E+00  0.70321240935E+02  0.22009663443E+04  0.21998426698E+04 0.  0.
        3    1    3    3  502    0 -0.22477461173E+03 -0.10007437516E+04  0.43262321582E+03  0.11131821682E+04  0.10100000352E+00 0.  1.
       -3    1    3    3    0  502  0.22477461173E+03  0.10007437516E+04 -0.36230197489E+03  0.10877841761E+04  0.10100000352E+00 0. -1.
</event>
<event>
 5   0  0.1680258E-04  0.2481977E+04  0.7818609E-02  0.8409435E-01
        2   -1    0    0  501    0  0.00000000000E+00  0.00000000000E+00  0.13325235173E+04  0.13325235173E+04  0.25500000920E-02 0.  1.
       -2   -1    0    0    0  501  0.00000000000E+00  0.00000000000E+00 -0.11557414509E+04  0.11557414509E+04  0.25500000920E-02 0. -1.
    10030    2    1    2    0    0  0.00000000000E+00  0.00000000000E+00  0.17678206637E+03  0.24882649682E+04  0.24819771661E+04 0.  0.
        5    1    3    3  502    0  0.23210333640E+03 -0.55438033830E+03  0.11768768780E+04  0.13214653965E+04  0.46999998093E+01 0.  1.
       -5    1    3    3    0  502 -0.23210333640E+03  0.55438033830E+03 -0.10000948116E+04  0.11667995717E+04  0.46999998093E+01 0. -1.
</event>
<event>
 5   0  0.8784659E-05  0.2166547E+04  0.7818609E-02  0.8532482E-01
       -1   -1    0    0    0  501  0.00000000000E+00  0.00000000000E+00  0.15245636375E+04  0.15245636375E+04  0.50400001928E-02 0.  1.
        1   -1    0    0  501    0  0.00000000000E+00  0.00000000000E+00 -0.76971638655E+03  0.76971638657E+03  0.50400001928E-02 0. -1.
    10030    2    1    2    0    0  0.00000000000E+00  0.00000000000E+00  0.75484725099E+03  0.22942800241E+04  0.21665471277E+04 0.  0.
        4    1    3    3  502    0 -0.11884085670E+03  0.44045800860E+03 -0.66302704024E+03  0.80481853579E+03  0.12699999809E+01 0. -1.
       -4    1    3    3    0  502  0.11884085670E+03 -0.44045800860E+03  0.14178742912E+04  0.14894614883E+04  0.12699999809E+01 0.  1.
</event>
<event>
 5   0  0.7954459E-05  0.1143069E+04  0.7818609E-02  0.9164201E-01
        1   -1    0    0  501    0  0.00000000000E+00  0.00000000000E+00  0.18884735899E+04  0.18884735899E+04  0.50400001928E-02 0. -1.
       -1   -1    0    0    0  501  0.00000000000E+00  0.00000000000E+00 -0.17297137926E+03  0.17297137933E+03  0.50400001928E-02 0.  1.
    10030    2    1    2    0    0  0.00000000000E+00  0.00000000000E+00  0.17155022106E+04  0.20614449692E+04  0.11430693446E+04 0.  0.
        5    1    3    3  502    0  0.97188704404E+02  0.48474938658E+02 -0.15415497972E+03  0.18863009227E+03  0.46999998093E+01 0.  1.
       -5    1    3    3    0  502 -0.97188704404E+02 -0.48474938658E+02  0.18696571903E+04  0.18728148770E+04  0.46999998093E+01 0. -1.
</event>
<event>
 5   0  0.8306787E-05  0.2243084E+04  0.7818609E-02  0.8500707E-01
       -1   -1    0    0    0  501  0.00000000000E+00  0.00000000000E+00  0.54840108561E+03  0.54840108563E+03  0.50400001928E-02 0.  1.
        1   -1    0    0  501    0  0.00000000000E+00  0.00000000000E+00 -0.22936796750E+04  0.22936796750E+04  0.50400001928E-02 0. -1.
    10030    2    1    2    0    0  0.00000000000E+00  0.00000000000E+00 -0.17452785894E+04  0.28420807606E+04  0.22430839698E+04 0.  0.
        1    1    3    3  502    0  0.17307026381E+03 -0.73346801512E+03 -0.19250680328E+04  0.20673208692E+04  0.50400001928E-02 0. -1.
       -1    1    3    3    0  502 -0.17307026381E+03  0.73346801512E+03  0.17978944337E+03  0.77475989144E+03  0.50400001928E-02 0.  1.
</event>
<event>
 5   0  0.1798917E-04  0.1228748E+04  0.7818609E-02  0.9088059E-01
        2   -1    0    0  501    0  0.00000000000E+00  0.00000000000E+00  0.11423020498E+04  0.11423020498E+04  0.25500000920E-02 0.  1.
       -2   -1    0    0    0  501  0.00000000000E+00  0.00000000000E+00 -0.33043371669E+03  0.33043371670E+03  0.25500000920E-02 0. -1.
    10030    2    1    2    0    0  0.00000000000E+00  0.00000000000E+00  0.81186833307E+03  0.14727357665E+04  0.12287475117E+04 0.  0.
        4    1    3    3  502    0 -0.22733903032E+03  0.53981745785E+03  0.18373796177E+03  0.61387879423E+03  0.12699999809E+01 0. -1.
       -4    1    3    3    0  502  0.22733903032E+03 -0.53981745785E+03  0.62813037130E+03  0.85885697223E+03  0.12699999809E+01 0.  1.
</event>
<event>
 5   0  0.1798917E-04  0.2236732E+04  0.7818609E-02  0.8503293E-01
        2   -1    0    0  501    0  0.00000000000E+00  0.00000000000E+00  0.14310282593E+04  0.14310282593E+04  0.25500000920E-02 0. -1.
       -2   -1    0    0    0  501  0.00000000000E+00  0.00000000000E+00 -0.87401655103E+03  0.87401655103E+03  0.25500000920E-02 0.  1.
    10030    2    1    2    0    0  0.00000000000E+00  0.00000000000E+00  0.55701170828E+03  0.23050448103E+04  0.22367318870E+04 0.  0.
        4    1    3    3  502    0  0.58973419604E+02 -0.10903556125E+04  0.52752087795E+03  0.12126966296E+04  0.12699999809E+01 0. -1.
       -4    1    3    3    0  502 -0.58973419604E+02  0.10903556125E+04  0.29490830328E+02  0.10923481807E+04  0.12699999809E+01 0.  1.
</event>
<event>
 5   0  0.6250625E-05  0.2162938E+04  0.7818609E-02  0.8534014E-01
        3   -1    0    0  501    0  0.00000000000E+00  0.00000000000E+00  0.12584307665E+04  0.12584307705E+04  0.10100000352E+00 0.  1.
       -3   -1    0    0    0  501  0.00000000000E+00  0.00000000000E+00 -0.92939202693E+03  0.92939203242E+03  0.10100000352E+00 0. -1.
    10030    2    1    2    0    0  0.00000000000E+00  0.00000000000E+00  0.32903873954E+03  0.21878228029E+04  0.21629383082E+04 0.  0.
        3    1    3    3  502    0 -0.66141789277E+03 -0.63000926809E+03  0.75013637254E+03  0.11819855728E+04  0.10100000352E+00 0.  1.
       -3    1    3    3    0  502  0.66141789277E+03  0.63000926809E+03 -0.42109763301E+03  0.10058372301E+04  0.10100000352E+00 0. -1.
</event>
<event>
 5   0  0.1805501E-04  0.2222185E+04  0.7818609E-02  0.8509251E-01
        2   -1    0    0  501    0  0.00000000000E+00  0.00000000000E+00  0.17328869084E+04  0.17328869084E+04  0.25500000920E-02 0.  1.
       -2   -1    0    0    0  501  0.00000000000E+00  0.00000000000E+00 -0.71241038794E+03  0.71241038794E+03  0.25500000920E-02 0. -1.
    10030    2    1    2    0    0  0.00000000000E+00  0.00000000000E+00  0.10204765205E+04  0.24452972963E+04  0.22221850820E+04 0.  0.
        2    1    3    3  502    0  0.52524768663E+02  0.59564690017E+03 -0.52025330351E+03  0.79260177947E+03  0.25500000920E-02 0. -1.
       -2    1    3    3    0  502 -0.52524768663E+02 -0.59564690017E+03  0.15407298240E+04  0.16526955169E+04  0.25500000920E-02 0.  1.
</event>
<event>
 5   0  0.8470971E-05  0.1219470E+04  0.7818609E-02  0.9095983E-01
        1   -1    0    0  501    0  0.00000000000E+00  0.00000000000E+00  0.10237220212E+04  0.10237220212E+04  0.50400001928E-02 0.  1.
       -1   -1    0    0    0  501  0.00000000000E+00  0.00000000000E+00 -0.36316182691E+03  0.36316182694E+03  0.50400001928E-02 0. -1.
    10030    2    1    2    0    0  0.00000000000E+00  0.00000000000E+00  0.66056019425E+03  0.13868838481E+04  0.12194699824E+04 0.  0.
        2    1    3    3  502    0  0.84573957219E+02  0.20475052699E+03  0.97633478797E+03  0.10011519119E+04  0.25500000920E-02 0.  1.
       -2    1    3    3    0  502 -0.84573957219E+02 -0.20475052699E+03 -0.31577459372E+03  0.38573193618E+03  0.25500000920E-02 0. -1.
</event>
<event>
 5   0  0.8602414E-05  0.2216077E+04  0.7818609E-02  0.8511766E-01
        1   -1    0    0  501    0  0.00000000000E+00  0.00000000000E+00  0.16754850384E+04  0.16754850384E+04  0.50400001928E-02 0.  1.
       -1   -1    0    0    0  501  0.00000000000E+00  0.00000000000E+00 -0.73277264244E+03  0.73277264245E+03  0.50400001928E-02 0. -1.
    10030    2    1    2    0    0  0.00000000000E+00  0.00000000000E+00  0.94271239591E+03  0.24082576808E+04  0.22160772540E+04 0.  0.
        3    1    3    3  502    0 -0.28743071844E+03  0.94691195433E+03  0.10130742665E+04  0.14161843619E+04  0.10100000352E+00 0.  1.
       -3    1    3    3    0  502  0.28743071844E+03 -0.94691195433E+03 -0.70361870575E+02  0.99207331895E+03  0.10100000352E+00 0. -1.
</event>
<event>
 5   0  0.1680258E-04  0.2242590E+04  0.7818609E-02  0.8500907E-01
       -2   -1    0    0    0  501  0.00000000000E+00  0.00000000000E+00  0.17112417153E+04  0.17112417153E+04  0.25500000920E-02 0.  1.
        2   -1    0    0  501    0  0.00000000000E+00  0.00000000000E+00 -0.73473112458E+03  0.73473112458E+03  0.25500000920E-02 0. -1.
    10030    2    1    2    0    0  0.00000000000E+00  0.00000000000E+00  0.97651059072E+03  0.24459728399E+04  0.22425900650E+04 0.  0.
        5    1    3    3  502    0  0.68667887205E+03  0.34210656479E+03 -0.40365769930E+03  0.86690622515E+03  0.46999998093E+01 0. -1.
       -5    1    3    3    0  502 -0.68667887205E+03 -0.34210656479E+03  0.13801682900E+04  0.15790666147E+04  0.46999998093E+01 0.  1.
</event>
<event>
 5   0  0.1754356E-04  0.2104440E+04  0.7818609E-02  0.8559290E-01
       -2   -1    0    0    0  501  0.00000000000E+00  0.00000000000E+00  0.11159710011E+04  0.11159710011E+04  0.25500000920E-02 0.  1.
        2   -1    0    0  501    0  0.00000000000E+00  0.00000000000E+00 -0.99211045561E+03  0.99211045561E+03  0.25500000920E-02 0. -1.
    10030    2    1    2    0    0  0.00000000000E+00  0.00000000000E+00  0.12386054553E+03  0.21080814568E+04  0.21044395913E+04 0.  0.
        1    1    3    3  502    0  0.33933450614E+03 -0.46020832359E+03  0.94676341553E+03  0.11060291918E+04  0.50400001928E-02 0.  1.
       -1    1    3    3    0  502 -0.33933450614E+03  0.46020832359E+03 -0.82290287000E+03  0.10020522649E+04  0.50400001928E-02 0. -1.
</event>
<event>
 5   0  0.8784659E-05  0.2116830E+04  0.7818609E-02  0.8553866E-01
        1   -1    0    0  501    0  0.00000000000E+00  0.00000000000E+00  0.13119546884E+04  0.13119546885E+04  0.50400001928E-02 0. -1.
       -1   -1    0    0    0  501  0.00000000000E+00  0.00000000000E+00 -0.85387234503E+03  0.85387234505E+03  0.50400001928E-02 0.  1.
    10030    2    1    2    0    0  0.00000000000E+00  0.00000000000E+00  0.45808234341E+03  0.21658270335E+04  0.21168295410E+04 0.  0.
        4    1    3    3  502    0  0.47780342944E+03  0.56766875799E+03 -0.54321177384E+03  0.91957847959E+03  0.12699999809E+01 0.  1.
       -4    1    3    3    0  502 -0.47780342944E+03 -0.56766875799E+03  0.10012941173E+04  0.12462485539E+04  0.12699999809E+01 0. -1.
</event>
<event>
 5   0  0.8784659E-05  0.2196957E+04  0.7818609E-02  0.8519696E-01
        1   -1    0    0  501    0  0.00000000000E+00  0.00000000000E+00  0.11125719666E+04  0.11125719666E+04  0.50400001928E-02 0. -1.
       -1   -1    0    0    0  501  0.00000000000E+00  0.00000000000E+00 -0.10845635130E+04  0.10845635131E+04  0.50400001928E-02 0.  1.
    10030    2    1    2    0    0  0.00000000000E+00  0.00000000000E+00  0.28008453578E+02  0.21971354797E+04  0.21969569506E+04 0.  0.
        4    1    3    3  502    0  0.27392035218E+03 -0.32950907022E+03  0.10255431717E+04  0.11114625485E+04  0.12699999809E+01 0. -1.
       -4    1    3    3    0  502 -0.27392035218E+03  0.32950907022E+03 -0.99753471816E+03  0.10856729312E+04  0.12699999809E+01 0.  1.
</event>
<event>
 5   0  0.7954459E-05  0.2259443E+04  0.7818609E-02  0.8494086E-01
       -1   -1    0    0    0  501  0.00000000000E+00  0.00000000000E+00  0.80383798271E+03  0.80383798273E+03  0.50400001928E-02 0. -1.
        1   -1    0    0  501    0  0.00000000000E+00  0.00000000000E+00 -0.15877216150E+04  0.15877216150E+04  0.50400001928E-02 0.  1.
    10030    2    1    2    0    0  0.00000000000E+00  0.00000000000E+00 -0.78388363231E+03  0.23915595978E+04  0.22594432413E+04 0.  0.
        5    1    3    3  502    0  0.16844344774E+03  0.81293734594E+03  0.41902293296E+03  0.92996915640E+03  0.46999998093E+01 0. -1.
       -5    1    3    3    0  502 -0.16844344774E+03 -0.81293734594E+03 -0.12029065653E+04  0.14615904414E+04  0.46999998093E+01 0.  1.
</event>
<event>
 5   0  0.1798917E-04  0.2167356E+04  0.7818609E-02  0.8532140E-01
        2   -1    0    0  501    0  0.00000000000E+00  0.00000000000E+00  0.25447921183E+04  0.25447921183E+04  0.25500000920E-02 0. -1.
       -2   -1    0    0    0  501  0.00000000000E+00  0.00000000000E+00 -0.46147484786E+03  0.46147484787E+03  0.25500000920E-02 0.  1.
    10030    2    1    2    0    0  0.00000000000E+00  0.00000000000E+00  0.20833172704E+04  0.30062669661E+04  0.21673555829E+04 0.  0.
        4    1    3    3  502    0  0.78716291673E+03  0.25494632686E+03  0.70976589873E+02  0.83045913582E+03  0.12699999809E+01 0.  1.
       -4    1    3    3    0  502 -0.78716291673E+03 -0.25494632686E+03  0.20123406805E+04  0.21758078303E+04  0.12699999809E+01 0. -1.
</event>
<event>
 5   0  0.7954459E-05  0.2216836E+04  0.7818609E-02  0.8511453E-01
        1   -1    0    0  501    0  0.00000000000E+00  0.00000000000E+00  0.17188545240E+04  0.17188545240E+04  0.50400001928E-02 0. -1.
       -1   -1    0    0    0  501  0.00000000000E+00  0.00000000000E+00 -0.71477256025E+03  0.71477256027E+03  0.50400001928E-02 0.  1.
    10030    2    1    2    0    0  0.00000000000E+00  0.00000000000E+00  0.10040819637E+04  0.24336270843E+04  0.22168356266E+04 0.  0.
        5    1    3    3  502    0 -0.75668566716E+03  0.40154956473E+03  0.12742140092E+04  0.15354017986E+04  0.46999998093E+01 0. -1.
       -5    1    3    3    0  502  0.75668566716E+03 -0.40154956473E+03 -0.27013204550E+03  0.89822528567E+03  0.46999998093E+01 0.  1.
</event>
<event>
 5   0  0.1733962E-04  0.1104099E+04  0.7818609E-02  0.9201206E-01
       -2   -1    0    0    0  501  0.00000000000E+00  0.00000000000E+00  0.12772616418E+04  0.12772616418E+04  0.25500000920E-02 0.  1.
        2   -1    0    0  501    0  0.00000000000E+00  0.00000000000E+00 -0.23860308838E+03  0.23860308840E+03  0.25500000920E-02 0. -1.
    10030    2    1    2    0    0  0.00000000000E+00  0.00000000000E+00  0.10386585534E+04  0.15158647302E+04  0.11040988586E+04 0.  0.
        3    1    3    3  502    0  0.22659670918E+03 -0.26889457595E+03 -0.64951429116E+02  0.35758783527E+03  0.10100000352E+00 0. -1.
       -3    1    3    3    0  502 -0.22659670918E+03  0.26889457595E+03  0.11036099825E+04  0.11582768949E+04  0.10100000352E+00 0.  1.
</event>
<event>
 5   0  0.1733962E-04  0.2171892E+04  0.7818609E-02  0.8530219E-01
       -2   -1    0    0    0  501  0.00000000000E+00  0.00000000000E+00  0.65444898696E+03  0.65444898696E+03  0.25500000920E-02 0.  1.
        2   -1    0    0  501    0  0.00000000000E+00  0.00000000000E+00 -0.18019419679E+04  0.18019419679E+04  0.25500000920E-02 0. -1.
    10030    2    1    2    0    0  0.00000000000E+00  0.00000000000E+00 -0.11474929809E+04  0.24563909548E+04  0.21718923504E+04 0.  0.
        3    1    3    3  502    0  0.16795329554E+03  0.31832738974E+02  0.63913665804E+03  0.66160207874E+03  0.10100000352E+00 0.  1.
       -3    1    3    3    0  502 -0.16795329554E+03 -0.31832738974E+02 -0.17866296389E+04  0.17947888761E+04  0.10100000352E+00 0. -1.
</event>
<event>
 5   0  0.6250625E-05  0.2195274E+04  0.7818609E-02  0.8520398E-01
       -3   -1    0    0    0  501  0.00000000000E+00  0.00000000000E+00  0.19722426570E+04  0.19722426596E+04  0.10100000352E+00 0. -1.
        3   -1    0    0  501    0  0.00000000000E+00  0.00000000000E+00 -0.61088186939E+03  0.61088187774E+03  0.10100000352E+00 0.  1.
    10030    2    1    2    0    0  0.00000000000E+00  0.00000000000E+00  0.13613607876E+04  0.25831245373E+04  0.21952742838E+04 0.  0.
        5    1    3    3  502    0 -0.51947411516E+03  0.95456965709E+03  0.49942422995E+03  0.11960364702E+04  0.46999998093E+01 0. -1.
       -5    1    3    3    0  502  0.51947411516E+03 -0.95456965709E+03  0.86193655764E+03  0.13870880671E+04  0.46999998093E+01 0.  1.
</event>
<event>
 5   0  0.7954459E-05  0.2243650E+04  0.7818609E-02  0.8500477E-01
       -1   -1    0    0    0  501  0.00000000000E+00  0.00000000000E+00  0.96216654497E+03  0.96216654499E+03  0.50400001928E-02 0.  1.
        1   -1    0    0  501    0  0.00000000000E+00  0.00000000000E+00 -0.13079760429E+04  0.13079760429E+04  0.50400001928E-02 0. -1.
    10030    2    1    2    0    0  0.00000000000E+00  0.00000000000E+00 -0.34580949789E+03  0.22701425879E+04  0.22436495182E+04 0.  0.
        5    1    3    3  502    0 -0.97815019423E+03  0.10771521129E+03  0.37205352312E+03  0.10520581178E+04  0.46999998093E+01 0.  1.
       -5    1    3    3    0  502  0.97815019423E+03 -0.10771521129E+03 -0.71786302102E+03  0.12180844700E+04  0.46999998093E+01 0. -1.
</event>
<event>
 5   0  0.1733962E-04  0.2127881E+04  0.7818609E-02  0.8549060E-01
       -2   -1    0    0    0  501  0.00000000000E+00  0.00000000000E+00  0.11717947360E+04  0.11717947360E+04  0.25500000920E-02 0. -1.
        2   -1    0    0  501    0  0.00000000000E+00  0.00000000000E+00 -0.96601330867E+03  0.96601330868E+03  0.25500000920E-02 0.  1.
    10030    2    1    2    0    0  0.00000000000E+00  0.00000000000E+00  0.20578142733E+03  0.21378080447E+04  0.21278809271E+04 0.  0.
        3    1    3    3  502    0  0.41570835487E+03 -0.27468116349E+03  0.10473327674E+04  0.11598142583E+04  0.10100000352E+00 0. -1.
       -3    1    3    3    0  502 -0.41570835487E+03  0.27468116349E+03 -0.84155134011E+03  0.97799378635E+03  0.10100000352E+00 0.  1.
</event>
<event>
 5   0  0.1805501E-04  0.1785714E+04  0.7818609E-02  0.8713934E-01
        2   -1    0    0  501    0  0.00000000000E+00  0.00000000000E+00  0.61602890741E+03  0.61602890742E+03  0.25500000920E-02 0.  1.
       -2   -1    0    0    0  501  0.00000000000E+00  0.00000000000E+00 -0.12940843700E+04  0.12940843700E+04  0.25500000920E-02 0. -1.
    10030    2    1    2    0    0  0.00000000000E+00  0.00000000000E+00 -0.67805546255E+03  0.19101132774E+04  0.17857137291E+04 0.  0.
        2    1    3    3  502    0 -0.37039019307E+03  0.68465277876E+03  0.12876530287E+03  0.78899862219E+03  0.25500000920E-02 0.  1.
       -2    1    3    3    0  502  0.37039019307E+03 -0.68465277876E+03 -0.80682076542E+03  0.11211146552E+04  0.25500000920E-02 0. -1.
</event>
<event>
 5   0  0.1754356E-04  0.1559244E+04  0.7818609E-02  0.8845984E-01
        2   -1    0    0  501    0  0.00000000000E+00  0.00000000000E+00  0.16718062524E+04  0.16718062524E+04  0.25500000920E-02 0.  1.
       -2   -1    0    0    0  501  0.00000000000E+00  0.00000000000E+00 -0.36356534208E+03  0.36356534209E+03  0.25500000920E-02 0. -1.
    10030    2    1    2    0    0  0.00000000000E+00  0.00000000000E+00  0.13082409103E+04  0.20353715945E+04  0.15592444479E+04 0.  0.
        1    1    3    3  502    0 -0.20908705317E+02 -0.32869598873E+03 -0.26829050972E+03  0.42480351293E+03  0.50400001928E-02 0. -1.
       -1    1    3    3    0  502  0.20908705317E+02  0.32869598873E+03  0.15765314201E+04  0.16105680816E+04  0.50400001928E-02 0.  1.
</event>
<event>
 5   0  0.8306787E-05  0.1779408E+04  0.7818609E-02  0.8717327E-01
        1   -1    0    0  501    0  0.00000000000E+00  0.00000000000E+00  0.99652427591E+03  0.99652427593E+03  0.50400001928E-02 0.  1.
       -1   -1    0    0    0  501  0.00000000000E+00  0.00000000000E+00 -0.79433450031E+03  0.79433450033E+03  0.50400001928E-02 0. -1.
    10030    2    1    2    0    0  0.00000000000E+00  0.00000000000E+00  0.20218977560E+03  0.17908587763E+04  0.17794084554E+04 0.  0.
        1    1    3    3  502    0  0.21944402320E+03  0.80442077278E+03 -0.21126520637E+03  0.86016361609E+03  0.50400001928E-02 0. -1.
       -1    1    3    3    0  502 -0.21944402320E+03 -0.80442077278E+03  0.41345498197E+03  0.93069516016E+03  0.50400001928E-02 0.  1.
</event>
<event>
 5   0  0.1798917E-04  0.2121329E+04  0.7818609E-02  0.8551905E-01
       -2   -1    0    0    0  501  0.00000000000E+00  0.00000000000E+00  0.74982222623E+03  0.74982222624E+03  0.25500000920E-02 0.  1.
        2   -1    0    0  501    0  0.00000000000E+00  0.00000000000E+00 -0.15003682229E+04  0.15003682229E+04  0.25500000920E-02 0. -1.
    10030    2    1    2    0    0  0.00000000000E+00  0.00000000000E+00 -0.75054599671E+03  0.22501904492E+04  0.21213292447E+04 0.  0.
        4    1    3    3  502    0  0.10076784262E+04  0.27784245397E+03 -0.18435180803E+03  0.10614138881E+04  0.12699999809E+01 0.  1.
       -4    1    3    3    0  502 -0.10076784262E+04 -0.27784245397E+03 -0.56619418868E+03  0.11887765610E+04  0.12699999809E+01 0. -1.
</event>
<event>
 5   0  0.1798917E-04  0.2160449E+04  0.7818609E-02  0.8535073E-01
       -2   -1    0    0    0  501  0.00000000000E+00  0.00000000000E+00  0.50984862202E+03  0.50984862203E+03  0.25500000920E-02 0. -1.
        2   -1    0    0  501    0  0.00000000000E+00  0.00000000000E+00 -0.22886886710E+04  0.22886886710E+04  0.25500000920E-02 0.  1.
    10030    2    1    2    0    0  0.00000000000E+00  0.00000000000E+00 -0.17788400490E+04  0.27985372930E+04  0.21604488100E+04 0.  0.
        4    1    3    3  502    0  0.10282116979E+04  0.17699992401E+03 -0.12519673611E+04  0.16297153601E+04  0.12699999809E+01 0.  1.
       -4    1    3    3    0  502 -0.10282116979E+04 -0.17699992401E+03 -0.52687268788E+03  0.11688219329E+04  0.12699999809E+01 0. -1.
</event>
<event>
 5   0  0.1680258E-04  0.2175343E+04  0.7818609E-02  0.8528761E-01
        2   -1    0    0  501    0  0.00000000000E+00  0.00000000000E+00  0.85846044420E+03  0.85846044420E+03  0.25500000920E-02 0.  1.
       -2   -1    0    0    0  501  0.00000000000E+00  0.00000000000E+00 -0.13780829182E+04  0.13780829182E+04  0.25500000920E-02 0. -1.
    10030    2    1    2    0    0  0.00000000000E+00  0.00000000000E+00 -0.51962247396E+03  0.22365433624E+04  0.21753433514E+04 0.  0.
        5    1    3    3  502    0  0.42407640412E+03 -0.64487662498E+02  0.76781224345E+03  0.87952099824E+03  0.46999998093E+01 0.  1.
       -5    1    3    3    0  502 -0.42407640412E+03  0.64487662498E+02 -0.12874347174E+04  0.13570223641E+04  0.46999998093E+01 0. -1.
</event>
<event>
 5   0  0.8784659E-05  0.2204794E+04  0.7818609E-02  0.8516435E-01
       -1   -1    0    0    0  501  0.00000000000E+00  0.00000000000E+00  0.96883467237E+03  0.96883467239E+03  0.50400001928E-02 0.  1.
        1   -1    0    0  501    0  0.00000000000E+00  0.00000000000E+00 -0.12543725406E+04  0.12543725406E+04  0.50400001928E-02 0. -1.
    10030    2    1    2    0    0  0.00000000000E+00  0.00000000000E+00 -0.28553786826E+03  0.22232072130E+04  0.22047944208E+04 0.  0.
        4    1    3    3  502    0 -0.78095337018E+03 -0.30861564346E+03 -0.86297898168E+03  0.12041038649E+04  0.12699999809E+01 0. -1.
       -4    1    3    3    0  502  0.78095337018E+03  0.30861564346E+03  0.57744111341E+03  0.10191033481E+04  0.12699999809E+01 0.  1.
</event>
<event>
 5   0  0.8470971E-05  0.2147386E+04  0.7818609E-02  0.8540652E-01
       -1   -1    0    0    0  501  0.00000000000E+00  0.00000000000E+00  0.86882242463E+03  0.86882242464E+03  0.50400001928E-02 0. -1.
        1   -1    0    0  501    0  0.00000000000E+00  0.00000000000E+00 -0.13268725357E+04  0.13268725357E+04  0.50400001928E-02 0.  1.
    10030    2    1    2    0    0  0.00000000000E+00  0.00000000000E+00 -0.45805011104E+03  0.21956949603E+04  0.21473859584E+04 0.  0.
        2    1    3    3  502    0 -0.32260732711E+03 -0.96212387560E+03 -0.58771416294E+03  0.11726746253E+04  0.25500000920E-02 0.  1.
       -2    1    3    3    0  502  0.32260732711E+03  0.96212387560E+03  0.12966405189E+03  0.10230203350E+04  0.25500000920E-02 0. -1.
</event>
<event>
 5   0  0.1733962E-04  0.2162021E+04  0.7818609E-02  0.8534404E-01
       -2   -1    0    0    0  501  0.00000000000E+00  0.00000000000E+00  0.56617168206E+03  0.56617168207E+03  0.25500000920E-02 0.  1.
        2   -1    0    0  501    0  0.00000000000E+00  0.00000000000E+00 -0.20640092153E+04  0.20640092153E+04  0.25500000920E-02 0. -1.
    10030    2    1    2    0    0  0.00000000000E+00  0.00000000000E+00 -0.14978375332E+04  0.26301808974E+04  0.21620208780E+04 0.  0.
        3    1    3    3  502    0  0.51915197931E+03  0.22333231669E+03 -0.18699753187E+04  0.19535106358E+04  0.10100000352E+00 0. -1.
       -3    1    3    3    0  502 -0.51915197931E+03 -0.22333231669E+03  0.37213778550E+03  0.67667026157E+03  0.10100000352E+00 0.  1.
</event>
<event>
 5   0  0.1754356E-04  0.2147481E+04  0.7818609E-02  0.8540611E-01
        2   -1    0    0  501    0  0.00000000000E+00  0.00000000000E+00  0.92378753388E+03  0.92378753389E+03  0.25500000920E-02 0. -1.
       -2   -1    0    0    0  501  0.00000000000E+00  0.00000000000E+00 -0.12480344023E+04  0.12480344023E+04  0.25500000920E-02 0.  1.
    10030    2    1    2    0    0  0.00000000000E+00  0.00000000000E+00 -0.32424686843E+03  0.21718219362E+04  0.21474809640E+04 0.  0.
        1    1    3    3  502    0  0.91980485471E+03 -0.53826039451E+03 -0.29457893394E+03  0.11056861993E+04  0.50400001928E-02 0.  1.
       -1    1    3    3    0  502 -0.91980485471E+03  0.53826039451E+03 -0.29667934490E+02  0.10661357369E+04  0.50400001928E-02 0. -1.
</event>
<event>
 5   0  0.1798917E-04  0.2118099E+04  0.7818609E-02  0.8553312E-01
       -2   -1    0    0    0  501  0.00000000000E+00  0.00000000000E+00  0.47537833901E+03  0.47537833902E+03  0.25500000920E-02 0.  1.
        2   -1    0    0  501    0  0.00000000000E+00  0.00000000000E+00 -0.23593533212E+04  0.23593533212E+04  0.25500000920E-02 0. -1.
    10030    2    1    2    0    0  0.00000000000E+00  0.00000000000E+00 -0.18839749822E+04  0.28347316602E+04  0.21180986407E+04 0.  0.
        4    1    3    3  502    0  0.94470615797E+03 -0.26012835856E+03 -0.14797385195E+04  0.17747575009E+04  0.12699999809E+01 0. -1.
       -4    1    3    3    0  502 -0.94470615797E+03  0.26012835856E+03 -0.40423646268E+03  0.10599741594E+04  0.12699999809E+01 0.  1.
</event>
<event>
 5   0  0.8602414E-05  0.2121410E+04  0.7818609E-02  0.8551870E-01
       -1   -1    0    0    0  501  0.00000000000E+00  0.00000000000E+00  0.13659263779E+04  0.13659263779E+04  0.50400001928E-02 0. -1.
        1   -1    0    0  501    0  0.00000000000E+00  0.00000000000E+00 -0.82368637685E+03  0.82368637687E+03  0.50400001928E-02 0.  1.
    10030    2    1    2    0    0  0.00000000000E+00  0.00000000000E+00  0.54224000105E+03  0.21896127548E+04  0.21214098607E+04 0.  0.
        3    1    3    3  502    0  0.13028734411E+02 -0.80799841013E+03 -0.43803808977E+03  0.91918907575E+03  0.10100000352E+00 0.  1.
       -3    1    3    3    0  502 -0.13028734411E+02  0.80799841013E+03  0.98027809081E+03  0.12704236790E+04  0.10100000352E+00 0. -1.
</event>
<event>
 5   0  0.8306787E-05  0.2291760E+04  0.7818609E-02  0.8481177E-01
       -1   -1    0    0    0  501  0.00000000000E+00  0.00000000000E+00  0.90532659666E+03  0.90532659668E+03  0.50400001928E-02 0. -1.
        1   -1    0    0  501    0  0.00000000000E+00  0.00000000000E+00 -0.14503502004E+04  0.14503502004E+04  0.50400001928E-02 0.  1.
    10030    2    1    2    0    0  0.00000000000E+00  0.00000000000E+00 -0.54502360375E+03  0.23556767971E+04  0.22917596828E+04 0.  0.
        1    1    3    3  502    0  0.20184034262E+03 -0.30372014471E+03 -0.13891122134E+04  0.14361818101E+04  0.50400001928E-02 0.  1.
       -1    1    3    3    0  502 -0.20184034262E+03  0.30372014471E+03  0.84408860964E+03  0.91949498702E+03  0.50400001928E-02 0. -1.
</event>
<event>
 5   0  0.8470971E-05  0.2078721E+04  0.7818609E-02  0.8570675E-01
       -1   -1    0    0    0  501  0.00000000000E+00  0.00000000000E+00  0.97862619997E+03  0.97862619998E+03  0.50400001928E-02 0.  1.
        1   -1    0    0  501    0  0.00000000000E+00  0.00000000000E+00 -0.11038640844E+04  0.11038640844E+04  0.50400001928E-02 0. -1.
    10030    2    1    2    0    0  0.00000000000E+00  0.00000000000E+00 -0.12523788446E+03  0.20824902844E+04  0.20787210628E+04 0.  0.
        2    1    3    3  502    0 -0.98483641366E+02 -0.99622104028E+03  0.21737831611E+03  0.10244065214E+04  0.25500000920E-02 0.  1.
       -2    1    3    3    0  502  0.98483641366E+02  0.99622104028E+03 -0.34261620057E+03  0.10580837630E+04  0.25500000920E-02 0. -1.
</event>
<event>
 5   0  0.1754356E-04  0.2183774E+04  0.7818609E-02  0.8525212E-01
       -2   -1    0    0    0  501  0.00000000000E+00  0.00000000000E+00  0.19577777938E+04  0.19577777938E+04  0.25500000920E-02 0. -1.
        2   -1    0    0  501    0  0.00000000000E+00  0.00000000000E+00 -0.60896450513E+03  0.60896450514E+03  0.25500000920E-02 0.  1.
    10030    2    1    2    0    0  0.00000000000E+00  0.00000000000E+00  0.13488132886E+04  0.25667422989E+04  0.21837739676E+04 0.  0.
        1    1    3    3  502    0 -0.99254296970E+03 -0.30250175001E+03  0.10739776822E+04  0.14933442059E+04  0.50400001928E-02 0. -1.
       -1    1    3    3    0  502  0.99254296970E+03  0.30250175001E+03  0.27483560647E+03  0.10733980930E+04  0.50400001928E-02 0.  1.
</event>
<event>
 5   0  0.1798917E-04  0.1870945E+04  0.7818609E-02  0.8669456E-01
       -2   -1    0    0    0  501  0.00000000000E+00  0.00000000000E+00  0.41029153620E+03  0.41029153621E+03  0.25500000920E-02 0. -1.
        2   -1    0    0  501    0  0.00000000000E+00  0.00000000000E+00 -0.21328954781E+04  0.21328954781E+04  0.25500000920E-02 0.  1.
    10030    2    1    2    0    0  0.00000000000E+00  0.00000000000E+00 -0.17226039419E+04  0.25431870143E+04  0.18709451753E+04 0.  0.
        4    1    3    3  502    0 -0.24190191264E+02  0.28854408710E+03  0.34784216781E+03  0.45259103190E+03  0.12699999809E+01 0. -1.
       -4    1    3    3    0  502  0.24190191264E+02 -0.28854408710E+03 -0.20704461097E+04  0.20905959824E+04  0.12699999809E+01 0.  1.
</event>
<event>
 5   0  0.7954459E-05  0.2217016E+04  0.7818609E-02  0.8511379E-01
       -1   -1    0    0    0  501  0.00000000000E+00  0.00000000000E+00  0.80915847796E+03  0.80915847798E+03  0.50400001928E-02 0.  1.
        1   -1    0    0  501    0  0.00000000000E+00  0.00000000000E+00 -0.15186028104E+04  0.15186028104E+04  0.50400001928E-02 0. -1.
    10030    2    1    2    0    0  0.00000000000E+00  0.00000000000E+00 -0.70944433246E+03  0.23277612884E+04  0.22170163182E+04 0.  0.
        5    1    3    3  502    0 -0.10169770639E+02  0.52022801296E+03  0.67295941058E+03  0.85066860057E+03  0.46999998093E+01 0.  1.
       -5    1    3    3    0  502  0.10169770639E+02 -0.52022801296E+03 -0.13824037430E+04  0.14770926878E+04  0.46999998093E+01 0. -1.
</event>
<event>
 5   0  0.1754356E-04  0.2043763E+04  0.7818609E-02  0.8586429E-01
       -2   -1    0    0    0  501  0.00000000000E+00  0.00000000000E+00  0.71355909391E+03  0.71355909391E+03  0.25500000920E-02 0.  1.
        2   -1    0    0  501    0  0.00000000000E+00  0.00000000000E+00 -0.14634268010E+04  0.14634268010E+04  0.25500000920E-02 0. -1.
    10030    2    1    2    0    0  0.00000000000E+00  0.00000000000E+00 -0.74986770713E+03  0.21769858950E+04  0.20437627085E+04 0.  0.
        1    1    3    3  502    0  0.19495216119E+03 -0.29164368344E+03 -0.13972781704E+04  0.14406417559E+04  0.50400001928E-02 0. -1.
       -1    1    3    3    0  502 -0.19495216119E+03  0.29164368344E+03  0.64741046325E+03  0.73634413911E+03  0.50400001928E-02 0.  1.
</event>
<event>
 5   0  0.8602414E-05  0.2415707E+04  0.7818609E-02  0.8433647E-01
       -1   -1    0    0    0  501  0.00000000000E+00  0.00000000000E+00  0.12245115418E+04  0.12245115418E+04  0.50400001928E-02 0. -1.
        1   -1    0    0  501    0  0.00000000000E+00  0.00000000000E+00 -0.11914218266E+04  0.11914218266E+04  0.50400001928E-02 0.  1.
    10030    2    1    2    0    0  0.00000000000E+00  0.00000000000E+00  0.33089715169E+02  0.24159333684E+04  0.24157067519E+04 0.  0.
        3    1    3    3  502    0  0.37740118431E+03  0.30479637903E+03  0.11228029009E+04  0.12231184943E+04  0.10100000352E+00 0. -1.
       -3    1    3    3    0  502 -0.37740118431E+03 -0.30479637903E+03 -0.10897131857E+04  0.11928148741E+04  0.10100000352E+00 0.  1.
</event>
<event>
 5   0  0.6250625E-05  0.2200307E+04  0.7818609E-02  0.8518300E-01
        3   -1    0    0  501    0  0.00000000000E+00  0.00000000000E+00  0.10015384609E+04  0.10015384660E+04  0.10100000352E+00 0. -1.
       -3   -1    0    0    0  501  0.00000000000E+00  0.00000000000E+00 -0.12084788999E+04  0.12084789041E+04  0.10100000352E+00 0.  1.
    10030    2    1    2    0    0  0.00000000000E+00  0.00000000000E+00 -0.20694043891E+03  0.22100173701E+04  0.22003073492E+04 0.  0.
        4    1    3    3  502    0  0.60229844633E+03  0.91910966506E+03 -0.50222117533E+02  0.11000226674E+04  0.12699999809E+01 0.  1.
       -4    1    3    3    0  502 -0.60229844633E+03 -0.91910966506E+03 -0.15671832138E+03  0.11099947027E+04  0.12699999809E+01 0. -1.
</event>
<event>
 5   0  0.7954459E-05  0.1393107E+04  0.7818609E-02  0.8958823E-01
        1   -1    0    0  501    0  0.00000000000E+00  0.00000000000E+00  0.95847978608E+03  0.95847978609E+03  0.50400001928E-02 0. -1.
       -1   -1    0    0    0  501  0.00000000000E+00  0.00000000000E+00 -0.50620481421E+03  0.50620481423E+03  0.50400001928E-02 0.  1.
    10030    2    1    2    0    0  0.00000000000E+00  0.00000000000E+00  0.45227497187E+03  0.14646846003E+04  0.13931074360E+04 0.  0.
        5    1    3    3  502    0 -0.19624450357E+03 -0.20455337291E+03  0.89507516657E+03  0.93890128946E+03  0.46999998093E+01 0. -1.
       -5    1    3    3    0  502  0.19624450357E+03  0.20455337291E+03 -0.44280019470E+03  0.52578331086E+03  0.46999998093E+01 0.  1.
</event>
<event>
 5   0  0.1680258E-04  0.2215622E+04  0.7818609E-02  0.8511954E-01
       -2   -1    0    0    0  501  0.00000000000E+00  0.00000000000E+00  0.77889964349E+03  0.77889964350E+03  0.25500000920E-02 0. -1.
        2   -1    0    0  501    0  0.00000000000E+00  0.00000000000E+00 -0.15756140298E+04  0.15756140298E+04  0.25500000920E-02 0.  1.
    10030    2    1    2    0    0  0.00000000000E+00  0.00000000000E+00 -0.79671438629E+03  0.23545136733E+04  0.22156219949E+04 0.  0.
        5    1    3    3  502    0  0.11984568074E+03  0.87677525691E+03  0.30984667594E+03  0.93761660124E+03  0.46999998093E+01 0. -1.
       -5    1    3    3    0  502 -0.11984568074E+03 -0.87677525691E+03 -0.11065610622E+04  0.14168970720E+04  0.46999998093E+01 0.  1.
</event>
<event>
 5   0  0.1680258E-04  0.2156746E+04  0.7818609E-02  0.8536650E-01
        2   -1    0    0  501    0  0.00000000000E+00  0.00000000000E+00  0.12488012609E+04  0.12488012609E+04  0.25500000920E-02 0.  1.
       -2   -1    0    0    0  501  0.00000000000E+00  0.00000000000E+00 -0.93120369646E+03  0.93120369646E+03  0.25500000920E-02 0. -1.
    10030    2    1    2    0    0  0.00000000000E+00  0.00000000000E+00  0.31759756440E+03  0.21800049573E+04  0.21567460214E+04 0.  0.
        5    1    3    3  502    0 -0.10024381986E+03 -0.50773943239E+03 -0.79745768665E+03  0.95068870122E+03  0.46999998093E+01 0. -1.
       -5    1    3    3    0  502  0.10024381986E+03  0.50773943239E+03  0.11150552511E+04  0.12293162561E+04  0.46999998093E+01 0.  1.
</event>
<event>
 5   0  0.1798917E-04  0.2201933E+04  0.7818609E-02  0.8517624E-01
        2   -1    0    0  501    0  0.00000000000E+00  0.00000000000E+00  0.16697492720E+04  0.16697492720E+04  0.25500000920E-02 0. -1.
       -2   -1    0    0    0  501  0.00000000000E+00  0.00000000000E+00 -0.72593336090E+03  0.72593336091E+03  0.25500000920E-02 0.  1.
    10030    2    1    2    0    0  0.00000000000E+00  0.00000000000E+00  0.94381591111E+03  0.23956826329E+04  0.22019325157E+04 0.  0.
        4    1    3    3  502    0 -0.94305575787E+03  0.55176445559E+03  0.61919682087E+03  0.12558680236E+04  0.12699999809E+01 0. -1.
       -4    1    3    3    0  502  0.94305575787E+03 -0.55176445559E+03  0.32461909024E+03  0.11398146093E+04  0.12699999809E+01 0.  1.
</event>
<event>
 5   0  0.8306787E-05  0.2230652E+04  0.7818609E-02  0.8505777E-01
        1   -1    0    0  501    0  0.00000000000E+00  0.00000000000E+00  0.19093045103E+04  0.19093045103E+04  0.50400001928E-02 0. -1.
       -1   -1    0    0    0  501  0.00000000000E+00  0.00000000000E+00 -0.65152129342E+03  0.65152129344E+03  0.50400001928E-02 0.  1.
    10030    2    1    2    0    0  0.00000000000E+00  0.00000000000E+00  0.12577832169E+04  0.25608258038E+04  0.22306524105E+04 0.  0.
        1    1    3    3  502    0 -0.85114556304E+03  0.45582025085E+03 -0.12079716231E+02  0.96559141988E+03  0.50400001928E-02 0.  1.
       -1    1    3    3    0  502  0.85114556304E+03 -0.45582025085E+03  0.12698629331E+04  0.15952343839E+04  0.50400001928E-02 0. -1.
</event>
<event>
 5   0  0.1680258E-04  0.2184781E+04  0.7818609E-02  0.8524789E-01
       -2   -1    0    0    0  501  0.00000000000E+00  0.00000000000E+00  0.68888937835E+03  0.68888937836E+03  0.25500000920E-02 0.  1.
        2   -1    0    0  501    0  0.00000000000E+00  0.00000000000E+00 -0.17322330382E+04  0.17322330382E+04  0.25500000920E-02 0. -1.
    10030    2    1    2    0    0  0.00000000000E+00  0.00000000000E+00 -0.10433436598E+04  0.24211224165E+04  0.21847809417E+04 0.  0.
        5    1    3    3  502    0  0.50116062107E+03  0.17257409032E+03  0.53682568311E+03  0.75441877548E+03  0.46999998093E+01 0.  1.
       -5    1    3    3    0  502 -0.50116062107E+03 -0.17257409032E+03 -0.15801693429E+04  0.16667036410E+04  0.46999998093E+01 0. -1.
</event>
<event>
 5   0  0.7954459E-05  0.2186054E+04  0.7818609E-02  0.8524255E-01
        1   -1    0    0  501    0  0.00000000000E+00  0.00000000000E+00  0.16680649828E+04  0.16680649828E+04  0.50400001928E-02 0.  1.
       -1   -1    0    0    0  501  0.00000000000E+00  0.00000000000E+00 -0.71622373996E+03  0.71622373998E+03  0.50400001928E-02 0. -1.
    10030    2    1    2    0    0  0.00000000000E+00  0.00000000000E+00  0.95184124282E+03  0.23842887228E+04  0.21860537418E+04 0.  0.
        5    1    3    3  502    0  0.46725294239E+03  0.35733739672E+03 -0.52885136488E+03  0.79102539997E+03  0.46999998093E+01 0. -1.
       -5    1    3    3    0  502 -0.46725294239E+03 -0.35733739672E+03  0.14806926077E+04  0.15932633228E+04  0.46999998093E+01 0.  1.
</event>
<event>
 5   0  0.1733962E-04  0.2383186E+04  0.7818609E-02  0.8445825E-01
        2   -1    0    0  501    0  0.00000000000E+00  0.00000000000E+00  0.15716468502E+04  0.15716468502E+04  0.25500000920E-02 0. -1.
       -2   -1    0    0    0  501  0.00000000000E+00  0.00000000000E+00 -0.90344319551E+03  0.90344319551E+03  0.25500000920E-02 0.  1.
    10030    2    1    2    0    0  0.00000000000E+00  0.00000000000E+00  0.66820365467E+03  0.24750900457E+04  0.23831858111E+04 0.  0.
        3    1    3    3  502    0  0.51630176622E+03 -0.76862523303E+03  0.11130531803E+04  0.14478396510E+04  0.10100000352E+00 0. -1.
       -3    1    3    3    0  502 -0.51630176622E+03  0.76862523303E+03 -0.44484952566E+03  0.10272503947E+04  0.10100000352E+00 0.  1.
</event>
<event>
 5   0  0.1680258E-04  0.2696076E+04  0.7818609E-02  0.8336279E-01
        2   -1    0    0  501    0  0.00000000000E+00  0.00000000000E+00  0.23024245897E+04  0.23024245897E+04  0.25500000920E-02 0.  1.
       -2   -1    0    0    0  501  0.00000000000E+00  0.00000000000E+00 -0.78925778021E+03  0.78925778021E+03  0.25500000920E-02 0. -1.
    10030    2    1    2    0    0  0.00000000000E+00  0.00000000000E+00  0.15131668095E+04  0.30916823699E+04  0.26960760529E+04 0.  0.
        5    1    3    3  502    0 -0.46832380320E+03  0.12321190161E+04  0.43276555744E+03  0.13873545229E+04  0.46999998093E+01 0. -1.
       -5    1    3    3    0  502  0.46832380320E+03 -0.12321190161E+04  0.10804012520E+04  0.17043278470E+04  0.46999998093E+01 0.  1.
</event>
<event>
 5   0  0.8784659E-05  0.2363689E+04  0.7818609E-02  0.8453224E-01
       -1   -1    0    0    0  501  0.00000000000E+00  0.00000000000E+00  0.12307796018E+04  0.12307796018E+04  0.50400001928E-02 0.  1.
        1   -1    0    0  501    0  0.00000000000E+00  0.00000000000E+00 -0.11348552829E+04  0.11348552829E+04  0.50400001928E-02 0. -1.
    10030    2    1    2    0    0  0.00000000000E+00  0.00000000000E+00  0.95924318904E+02  0.23656348847E+04  0.23636892632E+04 0.  0.
        4    1    3    3  502    0  0.40015582728E+03  0.75818011720E+03 -0.76621428046E+03  0.11498033365E+04  0.12699999809E+01 0. -1.
       -4    1    3    3    0  502 -0.40015582728E+03 -0.75818011720E+03  0.86213859936E+03  0.12158315482E+04  0.12699999809E+01 0.  1.
</event>
<event>
 5   0  0.1733962E-04  0.2256578E+04  0.7818609E-02  0.8495241E-01
        2   -1    0    0  501    0  0.00000000000E+00  0.00000000000E+00  0.96850361096E+03  0.96850361096E+03  0.25500000920E-02 0.  1.
       -2   -1    0    0    0  501  0.00000000000E+00  0.00000000000E+00 -0.13144354932E+04  0.13144354932E+04  0.25500000920E-02 0. -1.
    10030    2    1    2    0    0  0.00000000000E+00  0.00000000000E+00 -0.34593188228E+03  0.22829391042E+04  0.22565775161E+04 0.  0.
        3    1    3    3  502    0 -0.10067878147E+04 -0.39780893135E+03 -0.49474107301E+03  0.11902278728E+04  0.10100000352E+00 0. -1.
       -3    1    3    3    0  502  0.10067878147E+04  0.39780893135E+03  0.14880919073E+03  0.10927112314E+04  0.10100000352E+00 0.  1.
</event>
<event>
 5   0  0.1805501E-04  0.2959519E+04  0.7818609E-02  0.8255386E-01
       -2   -1    0    0    0  501  0.00000000000E+00  0.00000000000E+00  0.14005702601E+04  0.14005702601E+04  0.25500000920E-02 0.  1.
        2   -1    0    0  501    0  0.00000000000E+00  0.00000000000E+00 -0.15634262236E+04  0.15634262236E+04  0.25500000920E-02 0. -1.
    10030    2    1    2    0    0  0.00000000000E+00  0.00000000000E+00 -0.16285596349E+03  0.29639964837E+04  0.29595190641E+04 0.  0.
        2    1    3    3  502    0  0.79592118988E+03 -0.12199790316E+04 -0.34230025977E+03  0.14963317967E+04  0.25500000920E-02 0.  1.
       -2    1    3    3    0  502 -0.79592118988E+03  0.12199790316E+04  0.17944429628E+03  0.14676646870E+04  0.25500000920E-02 0. -1.
</event>
<event>
 5   0  0.1798917E-04  0.2090681E+04  0.7818609E-02  0.8565360E-01
       -2   -1    0    0    0  501  0.00000000000E+00  0.00000000000E+00  0.53410067346E+03  0.53410067347E+03  0.25500000920E-02 0.  1.
        2   -1    0    0  501    0  0.00000000000E+00  0.00000000000E+00 -0.20459377079E+04  0.20459377079E+04  0.25500000920E-02 0. -1.
    10030    2    1    2    0    0  0.00000000000E+00  0.00000000000E+00 -0.15118370345E+04  0.25800383814E+04  0.20906809490E+04 0.  0.
        4    1    3    3  502    0  0.21556646624E+03 -0.59051810026E+03 -0.17866071777E+04  0.18939765966E+04  0.12699999809E+01 0. -1.
       -4    1    3    3    0  502 -0.21556646624E+03  0.59051810026E+03  0.27477014321E+03  0.68606178483E+03  0.12699999809E+01 0.  1.
</event>
<event>
 5   0  0.1680258E-04  0.2188635E+04  0.7818609E-02  0.8523173E-01
       -2   -1    0    0    0  501  0.00000000000E+00  0.00000000000E+00  0.89670321887E+03  0.89670321888E+03  0.25500000920E-02 0. -1.
        2   -1    0    0  501    0  0.00000000000E+00  0.00000000000E+00 -0.13354822088E+04  0.13354822088E+04  0.25500000920E-02 0.  1.
    10030    2    1    2    0    0  0.00000000000E+00  0.00000000000E+00 -0.43877898991E+03  0.22321854277E+04  0.21886353697E+04 0.  0.
        5    1    3    3  502    0 -0.57835676166E+03  0.31574550712E+03  0.67167557243E+03  0.94093673200E+03  0.46999998093E+01 0. -1.
       -5    1    3    3    0  502  0.57835676166E+03 -0.31574550712E+03 -0.11104545623E+04  0.12912486957E+04  0.46999998093E+01 0.  1.
</event>
<event>
 5   0  0.1754356E-04  0.2032583E+04  0.7818609E-02  0.8591537E-01
        2   -1    0    0  501    0  0.00000000000E+00  0.00000000000E+00  0.14694171123E+04  0.14694171123E+04  0.25500000920E-02 0. -1.
       -2   -1    0    0    0  501  0.00000000000E+00  0.00000000000E+00 -0.70289639600E+03  0.70289639601E+03  0.25500000920E-02 0.  1.
    10030    2    1    2    0    0  0.00000000000E+00  0.00000000000E+00  0.76652071631E+03  0.21723135083E+04  0.20325825862E+04 0.  0.
        1    1    3    3  502    0  0.10161494458E+03 -0.10108422947E+04  0.41194280280E+03  0.10962776174E+04  0.50400001928E-02 0.  1.
       -1    1    3    3    0  502 -0.10161494458E+03  0.10108422947E+04  0.35457791351E+03  0.10760358909E+04  0.50400001928E-02 0. -1.
</event>
<event>
 5   0  0.1754356E-04  0.2106012E+04  0.7818609E-02  0.8558600E-01
        2   -1    0    0  501    0  0.00000000000E+00  0.00000000000E+00  0.14861599435E+04  0.14861599435E+04  0.25500000920E-02 0.  1.
       -2   -1    0    0    0  501  0.00000000000E+00  0.00000000000E+00 -0.74609864412E+03  0.74609864413E+03  0.25500000920E-02 0. -1.
    10030    2    1    2    0    0  0.00000000000E+00  0.00000000000E+00  0.74006129941E+03  0.22322585877E+04  0.21060122686E+04 0.  0.
        1    1    3    3  502    0 -0.49315108068E+03 -0.80051220096E+03  0.87258815633E+03  0.12827423213E+04  0.50400001928E-02 0. -1.
       -1    1    3    3    0  502  0.49315108068E+03  0.80051220096E+03 -0.13252685692E+03  0.94951626636E+03  0.50400001928E-02 0.  1.
</event>
<event>
 5   0  0.8306787E-05  0.2206736E+04  0.7818609E-02  0.8515630E-01
        1   -1    0    0  501    0  0.00000000000E+00  0.00000000000E+00  0.74169816978E+03  0.74169816979E+03  0.50400001928E-02 0. -1.
       -1   -1    0    0    0  501  0.00000000000E+00  0.00000000000E+00 -0.16413962884E+04  0.16413962884E+04  0.50400001928E-02 0.  1.
    10030    2    1    2    0    0  0.00000000000E+00  0.00000000000E+00 -0.89969811866E+03  0.23830944582E+04  0.22067357096E+04 0.  0.
        1    1    3    3  502    0 -0.89899226453E+03 -0.18081111134E+02 -0.11404115683E+04  0.14522577469E+04  0.50400001928E-02 0.  1.
       -1    1    3    3    0  502  0.89899226453E+03  0.18081111134E+02  0.24071344968E+03  0.93083671132E+03  0.50400001928E-02 0. -1.
</event>
<event>
 5   0  0.8470971E-05  0.2153913E+04  0.7818609E-02  0.8537859E-01
        1   -1    0    0  501    0  0.00000000000E+00  0.00000000000E+00  0.10518736498E+04  0.10518736498E+04  0.50400001928E-02 0.  1.
       -1   -1    0    0    0  501  0.00000000000E+00  0.00000000000E+00 -0.11026374220E+04  0.11026374220E+04  0.50400001928E-02 0. -1.
    10030    2    1    2    0    0  0.00000000000E+00  0.00000000000E+00 -0.50763772172E+02  0.21545110718E+04  0.21539129504E+04 0.  0.
        2    1    3    3  502    0 -0.32281003967E+03  0.12968149027E+03 -0.10448860084E+04  0.11012767051E+04  0.25500000920E-02 0. -1.
       -2    1    3    3    0  502  0.32281003967E+03 -0.12968149027E+03  0.99412223621E+03  0.10532343667E+04  0.25500000920E-02 0.  1.
</event>
<event>
 5   0  0.1754356E-04  0.2241996E+04  0.7818609E-02  0.8501149E-01
       -2   -1    0    0    0  501  0.00000000000E+00  0.00000000000E+00  0.72765324775E+03  0.72765324776E+03  0.25500000920E-02 0. -1.
        2   -1    0    0  501    0  0.00000000000E+00  0.00000000000E+00 -0.17269711983E+04  0.17269711983E+04  0.25500000920E-02 0.  1.
    10030    2    1    2    0    0  0.00000000000E+00  0.00000000000E+00 -0.99931795052E+03  0.24546244460E+04  0.22419957192E+04 0.  0.
        1    1    3    3  502    0 -0.10689624563E+04  0.18985586563E+03 -0.80525484974E+03  0.13517253256E+04  0.50400001928E-02 0.  1.
       -1    1    3    3    0  502  0.10689624563E+04 -0.18985586563E+03 -0.19406310078E+03  0.11028991204E+04  0.50400001928E-02 0. -1.
</event>
<event>
 5   0  0.7954459E-05  0.1976582E+04  0.7818609E-02  0.8617648E-01
        1   -1    0    0  501    0  0.00000000000E+00  0.00000000000E+00  0.14444459072E+04  0.14444459072E+04  0.50400001928E-02 0.  1.
       -1   -1    0    0    0  501  0.00000000000E+00  0.00000000000E+00 -0.67618964948E+03  0.67618964950E+03  0.50400001928E-02 0. -1.
    10030    2    1    2    0    0  0.00000000000E+00  0.00000000000E+00  0.76825625776E+03  0.21206355567E+04  0.19765822743E+04 0.  0.
        5    1    3    3  502    0 -0.33941332752E+03 -0.73163862236E+03  0.99689270984E+03  0.12823079371E+04  0.46999998093E+01 0.  1.
       -5    1    3    3    0  502  0.33941332752E+03  0.73163862236E+03 -0.22863645208E+03  0.83832761964E+03  0.46999998093E+01 0. -1.
</event>
<event>
 5   0  0.1680258E-04  0.2310462E+04  0.7818609E-02  0.8473808E-01
        2   -1    0    0  501    0  0.00000000000E+00  0.00000000000E+00  0.15779080163E+04  0.15779080163E+04  0.25500000920E-02 0.  1.
       -2   -1    0    0    0  501  0.00000000000E+00  0.00000000000E+00 -0.84577702225E+03  0.84577702225E+03  0.25500000920E-02 0. -1.
    10030    2    1    2    0    0  0.00000000000E+00  0.00000000000E+00  0.73213099405E+03  0.24236850386E+04  0.23104617230E+04 0.  0.
        5    1    3    3  502    0 -0.77239107867E+03  0.29197136250E+03 -0.48142442495E+03  0.95583828228E+03  0.46999998093E+01 0.  1.
       -5    1    3    3    0  502  0.77239107867E+03 -0.29197136250E+03  0.12135554190E+04  0.14678467563E+04  0.46999998093E+01 0. -1.
</event>
<event>
 5   0  0.8602414E-05  0.2291492E+04  0.7818609E-02  0.8481283E-01
       -1   -1    0    0    0  501  0.00000000000E+00  0.00000000000E+00  0.77893570028E+03  0.77893570029E+03  0.50400001928E-02 0. -1.
        1   -1    0    0  501    0  0.00000000000E+00  0.00000000000E+00 -0.16852911449E+04  0.16852911449E+04  0.50400001928E-02 0.  1.
    10030    2    1    2    0    0  0.00000000000E+00  0.00000000000E+00 -0.90635544460E+03  0.24642268452E+04  0.22914915999E+04 0.  0.
        3    1    3    3  502    0 -0.39674378042E+03 -0.25985947343E+03 -0.15747754293E+04  0.16446428901E+04  0.10100000352E+00 0.  1.
       -3    1    3    3    0  502  0.39674378042E+03  0.25985947343E+03  0.66841998468E+03  0.81958395504E+03  0.10100000352E+00 0. -1.
</event>
<event>
 5   0  0.1805501E-04  0.2206883E+04  0.7818609E-02  0.8515569E-01
        2   -1    0    0  501    0  0.00000000000E+00  0.00000000000E+00  0.19425670394E+04  0.19425670394E+04  0.25500000920E-02 0.  1.
       -2   -1    0    0    0  501  0.00000000000E+00  0.00000000000E+00 -0.62679092420E+03  0.62679092421E+03  0.25500000920E-02 0. -1.
    10030    2    1    2    0    0  0.00000000000E+00  0.00000000000E+00  0.13157761152E+04  0.25693579636E+04  0.22068832230E+04 0.  0.
        2    1    3    3  502    0  0.58273945479E+03  0.86549841327E+03  0.10759008768E+04  0.14987446321E+04  0.25500000920E-02 0.  1.
       -2    1    3    3    0  502 -0.58273945479E+03 -0.86549841327E+03  0.23987523835E+03  0.10706133315E+04  0.25500000920E-02 0. -1.
</event>
<event>
 5   0  0.8784659E-05  0.2176722E+04  0.7818609E-02  0.8528180E-01
       -1   -1    0    0    0  501  0.00000000000E+00  0.00000000000E+00  0.13760176534E+04  0.13760176534E+04  0.50400001928E-02 0.  1.
        1   -1    0    0  501    0  0.00000000000E+00  0.00000000000E+00 -0.86083901022E+03  0.86083901024E+03  0.50400001928E-02 0. -1.
    10030    2    1    2    0    0  0.00000000000E+00  0.00000000000E+00  0.51517864314E+03  0.22368566636E+04  0.21767220078E+04 0.  0.
        4    1    3    3  502    0  0.99564608010E+03 -0.23337543264E+03 -0.12519676836E+03  0.10302674668E+04  0.12699999809E+01 0. -1.
       -4    1    3    3    0  502 -0.99564608010E+03  0.23337543264E+03  0.64037541150E+03  0.12065891968E+04  0.12699999809E+01 0.  1.
</event>
<event>
 5   0  0.7954459E-05  0.2066045E+04  0.7818609E-02  0.8576350E-01
       -1   -1    0    0    0  501  0.00000000000E+00  0.00000000000E+00  0.67859480407E+03  0.67859480409E+03  0.50400001928E-02 0. -1.
        1   -1    0    0  501    0  0.00000000000E+00  0.00000000000E+00 -0.15725660177E+04  0.15725660177E+04  0.50400001928E-02 0.  1.
    10030    2    1    2    0    0  0.00000000000E+00  0.00000000000E+00 -0.89397121358E+03  0.22511608218E+04  0.20660446546E+04 0.  0.
        5    1    3    3  502    0 -0.31647620436E+03 -0.15294370436E+03  0.61142093723E+03  0.70527059850E+03  0.46999998093E+01 0. -1.
       -5    1    3    3    0  502  0.31647620436E+03  0.15294370436E+03 -0.15053921508E+04  0.15458902233E+04  0.46999998093E+01 0.  1.
</event>
<event>
 5   0  0.8306787E-05  0.2190225E+04  0.7818609E-02  0.8522508E-01
        1   -1    0    0  501    0  0.00000000000E+00  0.00000000000E+00  0.12987834591E+04  0.12987834591E+04  0.50400001928E-02 0. -1.
       -1   -1    0    0    0  501  0.00000000000E+00  0.00000000000E+00 -0.92338093796E+03  0.92338093798E+03  0.50400001928E-02 0.  1.
    10030    2    1    2    0    0  0.00000000000E+00  0.00000000000E+00  0.37540252111E+03  0.22221643971E+04  0.21902254575E+04 0.  0.
        1    1    3    3  502    0  0.36667695046E+03  0.77262615149E+03 -0.50628260539E+03  0.99384366603E+03  0.50400001928E-02 0.  1.
       -1    1    3    3    0  502 -0.36667695046E+03 -0.77262615149E+03  0.88168512649E+03  0.12283207310E+04  0.50400001928E-02 0. -1.
</event>
<event>
 5   0  0.8470971E-05  0.2165963E+04  0.7818609E-02  0.8532730E-01
       -1   -1    0    0    0  501  0.00000000000E+00  0.00000000000E+00  0.92477054401E+03  0.92477054403E+03  0.50400001928E-02 0.  1.
        1   -1    0    0  501    0  0.00000000000E+00  0.00000000000E+00 -0.12682588114E+04  0.12682588114E+04  0.50400001928E-02 0. -1.
    10030    2    1    2    0    0  0.00000000000E+00  0.00000000000E+00 -0.34348826737E+03  0.21930293554E+04  0.21659625029E+04 0.  0.
        2    1    3    3  502    0  0.70249592833E+03 -0.81095198462E+03 -0.22577802489E+02  0.10731511580E+04  0.25500000920E-02 0.  1.
       -2    1    3    3    0  502 -0.70249592833E+03  0.81095198462E+03 -0.32091046488E+03  0.11198781975E+04  0.25500000920E-02 0. -1.
</event>
<event>
 5   0  0.1733962E-04  0.2164212E+04  0.7818609E-02  0.8533473E-01
        2   -1    0    0  501    0  0.00000000000E+00  0.00000000000E+00  0.11756785834E+04  0.11756785834E+04  0.25500000920E-02 0. -1.
       -2   -1    0    0    0  501  0.00000000000E+00  0.00000000000E+00 -0.99598082938E+03  0.99598082938E+03  0.25500000920E-02 0.  1.
    10030    2    1    2    0    0  0.00000000000E+00  0.00000000000E+00  0.17969775398E+03  0.21716594127E+04  0.21642119402E+04 0.  0.
        3    1    3    3  502    0  0.26772208466E+03  0.84213537707E+03  0.71656696050E+03  0.11376885896E+04  0.10100000352E+00 0. -1.
       -3    1    3    3    0  502 -0.26772208466E+03 -0.84213537707E+03 -0.53686920652E+03  0.10339708231E+04  0.10100000352E+00 0.  1.
</event>
<event>
 5   0  0.1754356E-04  0.2210156E+04  0.7818609E-02  0.8514213E-01
       -2   -1    0    0    0  501  0.00000000000E+00  0.00000000000E+00  0.51317010693E+03  0.51317010694E+03  0.25500000920E-02 0.  1.
        2   -1    0    0  501    0  0.00000000000E+00  0.00000000000E+00 -0.23797134441E+04  0.23797134441E+04  0.25500000920E-02 0. -1.
    10030    2    1    2    0    0  0.00000000000E+00  0.00000000000E+00 -0.18665433371E+04  0.28928835510E+04  0.22101563769E+04 0.  0.
        1    1    3    3  502    0 -0.63448099176E+03 -0.77148299840E+03 -0.31455201988E+03  0.10472321228E+04  0.50400001928E-02 0. -1.
       -1    1    3    3    0  502  0.63448099176E+03  0.77148299840E+03 -0.15519913172E+04  0.18456514282E+04  0.50400001928E-02 0.  1.
</event>
<event>
 5   0  0.8470971E-05  0.2138616E+04  0.7818609E-02  0.8544421E-01
        1   -1    0    0  501    0  0.00000000000E+00  0.00000000000E+00  0.11120948909E+04  0.11120948909E+04  0.50400001928E-02 0.  1.
       -1   -1    0    0    0  501  0.00000000000E+00  0.00000000000E+00 -0.10281672397E+04  0.10281672397E+04  0.50400001928E-02 0. -1.
    10030    2    1    2    0    0  0.00000000000E+00  0.00000000000E+00  0.83927651198E+02  0.21402621306E+04  0.21386159396E+04 0.  0.
        2    1    3    3  502    0 -0.10534695917E+04  0.16350641752E+03 -0.41088035970E+02  0.10668742924E+04  0.25500000920E-02 0. -1.
       -2    1    3    3    0  502  0.10534695917E+04 -0.16350641752E+03  0.12501568717E+03  0.10733878382E+04  0.25500000920E-02 0.  1.
</event>
<event>
 5   0  0.8784659E-05  0.2284815E+04  0.7818609E-02  0.8483933E-01
        1   -1    0    0  501    0  0.00000000000E+00  0.00000000000E+00  0.92811285820E+03  0.92811285822E+03  0.50400001928E-02 0. -1.
       -1   -1    0    0    0  501  0.00000000000E+00  0.00000000000E+00 -0.14061807878E+04  0.14061807879E+04  0.50400001928E-02 0.  1.
    10030    2    1    2    0    0  0.00000000000E+00  0.00000000000E+00 -0.47806792964E+03  0.23342936461E+04  0.22848146272E+04 0.  0.
        4    1    3    3  502    0  0.37075530217E+03  0.10672327229E+04 -0.41195555982E+03  0.12025615058E+04  0.12699999809E+01 0. -1.
       -4    1    3    3    0  502 -0.37075530217E+03 -0.10672327229E+04 -0.66112369815E+02  0.11317321403E+04  0.12699999809E+01 0.  1.
</event>
<event>
 5   0  0.8602414E-05  0.2084561E+04  0.7818609E-02  0.8568075E-01
        1   -1    0    0  501    0  0.00000000000E+00  0.00000000000E+00  0.57542646510E+03  0.57542646512E+03  0.50400001928E-02 0. -1.
       -1   -1    0    0    0  501  0.00000000000E+00  0.00000000000E+00 -0.18879022793E+04  0.18879022793E+04  0.50400001928E-02 0.  1.
    10030    2    1    2    0    0  0.00000000000E+00  0.00000000000E+00 -0.13124758142E+04  0.24633287444E+04  0.20845612824E+04 0.  0.
        3    1    3    3  502    0  0.66786691175E+03 -0.78656293115E+03 -0.48247771027E+03  0.11390839335E+04  0.10100000352E+00 0. -1.
       -3    1    3    3    0  502 -0.66786691175E+03  0.78656293115E+03 -0.82999810389E+03  0.13242448109E+04  0.10100000352E+00 0.  1.
</event>
<event>
 5   0  0.8784659E-05  0.2238226E+04  0.7818609E-02  0.8502684E-01
        1   -1    0    0  501    0  0.00000000000E+00  0.00000000000E+00  0.13610209877E+04  0.13610209877E+04  0.50400001928E-02 0. -1.
       -1   -1    0    0    0  501  0.00000000000E+00  0.00000000000E+00 -0.92020181840E+03  0.92020181841E+03  0.50400001928E-02 0.  1.
    10030    2    1    2    0    0  0.00000000000E+00  0.00000000000E+00  0.44081916934E+03  0.22812228062E+04  0.22382260724E+04 0.  0.
        4    1    3    3  502    0  0.69807810421E+03 -0.59182267333E+03  0.87686739493E+03  0.12674640655E+04  0.12699999809E+01 0.  1.
       -4    1    3    3    0  502 -0.69807810421E+03  0.59182267333E+03 -0.43604822559E+03  0.10137587406E+04  0.12699999809E+01 0. -1.
</event>
<event>
 5   0  0.1805501E-04  0.2227405E+04  0.7818609E-02  0.8507107E-01
       -2   -1    0    0    0  501  0.00000000000E+00  0.00000000000E+00  0.16603213967E+04  0.16603213967E+04  0.25500000920E-02 0. -1.
        2   -1    0    0  501    0  0.00000000000E+00  0.00000000000E+00 -0.74704399498E+03  0.74704399498E+03  0.25500000920E-02 0.  1.
    10030    2    1    2    0    0  0.00000000000E+00  0.00000000000E+00  0.91327740176E+03  0.24073653917E+04  0.22274048839E+04 0.  0.
        2    1    3    3  502    0  0.21261793921E+03 -0.11874592976E+03  0.16311916543E+04  0.16492705045E+04  0.25500000920E-02 0. -1.
       -2    1    3    3    0  502 -0.21261793921E+03  0.11874592976E+03 -0.71791425258E+03  0.75809488719E+03  0.25500000920E-02 0.  1.
</event>
<event>
 5   0  0.1754356E-04  0.2216910E+04  0.7818609E-02  0.8511423E-01
        2   -1    0    0  501    0  0.00000000000E+00  0.00000000000E+00  0.12307702190E+04  0.12307702190E+04  0.25500000920E-02 0. -1.
       -2   -1    0    0    0  501  0.00000000000E+00  0.00000000000E+00 -0.99829546180E+03  0.99829546180E+03  0.25500000920E-02 0.  1.
    10030    2    1    2    0    0  0.00000000000E+00  0.00000000000E+00  0.23247475721E+03  0.22290656808E+04  0.22169098531E+04 0.  0.
        1    1    3    3  502    0  0.97963545276E+03 -0.40612440692E+03  0.44057340020E+03  0.11483586440E+04  0.50400001928E-02 0. -1.
       -1    1    3    3    0  502 -0.97963545276E+03  0.40612440692E+03 -0.20809864300E+03  0.10807070368E+04  0.50400001928E-02 0.  1.
</event>
<event>
 5   0  0.8306787E-05  0.2173316E+04  0.7818609E-02  0.8529617E-01
        1   -1    0    0  501    0  0.00000000000E+00  0.00000000000E+00  0.10310785467E+04  0.10310785467E+04  0.50400001928E-02 0.  1.
       -1   -1    0    0    0  501  0.00000000000E+00  0.00000000000E+00 -0.11452332124E+04  0.11452332124E+04  0.50400001928E-02 0. -1.
    10030    2    1    2    0    0  0.00000000000E+00  0.00000000000E+00 -0.11415466565E+03  0.21763117591E+04  0.21733158042E+04 0.  0.
        1    1    3    3  502    0  0.88360173135E+03  0.27721677613E+03 -0.62638918994E+03  0.11180181474E+04  0.50400001928E-02 0. -1.
       -1    1    3    3    0  502 -0.88360173135E+03 -0.27721677613E+03  0.51223452429E+03  0.10582936117E+04  0.50400001928E-02 0.  1.
</event>
<event>
 5   0  0.1805501E-04  0.2227788E+04  0.7818609E-02  0.8506950E-01
        2   -1    0    0  501    0  0.00000000000E+00  0.00000000000E+00  0.20197753615E+04  0.20197753615E+04  0.25500000920E-02 0.  1.
       -2   -1    0    0    0  501  0.00000000000E+00  0.00000000000E+00 -0.61430600222E+03  0.61430600223E+03  0.25500000920E-02 0. -1.
    10030    2    1    2    0    0  0.00000000000E+00  0.00000000000E+00  0.14054693593E+04  0.26340813637E+04  0.22277882554E+04 0.  0.
        2    1    3    3  502    0 -0.54605442323E+03  0.23340857410E+03  0.18169970532E+04  0.19115787420E+04  0.25500000920E-02 0.  1.
       -2    1    3    3    0  502  0.54605442323E+03 -0.23340857410E+03 -0.41152769388E+03  0.72250262175E+03  0.25500000920E-02 0. -1.
</event>
<event>
 5   0  0.8602414E-05  0.2197120E+04  0.7818609E-02  0.8519628E-01
        1   -1    0    0  501    0  0.00000000000E+00  0.00000000000E+00  0.10751492660E+04  0.10751492660E+04  0.50400001928E-02 0. -1.
       -1   -1    0    0    0  501  0.00000000000E+00  0.00000000000E+00 -0.11224809110E+04  0.11224809110E+04  0.50400001928E-02 0.  1.
    10030    2    1    2    0    0  0.00000000000E+00  0.00000000000E+00 -0.47331645012E+02  0.21976301770E+04  0.21971204132E+04 0.  0.
        3    1    3    3  502    0  0.47585938026E+03 -0.95636124685E+03  0.23284159208E+03  0.10932905385E+04  0.10100000352E+00 0. -1.
       -3    1    3    3    0  502 -0.47585938026E+03  0.95636124685E+03 -0.28017323709E+03  0.11043396385E+04  0.10100000352E+00 0.  1.
</event>
<event>
 5   0  0.1754356E-04  0.2187909E+04  0.7818609E-02  0.8523478E-01
       -2   -1    0    0    0  501  0.00000000000E+00  0.00000000000E+00  0.10993766965E+04  0.10993766965E+04  0.25500000920E-02 0. -1.
        2   -1    0    0  501    0  0.00000000000E+00  0.00000000000E+00 -0.10885588304E+04  0.10885588304E+04  0.25500000920E-02 0.  1.
    10030    2    1    2    0    0  0.00000000000E+00  0.00000000000E+00  0.10817866050E+02  0.21879355269E+04  0.21879087832E+04 0.  0.
        1    1    3    3  502    0 -0.49100602127E+03 -0.92920937065E+02  0.97856778389E+03  0.10987793778E+04  0.50400001928E-02 0. -1.
       -1    1    3    3    0  502  0.49100602127E+03  0.92920937065E+02 -0.96774991784E+03  0.10891561490E+04  0.50400001928E-02 0.  1.
</event>
<event>
 5   0  0.8602414E-05  0.2156337E+04  0.7818609E-02  0.8536824E-01
        1   -1    0    0  501    0  0.00000000000E+00  0.00000000000E+00  0.12545799922E+04  0.12545799922E+04  0.50400001928E-02 0. -1.
       -1   -1    0    0    0  501  0.00000000000E+00  0.00000000000E+00 -0.92656332772E+03  0.92656332774E+03  0.50400001928E-02 0.  1.
    10030    2    1    2    0    0  0.00000000000E+00  0.00000000000E+00  0.32801666447E+03  0.21811433199E+04  0.21563374620E+04 0.  0.
        3    1    3    3  502    0 -0.56082213121E+02  0.47449230881E+03 -0.81362955673E+03  0.94354715385E+03  0.10100000352E+00 0.  1.
       -3    1    3    3    0  502  0.56082213121E+02 -0.47449230881E+03  0.11416462212E+04  0.12375961661E+04  0.10100000352E+00 0. -1.
</event>
<event>
 5   0  0.1680258E-04  0.2121634E+04  0.7818609E-02  0.8551773E-01
       -2   -1    0    0    0  501  0.00000000000E+00  0.00000000000E+00  0.90225660897E+03  0.90225660898E+03  0.25500000920E-02 0. -1.
        2   -1    0    0  501    0  0.00000000000E+00  0.00000000000E+00 -0.12472419574E+04  0.12472419574E+04  0.25500000920E-02 0.  1.
    10030    2    1    2    0    0  0.00000000000E+00  0.00000000000E+00 -0.34498534844E+03  0.21494985664E+04  0.21216336150E+04 0.  0.
        5    1    3    3  502    0  0.12798774866E+02  0.58822463104E+02 -0.12454994968E+04  0.12469622999E+04  0.46999998093E+01 0.  1.
       -5    1    3    3    0  502 -0.12798774866E+02 -0.58822463104E+02  0.90051414841E+03  0.90253626646E+03  0.46999998093E+01 0. -1.
</event>
<event>
 5   0  0.1754356E-04  0.2188150E+04  0.7818609E-02  0.8523377E-01
        2   -1    0    0  501    0  0.00000000000E+00  0.00000000000E+00  0.19936379543E+04  0.19936379543E+04  0.25500000920E-02 0.  1.
       -2   -1    0    0    0  501  0.00000000000E+00  0.00000000000E+00 -0.60040977764E+03  0.60040977765E+03  0.25500000920E-02 0. -1.
    10030    2    1    2    0    0  0.00000000000E+00  0.00000000000E+00  0.13932281767E+04  0.25940477320E+04  0.21881496483E+04 0.  0.
        1    1    3    3  502    0  0.14316092052E+03  0.73250065229E+03  0.16449738192E+04  0.18063751329E+04  0.50400001928E-02 0.  1.
       -1    1    3    3    0  502 -0.14316092052E+03 -0.73250065229E+03 -0.25174564255E+03  0.78767259908E+03  0.50400001928E-02 0. -1.
</event>
<event>
 5   0  0.8470971E-05  0.2318603E+04  0.7818609E-02  0.8470622E-01
        1   -1    0    0  501    0  0.00000000000E+00  0.00000000000E+00  0.11362312486E+04  0.11362312486E+04  0.50400001928E-02 0.  1.
       -1   -1    0    0    0  501  0.00000000000E+00  0.00000000000E+00 -0.11828405419E+04  0.11828405419E+04  0.50400001928E-02 0. -1.
    10030    2    1    2    0    0  0.00000000000E+00  0.00000000000E+00 -0.46609293234E+02  0.23190717905E+04  0.23186033605E+04 0.  0.
        2    1    3    3  502    0  0.89620440163E+03 -0.77154360391E+02 -0.75478355511E+03  0.11742373439E+04  0.25500000920E-02 0. -1.
       -2    1    3    3    0  502 -0.89620440163E+03  0.77154360391E+02  0.70817426188E+03  0.11448344466E+04  0.25500000920E-02 0.  1.
</event>
<event>
 5   0  0.1805501E-04  0.1882661E+04  0.7818609E-02  0.8663535E-01
       -2   -1    0    0    0  501  0.00000000000E+00  0.00000000000E+00  0.91910052178E+03  0.91910052179E+03  0.25500000920E-02 0.  1.
        2   -1    0    0  501    0  0.00000000000E+00  0.00000000000E+00 -0.96409846431E+03  0.96409846431E+03  0.25500000920E-02 0. -1.
    10030    2    1    2    0    0  0.00000000000E+00  0.00000000000E+00 -0.44997942526E+02  0.18831989861E+04  0.18826613095E+04 0.  0.
        2    1    3    3  502    0  0.12622086546E+03  0.34500119438E+03 -0.88943321168E+03  0.96231438161E+03  0.25500000920E-02 0. -1.
       -2    1    3    3    0  502 -0.12622086546E+03 -0.34500119438E+03  0.84443526915E+03  0.92088460449E+03  0.25500000920E-02 0.  1.
</event>
<event>
 5   0  0.1754356E-04  0.2167069E+04  0.7818609E-02  0.8532261E-01
        2   -1    0    0  501    0  0.00000000000E+00  0.00000000000E+00  0.14641493563E+04  0.14641493563E+04  0.25500000920E-02 0.  1.
       -2   -1    0    0    0  501  0.00000000000E+00  0.00000000000E+00 -0.80186278596E+03  0.80186278597E+03  0.25500000920E-02 0. -1.
    10030    2    1    2    0    0  0.00000000000E+00  0.00000000000E+00  0.66228657034E+03  0.22660121423E+04  0.21670688793E+04 0.  0.
        1    1    3    3  502    0  0.48938987574E+03 -0.30140599005E+03 -0.62932548569E+03  0.85229020192E+03  0.50400001928E-02 0. -1.
       -1    1    3    3    0  502 -0.48938987574E+03  0.30140599005E+03  0.12916120560E+04  0.14137219404E+04  0.50400001928E-02 0.  1.
</event>
<event>
 5   0  0.8470971E-05  0.1245565E+04  0.7818609E-02  0.9073883E-01
        1   -1    0    0  501    0  0.00000000000E+00  0.00000000000E+00  0.11246982275E+04  0.11246982275E+04  0.50400001928E-02 0.  1.
       -1   -1    0    0    0  501  0.00000000000E+00  0.00000000000E+00 -0.34485517913E+03  0.34485517917E+03  0.50400001928E-02 0. -1.
    10030    2    1    2    0    0  0.00000000000E+00  0.00000000000E+00  0.77984304840E+03  0.14695534067E+04  0.12455649461E+04 0.  0.
        2    1    3    3  502    0 -0.48050368519E+03 -0.53488225504E+02  0.85308995828E+03  0.98056476516E+03  0.25500000920E-02 0.  1.
       -2    1    3    3    0  502  0.48050368519E+03  0.53488225504E+02 -0.73246909879E+02  0.48898864155E+03  0.25500000920E-02 0. -1.
</event>
<event>
 5   0  0.8784659E-05  0.2252992E+04  0.7818609E-02  0.8496690E-01
        1   -1    0    0  501    0  0.00000000000E+00  0.00000000000E+00  0.14722348396E+04  0.14722348396E+04  0.50400001928E-02 0. -1.
       -1   -1    0    0    0  501  0.00000000000E+00  0.00000000000E+00 -0.86194992587E+03  0.86194992588E+03  0.50400001928E-02 0.  1.
    10030    2    1    2    0    0  0.00000000000E+00  0.00000000000E+00  0.61028491373E+03  0.23341847655E+04  0.22529915321E+04 0.  0.
        4    1    3    3  502    0 -0.84651822282E+02  0.26737816489E+03  0.14354850829E+04  0.14626264220E+04  0.12699999809E+01 0. -1.
       -4    1    3    3    0  502  0.84651822282E+02 -0.26737816489E+03 -0.82520016917E+03  0.87155834353E+03  0.12699999809E+01 0.  1.
</event>
<event>
 5   0  0.1680258E-04  0.2061303E+04  0.7818609E-02  0.8578484E-01
       -2   -1    0    0    0  501  0.00000000000E+00  0.00000000000E+00  0.10577118195E+04  0.10577118195E+04  0.25500000920E-02 0. -1.
        2   -1    0    0  501    0  0.00000000000E+00  0.00000000000E+00 -0.10042830862E+04  0.10042830862E+04  0.25500000920E-02 0.  1.
    10030    2    1    2    0    0  0.00000000000E+00  0.00000000000E+00  0.53428733294E+02  0.20619949057E+04  0.20613025886E+04 0.  0.
        5    1    3    3  502    0  0.38339576502E+03 -0.76066922237E+02  0.98068109086E+03  0.10557158620E+04  0.46999998093E+01 0. -1.
       -5    1    3    3    0  502 -0.38339576502E+03  0.76066922237E+02 -0.92725235756E+03  0.10062790438E+04  0.46999998093E+01 0.  1.
</event>
<event>
 5   0  0.7954459E-05  0.2270174E+04  0.7818609E-02  0.8489775E-01
       -1   -1    0    0    0  501  0.00000000000E+00  0.00000000000E+00  0.79106979651E+03  0.79106979653E+03  0.50400001928E-02 0.  1.
        1   -1    0    0  501    0  0.00000000000E+00  0.00000000000E+00 -0.16287093021E+04  0.16287093021E+04  0.50400001928E-02 0. -1.
    10030    2    1    2    0    0  0.00000000000E+00  0.00000000000E+00 -0.83763950562E+03  0.24197790987E+04  0.22701742103E+04 0.  0.
        5    1    3    3  502    0  0.10462751246E+04 -0.43883237177E+03 -0.38290731062E+03  0.11974579681E+04  0.46999998093E+01 0. -1.
       -5    1    3    3    0  502 -0.10462751246E+04  0.43883237177E+03 -0.45473219501E+03  0.12223211305E+04  0.46999998093E+01 0.  1.
</event>
<event>
 5   0  0.8602414E-05  0.2203196E+04  0.7818609E-02  0.8517099E-01
       -1   -1    0    0    0  501  0.00000000000E+00  0.00000000000E+00  0.13753162126E+04  0.13753162126E+04  0.50400001928E-02 0.  1.
        1   -1    0    0  501    0  0.00000000000E+00  0.00000000000E+00 -0.88235593402E+03  0.88235593404E+03  0.50400001928E-02 0. -1.
    10030    2    1    2    0    0  0.00000000000E+00  0.00000000000E+00  0.49296027856E+03  0.22576721466E+04  0.22031962431E+04 0.  0.
        3    1    3    3  502    0 -0.32855906115E+03  0.72631299244E+03  0.10255661990E+04  0.12989486743E+04  0.10100000352E+00 0.  1.
       -3    1    3    3    0  502  0.32855906115E+03 -0.72631299244E+03 -0.53260592049E+03  0.95872347233E+03  0.10100000352E+00 0. -1.
</event>
<event>
 5   0  0.1733962E-04  0.2231832E+04  0.7818609E-02  0.8505295E-01
        2   -1    0    0  501    0  0.00000000000E+00  0.00000000000E+00  0.15020428251E+04  0.15020428251E+04  0.25500000920E-02 0. -1.
       -2   -1    0    0    0  501  0.00000000000E+00  0.00000000000E+00 -0.82904970865E+03  0.82904970865E+03  0.25500000920E-02 0.  1.
    10030    2    1    2    0    0  0.00000000000E+00  0.00000000000E+00  0.67299311643E+03  0.23310925337E+04  0.22318316841E+04 0.  0.
        3    1    3    3  502    0  0.84321272882E+03  0.66365285671E+03  0.65642889559E+03  0.12579116525E+04  0.10100000352E+00 0. -1.
       -3    1    3    3    0  502 -0.84321272882E+03 -0.66365285671E+03  0.16564220839E+02  0.10731808813E+04  0.10100000352E+00 0.  1.
</event>
<event>
 5   0  0.1680258E-04  0.2030144E+04  0.7818609E-02  0.8592656E-01
       -2   -1    0    0    0  501  0.00000000000E+00  0.00000000000E+00  0.93684090975E+03  0.93684090976E+03  0.25500000920E-02 0.  1.
        2   -1    0    0  501    0  0.00000000000E+00  0.00000000000E+00 -0.10998357452E+04  0.10998357452E+04  0.25500000920E-02 0. -1.
    10030    2    1    2    0    0  0.00000000000E+00  0.00000000000E+00 -0.16299483549E+03  0.20366766550E+04  0.20301439556E+04 0.  0.
        5    1    3    3  502    0 -0.21497651449E+03  0.90200906455E+03 -0.49575931202E+03  0.10514916261E+04  0.46999998093E+01 0.  1.
       -5    1    3    3    0  502  0.21497651449E+03 -0.90200906455E+03  0.33276447653E+03  0.98518502890E+03  0.46999998093E+01 0. -1.
</event>
<event>
 5   0  0.7954459E-05  0.2004857E+04  0.7818609E-02  0.8604353E-01
       -1   -1    0    0    0  501  0.00000000000E+00  0.00000000000E+00  0.72319975125E+03  0.72319975127E+03  0.50400001928E-02 0. -1.
        1   -1    0    0  501    0  0.00000000000E+00  0.00000000000E+00 -0.13894680953E+04  0.13894680953E+04  0.50400001928E-02 0.  1.
    10030    2    1    2    0    0  0.00000000000E+00  0.00000000000E+00 -0.66626834407E+03  0.21126678466E+04  0.20048570831E+04 0.  0.
        5    1    3    3  502    0  0.23287054633E+03  0.50675981535E+03 -0.12108765053E+04  0.13331459796E+04  0.46999998093E+01 0.  1.
       -5    1    3    3    0  502 -0.23287054633E+03 -0.50675981535E+03  0.54460816126E+03  0.77952186699E+03  0.46999998093E+01 0. -1.
</event>
<event>
 5   0  0.8470971E-05  0.2220859E+04  0.7818609E-02  0.8509796E-01
       -1   -1    0    0    0  501  0.00000000000E+00  0.00000000000E+00  0.75637425289E+03  0.75637425291E+03  0.50400001928E-02 0.  1.
        1   -1    0    0  501    0  0.00000000000E+00  0.00000000000E+00 -0.16302165924E+04  0.16302165924E+04  0.50400001928E-02 0. -1.
    10030    2    1    2    0    0  0.00000000000E+00  0.00000000000E+00 -0.87384233951E+03  0.23865908453E+04  0.22208591645E+04 0.  0.
        2    1    3    3  502    0  0.81535446104E+03  0.53892213536E+03  0.12949276744E+03  0.98590483412E+03  0.25500000920E-02 0.  1.
       -2    1    3    3    0  502 -0.81535446104E+03 -0.53892213536E+03 -0.10033351069E+04  0.14006860112E+04  0.25500000920E-02 0. -1.
</event>
<event>
 5   0  0.1798917E-04  0.2163957E+04  0.7818609E-02  0.8533582E-01
        2   -1    0    0  501    0  0.00000000000E+00  0.00000000000E+00  0.16285983976E+04  0.16285983976E+04  0.25500000920E-02 0. -1.
       -2   -1    0    0    0  501  0.00000000000E+00  0.00000000000E+00 -0.71882510403E+03  0.71882510403E+03  0.25500000920E-02 0.  1.
    10030    2    1    2    0    0  0.00000000000E+00  0.00000000000E+00  0.90977329354E+03  0.23474235016E+04  0.21639569428E+04 0.  0.
        4    1    3    3  502    0 -0.72484136362E+03 -0.28043765084E+03  0.12714591114E+04  0.14901846071E+04  0.12699999809E+01 0. -1.
       -4    1    3    3    0  502  0.72484136362E+03  0.28043765084E+03 -0.36168581789E+03  0.85723889446E+03  0.12699999809E+01 0.  1.
</event>
<event>
 5   0  0.1680258E-04  0.2197679E+04  0.7818609E-02  0.8519395E-01
        2   -1    0    0  501    0  0.00000000000E+00  0.00000000000E+00  0.10480670356E+04  0.10480670356E+04  0.25500000920E-02 0. -1.
       -2   -1    0    0    0  501  0.00000000000E+00  0.00000000000E+00 -0.11520718105E+04  0.11520718105E+04  0.25500000920E-02 0.  1.
    10030    2    1    2    0    0  0.00000000000E+00  0.00000000000E+00 -0.10400477483E+03  0.22001388461E+04  0.21976792189E+04 0.  0.
        5    1    3    3  502    0  0.70879399652E+02 -0.10758357515E+04  0.16031973250E+03  0.10900325500E+04  0.46999998093E+01 0. -1.
       -5    1    3    3    0  502 -0.70879399652E+02  0.10758357515E+04 -0.26432450733E+03  0.11101062961E+04  0.46999998093E+01 0.  1.
</event>
<event>
 5   0  0.8306787E-05  0.2189491E+04  0.7818609E-02  0.8522815E-01
       -1   -1    0    0    0  501  0.00000000000E+00  0.00000000000E+00  0.85512429876E+03  0.85512429877E+03  0.50400001928E-02 0. -1.
        1   -1    0    0  501    0  0.00000000000E+00  0.00000000000E+00 -0.14015132929E+04  0.14015132929E+04  0.50400001928E-02 0.  1.
    10030    2    1    2    0    0  0.00000000000E+00  0.00000000000E+00 -0.54638899413E+03  0.22566375917E+04  0.21894913307E+04 0.  0.
        1    1    3    3  502    0  0.36718536615E+03 -0.37741249388E+03 -0.12624220640E+04  0.13678357911E+04  0.50400001928E-02 0.  1.
       -1    1    3    3    0  502 -0.36718536615E+03  0.37741249388E+03  0.71603306984E+03  0.88880180062E+03  0.50400001928E-02 0. -1.
</event>
<event>
 5   0  0.1805501E-04  0.2181945E+04  0.7818609E-02  0.8525981E-01
       -2   -1    0    0    0  501  0.00000000000E+00  0.00000000000E+00  0.77939153061E+03  0.77939153062E+03  0.25500000920E-02 0.  1.
        2   -1    0    0  501    0  0.00000000000E+00  0.00000000000E+00 -0.15271153695E+04  0.15271153695E+04  0.25500000920E-02 0. -1.
    10030    2    1    2    0    0  0.00000000000E+00  0.00000000000E+00 -0.74772383885E+03  0.23065069001E+04  0.21819448070E+04 0.  0.
        2    1    3    3  502    0 -0.35326512415E+02  0.18300846081E+03 -0.15101602018E+04  0.15216188400E+04  0.25500000920E-02 0. -1.
       -2    1    3    3    0  502  0.35326512415E+02 -0.18300846081E+03  0.76243636297E+03  0.78488806004E+03  0.25500000920E-02 0.  1.
</event>
<event>
 5   0  0.8470971E-05  0.2239143E+04  0.7818609E-02  0.8502310E-01
       -1   -1    0    0    0  501  0.00000000000E+00  0.00000000000E+00  0.69072937618E+03  0.69072937620E+03  0.50400001928E-02 0. -1.
        1   -1    0    0  501    0  0.00000000000E+00  0.00000000000E+00 -0.18146612851E+04  0.18146612851E+04  0.50400001928E-02 0.  1.
    10030    2    1    2    0    0  0.00000000000E+00  0.00000000000E+00 -0.11239319089E+04  0.25053906613E+04  0.22391425658E+04 0.  0.
        2    1    3    3  502    0 -0.70427875422E+03 -0.50280609186E+03 -0.13567969380E+04  0.16092608429E+04  0.25500000920E-02 0.  1.
       -2    1    3    3    0  502  0.70427875422E+03  0.50280609186E+03  0.23286502905E+03  0.89612981839E+03  0.25500000920E-02 0. -1.
</event>
<event>
 5   0  0.1754356E-04  0.2141856E+04  0.7818609E-02  0.8543026E-01
        2   -1    0    0  501    0  0.00000000000E+00  0.00000000000E+00  0.15141791046E+04  0.15141791047E+04  0.25500000920E-02 0. -1.
       -2   -1    0    0    0  501  0.00000000000E+00  0.00000000000E+00 -0.75743128853E+03  0.75743128854E+03  0.25500000920E-02 0.  1.
    10030    2    1    2    0    0  0.00000000000E+00  0.00000000000E+00  0.75674781612E+03  0.22716103932E+04  0.21418558591E+04 0.  0.
        1    1    3    3  502    0 -0.70624030964E+02  0.10681223414E+04  0.41213870205E+03  0.11470533553E+04  0.50400001928E-02 0.  1.
       -1    1    3    3    0  502  0.70624030964E+02 -0.10681223414E+04  0.34460911406E+03  0.11245570379E+04  0.50400001928E-02 0. -1.
</event>
<event>
 5   0  0.8602414E-05  0.1184833E+04  0.7818609E-02  0.9126237E-01
        1   -1    0    0  501    0  0.00000000000E+00  0.00000000000E+00  0.49831419648E+03  0.49831419651E+03  0.50400001928E-02 0.  1.
       -1   -1    0    0    0  501  0.00000000000E+00  0.00000000000E+00 -0.70428930014E+03  0.70428930016E+03  0.50400001928E-02 0. -1.
    10030    2    1    2    0    0  0.00000000000E+00  0.00000000000E+00 -0.20597510366E+03  0.12026034967E+04  0.11848330797E+04 0.  0.
        3    1    3    3  502    0 -0.49739883937E+03  0.13752377835E+03 -0.39827870015E+03  0.65187754081E+03  0.10100000352E+00 0. -1.
       -3    1    3    3    0  502  0.49739883937E+03 -0.13752377835E+03  0.19230359650E+03  0.55072595585E+03  0.10100000352E+00 0.  1.
</event>
<event>
 5   0  0.8602414E-05  0.2229065E+04  0.7818609E-02  0.8506427E-01
        1   -1    0    0  501    0  0.00000000000E+00  0.00000000000E+00  0.85414548574E+03  0.85414548575E+03  0.50400001928E-02 0. -1.
       -1   -1    0    0    0  501  0.00000000000E+00  0.00000000000E+00 -0.14542984535E+04  0.14542984535E+04  0.50400001928E-02 0.  1.
    10030    2    1    2    0    0  0.00000000000E+00  0.00000000000E+00 -0.60015296773E+03  0.23084439392E+04  0.22290647895E+04 0.  0.
        3    1    3    3  502    0 -0.32974832298E+03 -0.26095861217E+03  0.76883713652E+03  0.87632408757E+03  0.10100000352E+00 0. -1.
       -3    1    3    3    0  502  0.32974832298E+03  0.26095861217E+03 -0.13689901042E+04  0.14321198517E+04  0.10100000352E+00 0.  1.
</event>
<event>
 5   0  0.1798917E-04  0.2166520E+04  0.7818609E-02  0.8532494E-01
       -2   -1    0    0    0  501  0.00000000000E+00  0.00000000000E+00  0.55013429598E+03  0.55013429598E+03  0.25500000920E-02 0.  1.
        2   -1    0    0  501    0  0.00000000000E+00  0.00000000000E+00 -0.21330290591E+04  0.21330290591E+04  0.25500000920E-02 0. -1.
    10030    2    1    2    0    0  0.00000000000E+00  0.00000000000E+00 -0.15828947631E+04  0.26831633550E+04  0.21665201958E+04 0.  0.
        4    1    3    3  502    0 -0.15413711900E+03 -0.10485651114E+04 -0.10689407395E+04  0.15052850101E+04  0.12699999809E+01 0.  1.
       -4    1    3    3    0  502  0.15413711900E+03  0.10485651114E+04 -0.51395402361E+03  0.11778783449E+04  0.12699999809E+01 0. -1.
</event>
<event>
 5   0  0.1754356E-04  0.2064775E+04  0.7818609E-02  0.8576921E-01
        2   -1    0    0  501    0  0.00000000000E+00  0.00000000000E+00  0.13827446566E+04  0.13827446566E+04  0.25500000920E-02 0. -1.
       -2   -1    0    0    0  501  0.00000000000E+00  0.00000000000E+00 -0.77080283490E+03  0.77080283490E+03  0.25500000920E-02 0.  1.
    10030    2    1    2    0    0  0.00000000000E+00  0.00000000000E+00  0.61194182169E+03  0.21535474915E+04  0.20647745652E+04 0.  0.
        1    1    3    3  502    0  0.79590229087E+03  0.64246824453E+03  0.45198112883E+03  0.11182633155E+04  0.50400001928E-02 0. -1.
       -1    1    3    3    0  502 -0.79590229087E+03 -0.64246824453E+03  0.15996069286E+03  0.10352841760E+04  0.50400001928E-02 0.  1.
</event>
<event>
 5   0  0.6250625E-05  0.2171298E+04  0.7818609E-02  0.8530471E-01
        4   -1    0    0  501    0  0.00000000000E+00  0.00000000000E+00  0.81191651744E+03  0.81191751071E+03  0.12699999809E+01 0. -1.
       -4   -1    0    0    0  501  0.00000000000E+00  0.00000000000E+00 -0.14516659343E+04  0.14516664898E+04  0.12699999809E+01 0.  1.
    10030    2    1    2    0    0  0.00000000000E+00  0.00000000000E+00 -0.63974941683E+03  0.22635840005E+04  0.21712975869E+04 0.  0.
        2    1    3    3  502    0  0.29468582947E+03 -0.19890513830E+03 -0.13892562163E+04  0.14340278333E+04  0.25500000920E-02 0.  1.
       -2    1    3    3    0  502 -0.29468582947E+03  0.19890513830E+03  0.74950679946E+03  0.82955616722E+03  0.25500000920E-02 0. -1.
</event>
<event>
 5   0  0.8784659E-05  0.1885823E+04  0.7818609E-02  0.8661946E-01
        1   -1    0    0  501    0  0.00000000000E+00  0.00000000000E+00  0.11433931852E+04  0.11433931852E+04  0.50400001928E-02 0. -1.
       -1   -1    0    0    0  501  0.00000000000E+00  0.00000000000E+00 -0.77758202223E+03  0.77758202225E+03  0.50400001928E-02 0.  1.
    10030    2    1    2    0    0  0.00000000000E+00  0.00000000000E+00  0.36581116293E+03  0.19209752074E+04  0.18858228816E+04 0.  0.
        4    1    3    3  502    0  0.90962357761E+03  0.55354887954E+01  0.43579661039E+03  0.10086456232E+04  0.12699999809E+01 0. -1.
       -4    1    3    3    0  502 -0.90962357761E+03 -0.55354887954E+01 -0.69985447456E+02  0.91232958427E+03  0.12699999809E+01 0.  1.
</event>
<event>
 5   0  0.7954459E-05  0.2173341E+04  0.7818609E-02  0.8529607E-01
        1   -1    0    0  501    0  0.00000000000E+00  0.00000000000E+00  0.87885692903E+03  0.87885692904E+03  0.50400001928E-02 0. -1.
       -1   -1    0    0    0  501  0.00000000000E+00  0.00000000000E+00 -0.13436236721E+04  0.13436236721E+04  0.50400001928E-02 0.  1.
    10030    2    1    2    0    0  0.00000000000E+00  0.00000000000E+00 -0.46476674305E+03  0.22224806011E+04  0.21733411828E+04 0.  0.
        5    1    3    3  502    0 -0.60657809260E+03  0.67675895804E+03  0.37681354089E+03  0.98384460374E+03  0.46999998093E+01 0. -1.
       -5    1    3    3    0  502  0.60657809260E+03 -0.67675895804E+03 -0.84158028395E+03  0.12386359974E+04  0.46999998093E+01 0.  1.
</event>
<event>
 5   0  0.1805501E-04  0.2198121E+04  0.7818609E-02  0.8519211E-01
        2   -1    0    0  501    0  0.00000000000E+00  0.00000000000E+00  0.12073358598E+04  0.12073358598E+04  0.25500000920E-02 0.  1.
       -2   -1    0    0    0  501  0.00000000000E+00  0.00000000000E+00 -0.10004950725E+04  0.10004950725E+04  0.25500000920E-02 0. -1.
    10030    2    1    2    0    0  0.00000000000E+00  0.00000000000E+00  0.20684078732E+03  0.22078309322E+04  0.21981206323E+04 0.  0.
        2    1    3    3  502    0 -0.38752376045E+03  0.26724544439E+03 -0.89411277819E+03  0.10104615048E+04  0.25500000920E-02 0. -1.
       -2    1    3    3    0  502  0.38752376045E+03 -0.26724544439E+03  0.11009535655E+04  0.11973694275E+04  0.25500000920E-02 0.  1.
</event>
<event>
 5   0  0.8784659E-05  0.2210425E+04  0.7818609E-02  0.8514101E-01
        1   -1    0    0  501    0  0.00000000000E+00  0.00000000000E+00  0.16499988094E+04  0.16499988094E+04  0.50400001928E-02 0.  1.
       -1   -1    0    0    0  501  0.00000000000E+00  0.00000000000E+00 -0.74030040246E+03  0.74030040247E+03  0.50400001928E-02 0. -1.
    10030    2    1    2    0    0  0.00000000000E+00  0.00000000000E+00  0.90969840696E+03  0.23902992119E+04  0.22104251018E+04 0.  0.
        4    1    3    3  502    0 -0.65721506968E+02  0.60667403780E+03  0.14513120685E+04  0.15743827481E+04  0.12699999809E+01 0.  1.
       -4    1    3    3    0  502  0.65721506968E+02 -0.60667403780E+03 -0.54161366151E+03  0.81591646377E+03  0.12699999809E+01 0. -1.
</event>
<event>
 5   0  0.1680258E-04  0.2244010E+04  0.7818609E-02  0.8500330E-01
        2   -1    0    0  501    0  0.00000000000E+00  0.00000000000E+00  0.11462713473E+04  0.11462713473E+04  0.25500000920E-02 0.  1.
       -2   -1    0    0    0  501  0.00000000000E+00  0.00000000000E+00 -0.10982523680E+04  0.10982523680E+04  0.25500000920E-02 0. -1.
    10030    2    1    2    0    0  0.00000000000E+00  0.00000000000E+00  0.48018979284E+02  0.22445237153E+04  0.22440100013E+04 0.  0.
        5    1    3    3  502    0 -0.55913586118E+03 -0.32225168605E+02  0.99644692839E+03  0.11430660278E+04  0.46999998093E+01 0.  1.
       -5    1    3    3    0  502  0.55913586118E+03  0.32225168605E+02 -0.94842794910E+03  0.11014576875E+04  0.46999998093E+01 0. -1.
</event>
<event>
 5   0  0.7954459E-05  0.2173794E+04  0.7818609E-02  0.8529416E-01
        1   -1    0    0  501    0  0.00000000000E+00  0.00000000000E+00  0.11436041702E+04  0.11436041702E+04  0.50400001928E-02 0. -1.
       -1   -1    0    0    0  501  0.00000000000E+00  0.00000000000E+00 -0.10330012763E+04  0.10330012763E+04  0.50400001928E-02 0.  1.
    10030    2    1    2    0    0  0.00000000000E+00  0.00000000000E+00  0.11060289387E+03  0.21766054465E+04  0.21737935205E+04 0.  0.
        5    1    3    3  502    0 -0.20151850420E+03 -0.81693066286E+03 -0.63358347163E+03  0.10532974513E+04  0.46999998093E+01 0.  1.
       -5    1    3    3    0  502  0.20151850420E+03  0.81693066286E+03  0.74418636550E+03  0.11233079952E+04  0.46999998093E+01 0. -1.
</event>
<event>
 5   0  0.8306787E-05  0.2138906E+04  0.7818609E-02  0.8544296E-01
       -1   -1    0    0    0  501  0.00000000000E+00  0.00000000000E+00  0.10790615981E+04  0.10790615981E+04  0.50400001928E-02 0. -1.
        1   -1    0    0  501    0  0.00000000000E+00  0.00000000000E+00 -0.10599300831E+04  0.10599300831E+04  0.50400001928E-02 0.  1.
    10030    2    1    2    0    0  0.00000000000E+00  0.00000000000E+00  0.19131514987E+02  0.21389916812E+04  0.21389061217E+04 0.  0.
        1    1    3    3  502    0 -0.62991548141E+02  0.18999572707E+03  0.10601617008E+04  0.10788925541E+04  0.50400001928E-02 0. -1.
       -1    1    3    3    0  502  0.62991548141E+02 -0.18999572707E+03 -0.10410301858E+04  0.10600991271E+04  0.50400001928E-02 0.  1.
</event>
<event>
 5   0  0.1805501E-04  0.2254482E+04  0.7818609E-02  0.8496088E-01
        2   -1    0    0  501    0  0.00000000000E+00  0.00000000000E+00  0.70331518637E+03  0.70331518638E+03  0.25500000920E-02 0. -1.
       -2   -1    0    0    0  501  0.00000000000E+00  0.00000000000E+00 -0.18066897158E+04  0.18066897158E+04  0.25500000920E-02 0.  1.
    10030    2    1    2    0    0  0.00000000000E+00  0.00000000000E+00 -0.11033745294E+04  0.25100049022E+04  0.22544820373E+04 0.  0.
        2    1    3    3  502    0  0.65141984655E+03 -0.29608943965E+03  0.41804111895E+03  0.82871898126E+03  0.25500000920E-02 0. -1.
       -2    1    3    3    0  502 -0.65141984655E+03  0.29608943965E+03 -0.15214156483E+04  0.16812859209E+04  0.25500000920E-02 0.  1.
</event>
<event>
 5   0  0.7954459E-05  0.2239616E+04  0.7818609E-02  0.8502118E-01
       -1   -1    0    0    0  501  0.00000000000E+00  0.00000000000E+00  0.11496301024E+04  0.11496301024E+04  0.50400001928E-02 0. -1.
        1   -1    0    0  501    0  0.00000000000E+00  0.00000000000E+00 -0.10907594546E+04  0.10907594546E+04  0.50400001928E-02 0.  1.
    10030    2    1    2    0    0  0.00000000000E+00  0.00000000000E+00  0.58870647785E+02  0.22403895570E+04  0.22396159524E+04 0.  0.
        5    1    3    3  502    0  0.47440651449E+03  0.51332030992E+02  0.10428258655E+04  0.11468236107E+04  0.46999998093E+01 0. -1.
       -5    1    3    3    0  502 -0.47440651449E+03 -0.51332030992E+02 -0.98395521772E+03  0.10935659463E+04  0.46999998093E+01 0.  1.
</event>
<event>
 5   0  0.1754356E-04  0.2178225E+04  0.7818609E-02  0.8527546E-01
       -2   -1    0    0    0  501  0.00000000000E+00  0.00000000000E+00  0.46884991649E+03  0.46884991650E+03  0.25500000920E-02 0. -1.
        2   -1    0    0  501    0  0.00000000000E+00  0.00000000000E+00 -0.25299488322E+04  0.25299488322E+04  0.25500000920E-02 0.  1.
    10030    2    1    2    0    0  0.00000000000E+00  0.00000000000E+00 -0.20610989157E+04  0.29987987487E+04  0.21782252397E+04 0.  0.
        1    1    3    3  502    0  0.89877383642E+03  0.33835576338E+02 -0.18498650871E+03  0.91823704112E+03  0.50400001928E-02 0. -1.
       -1    1    3    3    0  502 -0.89877383642E+03 -0.33835576338E+02 -0.18761124070E+04  0.20805617075E+04  0.50400001928E-02 0.  1.
</event>
<event>
 5   0  0.8306787E-05  0.2177758E+04  0.7818609E-02  0.8527743E-01
        1   -1    0    0  501    0  0.00000000000E+00  0.00000000000E+00  0.24965418652E+04  0.24965418652E+04  0.50400001928E-02 0.  1.
       -1   -1    0    0    0  501  0.00000000000E+00  0.00000000000E+00 -0.47491977816E+03  0.47491977818E+03  0.50400001928E-02 0. -1.
    10030    2    1    2    0    0  0.00000000000E+00  0.00000000000E+00  0.20216220870E+04  0.29714616434E+04  0.21777576622E+04 0.  0.
        1    1    3    3  502    0  0.35537460701E+03  0.46739149074E+03  0.22620367099E+04  0.23369972174E+04  0.50400001928E-02 0.  1.
       -1    1    3    3    0  502 -0.35537460701E+03 -0.46739149074E+03 -0.24041462290E+03  0.63446442600E+03  0.50400001928E-02 0. -1.
</event>
<event>
 5   0  0.8470971E-05  0.1974828E+04  0.7818609E-02  0.8618481E-01
       -1   -1    0    0    0  501  0.00000000000E+00  0.00000000000E+00  0.33897946555E+03  0.33897946559E+03  0.50400001928E-02 0.  1.
        1   -1    0    0  501    0  0.00000000000E+00  0.00000000000E+00 -0.28762388815E+04  0.28762388815E+04  0.50400001928E-02 0. -1.
    10030    2    1    2    0    0  0.00000000000E+00  0.00000000000E+00 -0.25372594159E+04  0.32152183471E+04  0.19748275053E+04 0.  0.
        2    1    3    3  502    0  0.42295110791E+03  0.22357258834E+03  0.13768906900E+03  0.49782589493E+03  0.25500000920E-02 0.  1.
       -2    1    3    3    0  502 -0.42295110791E+03 -0.22357258834E+03 -0.26749484849E+04  0.27173924521E+04  0.25500000920E-02 0. -1.
</event>
<event>
 5   0  0.1798917E-04  0.2197085E+04  0.7818609E-02  0.8519642E-01
        2   -1    0    0  501    0  0.00000000000E+00  0.00000000000E+00  0.76518296092E+03  0.76518296093E+03  0.25500000920E-02 0. -1.
       -2   -1    0    0    0  501  0.00000000000E+00  0.00000000000E+00 -0.15771331274E+04  0.15771331274E+04  0.25500000920E-02 0.  1.
    10030    2    1    2    0    0  0.00000000000E+00  0.00000000000E+00 -0.81195016646E+03  0.23423160883E+04  0.21970847923E+04 0.  0.
        4    1    3    3  502    0  0.33393387425E+03  0.67788077055E+03 -0.12560264124E+04  0.14658233635E+04  0.12699999809E+01 0.  1.
       -4    1    3    3    0  502 -0.33393387425E+03 -0.67788077055E+03  0.44407624597E+03  0.87649272478E+03  0.12699999809E+01 0. -1.
</event>
<event>
 5   0  0.1805501E-04  0.2165788E+04  0.7818609E-02  0.8532804E-01
       -2   -1    0    0    0  501  0.00000000000E+00  0.00000000000E+00  0.10570131349E+04  0.10570131349E+04  0.25500000920E-02 0. -1.
        2   -1    0    0  501    0  0.00000000000E+00  0.00000000000E+00 -0.11094087720E+04  0.11094087720E+04  0.25500000920E-02 0.  1.
    10030    2    1    2    0    0  0.00000000000E+00  0.00000000000E+00 -0.52395637101E+02  0.21664219069E+04  0.21657882112E+04 0.  0.
        2    1    3    3  502    0 -0.64603457857E+03 -0.79765447760E+03  0.31893400581E+03  0.10748638251E+04  0.25500000920E-02 0. -1.
       -2    1    3    3    0  502  0.64603457857E+03  0.79765447760E+03 -0.37132964291E+03  0.10915580818E+04  0.25500000920E-02 0.  1.
</event>
<event>
 5   0  0.1798917E-04  0.2136037E+04  0.7818609E-02  0.8545533E-01
        2   -1    0    0  501    0  0.00000000000E+00  0.00000000000E+00  0.96648443884E+03  0.96648443885E+03  0.25500000920E-02 0. -1.
       -2   -1    0    0    0  501  0.00000000000E+00  0.00000000000E+00 -0.11802189572E+04  0.11802189572E+04  0.25500000920E-02 0.  1.
    10030    2    1    2    0    0  0.00000000000E+00  0.00000000000E+00 -0.21373451831E+03  0.21467033960E+04  0.21360367567E+04 0.  0.
        4    1    3    3  502    0 -0.16502752991E+03  0.10550837192E+04 -0.91762118615E+02  0.10718477688E+04  0.12699999809E+01 0. -1.
       -4    1    3    3    0  502  0.16502752991E+03 -0.10550837192E+04 -0.12197239970E+03  0.10748556272E+04  0.12699999809E+01 0.  1.
</event>
<event>
 5   0  0.8470971E-05  0.2259484E+04  0.7818609E-02  0.8494070E-01
       -1   -1    0    0    0  501  0.00000000000E+00  0.00000000000E+00  0.76189136920E+03  0.76189136922E+03  0.50400001928E-02 0.  1.
        1   -1    0    0  501    0  0.00000000000E+00  0.00000000000E+00 -0.16751948192E+04  0.16751948192E+04  0.50400001928E-02 0. -1.
    10030    2    1    2    0    0  0.00000000000E+00  0.00000000000E+00 -0.91330345000E+03  0.24370861884E+04  0.22594835468E+04 0.  0.
        2    1    3    3  502    0  0.10244804958E+04 -0.35492543960E+03 -0.11423279919E+03  0.10902208429E+04  0.25500000920E-02 0. -1.
       -2    1    3    3    0  502 -0.10244804958E+04  0.35492543960E+03 -0.79907065081E+03  0.13468653455E+04  0.25500000920E-02 0.  1.
</event>
<event>
 5   0  0.1754356E-04  0.2183144E+04  0.7818609E-02  0.8525477E-01
        2   -1    0    0  501    0  0.00000000000E+00  0.00000000000E+00  0.16829876836E+04  0.16829876836E+04  0.25500000920E-02 0.  1.
       -2   -1    0    0    0  501  0.00000000000E+00  0.00000000000E+00 -0.70798432770E+03  0.70798432771E+03  0.25500000920E-02 0. -1.
    10030    2    1    2    0    0  0.00000000000E+00  0.00000000000E+00  0.97500335592E+03  0.23909720113E+04  0.21831435168E+04 0.  0.
        1    1    3    3  502    0  0.28160676697E+03 -0.23006303771E+03  0.16147022118E+04  0.16551418687E+04  0.50400001928E-02 0.  1.
       -1    1    3    3    0  502 -0.28160676697E+03  0.23006303771E+03 -0.63969885593E+03  0.73583014264E+03  0.50400001928E-02 0. -1.
</event>
<event>
 5   0  0.8784659E-05  0.2031055E+04  0.7818609E-02  0.8592238E-01
        1   -1    0    0  501    0  0.00000000000E+00  0.00000000000E+00  0.12830680058E+04  0.12830680058E+04  0.50400001928E-02 0. -1.
       -1   -1    0    0    0  501  0.00000000000E+00  0.00000000000E+00 -0.80377317681E+03  0.80377317682E+03  0.50400001928E-02 0.  1.
    10030    2    1    2    0    0  0.00000000000E+00  0.00000000000E+00  0.47929482896E+03  0.20868411826E+04  0.20310545508E+04 0.  0.
        4    1    3    3  502    0 -0.36736581870E+03  0.61644656638E+03 -0.49865025725E+03  0.87385222201E+03  0.12699999809E+01 0.  1.
       -4    1    3    3    0  502  0.36736581870E+03 -0.61644656638E+03  0.97794508621E+03  0.12129889606E+04  0.12699999809E+01 0. -1.
</event>
<event>
 5   0  0.8470971E-05  0.2179626E+04  0.7818609E-02  0.8526957E-01
       -1   -1    0    0    0  501  0.00000000000E+00  0.00000000000E+00  0.57397343713E+03  0.57397343715E+03  0.50400001928E-02 0.  1.
        1   -1    0    0  501    0  0.00000000000E+00  0.00000000000E+00 -0.20692453539E+04  0.20692453539E+04  0.50400001928E-02 0. -1.
    10030    2    1    2    0    0  0.00000000000E+00  0.00000000000E+00 -0.14952719168E+04  0.26432187911E+04  0.21796255349E+04 0.  0.
        2    1    3    3  502    0 -0.72177497489E+03  0.81652107476E+03 -0.75382998355E+03  0.13251133627E+04  0.25500000920E-02 0. -1.
       -2    1    3    3    0  502  0.72177497489E+03 -0.81652107476E+03 -0.74144193321E+03  0.13181054284E+04  0.25500000920E-02 0.  1.
</event>
<event>
 5   0  0.8306787E-05  0.2145361E+04  0.7818609E-02  0.8541521E-01
       -1   -1    0    0    0  501  0.00000000000E+00  0.00000000000E+00  0.13681838436E+04  0.13681838436E+04  0.50400001928E-02 0.  1.
        1   -1    0    0  501    0  0.00000000000E+00  0.00000000000E+00 -0.84100027843E+03  0.84100027844E+03  0.50400001928E-02 0. -1.
    10030    2    1    2    0    0  0.00000000000E+00  0.00000000000E+00  0.52718356521E+03  0.22091841221E+04  0.21453605697E+04 0.  0.
        1    1    3    3  502    0 -0.84390623722E+03 -0.14713394154E+03  0.92841206030E+03  0.12632399169E+04  0.50400001928E-02 0.  1.
       -1    1    3    3    0  502  0.84390623722E+03  0.14713394154E+03 -0.40122849509E+03  0.94594420516E+03  0.50400001928E-02 0. -1.
</event>
<event>
 5   0  0.1754356E-04  0.2168141E+04  0.7818609E-02  0.8531807E-01
       -2   -1    0    0    0  501  0.00000000000E+00  0.00000000000E+00  0.12514954364E+04  0.12514954364E+04  0.25500000920E-02 0.  1.
        2   -1    0    0  501    0  0.00000000000E+00  0.00000000000E+00 -0.93904341816E+03  0.93904341816E+03  0.25500000920E-02 0. -1.
    10030    2    1    2    0    0  0.00000000000E+00  0.00000000000E+00  0.31245201826E+03  0.21905388546E+04  0.21681407265E+04 0.  0.
        1    1    3    3  502    0 -0.41845101716E+03  0.92864716452E+03  0.53116857574E+03  0.11487501320E+04  0.50400001928E-02 0.  1.
       -1    1    3    3    0  502  0.41845101716E+03 -0.92864716452E+03 -0.21871655748E+03  0.10417887226E+04  0.50400001928E-02 0. -1.
</event>
<event>
 5   0  0.8602414E-05  0.2194973E+04  0.7818609E-02  0.8520523E-01
       -1   -1    0    0    0  501  0.00000000000E+00  0.00000000000E+00  0.72860844264E+03  0.72860844266E+03  0.50400001928E-02 0. -1.
        1   -1    0    0  501    0  0.00000000000E+00  0.00000000000E+00 -0.16531192480E+04  0.16531192480E+04  0.50400001928E-02 0.  1.
    10030    2    1    2    0    0  0.00000000000E+00  0.00000000000E+00 -0.92451080533E+03  0.23817276906E+04  0.21949730211E+04 0.  0.
        3    1    3    3  502    0  0.58537616599E+02 -0.95764005218E+03  0.11597824823E+03  0.96641196513E+03  0.10100000352E+00 0. -1.
       -3    1    3    3    0  502 -0.58537616599E+02  0.95764005218E+03 -0.10404890536E+04  0.14153157255E+04  0.10100000352E+00 0.  1.
</event>
<event>
 5   0  0.7954459E-05  0.2220352E+04  0.7818609E-02  0.8510005E-01
       -1   -1    0    0    0  501  0.00000000000E+00  0.00000000000E+00  0.77369684050E+03  0.77369684051E+03  0.50400001928E-02 0.  1.
        1   -1    0    0  501    0  0.00000000000E+00  0.00000000000E+00 -0.15929895987E+04  0.15929895987E+04  0.50400001928E-02 0. -1.
    10030    2    1    2    0    0  0.00000000000E+00  0.00000000000E+00 -0.81929275819E+03  0.23666864392E+04  0.22203522419E+04 0.  0.
        5    1    3    3  502    0  0.47720996365E+03  0.87698514216E+03  0.10777009967E+03  0.10042254594E+04  0.46999998093E+01 0.  1.
       -5    1    3    3    0  502 -0.47720996365E+03 -0.87698514216E+03 -0.92706285786E+03  0.13624609798E+04  0.46999998093E+01 0. -1.
</event>
<event>
 5   0  0.8602414E-05  0.2118252E+04  0.7818609E-02  0.8553246E-01
        1   -1    0    0  501    0  0.00000000000E+00  0.00000000000E+00  0.20997292363E+04  0.20997292363E+04  0.50400001928E-02 0. -1.
       -1   -1    0    0    0  501  0.00000000000E+00  0.00000000000E+00 -0.53423429183E+03  0.53423429186E+03  0.50400001928E-02 0.  1.
    10030    2    1    2    0    0  0.00000000000E+00  0.00000000000E+00  0.15654949444E+04  0.26339635281E+04  0.21182515069E+04 0.  0.
        3    1    3    3  502    0 -0.67497453360E+03  0.42833108775E+03 -0.81157608792E+02  0.80352019850E+03  0.10100000352E+00 0.  1.
       -3    1    3    3    0  502  0.67497453360E+03 -0.42833108775E+03  0.16466525532E+04  0.18304433296E+04  0.10100000352E+00 0. -1.
</event>
<event>
 5   0  0.1805501E-04  0.1287547E+04  0.7818609E-02  0.9039499E-01
        2   -1    0    0  501    0  0.00000000000E+00  0.00000000000E+00  0.12838576702E+04  0.12838576702E+04  0.25500000920E-02 0.  1.
       -2   -1    0    0    0  501  0.00000000000E+00  0.00000000000E+00 -0.32281159777E+03  0.32281159778E+03  0.25500000920E-02 0. -1.
    10030    2    1    2    0    0  0.00000000000E+00  0.00000000000E+00  0.96104607246E+03  0.16066692680E+04  0.12875467306E+04 0.  0.
        2    1    3    3  502    0 -0.13606806432E+03 -0.57811445237E+03  0.17052931441E+03  0.61790863827E+03  0.25500000920E-02 0. -1.
       -2    1    3    3    0  502  0.13606806432E+03  0.57811445237E+03  0.79051675805E+03  0.98876062974E+03  0.25500000920E-02 0.  1.
</event>
<event>
 5   0  0.1805501E-04  0.2244593E+04  0.7818609E-02  0.8500093E-01
        2   -1    0    0  501    0  0.00000000000E+00  0.00000000000E+00  0.20050557811E+04  0.20050557811E+04  0.25500000920E-02 0.  1.
       -2   -1    0    0    0  501  0.00000000000E+00  0.00000000000E+00 -0.62818666627E+03  0.62818666628E+03  0.25500000920E-02 0. -1.
    10030    2    1    2    0    0  0.00000000000E+00  0.00000000000E+00  0.13768691148E+04  0.26332424474E+04  0.22445928868E+04 0.  0.
        2    1    3    3  502    0 -0.24524534383E+02  0.29835583033E+03 -0.58048330352E+03  0.65312978798E+03  0.25500000920E-02 0. -1.
       -2    1    3    3    0  502  0.24524534383E+02 -0.29835583033E+03  0.19573524184E+04  0.19801126594E+04  0.25500000920E-02 0.  1.
</event>
<event>
 5   0  0.1798917E-04  0.2058627E+04  0.7818609E-02  0.8579691E-01
        2   -1    0    0  501    0  0.00000000000E+00  0.00000000000E+00  0.73588813394E+03  0.73588813394E+03  0.25500000920E-02 0.  1.
       -2   -1    0    0    0  501  0.00000000000E+00  0.00000000000E+00 -0.14397384785E+04  0.14397384785E+04  0.25500000920E-02 0. -1.
    10030    2    1    2    0    0  0.00000000000E+00  0.00000000000E+00 -0.70385034459E+03  0.21756266125E+04  0.20586271759E+04 0.  0.
        4    1    3    3  502    0  0.61040003794E+03  0.27667419008E+03 -0.11775741291E+04  0.13549240776E+04  0.12699999809E+01 0. -1.
       -4    1    3    3    0  502 -0.61040003794E+03 -0.27667419008E+03  0.47372378450E+03  0.82070253483E+03  0.12699999809E+01 0.  1.
</event>
<event>
 5   0  0.6250625E-05  0.2215410E+04  0.7818609E-02  0.8512042E-01
        3   -1    0    0  501    0  0.00000000000E+00  0.00000000000E+00  0.93317618487E+03  0.93317619034E+03  0.10100000352E+00 0. -1.
       -3   -1    0    0    0  501  0.00000000000E+00  0.00000000000E+00 -0.13148749386E+04  0.13148749425E+04  0.10100000352E+00 0.  1.
    10030    2    1    2    0    0  0.00000000000E+00  0.00000000000E+00 -0.38169875371E+03  0.22480511328E+04  0.22154096590E+04 0.  0.
        5    1    3    3  502    0  0.10690287291E+03 -0.10631736918E+04  0.10537883147E+03  0.10737286954E+04  0.46999998093E+01 0. -1.
       -5    1    3    3    0  502 -0.10690287291E+03  0.10631736918E+04 -0.48707758518E+03  0.11743224374E+04  0.46999998093E+01 0.  1.
</event>
<event>
 5   0  0.8602414E-05  0.1597729E+04  0.7818609E-02  0.8821944E-01
        1   -1    0    0  501    0  0.00000000000E+00  0.00000000000E+00  0.15582893524E+04  0.15582893525E+04  0.50400001928E-02 0. -1.
       -1   -1    0    0    0  501  0.00000000000E+00  0.00000000000E+00 -0.40954177590E+03  0.40954177593E+03  0.50400001928E-02 0.  1.
    10030    2    1    2    0    0  0.00000000000E+00  0.00000000000E+00  0.11487475765E+04  0.19678311284E+04  0.15977291245E+04 0.  0.
        3    1    3    3  502    0 -0.57044041416E+03 -0.16546495630E+00  0.12631937883E+04  0.13860233946E+04  0.10100000352E+00 0. -1.
       -3    1    3    3    0  502  0.57044041416E+03  0.16546495630E+00 -0.11444621173E+03  0.58180773376E+03  0.10100000352E+00 0.  1.
</event>
<event>
 5   0  0.8784659E-05  0.2191091E+04  0.7818609E-02  0.8522146E-01
        1   -1    0    0  501    0  0.00000000000E+00  0.00000000000E+00  0.13097213959E+04  0.13097213959E+04  0.50400001928E-02 0. -1.
       -1   -1    0    0    0  501  0.00000000000E+00  0.00000000000E+00 -0.91639300211E+03  0.91639300212E+03  0.50400001928E-02 0.  1.
    10030    2    1    2    0    0  0.00000000000E+00  0.00000000000E+00  0.39332839377E+03  0.22261143980E+04  0.21910906160E+04 0.  0.
        4    1    3    3  502    0  0.79952027256E+03  0.10758328137E+03  0.94973506331E+03  0.12461160187E+04  0.12699999809E+01 0. -1.
       -4    1    3    3    0  502 -0.79952027256E+03 -0.10758328137E+03 -0.55640666954E+03  0.97999837932E+03  0.12699999809E+01 0.  1.
</event>
<event>
 5   0  0.1680258E-04  0.2161395E+04  0.7818609E-02  0.8534670E-01
        2   -1    0    0  501    0  0.00000000000E+00  0.00000000000E+00  0.17566682351E+04  0.17566682351E+04  0.25500000920E-02 0.  1.
       -2   -1    0    0    0  501  0.00000000000E+00  0.00000000000E+00 -0.66484239630E+03  0.66484239630E+03  0.25500000920E-02 0. -1.
    10030    2    1    2    0    0  0.00000000000E+00  0.00000000000E+00  0.10918258388E+04  0.24215106314E+04  0.21613954001E+04 0.  0.
        5    1    3    3  502    0 -0.36904882724E+03  0.55486095981E+03  0.14990750051E+04  0.16405229906E+04  0.46999998093E+01 0.  1.
       -5    1    3    3    0  502  0.36904882724E+03 -0.55486095981E+03 -0.40724916635E+03  0.78098764081E+03  0.46999998093E+01 0. -1.
</event>
<event>
 5   0  0.7954459E-05  0.2114259E+04  0.7818609E-02  0.8554988E-01
       -1   -1    0    0    0  501  0.00000000000E+00  0.00000000000E+00  0.77471855959E+03  0.77471855961E+03  0.50400001928E-02 0. -1.
        1   -1    0    0  501    0  0.00000000000E+00  0.00000000000E+00 -0.14424880672E+04  0.14424880672E+04  0.50400001928E-02 0.  1.
    10030    2    1    2    0    0  0.00000000000E+00  0.00000000000E+00 -0.66776950764E+03  0.22172066269E+04  0.21142585251E+04 0.  0.
        5    1    3    3  502    0  0.38605482621E+03  0.84742828193E+03 -0.85857388592E+03  0.12666271075E+04  0.46999998093E+01 0.  1.
       -5    1    3    3    0  502 -0.38605482621E+03 -0.84742828193E+03  0.19080437827E+03  0.95057951936E+03  0.46999998093E+01 0. -1.
</event>
<event>
 5   0  0.8470971E-05  0.2210875E+04  0.7818609E-02  0.8513915E-01
       -1   -1    0    0    0  501  0.00000000000E+00  0.00000000000E+00  0.97233793383E+03  0.97233793384E+03  0.50400001928E-02 0.  1.
        1   -1    0    0  501    0  0.00000000000E+00  0.00000000000E+00 -0.12567565310E+04  0.12567565310E+04  0.50400001928E-02 0. -1.
    10030    2    1    2    0    0  0.00000000000E+00  0.00000000000E+00 -0.28441859713E+03  0.22290944648E+04  0.22108749839E+04 0.  0.
        2    1    3    3  502    0  0.21244500950E+03 -0.77473577807E+03  0.62341911308E+03  0.10168578064E+04  0.25500000920E-02 0.  1.
       -2    1    3    3    0  502 -0.21244500950E+03  0.77473577807E+03 -0.90783771021E+03  0.12122366584E+04  0.25500000920E-02 0. -1.
</event>
<event>
 5   0  0.1733962E-04  0.2200444E+04  0.7818609E-02  0.8518244E-01
       -2   -1    0    0    0  501  0.00000000000E+00  0.00000000000E+00  0.54132486153E+03  0.54132486154E+03  0.25500000920E-02 0.  1.
        2   -1    0    0  501    0  0.00000000000E+00  0.00000000000E+00 -0.22361581195E+04  0.22361581195E+04  0.25500000920E-02 0. -1.
    10030    2    1    2    0    0  0.00000000000E+00  0.00000000000E+00 -0.16948332579E+04  0.27774829810E+04  0.22004435775E+04 0.  0.
        3    1    3    3  502    0 -0.43298995897E+03 -0.53092262536E+03 -0.19340624768E+04  0.20518179288E+04  0.10100000352E+00 0. -1.
       -3    1    3    3    0  502  0.43298995897E+03  0.53092262536E+03  0.23922921881E+03  0.72566505223E+03  0.10100000352E+00 0.  1.
</event>
<event>
 5   0  0.8602414E-05  0.1160967E+04  0.7818609E-02  0.9147725E-01
        1   -1    0    0  501    0  0.00000000000E+00  0.00000000000E+00  0.75398009656E+03  0.75398009658E+03  0.50400001928E-02 0.  1.
       -1   -1    0    0    0  501  0.00000000000E+00  0.00000000000E+00 -0.44691000924E+03  0.44691000927E+03  0.50400001928E-02 0. -1.
    10030    2    1    2    0    0  0.00000000000E+00  0.00000000000E+00  0.30707008732E+03  0.12008901058E+04  0.11609672725E+04 0.  0.
        3    1    3    3  502    0  0.27444880798E+03  0.48554242530E+03  0.31996426322E+03  0.64300134907E+03  0.10100000352E+00 0.  1.
       -3    1    3    3    0  502 -0.27444880798E+03 -0.48554242530E+03 -0.12894175892E+02  0.55788875678E+03  0.10100000352E+00 0. -1.
</event>
<event>
 5   0  0.8602414E-05  0.2184842E+04  0.7818609E-02  0.8524764E-01
       -1   -1    0    0    0  501  0.00000000000E+00  0.00000000000E+00  0.89928393895E+03  0.89928393897E+03  0.50400001928E-02 0. -1.
        1   -1    0    0  501    0  0.00000000000E+00  0.00000000000E+00 -0.13270378592E+04  0.13270378592E+04  0.50400001928E-02 0.  1.
    10030    2    1    2    0    0  0.00000000000E+00  0.00000000000E+00 -0.42775392023E+03  0.22263217982E+04  0.21848421757E+04 0.  0.
        3    1    3    3  502    0 -0.86969521097E+02 -0.58395406971E+03  0.72271276261E+03  0.93320940874E+03  0.10100000352E+00 0. -1.
       -3    1    3    3    0  502  0.86969521097E+02  0.58395406971E+03 -0.11504666828E+04  0.12931123894E+04  0.10100000352E+00 0.  1.
</event>
<event>
 5   0  0.8602414E-05  0.2189794E+04  0.7818609E-02  0.8522688E-01
       -1   -1    0    0    0  501  0.00000000000E+00  0.00000000000E+00  0.93166834050E+03  0.93166834052E+03  0.50400001928E-02 0.  1.
        1   -1    0    0  501    0  0.00000000000E+00  0.00000000000E+00 -0.12867235886E+04  0.12867235887E+04  0.50400001928E-02 0. -1.
    10030    2    1    2    0    0  0.00000000000E+00  0.00000000000E+00 -0.35505524815E+03  0.22183919292E+04  0.21897941735E+04 0.  0.
        3    1    3    3  502    0  0.58773083276E+03 -0.76090563248E+03  0.35314030953E+03  0.10242621743E+04  0.10100000352E+00 0.  1.
       -3    1    3    3    0  502 -0.58773083276E+03  0.76090563248E+03 -0.70819555768E+03  0.11941297549E+04  0.10100000352E+00 0. -1.
</event>
<event>
 5   0  0.6250625E-05  0.2191099E+04  0.7818609E-02  0.8522142E-01
       -4   -1    0    0    0  501  0.00000000000E+00  0.00000000000E+00  0.16362830316E+04  0.16362835245E+04  0.12699999809E+01 0. -1.
        4   -1    0    0  501    0  0.00000000000E+00  0.00000000000E+00 -0.73350800815E+03  0.73350910759E+03  0.12699999809E+01 0.  1.
    10030    2    1    2    0    0  0.00000000000E+00  0.00000000000E+00  0.90277502347E+03  0.23697926321E+04  0.21910988969E+04 0.  0.
        4    1    3    3  502    0 -0.10096870019E+04 -0.33504265613E+03  0.73446886850E+03  0.12927364599E+04  0.12699999809E+01 0. -1.
       -4    1    3    3    0  502  0.10096870019E+04  0.33504265613E+03  0.16830615497E+03  0.10770561721E+04  0.12699999809E+01 0.  1.
</event>
<event>
 5   0  0.8784659E-05  0.1160678E+04  0.7818609E-02  0.9147989E-01
        1   -1    0    0  501    0  0.00000000000E+00  0.00000000000E+00  0.97470305788E+03  0.97470305789E+03  0.50400001928E-02 0. -1.
       -1   -1    0    0    0  501  0.00000000000E+00  0.00000000000E+00 -0.34553423205E+03  0.34553423209E+03  0.50400001928E-02 0.  1.
    10030    2    1    2    0    0  0.00000000000E+00  0.00000000000E+00  0.62916882583E+03  0.13202372900E+04  0.11606778582E+04 0.  0.
        4    1    3    3  502    0 -0.43315108884E+03 -0.30271239763E+03  0.41740734496E+02  0.53009297605E+03  0.12699999809E+01 0.  1.
       -4    1    3    3    0  502  0.43315108884E+03  0.30271239763E+03  0.58742809134E+03  0.79014431393E+03  0.12699999809E+01 0. -1.
</event>
<event>
 5   0  0.8784659E-05  0.2145620E+04  0.7818609E-02  0.8541409E-01
        1   -1    0    0  501    0  0.00000000000E+00  0.00000000000E+00  0.17951455700E+04  0.17951455700E+04  0.50400001928E-02 0.  1.
       -1   -1    0    0    0  501  0.00000000000E+00  0.00000000000E+00 -0.64112994034E+03  0.64112994036E+03  0.50400001928E-02 0. -1.
    10030    2    1    2    0    0  0.00000000000E+00  0.00000000000E+00  0.11540156296E+04  0.24362755103E+04  0.21456202574E+04 0.  0.
        4    1    3    3  502    0 -0.35782297965E+03 -0.49689687014E+03 -0.42321724779E+03  0.74435088234E+03  0.12699999809E+01 0. -1.
       -4    1    3    3    0  502  0.35782297965E+03  0.49689687014E+03  0.15772328774E+04  0.16919246280E+04  0.12699999809E+01 0.  1.
</event>
<event>
 5   0  0.1733962E-04  0.2229944E+04  0.7818609E-02  0.8506067E-01
       -2   -1    0    0    0  501  0.00000000000E+00  0.00000000000E+00  0.57141032893E+03  0.57141032894E+03  0.25500000920E-02 0. -1.
        2   -1    0    0  501    0  0.00000000000E+00  0.00000000000E+00 -0.21756040255E+04  0.21756040255E+04  0.25500000920E-02 0.  1.
    10030    2    1    2    0    0  0.00000000000E+00  0.00000000000E+00 -0.16041936965E+04  0.27470143544E+04  0.22299440458E+04 0.  0.
        3    1    3    3  502    0 -0.43197451581E+03 -0.98899087963E+03 -0.11471489179E+04  0.15750097119E+04  0.10100000352E+00 0.  1.
       -3    1    3    3    0  502  0.43197451581E+03  0.98899087963E+03 -0.45704477858E+03  0.11720046425E+04  0.10100000352E+00 0. -1.
</event>
<event>
 5   0  0.1798917E-04  0.2138644E+04  0.7818609E-02  0.8544409E-01
        2   -1    0    0  501    0  0.00000000000E+00  0.00000000000E+00  0.10256563034E+04  0.10256563034E+04  0.25500000920E-02 0. -1.
       -2   -1    0    0    0  501  0.00000000000E+00  0.00000000000E+00 -0.11148464630E+04  0.11148464630E+04  0.25500000920E-02 0.  1.
    10030    2    1    2    0    0  0.00000000000E+00  0.00000000000E+00 -0.89190159619E+02  0.21405027664E+04  0.21386437778E+04 0.  0.
        4    1    3    3  502    0  0.37922033581E+03  0.94395851748E+03 -0.37439925245E+03  0.10839936157E+04  0.12699999809E+01 0.  1.
       -4    1    3    3    0  502 -0.37922033581E+03 -0.94395851748E+03  0.28520909284E+03  0.10565091506E+04  0.12699999809E+01 0. -1.
</event>
<event>
 5   0  0.1798917E-04  0.2200128E+04  0.7818609E-02  0.8518375E-01
        2   -1    0    0  501    0  0.00000000000E+00  0.00000000000E+00  0.14879516885E+04  0.14879516885E+04  0.25500000920E-02 0.  1.
       -2   -1    0    0    0  501  0.00000000000E+00  0.00000000000E+00 -0.81329342421E+03  0.81329342422E+03  0.25500000920E-02 0. -1.
    10030    2    1    2    0    0  0.00000000000E+00  0.00000000000E+00  0.67465826425E+03  0.23012451127E+04  0.22001284724E+04 0.  0.
        4    1    3    3  502    0  0.13021677871E+03  0.15002807071E+03  0.14690334879E+04  0.14824054212E+04  0.12699999809E+01 0.  1.
       -4    1    3    3    0  502 -0.13021677871E+03 -0.15002807071E+03 -0.79437522364E+03  0.81883969145E+03  0.12699999809E+01 0. -1.
</event>
<event>
 5   0  0.7954459E-05  0.2197632E+04  0.7818609E-02  0.8519414E-01
       -1   -1    0    0    0  501  0.00000000000E+00  0.00000000000E+00  0.14963822233E+04  0.14963822233E+04  0.50400001928E-02 0. -1.
        1   -1    0    0  501    0  0.00000000000E+00  0.00000000000E+00 -0.80687748826E+03  0.80687748828E+03  0.50400001928E-02 0.  1.
    10030    2    1    2    0    0  0.00000000000E+00  0.00000000000E+00  0.68950473504E+03  0.23032597116E+04  0.21976324805E+04 0.  0.
        5    1    3    3  502    0 -0.31401422113E+03 -0.79190126695E+03 -0.38262412275E+03  0.93388214298E+03  0.46999998093E+01 0.  1.
       -5    1    3    3    0  502  0.31401422113E+03  0.79190126695E+03  0.10721288578E+04  0.13693775686E+04  0.46999998093E+01 0. -1.
</event>
<event>
 5   0  0.8602414E-05  0.2258252E+04  0.7818609E-02  0.8494566E-01
        1   -1    0    0  501    0  0.00000000000E+00  0.00000000000E+00  0.15443025467E+04  0.15443025467E+04  0.50400001928E-02 0. -1.
       -1   -1    0    0    0  501  0.00000000000E+00  0.00000000000E+00 -0.82556720513E+03  0.82556720514E+03  0.50400001928E-02 0.  1.
    10030    2    1    2    0    0  0.00000000000E+00  0.00000000000E+00  0.71873534155E+03  0.23698697518E+04  0.22582520119E+04 0.  0.
        3    1    3    3  502    0 -0.77335303003E+03  0.80550863384E+03  0.18374475936E+03  0.11316718672E+04  0.10100000352E+00 0.  1.
       -3    1    3    3    0  502  0.77335303003E+03 -0.80550863384E+03  0.53499058219E+03  0.12381978846E+04  0.10100000352E+00 0. -1.
</event>
<event>
 5   0  0.1798917E-04  0.2224932E+04  0.7818609E-02  0.8508122E-01
       -2   -1    0    0    0  501  0.00000000000E+00  0.00000000000E+00  0.13257518116E+04  0.13257518116E+04  0.25500000920E-02 0. -1.
        2   -1    0    0  501    0  0.00000000000E+00  0.00000000000E+00 -0.93349342955E+03  0.93349342955E+03  0.25500000920E-02 0.  1.
    10030    2    1    2    0    0  0.00000000000E+00  0.00000000000E+00  0.39225838204E+03  0.22592452411E+04  0.22249320038E+04 0.  0.
        4    1    3    3  502    0  0.10185820981E+04  0.44697217638E+03  0.17897560548E+03  0.11266443526E+04  0.12699999809E+01 0. -1.
       -4    1    3    3    0  502 -0.10185820981E+04 -0.44697217638E+03  0.21328277656E+03  0.11326008885E+04  0.12699999809E+01 0.  1.
</event>
<event>
 5   0  0.1680258E-04  0.2215259E+04  0.7818609E-02  0.8512104E-01
        2   -1    0    0  501    0  0.00000000000E+00  0.00000000000E+00  0.77738874677E+03  0.77738874677E+03  0.25500000920E-02 0. -1.
       -2   -1    0    0    0  501  0.00000000000E+00  0.00000000000E+00 -0.15781592777E+04  0.15781592777E+04  0.25500000920E-02 0.  1.
    10030    2    1    2    0    0  0.00000000000E+00  0.00000000000E+00 -0.80077053093E+03  0.23555480245E+04  0.22152591389E+04 0.  0.
        5    1    3    3  502    0 -0.48562965664E+03 -0.65877988848E+03 -0.11939689147E+04  0.14475534409E+04  0.46999998093E+01 0.  1.
       -5    1    3    3    0  502  0.48562965664E+03  0.65877988848E+03  0.39319838377E+03  0.90799458361E+03  0.46999998093E+01 0. -1.
</event>
<event>
 5   0  0.7954459E-05  0.2193974E+04  0.7818609E-02  0.8520941E-01
       -1   -1    0    0    0  501  0.00000000000E+00  0.00000000000E+00  0.55365430135E+03  0.55365430137E+03  0.50400001928E-02 0. -1.
        1   -1    0    0  501    0  0.00000000000E+00  0.00000000000E+00 -0.21735225065E+04  0.21735225065E+04  0.50400001928E-02 0.  1.
    10030    2    1    2    0    0  0.00000000000E+00  0.00000000000E+00 -0.16198682052E+04  0.27271768079E+04  0.21939736415E+04 0.  0.
        5    1    3    3  502    0  0.10358486228E+04 -0.56593792590E+02 -0.36665327129E+03  0.11002917513E+04  0.46999998093E+01 0. -1.
       -5    1    3    3    0  502 -0.10358486228E+04  0.56593792590E+02 -0.12532149339E+04  0.16268850566E+04  0.46999998093E+01 0.  1.
</event>
<event>
 5   0  0.8602414E-05  0.2124412E+04  0.7818609E-02  0.8550565E-01
        1   -1    0    0  501    0  0.00000000000E+00  0.00000000000E+00  0.18520842285E+04  0.18520842285E+04  0.50400001928E-02 0. -1.
       -1   -1    0    0    0  501  0.00000000000E+00  0.00000000000E+00 -0.60919573004E+03  0.60919573006E+03  0.50400001928E-02 0.  1.
    10030    2    1    2    0    0  0.00000000000E+00  0.00000000000E+00  0.12428884984E+04  0.24612799585E+04  0.21244122045E+04 0.  0.
        3    1    3    3  502    0 -0.40347432489E+03 -0.97920126859E+03  0.52692924279E+03  0.11829121237E+04  0.10100000352E+00 0.  1.
       -3    1    3    3    0  502  0.40347432489E+03  0.97920126859E+03  0.71595925566E+03  0.12783678349E+04  0.10100000352E+00 0. -1.
</event>
<event>
 5   0  0.1805501E-04  0.1776895E+04  0.7818609E-02  0.8718684E-01
       -2   -1    0    0    0  501  0.00000000000E+00  0.00000000000E+00  0.42207220807E+03  0.42207220808E+03  0.25500000920E-02 0. -1.
        2   -1    0    0  501    0  0.00000000000E+00  0.00000000000E+00 -0.18701514206E+04  0.18701514206E+04  0.25500000920E-02 0.  1.
    10030    2    1    2    0    0  0.00000000000E+00  0.00000000000E+00 -0.14480792125E+04  0.22922236287E+04  0.17768949767E+04 0.  0.
        2    1    3    3  502    0  0.81041869774E+03 -0.27814447028E+03 -0.10271141989E+04  0.13375748165E+04  0.25500000920E-02 0.  1.
       -2    1    3    3    0  502 -0.81041869774E+03  0.27814447028E+03 -0.42096501360E+03  0.95464881222E+03  0.25500000920E-02 0. -1.
</event>
<event>
 5   0  0.1680258E-04  0.2134229E+04  0.7818609E-02  0.8546313E-01
        2   -1    0    0  501    0  0.00000000000E+00  0.00000000000E+00  0.18731046179E+04  0.18731046179E+04  0.25500000920E-02 0.  1.
       -2   -1    0    0    0  501  0.00000000000E+00  0.00000000000E+00 -0.60793882627E+03  0.60793882628E+03  0.25500000920E-02 0. -1.
    10030    2    1    2    0    0  0.00000000000E+00  0.00000000000E+00  0.12651657916E+04  0.24810434442E+04  0.21342286877E+04 0.  0.
        5    1    3    3  502    0 -0.43365896031E+03 -0.48232639227E+03  0.16176352071E+04  0.17428323487E+04  0.46999998093E+01 0.  1.
       -5    1    3    3    0  502  0.43365896031E+03  0.48232639227E+03 -0.35246941551E+03  0.73821109542E+03  0.46999998093E+01 0. -1.
</event>
<event>
 5   0  0.1754356E-04  0.2200913E+04  0.7818609E-02  0.8518048E-01
        2   -1    0    0  501    0  0.00000000000E+00  0.00000000000E+00  0.18322549767E+04  0.18322549767E+04  0.25500000920E-02 0.  1.
       -2   -1    0    0    0  501  0.00000000000E+00  0.00000000000E+00 -0.66093656838E+03  0.66093656838E+03  0.25500000920E-02 0. -1.
    10030    2    1    2    0    0  0.00000000000E+00  0.00000000000E+00  0.11713184083E+04  0.24931915450E+04  0.22009128258E+04 0.  0.
        1    1    3    3  502    0 -0.68518198350E+03 -0.72108656510E+03  0.52443990890E+02  0.99608762520E+03  0.50400001928E-02 0. -1.
       -1    1    3    3    0  502  0.68518198350E+03  0.72108656510E+03  0.11188744174E+04  0.14971039198E+04  0.50400001928E-02 0.  1.
</event>
<event>
 5   0  0.1798917E-04  0.2191093E+04  0.7818609E-02  0.8522145E-01
        2   -1    0    0  501    0  0.00000000000E+00  0.00000000000E+00  0.14305047930E+04  0.14305047930E+04  0.25500000920E-02 0.  1.
       -2   -1    0    0    0  501  0.00000000000E+00  0.00000000000E+00 -0.83901996694E+03  0.83901996695E+03  0.25500000920E-02 0. -1.
    10030    2    1    2    0    0  0.00000000000E+00  0.00000000000E+00  0.59148482609E+03  0.22695247600E+04  0.21910929548E+04 0.  0.
        4    1    3    3  502    0  0.47672276794E+03 -0.95424376494E+03  0.37053154863E+02  0.10673426393E+04  0.12699999809E+01 0.  1.
       -4    1    3    3    0  502 -0.47672276794E+03  0.95424376494E+03  0.55443167122E+03  0.12021821207E+04  0.12699999809E+01 0. -1.
</event>
<event>
 5   0  0.1680258E-04  0.1426233E+04  0.7818609E-02  0.8935045E-01
       -2   -1    0    0    0  501  0.00000000000E+00  0.00000000000E+00  0.96041679360E+03  0.96041679361E+03  0.25500000920E-02 0.  1.
        2   -1    0    0  501    0  0.00000000000E+00  0.00000000000E+00 -0.52949447003E+03  0.52949447004E+03  0.25500000920E-02 0. -1.
    10030    2    1    2    0    0  0.00000000000E+00  0.00000000000E+00  0.43092232358E+03  0.14899112636E+04  0.14262333345E+04 0.  0.
        5    1    3    3  502    0  0.69769938508E+03 -0.10205760519E+02  0.36908014382E+03  0.78938636424E+03  0.46999998093E+01 0. -1.
       -5    1    3    3    0  502 -0.69769938508E+03  0.10205760519E+02  0.61842179755E+02  0.70052489940E+03  0.46999998093E+01 0.  1.
</event>
<event>
 5   0  0.1733962E-04  0.2265533E+04  0.7818609E-02  0.8491636E-01
       -2   -1    0    0    0  501  0.00000000000E+00  0.00000000000E+00  0.60819897603E+03  0.60819897604E+03  0.25500000920E-02 0.  1.
        2   -1    0    0  501    0  0.00000000000E+00  0.00000000000E+00 -0.21097701752E+04  0.21097701752E+04  0.25500000920E-02 0. -1.
    10030    2    1    2    0    0  0.00000000000E+00  0.00000000000E+00 -0.15015711992E+04  0.27179691512E+04  0.22655331030E+04 0.  0.
        3    1    3    3  502    0  0.47558678253E+02  0.10125791697E+04 -0.14427423439E+03  0.10239108690E+04  0.10100000352E+00 0.  1.
       -3    1    3    3    0  502 -0.47558678253E+02 -0.10125791697E+04 -0.13572969648E+04  0.16940582822E+04  0.10100000352E+00 0. -1.
</event>
<event>
 5   0  0.8784659E-05  0.1366428E+04  0.7818609E-02  0.8978485E-01
        1   -1    0    0  501    0  0.00000000000E+00  0.00000000000E+00  0.10704007894E+04  0.10704007894E+04  0.50400001928E-02 0.  1.
       -1   -1    0    0    0  501  0.00000000000E+00  0.00000000000E+00 -0.43608088977E+03  0.43608088980E+03  0.50400001928E-02 0. -1.
    10030    2    1    2    0    0  0.00000000000E+00  0.00000000000E+00  0.63431989966E+03  0.15064816793E+04  0.13664279399E+04 0.  0.
        4    1    3    3  502    0  0.74951247433E+02 -0.32624299728E+03  0.97379576984E+03  0.10297242335E+04  0.12699999809E+01 0.  1.
       -4    1    3    3    0  502 -0.74951247433E+02  0.32624299728E+03 -0.33947587017E+03  0.47675744577E+03  0.12699999809E+01 0. -1.
</event>
<event>
 5   0  0.1680258E-04  0.1915186E+04  0.7818609E-02  0.8647334E-01
        2   -1    0    0  501    0  0.00000000000E+00  0.00000000000E+00  0.17735687310E+04  0.17735687310E+04  0.25500000920E-02 0. -1.
       -2   -1    0    0    0  501  0.00000000000E+00  0.00000000000E+00 -0.51702760240E+03  0.51702760240E+03  0.25500000920E-02 0.  1.
    10030    2    1    2    0    0  0.00000000000E+00  0.00000000000E+00  0.12565411286E+04  0.22905963334E+04  0.19151856189E+04 0.  0.
        5    1    3    3  502    0 -0.22741068943E+03 -0.57308716599E+03 -0.24802572399E+03  0.66459263556E+03  0.46999998093E+01 0.  1.
       -5    1    3    3    0  502  0.22741068943E+03  0.57308716599E+03  0.15045668526E+04  0.16260036978E+04  0.46999998093E+01 0. -1.
</event>
<event>
 5   0  0.7954459E-05  0.2187125E+04  0.7818609E-02  0.8523806E-01
        1   -1    0    0  501    0  0.00000000000E+00  0.00000000000E+00  0.16580235667E+04  0.16580235667E+04  0.50400001928E-02 0.  1.
       -1   -1    0    0    0  501  0.00000000000E+00  0.00000000000E+00 -0.72126795531E+03  0.72126795532E+03  0.50400001928E-02 0. -1.
    10030    2    1    2    0    0  0.00000000000E+00  0.00000000000E+00  0.93675561141E+03  0.23792915221E+04  0.21871252985E+04 0.  0.
        5    1    3    3  502    0 -0.84935031537E+03 -0.38127870316E+03 -0.15568724911E+03  0.94394386340E+03  0.46999998093E+01 0. -1.
       -5    1    3    3    0  502  0.84935031537E+03  0.38127870316E+03  0.10924428605E+04  0.14353476587E+04  0.46999998093E+01 0.  1.
</event>
<event>
 5   0  0.7954459E-05  0.1749178E+04  0.7818609E-02  0.8733803E-01
        1   -1    0    0  501    0  0.00000000000E+00  0.00000000000E+00  0.98413898841E+03  0.98413898842E+03  0.50400001928E-02 0.  1.
       -1   -1    0    0    0  501  0.00000000000E+00  0.00000000000E+00 -0.77723362359E+03  0.77723362361E+03  0.50400001928E-02 0. -1.
    10030    2    1    2    0    0  0.00000000000E+00  0.00000000000E+00  0.20690536482E+03  0.17613726120E+04  0.17491779922E+04 0.  0.
        5    1    3    3  502    0  0.17148827778E+02 -0.82530470173E+03 -0.18745911918E+03  0.84651340471E+03  0.46999998093E+01 0. -1.
       -5    1    3    3    0  502 -0.17148827778E+02  0.82530470173E+03  0.39436448400E+03  0.91485920732E+03  0.46999998093E+01 0.  1.
</event>
<event>
 5   0  0.7954459E-05  0.2217113E+04  0.7818609E-02  0.8511339E-01
       -1   -1    0    0    0  501  0.00000000000E+00  0.00000000000E+00  0.10159884130E+04  0.10159884130E+04  0.50400001928E-02 0. -1.
        1   -1    0    0  501    0  0.00000000000E+00  0.00000000000E+00 -0.12095587843E+04  0.12095587843E+04  0.50400001928E-02 0.  1.
    10030    2    1    2    0    0  0.00000000000E+00  0.00000000000E+00 -0.19357037132E+03  0.22255471974E+04  0.22171131769E+04 0.  0.
        5    1    3    3  502    0  0.80718237181E+03 -0.39744782062E+03  0.55326414379E+03  0.10562345640E+04  0.46999998093E+01 0.  1.
       -5    1    3    3    0  502 -0.80718237181E+03  0.39744782062E+03 -0.74683451511E+03  0.11693126333E+04  0.46999998093E+01 0. -1.
</event>
<event>
 5   0  0.8306787E-05  0.2183179E+04  0.7818609E-02  0.8525462E-01
       -1   -1    0    0    0  501  0.00000000000E+00  0.00000000000E+00  0.38359376300E+03  0.38359376303E+03  0.50400001928E-02 0.  1.
        1   -1    0    0  501    0  0.00000000000E+00  0.00000000000E+00 -0.31063280865E+04  0.31063280865E+04  0.50400001928E-02 0. -1.
    10030    2    1    2    0    0  0.00000000000E+00  0.00000000000E+00 -0.27227343235E+04  0.34899218495E+04  0.21831794062E+04 0.  0.
        1    1    3    3  502    0  0.92247305906E+02  0.28217608188E+03 -0.30405565753E+04  0.30550150890E+04  0.50400001928E-02 0. -1.
       -1    1    3    3    0  502 -0.92247305906E+02 -0.28217608188E+03  0.31782225175E+03  0.43490676054E+03  0.50400001928E-02 0.  1.
</event>
<event>
 5   0  0.1733962E-04  0.2022484E+04  0.7818609E-02  0.8596180E-01
       -2   -1    0    0    0  501  0.00000000000E+00  0.00000000000E+00  0.47834790902E+03  0.47834790902E+03  0.25500000920E-02 0. -1.
        2   -1    0    0  501    0  0.00000000000E+00  0.00000000000E+00 -0.21377969851E+04  0.21377969851E+04  0.25500000920E-02 0.  1.
    10030    2    1    2    0    0  0.00000000000E+00  0.00000000000E+00 -0.16594490760E+04  0.26161448941E+04  0.20224843314E+04 0.  0.
        3    1    3    3  502    0 -0.91292295321E+03 -0.20929189758E+03 -0.33651904996E+03  0.99522685760E+03  0.10100000352E+00 0. -1.
       -3    1    3    3    0  502  0.91292295321E+03  0.20929189758E+03 -0.13229300261E+04  0.16209180365E+04  0.10100000352E+00 0.  1.
</event>
<event>
 5   0  0.1680258E-04  0.2198621E+04  0.7818609E-02  0.8519002E-01
       -2   -1    0    0    0  501  0.00000000000E+00  0.00000000000E+00  0.12992102247E+04  0.12992102247E+04  0.25500000920E-02 0.  1.
        2   -1    0    0  501    0  0.00000000000E+00  0.00000000000E+00 -0.93016807159E+03  0.93016807159E+03  0.25500000920E-02 0. -1.
    10030    2    1    2    0    0  0.00000000000E+00  0.00000000000E+00  0.36904215312E+03  0.22293782963E+04  0.21986212673E+04 0.  0.
        5    1    3    3  502    0  0.12122998045E+03  0.40105646999E+03 -0.84602266650E+03  0.94409715735E+03  0.46999998093E+01 0. -1.
       -5    1    3    3    0  502 -0.12122998045E+03 -0.40105646999E+03  0.12150648196E+04  0.12852811390E+04  0.46999998093E+01 0.  1.
</event>
<event>
 5   0  0.8784659E-05  0.2184615E+04  0.7818609E-02  0.8524859E-01
        1   -1    0    0  501    0  0.00000000000E+00  0.00000000000E+00  0.19679088982E+04  0.19679088982E+04  0.50400001928E-02 0. -1.
       -1   -1    0    0    0  501  0.00000000000E+00  0.00000000000E+00 -0.60629621440E+03  0.60629621442E+03  0.50400001928E-02 0.  1.
    10030    2    1    2    0    0  0.00000000000E+00  0.00000000000E+00  0.13616126838E+04  0.25742051126E+04  0.21846150373E+04 0.  0.
        4    1    3    3  502    0 -0.70036455119E+03  0.39977273517E+01  0.16685054381E+04  0.18095409628E+04  0.12699999809E+01 0. -1.
       -4    1    3    3    0  502  0.70036455119E+03 -0.39977273517E+01 -0.30689275431E+03  0.76466414976E+03  0.12699999809E+01 0.  1.
</event>
<event>
 5   0  0.1798917E-04  0.2173264E+04  0.7818609E-02  0.8529639E-01
       -2   -1    0    0    0  501  0.00000000000E+00  0.00000000000E+00  0.82332814867E+03  0.82332814867E+03  0.25500000920E-02 0.  1.
        2   -1    0    0  501    0  0.00000000000E+00  0.00000000000E+00 -0.14341420330E+04  0.14341420330E+04  0.25500000920E-02 0. -1.
    10030    2    1    2    0    0  0.00000000000E+00  0.00000000000E+00 -0.61081388429E+03  0.22574701816E+04  0.21732643695E+04 0.  0.
        4    1    3    3  502    0 -0.13766697698E+03  0.11681379830E+03  0.80763775318E+03  0.82757356972E+03  0.12699999809E+01 0.  1.
       -4    1    3    3    0  502  0.13766697698E+03 -0.11681379830E+03 -0.14184516375E+04  0.14298966119E+04  0.12699999809E+01 0. -1.
</event>
<event>
 5   0  0.1805501E-04  0.2117680E+04  0.7818609E-02  0.8553495E-01
        2   -1    0    0  501    0  0.00000000000E+00  0.00000000000E+00  0.10996517272E+04  0.10996517272E+04  0.25500000920E-02 0. -1.
       -2   -1    0    0    0  501  0.00000000000E+00  0.00000000000E+00 -0.10195426606E+04  0.10195426606E+04  0.25500000920E-02 0.  1.
    10030    2    1    2    0    0  0.00000000000E+00  0.00000000000E+00  0.80109066526E+02  0.21191943878E+04  0.21176797186E+04 0.  0.
        2    1    3    3  502    0 -0.79405835504E+03 -0.63831651039E+03  0.32864458732E+03  0.10705063771E+04  0.25500000920E-02 0.  1.
       -2    1    3    3    0  502  0.79405835504E+03  0.63831651039E+03 -0.24853552079E+03  0.10486880107E+04  0.25500000920E-02 0. -1.
</event>
<event>
 5   0  0.8306787E-05  0.1970694E+04  0.7818609E-02  0.8620446E-01
       -1   -1    0    0    0  501  0.00000000000E+00  0.00000000000E+00  0.13208656309E+04  0.13208656309E+04  0.50400001928E-02 0. -1.
        1   -1    0    0  501    0  0.00000000000E+00  0.00000000000E+00 -0.73505514577E+03  0.73505514579E+03  0.50400001928E-02 0.  1.
    10030    2    1    2    0    0  0.00000000000E+00  0.00000000000E+00  0.58581048515E+03  0.20559207767E+04  0.19706943740E+04 0.  0.
        1    1    3    3  502    0 -0.65106890445E+02  0.43188407506E+03  0.12143623625E+04  0.12905187751E+04  0.50400001928E-02 0. -1.
       -1    1    3    3    0  502  0.65106890445E+02 -0.43188407506E+03 -0.62855187736E+03  0.76540200158E+03  0.50400001928E-02 0.  1.
</event>
<event>
 5   0  0.1680258E-04  0.2213847E+04  0.7818609E-02  0.8512687E-01
        2   -1    0    0  501    0  0.00000000000E+00  0.00000000000E+00  0.17941936329E+04  0.17941936329E+04  0.25500000920E-02 0.  1.
       -2   -1    0    0    0  501  0.00000000000E+00  0.00000000000E+00 -0.68291354802E+03  0.68291354803E+03  0.25500000920E-02 0. -1.
    10030    2    1    2    0    0  0.00000000000E+00  0.00000000000E+00  0.11112800849E+04  0.24771071810E+04  0.22138465527E+04 0.  0.
        5    1    3    3  502    0 -0.11064772579E+04  0.21637607157E+02  0.53069697306E+03  0.12273636281E+04  0.46999998093E+01 0. -1.
       -5    1    3    3    0  502  0.11064772579E+04 -0.21637607157E+02  0.58058311185E+03  0.12497435529E+04  0.46999998093E+01 0.  1.
</event>
<event>
 5   0  0.8602414E-05  0.2380602E+04  0.7818609E-02  0.8446802E-01
        1   -1    0    0  501    0  0.00000000000E+00  0.00000000000E+00  0.24543913533E+04  0.24543913533E+04  0.50400001928E-02 0. -1.
       -1   -1    0    0    0  501  0.00000000000E+00  0.00000000000E+00 -0.57725789590E+03  0.57725789592E+03  0.50400001928E-02 0.  1.
    10030    2    1    2    0    0  0.00000000000E+00  0.00000000000E+00  0.18771334574E+04  0.30316492492E+04  0.23806022670E+04 0.  0.
        3    1    3    3  502    0  0.16851049121E+03 -0.38296163084E+03  0.23576607993E+04  0.23944978286E+04  0.10100000352E+00 0. -1.
       -3    1    3    3    0  502 -0.16851049121E+03  0.38296163084E+03 -0.48052734188E+03  0.63715142065E+03  0.10100000352E+00 0.  1.
</event>
<event>
 5   0  0.1798917E-04  0.2030476E+04  0.7818609E-02  0.8592503E-01
        2   -1    0    0  501    0  0.00000000000E+00  0.00000000000E+00  0.10458809946E+04  0.10458809946E+04  0.25500000920E-02 0. -1.
       -2   -1    0    0    0  501  0.00000000000E+00  0.00000000000E+00 -0.98549319739E+03  0.98549319739E+03  0.25500000920E-02 0.  1.
    10030    2    1    2    0    0  0.00000000000E+00  0.00000000000E+00  0.60387797246E+02  0.20313741920E+04  0.20304764027E+04 0.  0.
        4    1    3    3  502    0  0.60992155141E+03  0.67124776508E+03 -0.42621953653E+03  0.10021190384E+04  0.12699999809E+01 0.  1.
       -4    1    3    3    0  502 -0.60992155141E+03 -0.67124776508E+03  0.48660733378E+03  0.10292551536E+04  0.12699999809E+01 0. -1.
</event>
<event>
 5   0  0.1680258E-04  0.2113036E+04  0.7818609E-02  0.8555523E-01
        2   -1    0    0  501    0  0.00000000000E+00  0.00000000000E+00  0.22901264427E+04  0.22901264427E+04  0.25500000920E-02 0.  1.
       -2   -1    0    0    0  501  0.00000000000E+00  0.00000000000E+00 -0.48740992822E+03  0.48740992823E+03  0.25500000920E-02 0. -1.
    10030    2    1    2    0    0  0.00000000000E+00  0.00000000000E+00  0.18027165145E+04  0.27775363709E+04  0.21130360764E+04 0.  0.
        5    1    3    3  502    0 -0.54434275985E+01 -0.88779576391E+02  0.22851823527E+04  0.22869175585E+04  0.46999998093E+01 0.  1.
       -5    1    3    3    0  502  0.54434275985E+01  0.88779576391E+02 -0.48246583823E+03  0.49061881246E+03  0.46999998093E+01 0. -1.
</event>
<event>
 5   0  0.8306787E-05  0.2203524E+04  0.7818609E-02  0.8516963E-01
        1   -1    0    0  501    0  0.00000000000E+00  0.00000000000E+00  0.73055326567E+03  0.73055326569E+03  0.50400001928E-02 0.  1.
       -1   -1    0    0    0  501  0.00000000000E+00  0.00000000000E+00 -0.16615887572E+04  0.16615887572E+04  0.50400001928E-02 0. -1.
    10030    2    1    2    0    0  0.00000000000E+00  0.00000000000E+00 -0.93103549149E+03  0.23921420229E+04  0.22035236262E+04 0.  0.
        1    1    3    3  502    0  0.20081851659E+03  0.77658455118E+03 -0.12854626743E+04  0.15151983133E+04  0.50400001928E-02 0. -1.
       -1    1    3    3    0  502 -0.20081851659E+03 -0.77658455118E+03  0.35442718279E+03  0.87694370952E+03  0.50400001928E-02 0.  1.
</event>
<event>
 5   0  0.8306787E-05  0.2224336E+04  0.7818609E-02  0.8508367E-01
        1   -1    0    0  501    0  0.00000000000E+00  0.00000000000E+00  0.25411134949E+04  0.25411134949E+04  0.50400001928E-02 0.  1.
       -1   -1    0    0    0  501  0.00000000000E+00  0.00000000000E+00 -0.48676219006E+03  0.48676219008E+03  0.50400001928E-02 0. -1.
    10030    2    1    2    0    0  0.00000000000E+00  0.00000000000E+00  0.20543513049E+04  0.30278756850E+04  0.22243362786E+04 0.  0.
        1    1    3    3  502    0  0.10749725168E+04  0.23619696792E+03  0.80953303851E+03  0.13662718105E+04  0.50400001928E-02 0.  1.
       -1    1    3    3    0  502 -0.10749725168E+04 -0.23619696792E+03  0.12448182663E+04  0.16616038745E+04  0.50400001928E-02 0. -1.
</event>
<event>
 5   0  0.8602414E-05  0.1522894E+04  0.7818609E-02  0.8869370E-01
       -1   -1    0    0    0  501  0.00000000000E+00  0.00000000000E+00  0.28927915912E+03  0.28927915916E+03  0.50400001928E-02 0.  1.
        1   -1    0    0  501    0  0.00000000000E+00  0.00000000000E+00 -0.20042969670E+04  0.20042969670E+04  0.50400001928E-02 0. -1.
    10030    2    1    2    0    0  0.00000000000E+00  0.00000000000E+00 -0.17150178079E+04  0.22935761262E+04  0.15228937472E+04 0.  0.
        3    1    3    3  502    0  0.30362970384E+03 -0.27307611157E+03  0.11041115837E+03  0.42302741502E+03  0.10100000352E+00 0.  1.
       -3    1    3    3    0  502 -0.30362970384E+03  0.27307611157E+03 -0.18254289663E+04  0.18705487112E+04  0.10100000352E+00 0. -1.
</event>
<event>
 5   0  0.1798917E-04  0.2245971E+04  0.7818609E-02  0.8499534E-01
        2   -1    0    0  501    0  0.00000000000E+00  0.00000000000E+00  0.20203420394E+04  0.20203420394E+04  0.25500000920E-02 0. -1.
       -2   -1    0    0    0  501  0.00000000000E+00  0.00000000000E+00 -0.62419959066E+03  0.62419959066E+03  0.25500000920E-02 0.  1.
    10030    2    1    2    0    0  0.00000000000E+00  0.00000000000E+00  0.13961424487E+04  0.26445416300E+04  0.22459712144E+04 0.  0.
        4    1    3    3  502    0  0.74215725577E+02 -0.14563329931E+03  0.20062596844E+04  0.20129074907E+04  0.12699999809E+01 0. -1.
       -4    1    3    3    0  502 -0.74215725577E+02  0.14563329931E+03 -0.61011723571E+03  0.63163413935E+03  0.12699999809E+01 0.  1.
</event>
<event>
 5   0  0.1754356E-04  0.1366664E+04  0.7818609E-02  0.8978309E-01
       -2   -1    0    0    0  501  0.00000000000E+00  0.00000000000E+00  0.24357454167E+03  0.24357454168E+03  0.25500000920E-02 0.  1.
        2   -1    0    0  501    0  0.00000000000E+00  0.00000000000E+00 -0.19170425462E+04  0.19170425462E+04  0.25500000920E-02 0. -1.
    10030    2    1    2    0    0  0.00000000000E+00  0.00000000000E+00 -0.16734680045E+04  0.21606170879E+04  0.13666642010E+04 0.  0.
        1    1    3    3  502    0  0.11998559154E+03 -0.45321264257E+03 -0.16226777779E+04  0.16890474868E+04  0.50400001928E-02 0. -1.
       -1    1    3    3    0  502 -0.11998559154E+03  0.45321264257E+03 -0.50790226619E+02  0.47156960112E+03  0.50400001928E-02 0.  1.
</event>
<event>
 5   0  0.1680258E-04  0.1425789E+04  0.7818609E-02  0.8935360E-01
       -2   -1    0    0    0  501  0.00000000000E+00  0.00000000000E+00  0.58975106926E+03  0.58975106927E+03  0.25500000920E-02 0. -1.
        2   -1    0    0  501    0  0.00000000000E+00  0.00000000000E+00 -0.86175127928E+03  0.86175127928E+03  0.25500000920E-02 0.  1.
    10030    2    1    2    0    0  0.00000000000E+00  0.00000000000E+00 -0.27200021002E+03  0.14515023485E+04  0.14257892388E+04 0.  0.
        5    1    3    3  502    0 -0.24938704552E+02  0.53181065078E+03  0.34662991200E+03  0.63531007639E+03  0.46999998093E+01 0. -1.
       -5    1    3    3    0  502  0.24938704552E+02 -0.53181065078E+03 -0.61863012201E+03  0.81619227216E+03  0.46999998093E+01 0.  1.
</event>
<event>
 5   0  0.8470971E-05  0.2183600E+04  0.7818609E-02  0.8525285E-01
        1   -1    0    0  501    0  0.00000000000E+00  0.00000000000E+00  0.99792786547E+03  0.99792786549E+03  0.50400001928E-02 0.  1.
       -1   -1    0    0    0  501  0.00000000000E+00  0.00000000000E+00 -0.11945019674E+04  0.11945019674E+04  0.50400001928E-02 0. -1.
    10030    2    1    2    0    0  0.00000000000E+00  0.00000000000E+00 -0.19657410188E+03  0.21924298329E+04  0.21835995957E+04 0.  0.
        2    1    3    3  502    0 -0.34934822099E+03 -0.97902071101E+03  0.23698102994E+03  0.10661546514E+04  0.25500000920E-02 0.  1.
       -2    1    3    3    0  502  0.34934822099E+03  0.97902071101E+03 -0.43355513182E+03  0.11262751815E+04  0.25500000920E-02 0. -1.
</event>
<event>
 5   0  0.6250625E-05  0.2207563E+04  0.7818609E-02  0.8515287E-01
       -3   -1    0    0    0  501  0.00000000000E+00  0.00000000000E+00  0.19513306416E+04  0.19513306443E+04  0.10100000352E+00 0. -1.
        3   -1    0    0  501    0  0.00000000000E+00  0.00000000000E+00 -0.62436060389E+03  0.62436061206E+03  0.10100000352E+00 0.  1.
    10030    2    1    2    0    0  0.00000000000E+00  0.00000000000E+00  0.13269700378E+04  0.25756912563E+04  0.22075633551E+04 0.  0.
        1    1    3    3  502    0  0.80456578199E+03 -0.39877803477E+03  0.14123797725E+04  0.16736686173E+04  0.50400001928E-02 0. -1.
       -1    1    3    3    0  502 -0.80456578199E+03  0.39877803477E+03 -0.85409734763E+02  0.90202263906E+03  0.50400001928E-02 0.  1.
</event>
<event>
 5   0  0.1798917E-04  0.2182600E+04  0.7818609E-02  0.8525705E-01
        2   -1    0    0  501    0  0.00000000000E+00  0.00000000000E+00  0.12785470803E+04  0.12785470803E+04  0.25500000920E-02 0.  1.
       -2   -1    0    0    0  501  0.00000000000E+00  0.00000000000E+00 -0.93147586443E+03  0.93147586443E+03  0.25500000920E-02 0. -1.
    10030    2    1    2    0    0  0.00000000000E+00  0.00000000000E+00  0.34707121583E+03  0.22100229447E+04  0.21826000521E+04 0.  0.
        4    1    3    3  502    0 -0.82598211221E+03  0.65741304781E+03  0.45358931653E+03  0.11489922742E+04  0.12699999809E+01 0. -1.
       -4    1    3    3    0  502  0.82598211221E+03 -0.65741304781E+03 -0.10651810070E+03  0.10610306705E+04  0.12699999809E+01 0.  1.
</event>
<event>
 5   0  0.8602414E-05  0.2211298E+04  0.7818609E-02  0.8513740E-01
       -1   -1    0    0    0  501  0.00000000000E+00  0.00000000000E+00  0.71669716369E+03  0.71669716371E+03  0.50400001928E-02 0.  1.
        1   -1    0    0  501    0  0.00000000000E+00  0.00000000000E+00 -0.17056857873E+04  0.17056857873E+04  0.50400001928E-02 0. -1.
    10030    2    1    2    0    0  0.00000000000E+00  0.00000000000E+00 -0.98898862364E+03  0.24223829510E+04  0.22112984113E+04 0.  0.
        3    1    3    3  502    0  0.36407698056E+03  0.10011237874E+04 -0.81882972669E+03  0.13436082082E+04  0.10100000352E+00 0.  1.
       -3    1    3    3    0  502 -0.36407698056E+03 -0.10011237874E+04 -0.17015889694E+03  0.10787747429E+04  0.10100000352E+00 0. -1.
</event>
<event>
 5   0  0.1798917E-04  0.2250675E+04  0.7818609E-02  0.8497627E-01
       -2   -1    0    0    0  501  0.00000000000E+00  0.00000000000E+00  0.48073031146E+03  0.48073031147E+03  0.25500000920E-02 0.  1.
        2   -1    0    0  501    0  0.00000000000E+00  0.00000000000E+00 -0.26342930386E+04  0.26342930386E+04  0.25500000920E-02 0. -1.
    10030    2    1    2    0    0  0.00000000000E+00  0.00000000000E+00 -0.21535627271E+04  0.31150233500E+04  0.22506750213E+04 0.  0.
        4    1    3    3  502    0 -0.59142244598E+03 -0.81309659788E+03 -0.37722318986E+03  0.10738740778E+04  0.12699999809E+01 0.  1.
       -4    1    3    3    0  502  0.59142244598E+03  0.81309659788E+03 -0.17763395372E+04  0.20411492722E+04  0.12699999809E+01 0. -1.
</event>
<event>
 5   0  0.8602414E-05  0.2055981E+04  0.7818609E-02  0.8580886E-01
        1   -1    0    0  501    0  0.00000000000E+00  0.00000000000E+00  0.24088499481E+04  0.24088499481E+04  0.50400001928E-02 0. -1.
       -1   -1    0    0    0  501  0.00000000000E+00  0.00000000000E+00 -0.43870080641E+03  0.43870080644E+03  0.50400001928E-02 0.  1.
    10030    2    1    2    0    0  0.00000000000E+00  0.00000000000E+00  0.19701491417E+04  0.28475507545E+04  0.20559809482E+04 0.  0.
        3    1    3    3  502    0  0.68525676054E+03  0.28294952238E+03  0.19713786206E+04  0.21061744790E+04  0.10100000352E+00 0. -1.
       -3    1    3    3    0  502 -0.68525676054E+03 -0.28294952238E+03 -0.12294789319E+01  0.74137627552E+03  0.10100000352E+00 0.  1.
</event>
<event>
 5   0  0.8602414E-05  0.2198534E+04  0.7818609E-02  0.8519038E-01
       -1   -1    0    0    0  501  0.00000000000E+00  0.00000000000E+00  0.12799810633E+04  0.12799810633E+04  0.50400001928E-02 0. -1.
        1   -1    0    0  501    0  0.00000000000E+00  0.00000000000E+00 -0.94406729796E+03  0.94406729797E+03  0.50400001928E-02 0.  1.
    10030    2    1    2    0    0  0.00000000000E+00  0.00000000000E+00  0.33591376537E+03  0.22240483613E+04  0.21985342971E+04 0.  0.
        3    1    3    3  502    0 -0.82721354456E+03  0.61468530093E+03 -0.21893144085E+03  0.10535896988E+04  0.10100000352E+00 0.  1.
       -3    1    3    3    0  502  0.82721354456E+03 -0.61468530093E+03  0.55484520622E+03  0.11704586625E+04  0.10100000352E+00 0. -1.
</event>
<event>
 5   0  0.1754356E-04  0.2216125E+04  0.7818609E-02  0.8511746E-01
        2   -1    0    0  501    0  0.00000000000E+00  0.00000000000E+00  0.10853712736E+04  0.10853712736E+04  0.25500000920E-02 0. -1.
       -2   -1    0    0    0  501  0.00000000000E+00  0.00000000000E+00 -0.11312284901E+04  0.11312284901E+04  0.25500000920E-02 0.  1.
    10030    2    1    2    0    0  0.00000000000E+00  0.00000000000E+00 -0.45857216538E+02  0.22165997637E+04  0.22161253638E+04 0.  0.
        1    1    3    3  502    0 -0.10826007736E+04  0.90127074990E+02 -0.24127692541E+03  0.11128170916E+04  0.50400001928E-02 0. -1.
       -1    1    3    3    0  502  0.10826007736E+04 -0.90127074990E+02  0.19541970887E+03  0.11037826721E+04  0.50400001928E-02 0.  1.
</event>
<event>
 5   0  0.1754356E-04  0.2089606E+04  0.7818609E-02  0.8565836E-01
        2   -1    0    0  501    0  0.00000000000E+00  0.00000000000E+00  0.10433911231E+04  0.10433911231E+04  0.25500000920E-02 0.  1.
       -2   -1    0    0    0  501  0.00000000000E+00  0.00000000000E+00 -0.10462168544E+04  0.10462168544E+04  0.25500000920E-02 0. -1.
    10030    2    1    2    0    0  0.00000000000E+00  0.00000000000E+00 -0.28257313289E+01  0.20896079775E+04  0.20896060669E+04 0.  0.
        1    1    3    3  502    0  0.10373062057E+04  0.12032607658E+03  0.32215271602E+02  0.10447585141E+04  0.50400001928E-02 0.  1.
       -1    1    3    3    0  502 -0.10373062057E+04 -0.12032607658E+03 -0.35041002931E+02  0.10448494633E+04  0.50400001928E-02 0. -1.
</event>
<event>
 5   0  0.1798917E-04  0.2219903E+04  0.7818609E-02  0.8510189E-01
       -2   -1    0    0    0  501  0.00000000000E+00  0.00000000000E+00  0.47337140230E+03  0.47337140230E+03  0.25500000920E-02 0. -1.
        2   -1    0    0  501    0  0.00000000000E+00  0.00000000000E+00 -0.26025916054E+04  0.26025916054E+04  0.25500000920E-02 0.  1.
    10030    2    1    2    0    0  0.00000000000E+00  0.00000000000E+00 -0.21292202031E+04  0.30759630077E+04  0.22199030950E+04 0.  0.
        4    1    3    3  502    0  0.79664532285E+03 -0.15151004499E+03 -0.14460450587E+02  0.81105473408E+03  0.12699999809E+01 0. -1.
       -4    1    3    3    0  502 -0.79664532285E+03  0.15151004499E+03 -0.21147597525E+04  0.22649082736E+04  0.12699999809E+01 0.  1.
</event>
<event>
 5   0  0.1798917E-04  0.2168335E+04  0.7818609E-02  0.8531724E-01
        2   -1    0    0  501    0  0.00000000000E+00  0.00000000000E+00  0.19943212948E+04  0.19943212948E+04  0.25500000920E-02 0. -1.
       -2   -1    0    0    0  501  0.00000000000E+00  0.00000000000E+00 -0.58938313997E+03  0.58938313997E+03  0.25500000920E-02 0.  1.
    10030    2    1    2    0    0  0.00000000000E+00  0.00000000000E+00  0.14049381548E+04  0.25837044348E+04  0.21683351649E+04 0.  0.
        4    1    3    3  502    0 -0.94656799047E+02 -0.59440703603E+03 -0.37201150847E+03  0.70758307599E+03  0.12699999809E+01 0.  1.
       -4    1    3    3    0  502  0.94656799047E+02  0.59440703603E+03  0.17769496633E+04  0.18761213588E+04  0.12699999809E+01 0. -1.
</event>
<event>
 5   0  0.8306787E-05  0.1869169E+04  0.7818609E-02  0.8670357E-01
       -1   -1    0    0    0  501  0.00000000000E+00  0.00000000000E+00  0.50145293584E+03  0.50145293586E+03  0.50400001928E-02 0.  1.
        1   -1    0    0  501    0  0.00000000000E+00  0.00000000000E+00 -0.17418343496E+04  0.17418343496E+04  0.50400001928E-02 0. -1.
    10030    2    1    2    0    0  0.00000000000E+00  0.00000000000E+00 -0.12403814138E+04  0.22432872855E+04  0.18691687440E+04 0.  0.
        1    1    3    3  502    0  0.25558189311E+03 -0.44192166235E+03 -0.15597123282E+04  0.16411335736E+04  0.50400001928E-02 0. -1.
       -1    1    3    3    0  502 -0.25558189311E+03  0.44192166235E+03  0.31933091443E+03  0.60215371184E+03  0.50400001928E-02 0.  1.
</event>
<event>
 5   0  0.8602414E-05  0.2135503E+04  0.7818609E-02  0.8545763E-01
       -1   -1    0    0    0  501  0.00000000000E+00  0.00000000000E+00  0.18918895707E+04  0.18918895708E+04  0.50400001928E-02 0.  1.
        1   -1    0    0  501    0  0.00000000000E+00  0.00000000000E+00 -0.60262161688E+03  0.60262161690E+03  0.50400001928E-02 0. -1.
    10030    2    1    2    0    0  0.00000000000E+00  0.00000000000E+00  0.12892679539E+04  0.24945111877E+04  0.21355032682E+04 0.  0.
        3    1    3    3  502    0  0.46241270963E+03  0.55852831117E+03  0.15601806237E+04  0.17204484814E+04  0.10100000352E+00 0.  1.
       -3    1    3    3    0  502 -0.46241270963E+03 -0.55852831117E+03 -0.27091266979E+03  0.77406270628E+03  0.10100000352E+00 0. -1.
</event>
<event>
 5   0  0.1805501E-04  0.2236165E+04  0.7818609E-02  0.8503524E-01
       -2   -1    0    0    0  501  0.00000000000E+00  0.00000000000E+00  0.25702379913E+04  0.25702379913E+04  0.25500000920E-02 0.  1.
        2   -1    0    0  501    0  0.00000000000E+00  0.00000000000E+00 -0.48637870024E+03  0.48637870025E+03  0.25500000920E-02 0. -1.
    10030    2    1    2    0    0  0.00000000000E+00  0.00000000000E+00  0.20838592911E+04  0.30566166916E+04  0.22361654801E+04 0.  0.
        2    1    3    3  502    0 -0.76190241178E+03 -0.81561770699E+03  0.95145066865E+03  0.14666239818E+04  0.25500000920E-02 0. -1.
       -2    1    3    3    0  502  0.76190241178E+03  0.81561770699E+03  0.11324086224E+04  0.15899927098E+04  0.25500000920E-02 0.  1.
</event>
<event>
 5   0  0.8470971E-05  0.2192931E+04  0.7818609E-02  0.8521376E-01
        1   -1    0    0  501    0  0.00000000000E+00  0.00000000000E+00  0.14573013032E+04  0.14573013032E+04  0.50400001928E-02 0.  1.
       -1   -1    0    0    0  501  0.00000000000E+00  0.00000000000E+00 -0.82497436984E+03  0.82497436985E+03  0.50400001928E-02 0. -1.
    10030    2    1    2    0    0  0.00000000000E+00  0.00000000000E+00  0.63232693333E+03  0.22822756730E+04  0.21929306640E+04 0.  0.
        2    1    3    3  502    0 -0.43570370595E+01  0.49043021751E+03 -0.70445161027E+03  0.85836638636E+03  0.25500000920E-02 0. -1.
       -2    1    3    3    0  502  0.43570370595E+01 -0.49043021751E+03  0.13367785436E+04  0.14239092867E+04  0.25500000920E-02 0.  1.
</event>
<event>
 5   0  0.8784659E-05  0.2207969E+04  0.7818609E-02  0.8515119E-01
       -1   -1    0    0    0  501  0.00000000000E+00  0.00000000000E+00  0.25710189652E+04  0.25710189652E+04  0.50400001928E-02 0.  1.
        1   -1    0    0  501    0  0.00000000000E+00  0.00000000000E+00 -0.47404615659E+03  0.47404615662E+03  0.50400001928E-02 0. -1.
    10030    2    1    2    0    0  0.00000000000E+00  0.00000000000E+00  0.20969728086E+04  0.30450651218E+04  0.22079688938E+04 0.  0.
        4    1    3    3  502    0  0.29138877365E+03 -0.27959681560E+03  0.24654984265E+04  0.24983526373E+04  0.12699999809E+01 0.  1.
       -4    1    3    3    0  502 -0.29138877365E+03  0.27959681560E+03 -0.36852561790E+03  0.54671248444E+03  0.12699999809E+01 0. -1.
</event>
<event>
 5   0  0.8784659E-05  0.2209214E+04  0.7818609E-02  0.8514603E-01
        1   -1    0    0  501    0  0.00000000000E+00  0.00000000000E+00  0.14671523722E+04  0.14671523723E+04  0.50400001928E-02 0. -1.
       -1   -1    0    0    0  501  0.00000000000E+00  0.00000000000E+00 -0.83164975494E+03  0.83164975496E+03  0.50400001928E-02 0.  1.
    10030    2    1    2    0    0  0.00000000000E+00  0.00000000000E+00  0.63550261730E+03  0.22988021272E+04  0.22092142593E+04 0.  0.
        4    1    3    3  502    0 -0.50853215916E+03 -0.95346593872E+03  0.55606506060E+03  0.12152827727E+04  0.12699999809E+01 0. -1.
       -4    1    3    3    0  502  0.50853215916E+03  0.95346593872E+03  0.79437556701E+02  0.10835193545E+04  0.12699999809E+01 0.  1.
</event>
<event>
 5   0  0.1805501E-04  0.2030655E+04  0.7818609E-02  0.8592421E-01
        2   -1    0    0  501    0  0.00000000000E+00  0.00000000000E+00  0.12367507546E+04  0.12367507546E+04  0.25500000920E-02 0.  1.
       -2   -1    0    0    0  501  0.00000000000E+00  0.00000000000E+00 -0.83354703673E+03  0.83354703673E+03  0.25500000920E-02 0. -1.
    10030    2    1    2    0    0  0.00000000000E+00  0.00000000000E+00  0.40320371784E+03  0.20702977913E+04  0.20306549945E+04 0.  0.
        2    1    3    3  502    0  0.15434630004E+03  0.88576677679E+03 -0.27928888938E+03  0.94149235097E+03  0.25500000920E-02 0. -1.
       -2    1    3    3    0  502 -0.15434630004E+03 -0.88576677679E+03  0.68249260723E+03  0.11288054403E+04  0.25500000920E-02 0.  1.
</event>
<event>
 5   0  0.8306787E-05  0.2181757E+04  0.7818609E-02  0.8526060E-01
        1   -1    0    0  501    0  0.00000000000E+00  0.00000000000E+00  0.92220899952E+03  0.92220899954E+03  0.50400001928E-02 0. -1.
       -1   -1    0    0    0  501  0.00000000000E+00  0.00000000000E+00 -0.12903966653E+04  0.12903966653E+04  0.50400001928E-02 0.  1.
    10030    2    1    2    0    0  0.00000000000E+00  0.00000000000E+00 -0.36818766573E+03  0.22126056648E+04  0.21817565562E+04 0.  0.
        1    1    3    3  502    0  0.16408399666E+02 -0.75640447337E+03  0.61289242044E+03  0.97368068789E+03  0.50400001928E-02 0. -1.
       -1    1    3    3    0  502 -0.16408399666E+02  0.75640447337E+03 -0.98108008617E+03  0.12389249769E+04  0.50400001928E-02 0.  1.
</event>
<event>
 5   0  0.1805501E-04  0.2272910E+04  0.7818609E-02  0.8488680E-01
       -2   -1    0    0    0  501  0.00000000000E+00  0.00000000000E+00  0.91593668416E+03  0.91593668416E+03  0.25500000920E-02 0. -1.
        2   -1    0    0  501    0  0.00000000000E+00  0.00000000000E+00 -0.14100645138E+04  0.14100645138E+04  0.25500000920E-02 0.  1.
    10030    2    1    2    0    0  0.00000000000E+00  0.00000000000E+00 -0.49412782967E+03  0.23260011980E+04  0.22729098664E+04 0.  0.
        2    1    3    3  502    0 -0.23040810043E+03 -0.10349701160E+04  0.17148685809E+03  0.10740850880E+04  0.25500000920E-02 0. -1.
       -2    1    3    3    0  502  0.23040810043E+03  0.10349701160E+04 -0.66561468776E+03  0.12519161100E+04  0.25500000920E-02 0.  1.
</event>
<event>
 5   0  0.1805501E-04  0.2209283E+04  0.7818609E-02  0.8514574E-01
       -2   -1    0    0    0  501  0.00000000000E+00  0.00000000000E+00  0.77518274719E+03  0.77518274719E+03  0.25500000920E-02 0.  1.
        2   -1    0    0  501    0  0.00000000000E+00  0.00000000000E+00 -0.15741233955E+04  0.15741233955E+04  0.25500000920E-02 0. -1.
    10030    2    1    2    0    0  0.00000000000E+00  0.00000000000E+00 -0.79894064832E+03  0.23493061427E+04  0.22092834116E+04 0.  0.
        2    1    3    3  502    0  0.28995346148E+03 -0.10635796453E+04 -0.47435084896E+03  0.12001180774E+04  0.25500000920E-02 0. -1.
       -2    1    3    3    0  502 -0.28995346148E+03  0.10635796453E+04 -0.32458979936E+03  0.11491880653E+04  0.25500000920E-02 0.  1.
</event>
<event>
 5   0  0.1805501E-04  0.2419275E+04  0.7818609E-02  0.8432322E-01
        2   -1    0    0  501    0  0.00000000000E+00  0.00000000000E+00  0.95052204907E+03  0.95052204907E+03  0.25500000920E-02 0.  1.
       -2   -1    0    0    0  501  0.00000000000E+00  0.00000000000E+00 -0.15393884015E+04  0.15393884015E+04  0.25500000920E-02 0. -1.
    10030    2    1    2    0    0  0.00000000000E+00  0.00000000000E+00 -0.58886635247E+03  0.24899104506E+04  0.24192747820E+04 0.  0.
        2    1    3    3  502    0  0.81743741723E+02 -0.11255327936E+04  0.15384860790E+03  0.11389361277E+04  0.25500000920E-02 0.  1.
       -2    1    3    3    0  502 -0.81743741723E+02  0.11255327936E+04 -0.74271496038E+03  0.13509743229E+04  0.25500000920E-02 0. -1.
</event>
<event>
 5   0  0.1754356E-04  0.2279974E+04  0.7818609E-02  0.8485859E-01
       -2   -1    0    0    0  501  0.00000000000E+00  0.00000000000E+00  0.66776786577E+03  0.66776786578E+03  0.25500000920E-02 0. -1.
        2   -1    0    0  501    0  0.00000000000E+00  0.00000000000E+00 -0.19461416932E+04  0.19461416932E+04  0.25500000920E-02 0.  1.
    10030    2    1    2    0    0  0.00000000000E+00  0.00000000000E+00 -0.12783738274E+04  0.26139095590E+04  0.22799744603E+04 0.  0.
        1    1    3    3  502    0  0.84472447406E+03  0.43553408518E+03 -0.13609329308E+04  0.16599360887E+04  0.50400001928E-02 0. -1.
       -1    1    3    3    0  502 -0.84472447406E+03 -0.43553408518E+03  0.82559103354E+02  0.95397347028E+03  0.50400001928E-02 0.  1.
</event>
<event>
 5   0  0.8470971E-05  0.2317629E+04  0.7818609E-02  0.8471002E-01
       -1   -1    0    0    0  501  0.00000000000E+00  0.00000000000E+00  0.86053528323E+03  0.86053528325E+03  0.50400001928E-02 0. -1.
        1   -1    0    0  501    0  0.00000000000E+00  0.00000000000E+00 -0.15604836295E+04  0.15604836295E+04  0.50400001928E-02 0.  1.
    10030    2    1    2    0    0  0.00000000000E+00  0.00000000000E+00 -0.69994834623E+03  0.24210189127E+04  0.23176291525E+04 0.  0.
        2    1    3    3  502    0  0.19701927134E+03  0.31870446335E+03 -0.14954605654E+04  0.15416846082E+04  0.25500000920E-02 0.  1.
       -2    1    3    3    0  502 -0.19701927134E+03 -0.31870446335E+03  0.79551221922E+03  0.87933430455E+03  0.25500000920E-02 0. -1.
</event>
<event>
 5   0  0.1798917E-04  0.2211983E+04  0.7818609E-02  0.8513457E-01
        2   -1    0    0  501    0  0.00000000000E+00  0.00000000000E+00  0.96942321645E+03  0.96942321645E+03  0.25500000920E-02 0. -1.
       -2   -1    0    0    0  501  0.00000000000E+00  0.00000000000E+00 -0.12617993984E+04  0.12617993984E+04  0.25500000920E-02 0.  1.
    10030    2    1    2    0    0  0.00000000000E+00  0.00000000000E+00 -0.29237618192E+03  0.22312226148E+04  0.22119833917E+04 0.  0.
        4    1    3    3  502    0  0.60995684582E+03 -0.38561574668E+03 -0.99161228609E+03  0.12263944703E+04  0.12699999809E+01 0. -1.
       -4    1    3    3    0  502 -0.60995684582E+03  0.38561574668E+03  0.69923610416E+03  0.10048281446E+04  0.12699999809E+01 0.  1.
</event>
<event>
 5   0  0.1680258E-04  0.2214390E+04  0.7818609E-02  0.8512463E-01
        2   -1    0    0  501    0  0.00000000000E+00  0.00000000000E+00  0.26028131145E+04  0.26028131145E+04  0.25500000920E-02 0. -1.
       -2   -1    0    0    0  501  0.00000000000E+00  0.00000000000E+00 -0.47098292588E+03  0.47098292588E+03  0.25500000920E-02 0.  1.
    10030    2    1    2    0    0  0.00000000000E+00  0.00000000000E+00  0.21318301886E+04  0.30737960404E+04  0.22143897906E+04 0.  0.
        5    1    3    3  502    0  0.87482325714E+03  0.51010493497E+03  0.16872133267E+04  0.19677991960E+04  0.46999998093E+01 0. -1.
       -5    1    3    3    0  502 -0.87482325714E+03 -0.51010493497E+03  0.44461686190E+03  0.11059968444E+04  0.46999998093E+01 0.  1.
</event>
<event>
 5   0  0.7954459E-05  0.2188374E+04  0.7818609E-02  0.8523283E-01
        1   -1    0    0  501    0  0.00000000000E+00  0.00000000000E+00  0.57735779268E+03  0.57735779270E+03  0.50400001928E-02 0.  1.
       -1   -1    0    0    0  501  0.00000000000E+00  0.00000000000E+00 -0.20736629910E+04  0.20736629910E+04  0.50400001928E-02 0. -1.
    10030    2    1    2    0    0  0.00000000000E+00  0.00000000000E+00 -0.14963051984E+04  0.26510207838E+04  0.21883742708E+04 0.  0.
        5    1    3    3  502    0  0.18401342549E+03  0.37520591514E+03 -0.19731659223E+04  0.20169398271E+04  0.46999998093E+01 0. -1.
       -5    1    3    3    0  502 -0.18401342549E+03 -0.37520591514E+03  0.47686072391E+03  0.63408095660E+03  0.46999998093E+01 0.  1.
</event>
<event>
 5   0  0.1680258E-04  0.2231645E+04  0.7818609E-02  0.8505371E-01
       -2   -1    0    0    0  501  0.00000000000E+00  0.00000000000E+00  0.91245862683E+03  0.91245862683E+03  0.25500000920E-02 0.  1.
        2   -1    0    0  501    0  0.00000000000E+00  0.00000000000E+00 -0.13645111328E+04  0.13645111328E+04  0.25500000920E-02 0. -1.
    10030    2    1    2    0    0  0.00000000000E+00  0.00000000000E+00 -0.45205250593E+03  0.22769697596E+04  0.22316450923E+04 0.  0.
        5    1    3    3  502    0 -0.63764052097E+02  0.80037035512E+03 -0.10166047385E+04  0.12954404055E+04  0.46999998093E+01 0. -1.
       -5    1    3    3    0  502  0.63764052097E+02 -0.80037035512E+03  0.56455223260E+03  0.98152935413E+03  0.46999998093E+01 0.  1.
</event>
<event>
 5   0  0.7954459E-05  0.2204684E+04  0.7818609E-02  0.8516481E-01
       -1   -1    0    0    0  501  0.00000000000E+00  0.00000000000E+00  0.70946773620E+03  0.70946773622E+03  0.50400001928E-02 0. -1.
        1   -1    0    0  501    0  0.00000000000E+00  0.00000000000E+00 -0.17127743491E+04  0.17127743491E+04  0.50400001928E-02 0.  1.
    10030    2    1    2    0    0  0.00000000000E+00  0.00000000000E+00 -0.10033066129E+04  0.24222420853E+04  0.22046842314E+04 0.  0.
        5    1    3    3  502    0 -0.10832926551E+04 -0.20398154018E+03 -0.49929566460E+03  0.12101444938E+04  0.46999998093E+01 0.  1.
       -5    1    3    3    0  502  0.10832926551E+04  0.20398154018E+03 -0.50401094827E+03  0.12120975915E+04  0.46999998093E+01 0. -1.
</event>
<event>
 5   0  0.1680258E-04  0.1821227E+04  0.7818609E-02  0.8695092E-01
       -2   -1    0    0    0  501  0.00000000000E+00  0.00000000000E+00  0.93102136107E+03  0.93102136107E+03  0.25500000920E-02 0. -1.
        2   -1    0    0  501    0  0.00000000000E+00  0.00000000000E+00 -0.89065288658E+03  0.89065288658E+03  0.25500000920E-02 0.  1.
    10030    2    1    2    0    0  0.00000000000E+00  0.00000000000E+00  0.40368474493E+02  0.18216742477E+04  0.18212269081E+04 0.  0.
        5    1    3    3  502    0 -0.36130116955E+03  0.42707008790E+03  0.73887820932E+03  0.92676345057E+03  0.46999998093E+01 0. -1.
       -5    1    3    3    0  502  0.36130116955E+03 -0.42707008790E+03 -0.69850973483E+03  0.89491079709E+03  0.46999998093E+01 0.  1.
</event>
<event>
 5   0  0.1805501E-04  0.2203220E+04  0.7818609E-02  0.8517089E-01
        2   -1    0    0  501    0  0.00000000000E+00  0.00000000000E+00  0.71118558424E+03  0.71118558425E+03  0.25500000920E-02 0.  1.
       -2   -1    0    0    0  501  0.00000000000E+00  0.00000000000E+00 -0.17063677729E+04  0.17063677729E+04  0.25500000920E-02 0. -1.
    10030    2    1    2    0    0  0.00000000000E+00  0.00000000000E+00 -0.99518218870E+03  0.24175533572E+04  0.22032196092E+04 0.  0.
        2    1    3    3  502    0 -0.77656325852E+03  0.71401705879E+03 -0.84574834719E+03  0.13520950860E+04  0.25500000920E-02 0. -1.
       -2    1    3    3    0  502  0.77656325852E+03 -0.71401705879E+03 -0.14943384151E+03  0.10654582712E+04  0.25500000920E-02 0.  1.
</event>
<event>
 5   0  0.8306787E-05  0.2147526E+04  0.7818609E-02  0.8540592E-01
       -1   -1    0    0    0  501  0.00000000000E+00  0.00000000000E+00  0.89766606129E+03  0.89766606131E+03  0.50400001928E-02 0.  1.
        1   -1    0    0  501    0  0.00000000000E+00  0.00000000000E+00 -0.12844049790E+04  0.12844049790E+04  0.50400001928E-02 0. -1.
    10030    2    1    2    0    0  0.00000000000E+00  0.00000000000E+00 -0.38673891772E+03  0.21820710403E+04  0.21475257937E+04 0.  0.
        1    1    3    3  502    0 -0.31448059271E+03 -0.94646874503E+03 -0.59759504767E+03  0.11626783603E+04  0.50400001928E-02 0. -1.
       -1    1    3    3    0  502  0.31448059271E+03  0.94646874503E+03  0.21085612996E+03  0.10193926800E+04  0.50400001928E-02 0.  1.
</event>
<event>
 5   0  0.8602414E-05  0.2215438E+04  0.7818609E-02  0.8512030E-01
       -1   -1    0    0    0  501  0.00000000000E+00  0.00000000000E+00  0.70757664262E+03  0.70757664264E+03  0.50400001928E-02 0. -1.
        1   -1    0    0  501    0  0.00000000000E+00  0.00000000000E+00 -0.17341465143E+04  0.17341465143E+04  0.50400001928E-02 0.  1.
    10030    2    1    2    0    0  0.00000000000E+00  0.00000000000E+00 -0.10265698717E+04  0.24417231570E+04  0.22154381674E+04 0.  0.
        3    1    3    3  502    0 -0.36092714457E+03 -0.11534898495E+03  0.63392998336E+03  0.73853979312E+03  0.10100000352E+00 0. -1.
       -3    1    3    3    0  502  0.36092714457E+03  0.11534898495E+03 -0.16604998551E+04  0.17031833639E+04  0.10100000352E+00 0.  1.
</event>
<event>
 5   0  0.1798917E-04  0.2184493E+04  0.7818609E-02  0.8524910E-01
        2   -1    0    0  501    0  0.00000000000E+00  0.00000000000E+00  0.13941830634E+04  0.13941830634E+04  0.25500000920E-02 0. -1.
       -2   -1    0    0    0  501  0.00000000000E+00  0.00000000000E+00 -0.85570012676E+03  0.85570012676E+03  0.25500000920E-02 0.  1.
    10030    2    1    2    0    0  0.00000000000E+00  0.00000000000E+00  0.53848293666E+03  0.22498831902E+04  0.21844931898E+04 0.  0.
        4    1    3    3  502    0  0.24236716272E+03  0.10619995805E+04  0.35173948485E+03  0.11446865198E+04  0.12699999809E+01 0.  1.
       -4    1    3    3    0  502 -0.24236716272E+03 -0.10619995805E+04  0.18674345181E+03  0.11051966704E+04  0.12699999809E+01 0. -1.
</event>
<event>
 5   0  0.1798917E-04  0.2401031E+04  0.7818609E-02  0.8439118E-01
       -2   -1    0    0    0  501  0.00000000000E+00  0.00000000000E+00  0.11375844255E+04  0.11375844255E+04  0.25500000920E-02 0. -1.
        2   -1    0    0  501    0  0.00000000000E+00  0.00000000000E+00 -0.12669282318E+04  0.12669282318E+04  0.25500000920E-02 0.  1.
    10030    2    1    2    0    0  0.00000000000E+00  0.00000000000E+00 -0.12934380632E+03  0.24045126572E+04  0.24010312990E+04 0.  0.
        4    1    3    3  502    0  0.40813888178E+03 -0.12587221862E+03 -0.11882679675E+04  0.12626969303E+04  0.12699999809E+01 0.  1.
       -4    1    3    3    0  502 -0.40813888178E+03  0.12587221862E+03  0.10589241612E+04  0.11418157269E+04  0.12699999809E+01 0. -1.
</event>
<event>
 5   0  0.1754356E-04  0.2196877E+04  0.7818609E-02  0.8519729E-01
       -2   -1    0    0    0  501  0.00000000000E+00  0.00000000000E+00  0.58929271667E+03  0.58929271668E+03  0.25500000920E-02 0. -1.
        2   -1    0    0  501    0  0.00000000000E+00  0.00000000000E+00 -0.20474834851E+04  0.20474834851E+04  0.25500000920E-02 0.  1.
    10030    2    1    2    0    0  0.00000000000E+00  0.00000000000E+00 -0.14581907684E+04  0.26367762018E+04  0.21968769699E+04 0.  0.
        1    1    3    3  502    0 -0.66180531409E+02 -0.10726471539E+04 -0.45641313297E+03  0.11675892803E+04  0.50400001928E-02 0. -1.
       -1    1    3    3    0  502  0.66180531409E+02  0.10726471539E+04 -0.10017776354E+04  0.14691869215E+04  0.50400001928E-02 0.  1.
</event>
<event>
 5   0  0.1680258E-04  0.1665243E+04  0.7818609E-02  0.8781439E-01
       -2   -1    0    0    0  501  0.00000000000E+00  0.00000000000E+00  0.54502045763E+03  0.54502045763E+03  0.25500000920E-02 0.  1.
        2   -1    0    0  501    0  0.00000000000E+00  0.00000000000E+00 -0.12719869771E+04  0.12719869771E+04  0.25500000920E-02 0. -1.
    10030    2    1    2    0    0  0.00000000000E+00  0.00000000000E+00 -0.72696651949E+03  0.18170074348E+04  0.16652434349E+04 0.  0.
        5    1    3    3  502    0 -0.29374365625E+03 -0.54881320850E+03  0.23986234935E+03  0.66711116768E+03  0.46999998093E+01 0.  1.
       -5    1    3    3    0  502  0.29374365625E+03  0.54881320850E+03 -0.96682886885E+03  0.11498962671E+04  0.46999998093E+01 0. -1.
</event>
<event>
 5   0  0.8602414E-05  0.2235213E+04  0.7818609E-02  0.8503913E-01
       -1   -1    0    0    0  501  0.00000000000E+00  0.00000000000E+00  0.10327067776E+04  0.10327067776E+04  0.50400001928E-02 0. -1.
        1   -1    0    0  501    0  0.00000000000E+00  0.00000000000E+00 -0.12094861292E+04  0.12094861292E+04  0.50400001928E-02 0.  1.
    10030    2    1    2    0    0  0.00000000000E+00  0.00000000000E+00 -0.17677935157E+03  0.22421929068E+04  0.22352132096E+04 0.  0.
        3    1    3    3  502    0 -0.49574161097E+03 -0.86517707953E+03 -0.59469676008E+03  0.11610148020E+04  0.10100000352E+00 0.  1.
       -3    1    3    3    0  502  0.49574161097E+03  0.86517707953E+03  0.41791740851E+03  0.10811781048E+04  0.10100000352E+00 0. -1.
</event>
<event>
 5   0  0.8306787E-05  0.1977221E+04  0.7818609E-02  0.8617345E-01
        1   -1    0    0  501    0  0.00000000000E+00  0.00000000000E+00  0.15963643622E+04  0.15963643622E+04  0.50400001928E-02 0. -1.
       -1   -1    0    0    0  501  0.00000000000E+00  0.00000000000E+00 -0.61223553507E+03  0.61223553509E+03  0.50400001928E-02 0.  1.
    10030    2    1    2    0    0  0.00000000000E+00  0.00000000000E+00  0.98412882715E+03  0.22085998973E+04  0.19772212719E+04 0.  0.
        1    1    3    3  502    0 -0.76670906975E+03 -0.32795182564E+03  0.10851976815E+04  0.13685938789E+04  0.50400001928E-02 0. -1.
       -1    1    3    3    0  502  0.76670906975E+03  0.32795182564E+03 -0.10106885432E+03  0.84000601838E+03  0.50400001928E-02 0.  1.
</event>
<event>
 5   0  0.1805501E-04  0.2081912E+04  0.7818609E-02  0.8569254E-01
        2   -1    0    0  501    0  0.00000000000E+00  0.00000000000E+00  0.19068605393E+04  0.19068605393E+04  0.25500000920E-02 0. -1.
       -2   -1    0    0    0  501  0.00000000000E+00  0.00000000000E+00 -0.56825811658E+03  0.56825811658E+03  0.25500000920E-02 0.  1.
    10030    2    1    2    0    0  0.00000000000E+00  0.00000000000E+00  0.13386024227E+04  0.24751186559E+04  0.20819116011E+04 0.  0.
        2    1    3    3  502    0  0.36194002767E+03 -0.28888418001E+03  0.17776518849E+04  0.18369814580E+04  0.25500000920E-02 0. -1.
       -2    1    3    3    0  502 -0.36194002767E+03  0.28888418001E+03 -0.43904946218E+03  0.63813719790E+03  0.25500000920E-02 0.  1.
</event>
<event>
 5   0  0.7954459E-05  0.2217440E+04  0.7818609E-02  0.8511204E-01
        1   -1    0    0  501    0  0.00000000000E+00  0.00000000000E+00  0.98049166008E+03  0.98049166010E+03  0.50400001928E-02 0.  1.
       -1   -1    0    0    0  501  0.00000000000E+00  0.00000000000E+00 -0.12537175666E+04  0.12537175666E+04  0.50400001928E-02 0. -1.
    10030    2    1    2    0    0  0.00000000000E+00  0.00000000000E+00 -0.27322590652E+03  0.22342092267E+04  0.22174396210E+04 0.  0.
        5    1    3    3  502    0  0.39207796347E+03  0.90482964633E+03  0.37396954006E+03  0.10546644610E+04  0.46999998093E+01 0.  1.
       -5    1    3    3    0  502 -0.39207796347E+03 -0.90482964633E+03 -0.64719544658E+03  0.11795447657E+04  0.46999998093E+01 0. -1.
</event>
<event>
 5   0  0.8602414E-05  0.1901404E+04  0.7818609E-02  0.8654158E-01
        1   -1    0    0  501    0  0.00000000000E+00  0.00000000000E+00  0.23893258076E+04  0.23893258076E+04  0.50400001928E-02 0. -1.
       -1   -1    0    0    0  501  0.00000000000E+00  0.00000000000E+00 -0.37827986916E+03  0.37827986919E+03  0.50400001928E-02 0.  1.
    10030    2    1    2    0    0  0.00000000000E+00  0.00000000000E+00  0.20110459385E+04  0.27676056768E+04  0.19014035384E+04 0.  0.
        3    1    3    3  502    0 -0.29547943895E+03 -0.15519520620E+03  0.23012489367E+04  0.23253258545E+04  0.10100000352E+00 0. -1.
       -3    1    3    3    0  502  0.29547943895E+03  0.15519520620E+03 -0.29020299820E+03  0.44227982233E+03  0.10100000352E+00 0.  1.
</event>
<event>
 5   0  0.8470971E-05  0.2210858E+04  0.7818609E-02  0.8513922E-01
       -1   -1    0    0    0  501  0.00000000000E+00  0.00000000000E+00  0.11775918385E+04  0.11775918386E+04  0.50400001928E-02 0. -1.
        1   -1    0    0  501    0  0.00000000000E+00  0.00000000000E+00 -0.10376887649E+04  0.10376887649E+04  0.50400001928E-02 0.  1.
    10030    2    1    2    0    0  0.00000000000E+00  0.00000000000E+00  0.13990307364E+03  0.22152806035E+04  0.22108584944E+04 0.  0.
        2    1    3    3  502    0 -0.10043287926E+04 -0.31441819857E+03 -0.26901298401E+03  0.10862334523E+04  0.25500000920E-02 0.  1.
       -2    1    3    3    0  502  0.10043287926E+04  0.31441819857E+03  0.40891605765E+03  0.11290471512E+04  0.25500000920E-02 0. -1.
</event>
<event>
 5   0  0.1805501E-04  0.2203495E+04  0.7818609E-02  0.8516975E-01
        2   -1    0    0  501    0  0.00000000000E+00  0.00000000000E+00  0.93750338664E+03  0.93750338664E+03  0.25500000920E-02 0.  1.
       -2   -1    0    0    0  501  0.00000000000E+00  0.00000000000E+00 -0.12947665409E+04  0.12947665409E+04  0.25500000920E-02 0. -1.
    10030    2    1    2    0    0  0.00000000000E+00  0.00000000000E+00 -0.35726315424E+03  0.22322699275E+04  0.22034954205E+04 0.  0.
        2    1    3    3  502    0  0.62347966962E+03 -0.43017353172E+03 -0.98912392810E+03  0.12458500355E+04  0.25500000920E-02 0. -1.
       -2    1    3    3    0  502 -0.62347966962E+03  0.43017353172E+03  0.63186077386E+03  0.98641989202E+03  0.25500000920E-02 0.  1.
</event>
<event>
 5   0  0.1733962E-04  0.2210523E+04  0.7818609E-02  0.8514061E-01
        2   -1    0    0  501    0  0.00000000000E+00  0.00000000000E+00  0.12550372795E+04  0.12550372795E+04  0.25500000920E-02 0.  1.
       -2   -1    0    0    0  501  0.00000000000E+00  0.00000000000E+00 -0.97335958318E+03  0.97335958319E+03  0.25500000920E-02 0. -1.
    10030    2    1    2    0    0  0.00000000000E+00  0.00000000000E+00  0.28167769636E+03  0.22283968627E+04  0.22105226199E+04 0.  0.
        3    1    3    3  502    0  0.61749477483E+03 -0.91355505295E+03  0.64597142371E+02  0.11045611947E+04  0.10100000352E+00 0. -1.
       -3    1    3    3    0  502 -0.61749477483E+03  0.91355505295E+03  0.21708055399E+03  0.11238356681E+04  0.10100000352E+00 0.  1.
</event>
<event>
 5   0  0.7954459E-05  0.2313349E+04  0.7818609E-02  0.8472676E-01
        1   -1    0    0  501    0  0.00000000000E+00  0.00000000000E+00  0.19730651174E+04  0.19730651174E+04  0.50400001928E-02 0.  1.
       -1   -1    0    0    0  501  0.00000000000E+00  0.00000000000E+00 -0.67808023464E+03  0.67808023466E+03  0.50400001928E-02 0. -1.
    10030    2    1    2    0    0  0.00000000000E+00  0.00000000000E+00  0.12949848828E+04  0.26511453521E+04  0.23133494832E+04 0.  0.
        5    1    3    3  502    0 -0.34381393671E+03 -0.50357279058E+03 -0.47892408730E+03  0.77536052897E+03  0.46999998093E+01 0. -1.
       -5    1    3    3    0  502  0.34381393671E+03  0.50357279058E+03  0.17739089701E+04  0.18757848231E+04  0.46999998093E+01 0.  1.
</event>
<event>
 5   0  0.8306787E-05  0.2286085E+04  0.7818609E-02  0.8483428E-01
       -1   -1    0    0    0  501  0.00000000000E+00  0.00000000000E+00  0.11777070852E+04  0.11777070853E+04  0.50400001928E-02 0. -1.
        1   -1    0    0  501    0  0.00000000000E+00  0.00000000000E+00 -0.11093977501E+04  0.11093977501E+04  0.50400001928E-02 0.  1.
    10030    2    1    2    0    0  0.00000000000E+00  0.00000000000E+00  0.68309335178E+02  0.22871048353E+04  0.22860845047E+04 0.  0.
        1    1    3    3  502    0 -0.10765924174E+02 -0.89882329165E+03  0.74054797162E+03  0.11646503823E+04  0.50400001928E-02 0. -1.
       -1    1    3    3    0  502  0.10765924174E+02  0.89882329165E+03 -0.67223863644E+03  0.11224544530E+04  0.50400001928E-02 0.  1.
</event>
<event>
 5   0  0.7954459E-05  0.2237271E+04  0.7818609E-02  0.8503073E-01
        1   -1    0    0  501    0  0.00000000000E+00  0.00000000000E+00  0.13677947183E+04  0.13677947183E+04  0.50400001928E-02 0.  1.
       -1   -1    0    0    0  501  0.00000000000E+00  0.00000000000E+00 -0.91486326358E+03  0.91486326360E+03  0.50400001928E-02 0. -1.
    10030    2    1    2    0    0  0.00000000000E+00  0.00000000000E+00  0.45293145471E+03  0.22826579819E+04  0.22372707837E+04 0.  0.
        5    1    3    3  502    0  0.83891229583E+03 -0.27784713031E+03  0.92619968675E+03  0.12801721828E+04  0.46999998093E+01 0.  1.
       -5    1    3    3    0  502 -0.83891229583E+03  0.27784713031E+03 -0.47326823204E+03  0.10024857991E+04  0.46999998093E+01 0. -1.
</event>
<event>
 5   0  0.1680258E-04  0.1864308E+04  0.7818609E-02  0.8672829E-01
       -2   -1    0    0    0  501  0.00000000000E+00  0.00000000000E+00  0.58534055932E+03  0.58534055932E+03  0.25500000920E-02 0. -1.
        2   -1    0    0  501    0  0.00000000000E+00  0.00000000000E+00 -0.14844544882E+04  0.14844544882E+04  0.25500000920E-02 0.  1.
    10030    2    1    2    0    0  0.00000000000E+00  0.00000000000E+00 -0.89911392885E+03  0.20697950475E+04  0.18643083655E+04 0.  0.
        5    1    3    3  502    0 -0.59961762547E+03 -0.21332270654E+03  0.30656939092E+03  0.70643807609E+03  0.46999998093E+01 0. -1.
       -5    1    3    3    0  502  0.59961762547E+03  0.21332270654E+03 -0.12056833198E+04  0.13633569714E+04  0.46999998093E+01 0.  1.
</event>
<event>
 5   0  0.1805501E-04  0.2203411E+04  0.7818609E-02  0.8517010E-01
        2   -1    0    0  501    0  0.00000000000E+00  0.00000000000E+00  0.18984034752E+04  0.18984034752E+04  0.25500000920E-02 0.  1.
       -2   -1    0    0    0  501  0.00000000000E+00  0.00000000000E+00 -0.63935537498E+03  0.63935537499E+03  0.25500000920E-02 0. -1.
    10030    2    1    2    0    0  0.00000000000E+00  0.00000000000E+00  0.12590481002E+04  0.25377588501E+04  0.22034105071E+04 0.  0.
        2    1    3    3  502    0  0.26346720309E+03 -0.83304600798E+03  0.14024564574E+04  0.16523512743E+04  0.25500000920E-02 0.  1.
       -2    1    3    3    0  502 -0.26346720309E+03  0.83304600798E+03 -0.14340835726E+03  0.88540757590E+03  0.25500000920E-02 0. -1.
</event>
<event>
 5   0  0.1805501E-04  0.2208580E+04  0.7818609E-02  0.8514866E-01
        2   -1    0    0  501    0  0.00000000000E+00  0.00000000000E+00  0.10412817219E+04  0.10412817219E+04  0.25500000920E-02 0. -1.
       -2   -1    0    0    0  501  0.00000000000E+00  0.00000000000E+00 -0.11711106523E+04  0.11711106523E+04  0.25500000920E-02 0.  1.
    10030    2    1    2    0    0  0.00000000000E+00  0.00000000000E+00 -0.12982893032E+03  0.22123923742E+04  0.22085797396E+04 0.  0.
        2    1    3    3  502    0 -0.15262295238E+03 -0.10060697634E+04 -0.49459080187E+03  0.11314107104E+04  0.25500000920E-02 0. -1.
       -2    1    3    3    0  502  0.15262295238E+03  0.10060697634E+04  0.36476187155E+03  0.10809816637E+04  0.25500000920E-02 0.  1.
</event>
<event>
 5   0  0.1680258E-04  0.2287432E+04  0.7818609E-02  0.8482893E-01
       -2   -1    0    0    0  501  0.00000000000E+00  0.00000000000E+00  0.94366978664E+03  0.94366978665E+03  0.25500000920E-02 0. -1.
        2   -1    0    0  501    0  0.00000000000E+00  0.00000000000E+00 -0.13861692966E+04  0.13861692966E+04  0.25500000920E-02 0.  1.
    10030    2    1    2    0    0  0.00000000000E+00  0.00000000000E+00 -0.44249950991E+03  0.23298390832E+04  0.22874318214E+04 0.  0.
        5    1    3    3  502    0 -0.11420518513E+04  0.34423922563E+02 -0.27315087026E+03  0.11747769683E+04  0.46999998093E+01 0. -1.
       -5    1    3    3    0  502  0.11420518513E+04 -0.34423922563E+02 -0.16934863966E+03  0.11550621149E+04  0.46999998093E+01 0.  1.
</event>
<event>
 5   0  0.1754356E-04  0.2231583E+04  0.7818609E-02  0.8505396E-01
       -2   -1    0    0    0  501  0.00000000000E+00  0.00000000000E+00  0.10086994113E+04  0.10086994113E+04  0.25500000920E-02 0.  1.
        2   -1    0    0  501    0  0.00000000000E+00  0.00000000000E+00 -0.12342535283E+04  0.12342535283E+04  0.25500000920E-02 0. -1.
    10030    2    1    2    0    0  0.00000000000E+00  0.00000000000E+00 -0.22555411704E+03  0.22429529396E+04  0.22315831218E+04 0.  0.
        1    1    3    3  502    0 -0.30496332464E+03  0.40900696791E+03  0.88460003218E+03  0.10211789981E+04  0.50400001928E-02 0.  1.
       -1    1    3    3    0  502  0.30496332464E+03 -0.40900696791E+03 -0.11101541492E+04  0.12217739415E+04  0.50400001928E-02 0. -1.
</event>
<event>
 5   0  0.1805501E-04  0.1927884E+04  0.7818609E-02  0.8641100E-01
        2   -1    0    0  501    0  0.00000000000E+00  0.00000000000E+00  0.24301499810E+04  0.24301499811E+04  0.25500000920E-02 0. -1.
       -2   -1    0    0    0  501  0.00000000000E+00  0.00000000000E+00 -0.38235682537E+03  0.38235682537E+03  0.25500000920E-02 0.  1.
    10030    2    1    2    0    0  0.00000000000E+00  0.00000000000E+00  0.20477931557E+04  0.28125068064E+04  0.19278842620E+04 0.  0.
        2    1    3    3  502    0  0.31096767226E+03  0.90730143444E+03  0.88330301192E+03  0.13038868804E+04  0.25500000920E-02 0. -1.
       -2    1    3    3    0  502 -0.31096767226E+03 -0.90730143444E+03  0.11644901438E+04  0.15086199260E+04  0.25500000920E-02 0.  1.
</event>
<event>
 5   0  0.1754356E-04  0.2265951E+04  0.7818609E-02  0.8491469E-01
        2   -1    0    0  501    0  0.00000000000E+00  0.00000000000E+00  0.15698595787E+04  0.15698595787E+04  0.25500000920E-02 0. -1.
       -2   -1    0    0    0  501  0.00000000000E+00  0.00000000000E+00 -0.81767381720E+03  0.81767381721E+03  0.25500000920E-02 0.  1.
    10030    2    1    2    0    0  0.00000000000E+00  0.00000000000E+00  0.75218576146E+03  0.23875333959E+04  0.22659506386E+04 0.  0.
        1    1    3    3  502    0 -0.43094059089E+03 -0.80167989791E+03  0.10870046406E+04  0.14177374723E+04  0.50400001928E-02 0. -1.
       -1    1    3    3    0  502  0.43094059089E+03  0.80167989791E+03 -0.33481887913E+03  0.96979592360E+03  0.50400001928E-02 0.  1.
</event>
<event>
 5   0  0.8784659E-05  0.2205184E+04  0.7818609E-02  0.8516273E-01
        1   -1    0    0  501    0  0.00000000000E+00  0.00000000000E+00  0.86134328172E+03  0.86134328174E+03  0.50400001928E-02 0. -1.
       -1   -1    0    0    0  501  0.00000000000E+00  0.00000000000E+00 -0.14114108389E+04  0.14114108389E+04  0.50400001928E-02 0.  1.
    10030    2    1    2    0    0  0.00000000000E+00  0.00000000000E+00 -0.55006755721E+03  0.22727541207E+04  0.22051841138E+04 0.  0.
        4    1    3    3  502    0 -0.69353657370E+03 -0.85492092808E+03 -0.33877425353E+03  0.11518039677E+04  0.12699999809E+01 0.  1.
       -4    1    3    3    0  502  0.69353657370E+03  0.85492092808E+03 -0.21129330367E+03  0.11209501529E+04  0.12699999809E+01 0. -1.
</event>
<event>
 5   0  0.8784659E-05  0.2122281E+04  0.7818609E-02  0.8551491E-01
       -1   -1    0    0    0  501  0.00000000000E+00  0.00000000000E+00  0.11066768098E+04  0.11066768098E+04  0.50400001928E-02 0.  1.
        1   -1    0    0  501    0  0.00000000000E+00  0.00000000000E+00 -0.10174779693E+04  0.10174779694E+04  0.50400001928E-02 0. -1.
    10030    2    1    2    0    0  0.00000000000E+00  0.00000000000E+00  0.89198840427E+02  0.21241547791E+04  0.21222811059E+04 0.  0.
        4    1    3    3  502    0  0.12265612523E+03 -0.29570596331E+01 -0.10103540882E+04  0.10177771198E+04  0.12699999809E+01 0. -1.
       -4    1    3    3    0  502 -0.12265612523E+03  0.29570596331E+01  0.10995529286E+04  0.11063776593E+04  0.12699999809E+01 0.  1.
</event>
<event>
 5   0  0.8784659E-05  0.2213025E+04  0.7818609E-02  0.8513026E-01
       -1   -1    0    0    0  501  0.00000000000E+00  0.00000000000E+00  0.75298119321E+03  0.75298119323E+03  0.50400001928E-02 0.  1.
        1   -1    0    0  501    0  0.00000000000E+00  0.00000000000E+00 -0.16260305205E+04  0.16260305205E+04  0.50400001928E-02 0. -1.
    10030    2    1    2    0    0  0.00000000000E+00  0.00000000000E+00 -0.87304932730E+03  0.23790117137E+04  0.22130254418E+04 0.  0.
        4    1    3    3  502    0 -0.47276877781E+03 -0.90869996921E+03  0.13339673680E+02  0.10244147164E+04  0.12699999809E+01 0.  1.
       -4    1    3    3    0  502  0.47276877781E+03  0.90869996921E+03 -0.88638900098E+03  0.13545969974E+04  0.12699999809E+01 0. -1.
</event>
<event>
 5   0  0.1798917E-04  0.2215171E+04  0.7818609E-02  0.8512140E-01
       -2   -1    0    0    0  501  0.00000000000E+00  0.00000000000E+00  0.11365901957E+04  0.11365901958E+04  0.25500000920E-02 0. -1.
        2   -1    0    0  501    0  0.00000000000E+00  0.00000000000E+00 -0.10793205672E+04  0.10793205672E+04  0.25500000920E-02 0.  1.
    10030    2    1    2    0    0  0.00000000000E+00  0.00000000000E+00  0.57269628561E+02  0.22159107629E+04  0.22151705801E+04 0.  0.
        4    1    3    3  502    0  0.72913369290E+03  0.42051897967E+02 -0.80431337340E+03  0.10864280555E+04  0.12699999809E+01 0.  1.
       -4    1    3    3    0  502 -0.72913369290E+03 -0.42051897967E+02  0.86158300196E+03  0.11294827074E+04  0.12699999809E+01 0. -1.
</event>
<event>
 5   0  0.7954459E-05  0.2083994E+04  0.7818609E-02  0.8568327E-01
        1   -1    0    0  501    0  0.00000000000E+00  0.00000000000E+00  0.91212935193E+03  0.91212935195E+03  0.50400001928E-02 0. -1.
       -1   -1    0    0    0  501  0.00000000000E+00  0.00000000000E+00 -0.11903553605E+04  0.11903553605E+04  0.50400001928E-02 0.  1.
    10030    2    1    2    0    0  0.00000000000E+00  0.00000000000E+00 -0.27822600858E+03  0.21024847125E+04  0.20839943029E+04 0.  0.
        5    1    3    3  502    0  0.34158510368E+03 -0.28099706665E+03  0.81270694348E+03  0.92528611818E+03  0.46999998093E+01 0. -1.
       -5    1    3    3    0  502 -0.34158510368E+03  0.28099706665E+03 -0.10909329521E+04  0.11771985943E+04  0.46999998093E+01 0.  1.
</event>
<event>
 5   0  0.8470971E-05  0.2187620E+04  0.7818609E-02  0.8523599E-01
        1   -1    0    0  501    0  0.00000000000E+00  0.00000000000E+00  0.18267557887E+04  0.18267557888E+04  0.50400001928E-02 0. -1.
       -1   -1    0    0    0  501  0.00000000000E+00  0.00000000000E+00 -0.65494285432E+03  0.65494285434E+03  0.50400001928E-02 0.  1.
    10030    2    1    2    0    0  0.00000000000E+00  0.00000000000E+00  0.11718129344E+04  0.24816986431E+04  0.21876203057E+04 0.  0.
        2    1    3    3  502    0 -0.59250190027E+03  0.88857219986E+03  0.31792769015E+03  0.11143146200E+04  0.25500000920E-02 0. -1.
       -2    1    3    3    0  502  0.59250190027E+03 -0.88857219986E+03  0.85388524428E+03  0.13673840231E+04  0.25500000920E-02 0.  1.
</event>
<event>
 5   0  0.8784659E-05  0.2218343E+04  0.7818609E-02  0.8510832E-01
        1   -1    0    0  501    0  0.00000000000E+00  0.00000000000E+00  0.13536388975E+04  0.13536388976E+04  0.50400001928E-02 0.  1.
       -1   -1    0    0    0  501  0.00000000000E+00  0.00000000000E+00 -0.90885481719E+03  0.90885481720E+03  0.50400001928E-02 0. -1.
    10030    2    1    2    0    0  0.00000000000E+00  0.00000000000E+00  0.44478408036E+03  0.22624937148E+04  0.22183428345E+04 0.  0.
        4    1    3    3  502    0 -0.73527890618E+03  0.83027779669E+03  0.23894246603E+03  0.11345005088E+04  0.12699999809E+01 0. -1.
       -4    1    3    3    0  502  0.73527890618E+03 -0.83027779669E+03  0.20584161433E+03  0.11279932059E+04  0.12699999809E+01 0.  1.
</event>
<event>
 5   0  0.8784659E-05  0.2161998E+04  0.7818609E-02  0.8534414E-01
       -1   -1    0    0    0  501  0.00000000000E+00  0.00000000000E+00  0.12434679867E+04  0.12434679867E+04  0.50400001928E-02 0. -1.
        1   -1    0    0  501    0  0.00000000000E+00  0.00000000000E+00 -0.93975787548E+03  0.93975787549E+03  0.50400001928E-02 0.  1.
    10030    2    1    2    0    0  0.00000000000E+00  0.00000000000E+00  0.30371011124E+03  0.21832258622E+04  0.21619979958E+04 0.  0.
        4    1    3    3  502    0  0.61682785387E+03  0.75847735846E+03  0.61767894705E+03  0.11564140258E+04  0.12699999809E+01 0. -1.
       -4    1    3    3    0  502 -0.61682785387E+03 -0.75847735846E+03 -0.31396883581E+03  0.10268118364E+04  0.12699999809E+01 0.  1.
</event>
<event>
 5   0  0.1733962E-04  0.2227128E+04  0.7818609E-02  0.8507221E-01
       -2   -1    0    0    0  501  0.00000000000E+00  0.00000000000E+00  0.59130589707E+03  0.59130589707E+03  0.25500000920E-02 0. -1.
        2   -1    0    0  501    0  0.00000000000E+00  0.00000000000E+00 -0.20970948060E+04  0.20970948060E+04  0.25500000920E-02 0.  1.
    10030    2    1    2    0    0  0.00000000000E+00  0.00000000000E+00 -0.15057889089E+04  0.26884007031E+04  0.22271277696E+04 0.  0.
        3    1    3    3  502    0  0.99356977265E+03 -0.44247594708E+03 -0.10412376089E+04  0.15057030336E+04  0.10100000352E+00 0. -1.
       -3    1    3    3    0  502 -0.99356977265E+03  0.44247594708E+03 -0.46455129999E+03  0.11826976695E+04  0.10100000352E+00 0.  1.
</event>
<event>
 5   0  0.8470971E-05  0.2212871E+04  0.7818609E-02  0.8513090E-01
        1   -1    0    0  501    0  0.00000000000E+00  0.00000000000E+00  0.80182277492E+03  0.80182277493E+03  0.50400001928E-02 0. -1.
       -1   -1    0    0    0  501  0.00000000000E+00  0.00000000000E+00 -0.15267700325E+04  0.15267700325E+04  0.50400001928E-02 0.  1.
    10030    2    1    2    0    0  0.00000000000E+00  0.00000000000E+00 -0.72494725762E+03  0.23285928075E+04  0.22128705196E+04 0.  0.
        2    1    3    3  502    0 -0.10216948957E+04  0.17744423632E+03  0.43516041643E+02  0.10379020005E+04  0.25500000920E-02 0.  1.
       -2    1    3    3    0  502  0.10216948957E+04 -0.17744423632E+03 -0.76846329926E+03  0.12906908069E+04  0.25500000920E-02 0. -1.
</event>
<event>
 5   0  0.1733962E-04  0.2302282E+04  0.7818609E-02  0.8477022E-01
        2   -1    0    0  501    0  0.00000000000E+00  0.00000000000E+00  0.18986345168E+04  0.18986345168E+04  0.25500000920E-02 0. -1.
       -2   -1    0    0    0  501  0.00000000000E+00  0.00000000000E+00 -0.69793596176E+03  0.69793596177E+03  0.25500000920E-02 0.  1.
    10030    2    1    2    0    0  0.00000000000E+00  0.00000000000E+00  0.12006985550E+04  0.25965704785E+04  0.23022817443E+04 0.  0.
        3    1    3    3  502    0 -0.13528142169E+03 -0.26745532648E+02 -0.68858668623E+03  0.70225922652E+03  0.10100000352E+00 0.  1.
       -3    1    3    3    0  502  0.13528142169E+03  0.26745532648E+02  0.18892852412E+04  0.18943112520E+04  0.10100000352E+00 0. -1.
</event>
<event>
 5   0  0.7954459E-05  0.1856011E+04  0.7818609E-02  0.8677068E-01
        1   -1    0    0  501    0  0.00000000000E+00  0.00000000000E+00  0.76403423253E+03  0.76403423254E+03  0.50400001928E-02 0.  1.
       -1   -1    0    0    0  501  0.00000000000E+00  0.00000000000E+00 -0.11271673872E+04  0.11271673872E+04  0.50400001928E-02 0. -1.
    10030    2    1    2    0    0  0.00000000000E+00  0.00000000000E+00 -0.36313315470E+03  0.18912016198E+04  0.18560112819E+04 0.  0.
        5    1    3    3  502    0 -0.45669892222E+03  0.44446689633E+03  0.50579564320E+03  0.81361910632E+03  0.46999998093E+01 0.  1.
       -5    1    3    3    0  502  0.45669892222E+03 -0.44446689633E+03 -0.86892879790E+03  0.10775825135E+04  0.46999998093E+01 0. -1.
</event>
<event>
 5   0  0.1733962E-04  0.2244486E+04  0.7818609E-02  0.8500137E-01
       -2   -1    0    0    0  501  0.00000000000E+00  0.00000000000E+00  0.99062475453E+03  0.99062475453E+03  0.25500000920E-02 0. -1.
        2   -1    0    0  501    0  0.00000000000E+00  0.00000000000E+00 -0.12713484473E+04  0.12713484473E+04  0.25500000920E-02 0.  1.
    10030    2    1    2    0    0  0.00000000000E+00  0.00000000000E+00 -0.28072369277E+03  0.22619732018E+04  0.22444859042E+04 0.  0.
        3    1    3    3  502    0  0.10996157832E+03  0.37079569817E+03 -0.12020631998E+04  0.12627497554E+04  0.10100000352E+00 0.  1.
       -3    1    3    3    0  502 -0.10996157832E+03 -0.37079569817E+03  0.92133950698E+03  0.99922344639E+03  0.10100000352E+00 0. -1.
</event>
<event>
 5   0  0.8602414E-05  0.2195079E+04  0.7818609E-02  0.8520479E-01
       -1   -1    0    0    0  501  0.00000000000E+00  0.00000000000E+00  0.12784962387E+04  0.12784962387E+04  0.50400001928E-02 0.  1.
        1   -1    0    0  501    0  0.00000000000E+00  0.00000000000E+00 -0.94219505709E+03  0.94219505711E+03  0.50400001928E-02 0. -1.
    10030    2    1    2    0    0  0.00000000000E+00  0.00000000000E+00  0.33630118160E+03  0.22206912958E+04  0.21950788930E+04 0.  0.
        3    1    3    3  502    0 -0.97025124873E+03  0.10478301732E+03  0.67623148297E+03  0.11872893477E+04  0.10100000352E+00 0.  1.
       -3    1    3    3    0  502  0.97025124873E+03 -0.10478301732E+03 -0.33993030137E+03  0.10334019481E+04  0.10100000352E+00 0. -1.
</event>
<event>
 5   0  0.7954459E-05  0.2347601E+04  0.7818609E-02  0.8459386E-01
        1   -1    0    0  501    0  0.00000000000E+00  0.00000000000E+00  0.11275712546E+04  0.11275712546E+04  0.50400001928E-02 0.  1.
       -1   -1    0    0    0  501  0.00000000000E+00  0.00000000000E+00 -0.12219252215E+04  0.12219252215E+04  0.50400001928E-02 0. -1.
    10030    2    1    2    0    0  0.00000000000E+00  0.00000000000E+00 -0.94353966926E+02  0.23494964761E+04  0.23476011204E+04 0.  0.
        5    1    3    3  502    0 -0.44811948200E+03  0.10300028235E+04 -0.38814072402E+03  0.11884410790E+04  0.46999998093E+01 0.  1.
       -5    1    3    3    0  502  0.44811948200E+03 -0.10300028235E+04  0.29378675710E+03  0.11610553971E+04  0.46999998093E+01 0. -1.
</event>
<event>
 5   0  0.1680258E-04  0.2161963E+04  0.7818609E-02  0.8534429E-01
       -2   -1    0    0    0  501  0.00000000000E+00  0.00000000000E+00  0.11369652157E+04  0.11369652157E+04  0.25500000920E-02 0.  1.
        2   -1    0    0  501    0  0.00000000000E+00  0.00000000000E+00 -0.10277543644E+04  0.10277543644E+04  0.25500000920E-02 0. -1.
    10030    2    1    2    0    0  0.00000000000E+00  0.00000000000E+00  0.10921085125E+03  0.21647195801E+04  0.21619629623E+04 0.  0.
        5    1    3    3  502    0  0.10578092524E+04  0.52097650365E+02 -0.16205969838E+03  0.10714289596E+04  0.46999998093E+01 0. -1.
       -5    1    3    3    0  502 -0.10578092524E+04 -0.52097650365E+02  0.27127054963E+03  0.10932906205E+04  0.46999998093E+01 0.  1.
</event>
<event>
 5   0  0.8602414E-05  0.2240834E+04  0.7818609E-02  0.8501622E-01
       -1   -1    0    0    0  501  0.00000000000E+00  0.00000000000E+00  0.66085332549E+03  0.66085332551E+03  0.50400001928E-02 0.  1.
        1   -1    0    0  501    0  0.00000000000E+00  0.00000000000E+00 -0.18995654574E+04  0.18995654574E+04  0.50400001928E-02 0. -1.
    10030    2    1    2    0    0  0.00000000000E+00  0.00000000000E+00 -0.12387121319E+04  0.25604187829E+04  0.22408339069E+04 0.  0.
        3    1    3    3  502    0  0.25253775997E+03 -0.12531591336E+02 -0.18665398604E+04  0.18835879119E+04  0.10100000352E+00 0. -1.
       -3    1    3    3    0  502 -0.25253775997E+03  0.12531591336E+02  0.62782772856E+03  0.67683087100E+03  0.10100000352E+00 0.  1.
</event>
<event>
 5   0  0.8470971E-05  0.1993195E+04  0.7818609E-02  0.8609809E-01
       -1   -1    0    0    0  501  0.00000000000E+00  0.00000000000E+00  0.51984177421E+03  0.51984177423E+03  0.50400001928E-02 0. -1.
        1   -1    0    0  501    0  0.00000000000E+00  0.00000000000E+00 -0.19105935455E+04  0.19105935455E+04  0.50400001928E-02 0.  1.
    10030    2    1    2    0    0  0.00000000000E+00  0.00000000000E+00 -0.13907517713E+04  0.24304353198E+04  0.19931947607E+04 0.  0.
        2    1    3    3  502    0  0.50449662923E+03 -0.61723996754E+03  0.33907666279E+02  0.79790460349E+03  0.25500000920E-02 0. -1.
       -2    1    3    3    0  502 -0.50449662923E+03  0.61723996754E+03 -0.14246594376E+04  0.16325307163E+04  0.25500000920E-02 0.  1.
</event>
<event>
 5   0  0.1805501E-04  0.2147287E+04  0.7818609E-02  0.8540695E-01
       -2   -1    0    0    0  501  0.00000000000E+00  0.00000000000E+00  0.42856503920E+03  0.42856503921E+03  0.25500000920E-02 0.  1.
        2   -1    0    0  501    0  0.00000000000E+00  0.00000000000E+00 -0.26896969277E+04  0.26896969277E+04  0.25500000920E-02 0. -1.
    10030    2    1    2    0    0  0.00000000000E+00  0.00000000000E+00 -0.22611318885E+04  0.31182619669E+04  0.21472867245E+04 0.  0.
        2    1    3    3  502    0 -0.27493593963E+03 -0.98170976540E+03 -0.16195159101E+04  0.19136811693E+04  0.25500000920E-02 0. -1.
       -2    1    3    3    0  502  0.27493593963E+03  0.98170976540E+03 -0.64161597839E+03  0.12045807977E+04  0.25500000920E-02 0.  1.
</event>
<event>
 5   0  0.1805501E-04  0.2168891E+04  0.7818609E-02  0.8531489E-01
       -2   -1    0    0    0  501  0.00000000000E+00  0.00000000000E+00  0.49782833396E+03  0.49782833397E+03  0.25500000920E-02 0. -1.
        2   -1    0    0  501    0  0.00000000000E+00  0.00000000000E+00 -0.23623041283E+04  0.23623041283E+04  0.25500000920E-02 0.  1.
    10030    2    1    2    0    0  0.00000000000E+00  0.00000000000E+00 -0.18644757944E+04  0.28601324623E+04  0.21688908949E+04 0.  0.
        2    1    3    3  502    0  0.69843152191E+03  0.82479472227E+03 -0.81481365774E+03  0.13535191988E+04  0.25500000920E-02 0. -1.
       -2    1    3    3    0  502 -0.69843152191E+03 -0.82479472227E+03 -0.10496621366E+04  0.15066132635E+04  0.25500000920E-02 0.  1.
</event>
<event>
 5   0  0.1798917E-04  0.1877791E+04  0.7818609E-02  0.8665991E-01
        2   -1    0    0  501    0  0.00000000000E+00  0.00000000000E+00  0.78116068917E+03  0.78116068918E+03  0.25500000920E-02 0.  1.
       -2   -1    0    0    0  501  0.00000000000E+00  0.00000000000E+00 -0.11284803358E+04  0.11284803359E+04  0.25500000920E-02 0. -1.
    10030    2    1    2    0    0  0.00000000000E+00  0.00000000000E+00 -0.34731964667E+03  0.19096410250E+04  0.18777906985E+04 0.  0.
        4    1    3    3  502    0  0.92060282836E+03  0.17952430149E+03 -0.21661753273E+03  0.96263352881E+03  0.12699999809E+01 0. -1.
       -4    1    3    3    0  502 -0.92060282836E+03 -0.17952430149E+03 -0.13070211394E+03  0.94700749622E+03  0.12699999809E+01 0.  1.
</event>
<event>
 5   0  0.1754356E-04  0.1894922E+04  0.7818609E-02  0.8657388E-01
       -2   -1    0    0    0  501  0.00000000000E+00  0.00000000000E+00  0.13273872349E+04  0.13273872349E+04  0.25500000920E-02 0. -1.
        2   -1    0    0  501    0  0.00000000000E+00  0.00000000000E+00 -0.67627780829E+03  0.67627780830E+03  0.25500000920E-02 0.  1.
    10030    2    1    2    0    0  0.00000000000E+00  0.00000000000E+00  0.65110942665E+03  0.20036650432E+04  0.18949221937E+04 0.  0.
        1    1    3    3  502    0  0.72609915222E+03 -0.31298003319E+02  0.96828825038E+03  0.12106947095E+04  0.50400001928E-02 0. -1.
       -1    1    3    3    0  502 -0.72609915222E+03  0.31298003319E+02 -0.31717882373E+03  0.79297033369E+03  0.50400001928E-02 0.  1.
</event>
<event>
 5   0  0.1680258E-04  0.1569968E+04  0.7818609E-02  0.8839213E-01
       -2   -1    0    0    0  501  0.00000000000E+00  0.00000000000E+00  0.42062006612E+03  0.42062006613E+03  0.25500000920E-02 0. -1.
        2   -1    0    0  501    0  0.00000000000E+00  0.00000000000E+00 -0.14649804884E+04  0.14649804884E+04  0.25500000920E-02 0.  1.
    10030    2    1    2    0    0  0.00000000000E+00  0.00000000000E+00 -0.10443604223E+04  0.18856005545E+04  0.15699683945E+04 0.  0.
        5    1    3    3  502    0  0.10855791523E+03  0.34041708899E+03  0.31727066683E+03  0.47786125755E+03  0.46999998093E+01 0. -1.
       -5    1    3    3    0  502 -0.10855791523E+03 -0.34041708899E+03 -0.13616310891E+04  0.14077392970E+04  0.46999998093E+01 0.  1.
</event>
<event>
 5   0  0.1798917E-04  0.2048393E+04  0.7818609E-02  0.8584324E-01
        2   -1    0    0  501    0  0.00000000000E+00  0.00000000000E+00  0.13732437190E+04  0.13732437190E+04  0.25500000920E-02 0. -1.
       -2   -1    0    0    0  501  0.00000000000E+00  0.00000000000E+00 -0.76386876336E+03  0.76386876336E+03  0.25500000920E-02 0.  1.
    10030    2    1    2    0    0  0.00000000000E+00  0.00000000000E+00  0.60937495562E+03  0.21371124823E+04  0.20483925224E+04 0.  0.
        4    1    3    3  502    0 -0.90567396431E+03 -0.47078656076E+03  0.21683185385E+03  0.10435051419E+04  0.12699999809E+01 0.  1.
       -4    1    3    3    0  502  0.90567396431E+03  0.47078656076E+03  0.39254310177E+03  0.10936073404E+04  0.12699999809E+01 0. -1.
</event>
<event>
 5   0  0.1733962E-04  0.2200795E+04  0.7818609E-02  0.8518097E-01
       -2   -1    0    0    0  501  0.00000000000E+00  0.00000000000E+00  0.93680345018E+03  0.93680345019E+03  0.25500000920E-02 0.  1.
        2   -1    0    0  501    0  0.00000000000E+00  0.00000000000E+00 -0.12925603358E+04  0.12925603358E+04  0.25500000920E-02 0. -1.
    10030    2    1    2    0    0  0.00000000000E+00  0.00000000000E+00 -0.35575688557E+03  0.22293637859E+04  0.22007952945E+04 0.  0.
        3    1    3    3  502    0  0.35113240738E+03 -0.19194787065E+03  0.86048241860E+03  0.94898258966E+03  0.10100000352E+00 0.  1.
       -3    1    3    3    0  502 -0.35113240738E+03  0.19194787065E+03 -0.12162393042E+04  0.12803811963E+04  0.10100000352E+00 0. -1.
</event>
<event>
 5   0  0.8602414E-05  0.1156497E+04  0.7818609E-02  0.9151811E-01
       -1   -1    0    0    0  501  0.00000000000E+00  0.00000000000E+00  0.42232771519E+03  0.42232771522E+03  0.50400001928E-02 0.  1.
        1   -1    0    0  501    0  0.00000000000E+00  0.00000000000E+00 -0.79173426395E+03  0.79173426397E+03  0.50400001928E-02 0. -1.
    10030    2    1    2    0    0  0.00000000000E+00  0.00000000000E+00 -0.36940654876E+03  0.12140619792E+04  0.11564969914E+04 0.  0.
        3    1    3    3  502    0 -0.33868728982E+03 -0.42425034566E+03 -0.39380069220E+03  0.67065373439E+03  0.10100000352E+00 0. -1.
       -3    1    3    3    0  502  0.33868728982E+03  0.42425034566E+03  0.24394143434E+02  0.54340824480E+03  0.10100000352E+00 0.  1.
</event>
<event>
 5   0  0.1680258E-04  0.2372599E+04  0.7818609E-02  0.8449834E-01
        2   -1    0    0  501    0  0.00000000000E+00  0.00000000000E+00  0.25492830143E+04  0.25492830143E+04  0.25500000920E-02 0. -1.
       -2   -1    0    0    0  501  0.00000000000E+00  0.00000000000E+00 -0.55204022000E+03  0.55204022001E+03  0.25500000920E-02 0.  1.
    10030    2    1    2    0    0  0.00000000000E+00  0.00000000000E+00  0.19972427943E+04  0.31013232343E+04  0.23725992127E+04 0.  0.
        5    1    3    3  502    0 -0.57124066041E+03 -0.92575553086E+02  0.23522538505E+04  0.24223968280E+04  0.46999998093E+01 0. -1.
       -5    1    3    3    0  502  0.57124066041E+03  0.92575553086E+02 -0.35501105621E+03  0.67892640629E+03  0.46999998093E+01 0.  1.
</event>
<event>
 5   0  0.8784659E-05  0.2224380E+04  0.7818609E-02  0.8508349E-01
       -1   -1    0    0    0  501  0.00000000000E+00  0.00000000000E+00  0.68477351279E+03  0.68477351281E+03  0.50400001928E-02 0.  1.
        1   -1    0    0  501    0  0.00000000000E+00  0.00000000000E+00 -0.18063874718E+04  0.18063874718E+04  0.50400001928E-02 0. -1.
    10030    2    1    2    0    0  0.00000000000E+00  0.00000000000E+00 -0.11216139590E+04  0.24911609846E+04  0.22243797289E+04 0.  0.
        4    1    3    3  502    0  0.53405944845E+03 -0.83702780046E+03 -0.11220382479E+04  0.14982678251E+04  0.12699999809E+01 0. -1.
       -4    1    3    3    0  502 -0.53405944845E+03  0.83702780046E+03  0.42428886230E+00  0.99289315948E+03  0.12699999809E+01 0.  1.
</event>
<event>
 5   0  0.1754356E-04  0.2231757E+04  0.7818609E-02  0.8505325E-01
       -2   -1    0    0    0  501  0.00000000000E+00  0.00000000000E+00  0.11642912047E+04  0.11642912047E+04  0.25500000920E-02 0.  1.
        2   -1    0    0  501    0  0.00000000000E+00  0.00000000000E+00 -0.10694785575E+04  0.10694785575E+04  0.25500000920E-02 0. -1.
    10030    2    1    2    0    0  0.00000000000E+00  0.00000000000E+00  0.94812647188E+02  0.22337697621E+04  0.22317566875E+04 0.  0.
        1    1    3    3  502    0 -0.78305425071E+03 -0.69989410947E+03  0.42478587771E+03  0.11329028052E+04  0.50400001928E-02 0.  1.
       -1    1    3    3    0  502  0.78305425071E+03  0.69989410947E+03 -0.32997323052E+03  0.11008669570E+04  0.50400001928E-02 0. -1.
</event>
<event>
 5   0  0.1805501E-04  0.2283064E+04  0.7818609E-02  0.8484629E-01
       -2   -1    0    0    0  501  0.00000000000E+00  0.00000000000E+00  0.12361932201E+04  0.12361932201E+04  0.25500000920E-02 0.  1.
        2   -1    0    0  501    0  0.00000000000E+00  0.00000000000E+00 -0.10541196788E+04  0.10541196788E+04  0.25500000920E-02 0. -1.
    10030    2    1    2    0    0  0.00000000000E+00  0.00000000000E+00  0.18207354131E+03  0.22903128990E+04  0.22830642568E+04 0.  0.
        2    1    3    3  502    0  0.76491356115E+03 -0.70905944397E+03 -0.37437322152E+03  0.11081576423E+04  0.25500000920E-02 0.  1.
       -2    1    3    3    0  502 -0.76491356115E+03  0.70905944397E+03  0.55644676283E+03  0.11821552567E+04  0.25500000920E-02 0. -1.
</event>
<event>
 5   0  0.7954459E-05  0.2228021E+04  0.7818609E-02  0.8506855E-01
        1   -1    0    0  501    0  0.00000000000E+00  0.00000000000E+00  0.59236231182E+03  0.59236231184E+03  0.50400001928E-02 0.  1.
       -1   -1    0    0    0  501  0.00000000000E+00  0.00000000000E+00 -0.20950350256E+04  0.20950350256E+04  0.50400001928E-02 0. -1.
    10030    2    1    2    0    0  0.00000000000E+00  0.00000000000E+00 -0.15026727138E+04  0.26873973375E+04  0.22280213564E+04 0.  0.
        5    1    3    3  502    0  0.86663577560E+03 -0.63024558235E+03 -0.38403362318E+03  0.11383193644E+04  0.46999998093E+01 0.  1.
       -5    1    3    3    0  502 -0.86663577560E+03  0.63024558235E+03 -0.11186390906E+04  0.15490779731E+04  0.46999998093E+01 0. -1.
</event>
<event>
 5   0  0.1798917E-04  0.2141129E+04  0.7818609E-02  0.8543339E-01
       -2   -1    0    0    0  501  0.00000000000E+00  0.00000000000E+00  0.96683141277E+03  0.96683141278E+03  0.25500000920E-02 0.  1.
        2   -1    0    0  501    0  0.00000000000E+00  0.00000000000E+00 -0.11854269924E+04  0.11854269924E+04  0.25500000920E-02 0. -1.
    10030    2    1    2    0    0  0.00000000000E+00  0.00000000000E+00 -0.21859557962E+03  0.21522584052E+04  0.21411287246E+04 0.  0.
        4    1    3    3  502    0  0.64627975659E+03  0.77408130851E+03  0.25205244506E+03  0.10394284217E+04  0.12699999809E+01 0. -1.
       -4    1    3    3    0  502 -0.64627975659E+03 -0.77408130851E+03 -0.47064802469E+03  0.11128299834E+04  0.12699999809E+01 0.  1.
</event>
<event>
 5   0  0.1680258E-04  0.2122698E+04  0.7818609E-02  0.8551310E-01
       -2   -1    0    0    0  501  0.00000000000E+00  0.00000000000E+00  0.43597729881E+03  0.43597729882E+03  0.25500000920E-02 0. -1.
        2   -1    0    0  501    0  0.00000000000E+00  0.00000000000E+00 -0.25837614014E+04  0.25837614014E+04  0.25500000920E-02 0.  1.
    10030    2    1    2    0    0  0.00000000000E+00  0.00000000000E+00 -0.21477841026E+04  0.30197387002E+04  0.21226976389E+04 0.  0.
        5    1    3    3  502    0  0.47085049228E+03 -0.55845504593E+03  0.21475490093E+02  0.73079101737E+03  0.46999998093E+01 0. -1.
       -5    1    3    3    0  502 -0.47085049228E+03  0.55845504593E+03 -0.21692595927E+04  0.22889476829E+04  0.46999998093E+01 0.  1.
</event>
<event>
 5   0  0.8784659E-05  0.1555801E+04  0.7818609E-02  0.8848171E-01
        1   -1    0    0  501    0  0.00000000000E+00  0.00000000000E+00  0.11472249427E+04  0.11472249427E+04  0.50400001928E-02 0. -1.
       -1   -1    0    0    0  501  0.00000000000E+00  0.00000000000E+00 -0.52747243925E+03  0.52747243927E+03  0.50400001928E-02 0.  1.
    10030    2    1    2    0    0  0.00000000000E+00  0.00000000000E+00  0.61975250343E+03  0.16746973820E+04  0.15558014512E+04 0.  0.
        4    1    3    3  502    0  0.35014548048E+03  0.10264485919E+03 -0.42964151876E+03  0.56367656698E+03  0.12699999809E+01 0.  1.
       -4    1    3    3    0  502 -0.35014548048E+03 -0.10264485919E+03  0.10493940222E+04  0.11110208150E+04  0.12699999809E+01 0. -1.
</event>
<event>
 5   0  0.1733962E-04  0.2148006E+04  0.7818609E-02  0.8540386E-01
        2   -1    0    0  501    0  0.00000000000E+00  0.00000000000E+00  0.24115523585E+04  0.24115523585E+04  0.25500000920E-02 0. -1.
       -2   -1    0    0    0  501  0.00000000000E+00  0.00000000000E+00 -0.47831512502E+03  0.47831512503E+03  0.25500000920E-02 0.  1.
    10030    2    1    2    0    0  0.00000000000E+00  0.00000000000E+00  0.19332372335E+04  0.28898674836E+04  0.21480055567E+04 0.  0.
        3    1    3    3  502    0  0.43021547514E+03  0.29809396014E+03  0.22283574927E+04  0.22890003254E+04  0.10100000352E+00 0. -1.
       -3    1    3    3    0  502 -0.43021547514E+03 -0.29809396014E+03 -0.29512025923E+03  0.60086715814E+03  0.10100000352E+00 0.  1.
</event>
<event>
 5   0  0.6250625E-05  0.2177806E+04  0.7818609E-02  0.8527723E-01
       -3   -1    0    0    0  501  0.00000000000E+00  0.00000000000E+00  0.12751947537E+04  0.12751947577E+04  0.10100000352E+00 0.  1.
        3   -1    0    0  501    0  0.00000000000E+00  0.00000000000E+00 -0.92982632704E+03  0.92982633253E+03  0.10100000352E+00 0. -1.
    10030    2    1    2    0    0  0.00000000000E+00  0.00000000000E+00  0.34536842667E+03  0.22050210902E+04  0.21778059276E+04 0.  0.
        4    1    3    3  502    0  0.91295074562E+03 -0.36453224303E+03  0.64687997819E+03  0.11767829618E+04  0.12699999809E+01 0.  1.
       -4    1    3    3    0  502 -0.91295074562E+03  0.36453224303E+03 -0.30151155152E+03  0.10282381284E+04  0.12699999809E+01 0. -1.
</event>
<event>
 5   0  0.8602414E-05  0.2248289E+04  0.7818609E-02  0.8498594E-01
       -1   -1    0    0    0  501  0.00000000000E+00  0.00000000000E+00  0.95431595110E+03  0.95431595112E+03  0.50400001928E-02 0.  1.
        1   -1    0    0  501    0  0.00000000000E+00  0.00000000000E+00 -0.13241951178E+04  0.13241951178E+04  0.50400001928E-02 0. -1.
    10030    2    1    2    0    0  0.00000000000E+00  0.00000000000E+00 -0.36987916670E+03  0.22785110689E+04  0.22482887033E+04 0.  0.
        3    1    3    3  502    0 -0.59580808728E+02 -0.11698428427E+03  0.94652030905E+03  0.95558144665E+03  0.10100000352E+00 0.  1.
       -3    1    3    3    0  502  0.59580808728E+02  0.11698428427E+03 -0.13163994757E+04  0.13229296223E+04  0.10100000352E+00 0. -1.
</event>
<event>
 5   0  0.8602414E-05  0.2229589E+04  0.7818609E-02  0.8506212E-01
        1   -1    0    0  501    0  0.00000000000E+00  0.00000000000E+00  0.15456367414E+04  0.15456367414E+04  0.50400001928E-02 0. -1.
       -1   -1    0    0    0  501  0.00000000000E+00  0.00000000000E+00 -0.80404853025E+03  0.80404853027E+03  0.50400001928E-02 0.  1.
    10030    2    1    2    0    0  0.00000000000E+00  0.00000000000E+00  0.74158821113E+03  0.23496852717E+04  0.22295891552E+04 0.  0.
        3    1    3    3  502    0 -0.10630492767E+04  0.20569959677E+03  0.65037797339E+03  0.12630825814E+04  0.10100000352E+00 0. -1.
       -3    1    3    3    0  502  0.10630492767E+04 -0.20569959677E+03  0.91210237734E+02  0.10866026903E+04  0.10100000352E+00 0.  1.
</event>
<event>
 5   0  0.8306787E-05  0.2175915E+04  0.7818609E-02  0.8528520E-01
       -1   -1    0    0    0  501  0.00000000000E+00  0.00000000000E+00  0.64011128841E+03  0.64011128843E+03  0.50400001928E-02 0. -1.
        1   -1    0    0  501    0  0.00000000000E+00  0.00000000000E+00 -0.18491336182E+04  0.18491336182E+04  0.50400001928E-02 0.  1.
    10030    2    1    2    0    0  0.00000000000E+00  0.00000000000E+00 -0.12090223298E+04  0.24892449067E+04  0.21759147987E+04 0.  0.
        1    1    3    3  502    0 -0.39933037652E+02 -0.10839490561E+04 -0.50804075900E+03  0.11977669292E+04  0.50400001928E-02 0. -1.
       -1    1    3    3    0  502  0.39933037652E+02  0.10839490561E+04 -0.70098157083E+03  0.12914779775E+04  0.50400001928E-02 0.  1.
</event>
<event>
 5   0  0.1733962E-04  0.2249837E+04  0.7818609E-02  0.8497966E-01
        2   -1    0    0  501    0  0.00000000000E+00  0.00000000000E+00  0.15354925410E+04  0.15354925410E+04  0.25500000920E-02 0.  1.
       -2   -1    0    0    0  501  0.00000000000E+00  0.00000000000E+00 -0.82412766523E+03  0.82412766524E+03  0.25500000920E-02 0. -1.
    10030    2    1    2    0    0  0.00000000000E+00  0.00000000000E+00  0.71136487572E+03  0.23596202062E+04  0.22498372232E+04 0.  0.
        3    1    3    3  502    0  0.32305968508E+03 -0.53022972652E+03  0.13395015519E+04  0.14764062926E+04  0.10100000352E+00 0.  1.
       -3    1    3    3    0  502 -0.32305968508E+03  0.53022972652E+03 -0.62813667619E+03  0.88321391361E+03  0.10100000352E+00 0. -1.
</event>
<event>
 5   0  0.6250625E-05  0.2214807E+04  0.7818609E-02  0.8512290E-01
        3   -1    0    0  501    0  0.00000000000E+00  0.00000000000E+00  0.79235908655E+03  0.79235909298E+03  0.10100000352E+00 0.  1.
       -3   -1    0    0    0  501  0.00000000000E+00  0.00000000000E+00 -0.15477104483E+04  0.15477104516E+04  0.10100000352E+00 0. -1.
    10030    2    1    2    0    0  0.00000000000E+00  0.00000000000E+00 -0.75535136173E+03  0.23400695446E+04  0.22148069428E+04 0.  0.
        5    1    3    3  502    0 -0.63083509410E+03 -0.86118703975E+03 -0.68882105774E+03  0.12704694302E+04  0.46999998093E+01 0.  1.
       -5    1    3    3    0  502  0.63083509410E+03  0.86118703975E+03 -0.66530303987E+02  0.10696001144E+04  0.46999998093E+01 0. -1.
</event>
<event>
 5   0  0.1733962E-04  0.2179503E+04  0.7818609E-02  0.8527008E-01
       -2   -1    0    0    0  501  0.00000000000E+00  0.00000000000E+00  0.92121009109E+03  0.92121009109E+03  0.25500000920E-02 0. -1.
        2   -1    0    0  501    0  0.00000000000E+00  0.00000000000E+00 -0.12891292460E+04  0.12891292460E+04  0.25500000920E-02 0.  1.
    10030    2    1    2    0    0  0.00000000000E+00  0.00000000000E+00 -0.36791915489E+03  0.22103393371E+04  0.21795034940E+04 0.  0.
        3    1    3    3  502    0 -0.21335762631E+03 -0.95356088511E+02  0.89549834987E+03  0.92548990548E+03  0.10100000352E+00 0. -1.
       -3    1    3    3    0  502  0.21335762631E+03  0.95356088511E+02 -0.12634175048E+04  0.12848494316E+04  0.10100000352E+00 0.  1.
</event>
<event>
 5   0  0.1680258E-04  0.1280981E+04  0.7818609E-02  0.9044785E-01
        2   -1    0    0  501    0  0.00000000000E+00  0.00000000000E+00  0.16448340462E+04  0.16448340462E+04  0.25500000920E-02 0.  1.
       -2   -1    0    0    0  501  0.00000000000E+00  0.00000000000E+00 -0.24940394188E+03  0.24940394189E+03  0.25500000920E-02 0. -1.
    10030    2    1    2    0    0  0.00000000000E+00  0.00000000000E+00  0.13954301043E+04  0.18942379881E+04  0.12809810223E+04 0.  0.
        5    1    3    3  502    0 -0.40769524813E+03 -0.48678345837E+03  0.57370830894E+03  0.85576682831E+03  0.46999998093E+01 0.  1.
       -5    1    3    3    0  502  0.40769524813E+03  0.48678345837E+03  0.82172179536E+03  0.10384711598E+04  0.46999998093E+01 0. -1.
</event>
<event>
 5   0  0.8470971E-05  0.2192536E+04  0.7818609E-02  0.8521541E-01
        1   -1    0    0  501    0  0.00000000000E+00  0.00000000000E+00  0.84280184207E+03  0.84280184209E+03  0.50400001928E-02 0.  1.
       -1   -1    0    0    0  501  0.00000000000E+00  0.00000000000E+00 -0.14259622530E+04  0.14259622530E+04  0.50400001928E-02 0. -1.
    10030    2    1    2    0    0  0.00000000000E+00  0.00000000000E+00 -0.58316041090E+03  0.22687640951E+04  0.21925360782E+04 0.  0.
        2    1    3    3  502    0 -0.86881013350E+03 -0.32455026082E+03 -0.89640105518E+03  0.12898444757E+04  0.25500000920E-02 0. -1.
       -2    1    3    3    0  502  0.86881013350E+03  0.32455026082E+03  0.31324064428E+03  0.97891961933E+03  0.25500000920E-02 0.  1.
</event>
<event>
 5   0  0.8784659E-05  0.2185406E+04  0.7818609E-02  0.8524527E-01
        1   -1    0    0  501    0  0.00000000000E+00  0.00000000000E+00  0.15040100293E+04  0.15040100293E+04  0.50400001928E-02 0. -1.
       -1   -1    0    0    0  501  0.00000000000E+00  0.00000000000E+00 -0.79387727052E+03  0.79387727053E+03  0.50400001928E-02 0.  1.
    10030    2    1    2    0    0  0.00000000000E+00  0.00000000000E+00  0.71013275879E+03  0.22978872998E+04  0.21854055705E+04 0.  0.
        4    1    3    3  502    0 -0.79248347235E+03 -0.13911545465E+03  0.11324534137E+04  0.13891851967E+04  0.12699999809E+01 0. -1.
       -4    1    3    3    0  502  0.79248347235E+03  0.13911545465E+03 -0.42232065495E+03  0.90870210310E+03  0.12699999809E+01 0.  1.
</event>
<event>
 5   0  0.1805501E-04  0.1852033E+04  0.7818609E-02  0.8679108E-01
       -2   -1    0    0    0  501  0.00000000000E+00  0.00000000000E+00  0.13811619632E+04  0.13811619632E+04  0.25500000920E-02 0.  1.
        2   -1    0    0  501    0  0.00000000000E+00  0.00000000000E+00 -0.62085910642E+03  0.62085910643E+03  0.25500000920E-02 0. -1.
    10030    2    1    2    0    0  0.00000000000E+00  0.00000000000E+00  0.76030285683E+03  0.20020210697E+04  0.18520334579E+04 0.  0.
        2    1    3    3  502    0 -0.36667298778E+03  0.23270079133E+03 -0.50395203087E+03  0.66525663294E+03  0.25500000920E-02 0. -1.
       -2    1    3    3    0  502  0.36667298778E+03 -0.23270079133E+03  0.12642548877E+04  0.13367644367E+04  0.25500000920E-02 0.  1.
</event>
<event>
 5   0  0.1733962E-04  0.2249061E+04  0.7818609E-02  0.8498281E-01
        2   -1    0    0  501    0  0.00000000000E+00  0.00000000000E+00  0.19934568665E+04  0.19934568665E+04  0.25500000920E-02 0. -1.
       -2   -1    0    0    0  501  0.00000000000E+00  0.00000000000E+00 -0.63435995700E+03  0.63435995700E+03  0.25500000920E-02 0.  1.
    10030    2    1    2    0    0  0.00000000000E+00  0.00000000000E+00  0.13590969095E+04  0.26278168235E+04  0.22490613261E+04 0.  0.
        3    1    3    3  502    0  0.16623195611E+03 -0.10888680480E+04  0.94419309934E+03  0.14507816197E+04  0.10100000352E+00 0. -1.
       -3    1    3    3    0  502 -0.16623195611E+03  0.10888680480E+04  0.41490381020E+03  0.11770352038E+04  0.10100000352E+00 0.  1.
</event>
<event>
 5   0  0.8306787E-05  0.2172759E+04  0.7818609E-02  0.8529853E-01
        1   -1    0    0  501    0  0.00000000000E+00  0.00000000000E+00  0.13676783221E+04  0.13676783221E+04  0.50400001928E-02 0.  1.
       -1   -1    0    0    0  501  0.00000000000E+00  0.00000000000E+00 -0.86293733447E+03  0.86293733448E+03  0.50400001928E-02 0. -1.
    10030    2    1    2    0    0  0.00000000000E+00  0.00000000000E+00  0.50474098759E+03  0.22306156565E+04  0.21727592464E+04 0.  0.
        1    1    3    3  502    0 -0.52844378121E+03 -0.61677072920E+03  0.99308227987E+03  0.12829151870E+04  0.50400001928E-02 0.  1.
       -1    1    3    3    0  502  0.52844378121E+03  0.61677072920E+03 -0.48834129227E+03  0.94770046959E+03  0.50400001928E-02 0. -1.
</event>
<event>
 5   0  0.1680258E-04  0.2206775E+04  0.7818609E-02  0.8515614E-01
       -2   -1    0    0    0  501  0.00000000000E+00  0.00000000000E+00  0.90461483428E+03  0.90461483428E+03  0.25500000920E-02 0.  1.
        2   -1    0    0  501    0  0.00000000000E+00  0.00000000000E+00 -0.13458362464E+04  0.13458362464E+04  0.25500000920E-02 0. -1.
    10030    2    1    2    0    0  0.00000000000E+00  0.00000000000E+00 -0.44122141207E+03  0.22504510806E+04  0.22067745086E+04 0.  0.
        5    1    3    3  502    0  0.32550387198E+03 -0.17909802552E+03  0.83889996142E+03  0.91749883307E+03  0.46999998093E+01 0.  1.
       -5    1    3    3    0  502 -0.32550387198E+03  0.17909802552E+03 -0.12801213735E+04  0.13329522476E+04  0.46999998093E+01 0. -1.
</event>
<event>
 5   0  0.8784659E-05  0.2153636E+04  0.7818609E-02  0.8537978E-01
       -1   -1    0    0    0  501  0.00000000000E+00  0.00000000000E+00  0.43675526353E+03  0.43675526356E+03  0.50400001928E-02 0.  1.
        1   -1    0    0  501    0  0.00000000000E+00  0.00000000000E+00 -0.26548885564E+04  0.26548885564E+04  0.50400001928E-02 0. -1.
    10030    2    1    2    0    0  0.00000000000E+00  0.00000000000E+00 -0.22181332928E+04  0.30916438199E+04  0.21536355784E+04 0.  0.
        4    1    3    3  502    0  0.81215448530E+03  0.65006892939E+03 -0.15083199952E+04  0.18322705427E+04  0.12699999809E+01 0. -1.
       -4    1    3    3    0  502 -0.81215448530E+03 -0.65006892939E+03 -0.70981329767E+03  0.12593732772E+04  0.12699999809E+01 0.  1.
</event>
<event>
 5   0  0.7954459E-05  0.1440577E+04  0.7818609E-02  0.8924959E-01
       -1   -1    0    0    0  501  0.00000000000E+00  0.00000000000E+00  0.24228242461E+03  0.24228242466E+03  0.50400001928E-02 0. -1.
        1   -1    0    0  501    0  0.00000000000E+00  0.00000000000E+00 -0.21413677063E+04  0.21413677063E+04  0.50400001928E-02 0.  1.
    10030    2    1    2    0    0  0.00000000000E+00  0.00000000000E+00 -0.18990852817E+04  0.23836501310E+04  0.14405773286E+04 0.  0.
        5    1    3    3  502    0  0.62437159261E+03 -0.78871010840E+02 -0.36986456975E+03  0.72998795330E+03  0.46999998093E+01 0. -1.
       -5    1    3    3    0  502 -0.62437159261E+03  0.78871010840E+02 -0.15292207120E+04  0.16536621777E+04  0.46999998093E+01 0.  1.
</event>
<event>
 5   0  0.1805501E-04  0.2215016E+04  0.7818609E-02  0.8512204E-01
       -2   -1    0    0    0  501  0.00000000000E+00  0.00000000000E+00  0.89524948919E+03  0.89524948919E+03  0.25500000920E-02 0. -1.
        2   -1    0    0  501    0  0.00000000000E+00  0.00000000000E+00 -0.13700916149E+04  0.13700916149E+04  0.25500000920E-02 0.  1.
    10030    2    1    2    0    0  0.00000000000E+00  0.00000000000E+00 -0.47484212572E+03  0.22653411041E+04  0.22150158630E+04 0.  0.
        2    1    3    3  502    0 -0.14139626348E+03 -0.56077407718E+03 -0.12033980574E+04  0.13351506857E+04  0.25500000920E-02 0.  1.
       -2    1    3    3    0  502  0.14139626348E+03  0.56077407718E+03  0.72855593166E+03  0.93019041842E+03  0.25500000920E-02 0. -1.
</event>
<event>
 5   0  0.8306787E-05  0.1979683E+04  0.7818609E-02  0.8616179E-01
        1   -1    0    0  501    0  0.00000000000E+00  0.00000000000E+00  0.73403849201E+03  0.73403849203E+03  0.50400001928E-02 0.  1.
       -1   -1    0    0    0  501  0.00000000000E+00  0.00000000000E+00 -0.13347885487E+04  0.13347885487E+04  0.50400001928E-02 0. -1.
    10030    2    1    2    0    0  0.00000000000E+00  0.00000000000E+00 -0.60075005671E+03  0.20688270408E+04  0.19796829781E+04 0.  0.
        1    1    3    3  502    0  0.71736030196E+03  0.32664655742E+03 -0.92606969434E+03  0.12161039656E+04  0.50400001928E-02 0. -1.
       -1    1    3    3    0  502 -0.71736030196E+03 -0.32664655742E+03  0.32531963763E+03  0.85272307519E+03  0.50400001928E-02 0.  1.
</event>
<event>
 5   0  0.8470971E-05  0.2561942E+04  0.7818609E-02  0.8381245E-01
        1   -1    0    0  501    0  0.00000000000E+00  0.00000000000E+00  0.13656580780E+04  0.13656580780E+04  0.50400001928E-02 0. -1.
       -1   -1    0    0    0  501  0.00000000000E+00  0.00000000000E+00 -0.12015352367E+04  0.12015352367E+04  0.50400001928E-02 0.  1.
    10030    2    1    2    0    0  0.00000000000E+00  0.00000000000E+00  0.16412284133E+03  0.25671933147E+04  0.25619416870E+04 0.  0.
        2    1    3    3  502    0  0.77748183925E+03 -0.46544130168E+03 -0.82520754337E+03  0.12255941846E+04  0.25500000920E-02 0.  1.
       -2    1    3    3    0  502 -0.77748183925E+03  0.46544130168E+03  0.98933038470E+03  0.13415991301E+04  0.25500000920E-02 0. -1.
</event>
<event>
 5   0  0.1680258E-04  0.2202663E+04  0.7818609E-02  0.8517321E-01
        2   -1    0    0  501    0  0.00000000000E+00  0.00000000000E+00  0.22470528291E+04  0.22470528291E+04  0.25500000920E-02 0.  1.
       -2   -1    0    0    0  501  0.00000000000E+00  0.00000000000E+00 -0.53978741968E+03  0.53978741968E+03  0.25500000920E-02 0. -1.
    10030    2    1    2    0    0  0.00000000000E+00  0.00000000000E+00  0.17072654094E+04  0.27868402488E+04  0.22026627963E+04 0.  0.
        5    1    3    3  502    0  0.16739442059E+03 -0.21996058841E+02 -0.52330406578E+03  0.54988540070E+03  0.46999998093E+01 0. -1.
       -5    1    3    3    0  502 -0.16739442059E+03  0.21996058841E+02  0.22305694752E+04  0.22369548481E+04  0.46999998093E+01 0.  1.
</event>
<event>
 5   0  0.1798917E-04  0.2216091E+04  0.7818609E-02  0.8511760E-01
       -2   -1    0    0    0  501  0.00000000000E+00  0.00000000000E+00  0.81986737769E+03  0.81986737770E+03  0.25500000920E-02 0. -1.
        2   -1    0    0  501    0  0.00000000000E+00  0.00000000000E+00 -0.14975169763E+04  0.14975169763E+04  0.25500000920E-02 0.  1.
    10030    2    1    2    0    0  0.00000000000E+00  0.00000000000E+00 -0.67764959863E+03  0.23173843540E+04  0.22160914389E+04 0.  0.
        4    1    3    3  502    0  0.78465001703E+03 -0.19326392798E+03  0.45394119679E+03  0.92687152191E+03  0.12699999809E+01 0. -1.
       -4    1    3    3    0  502 -0.78465001703E+03  0.19326392798E+03 -0.11315907954E+04  0.13905128321E+04  0.12699999809E+01 0.  1.
</event>
<event>
 5   0  0.8470971E-05  0.2240529E+04  0.7818609E-02  0.8501746E-01
       -1   -1    0    0    0  501  0.00000000000E+00  0.00000000000E+00  0.10815363961E+04  0.10815363961E+04  0.50400001928E-02 0. -1.
        1   -1    0    0  501    0  0.00000000000E+00  0.00000000000E+00 -0.11603790731E+04  0.11603790731E+04  0.50400001928E-02 0.  1.
    10030    2    1    2    0    0  0.00000000000E+00  0.00000000000E+00 -0.78842677026E+02  0.22419154692E+04  0.22405286883E+04 0.  0.
        2    1    3    3  502    0 -0.10938864564E+04  0.21133369967E+03 -0.15672311231E+03  0.11250829507E+04  0.25500000920E-02 0.  1.
       -2    1    3    3    0  502  0.10938864564E+04 -0.21133369967E+03  0.77880435289E+02  0.11168325184E+04  0.25500000920E-02 0. -1.
</event>
<event>
 5   0  0.8602414E-05  0.1814398E+04  0.7818609E-02  0.8698680E-01
        1   -1    0    0  501    0  0.00000000000E+00  0.00000000000E+00  0.12850819206E+04  0.12850819207E+04  0.50400001928E-02 0. -1.
       -1   -1    0    0    0  501  0.00000000000E+00  0.00000000000E+00 -0.64043357910E+03  0.64043357911E+03  0.50400001928E-02 0.  1.
    10030    2    1    2    0    0  0.00000000000E+00  0.00000000000E+00  0.64464834155E+03  0.19255154998E+04  0.18143975462E+04 0.  0.
        3    1    3    3  502    0 -0.63396620167E+02  0.48309983602E+03 -0.48978976834E+03  0.69086801227E+03  0.10100000352E+00 0.  1.
       -3    1    3    3    0  502  0.63396620167E+02 -0.48309983602E+03  0.11344381099E+04  0.12346474875E+04  0.10100000352E+00 0. -1.
</event>
<event>
 5   0  0.8470971E-05  0.1364403E+04  0.7818609E-02  0.8979997E-01
        1   -1    0    0  501    0  0.00000000000E+00  0.00000000000E+00  0.14308599577E+04  0.14308599577E+04  0.50400001928E-02 0. -1.
       -1   -1    0    0    0  501  0.00000000000E+00  0.00000000000E+00 -0.32525797185E+03  0.32525797189E+03  0.50400001928E-02 0.  1.
    10030    2    1    2    0    0  0.00000000000E+00  0.00000000000E+00  0.11056019858E+04  0.17561179296E+04  0.13644025914E+04 0.  0.
        2    1    3    3  502    0 -0.78804806879E+02  0.47778966962E+03 -0.65682660308E+02  0.48867921774E+03  0.25500000920E-02 0.  1.
       -2    1    3    3    0  502  0.78804806879E+02 -0.47778966962E+03  0.11712846461E+04  0.12674387118E+04  0.25500000920E-02 0. -1.
</event>
<event>
 5   0  0.1733962E-04  0.2138767E+04  0.7818609E-02  0.8544356E-01
       -2   -1    0    0    0  501  0.00000000000E+00  0.00000000000E+00  0.10418074828E+04  0.10418074828E+04  0.25500000920E-02 0.  1.
        2   -1    0    0  501    0  0.00000000000E+00  0.00000000000E+00 -0.10976898098E+04  0.10976898098E+04  0.25500000920E-02 0. -1.
    10030    2    1    2    0    0  0.00000000000E+00  0.00000000000E+00 -0.55882327046E+02  0.21394972926E+04  0.21387673624E+04 0.  0.
        3    1    3    3  502    0 -0.53691133027E+03  0.49814777305E+03 -0.80740954976E+03  0.10901078715E+04  0.10100000352E+00 0. -1.
       -3    1    3    3    0  502  0.53691133027E+03 -0.49814777305E+03  0.75152722272E+03  0.10493894211E+04  0.10100000352E+00 0.  1.
</event>
<event>
 5   0  0.6250625E-05  0.2236397E+04  0.7818609E-02  0.8503430E-01
        3   -1    0    0  501    0  0.00000000000E+00  0.00000000000E+00  0.13577325970E+04  0.13577326008E+04  0.10100000352E+00 0.  1.
       -3   -1    0    0    0  501  0.00000000000E+00  0.00000000000E+00 -0.92092384111E+03  0.92092384665E+03  0.10100000352E+00 0. -1.
    10030    2    1    2    0    0  0.00000000000E+00  0.00000000000E+00  0.43680875593E+03  0.22786564474E+04  0.22363973968E+04 0.  0.
        1    1    3    3  502    0 -0.10420784388E+03  0.80442806010E+03 -0.56581770322E+03  0.98899618396E+03  0.50400001928E-02 0. -1.
       -1    1    3    3    0  502  0.10420784388E+03 -0.80442806010E+03  0.10026264591E+04  0.12896602635E+04  0.50400001928E-02 0.  1.
</event>
<event>
 5   0  0.8784659E-05  0.2141630E+04  0.7818609E-02  0.8543124E-01
        1   -1    0    0  501    0  0.00000000000E+00  0.00000000000E+00  0.12536031515E+04  0.12536031515E+04  0.50400001928E-02 0.  1.
       -1   -1    0    0    0  501  0.00000000000E+00  0.00000000000E+00 -0.91467914183E+03  0.91467914184E+03  0.50400001928E-02 0. -1.
    10030    2    1    2    0    0  0.00000000000E+00  0.00000000000E+00  0.33892400966E+03  0.21682822933E+04  0.21416298978E+04 0.  0.
        4    1    3    3  502    0 -0.25659060836E+02 -0.85096327966E+03  0.82704178051E+03  0.11869273821E+04  0.12699999809E+01 0.  1.
       -4    1    3    3    0  502  0.25659060836E+02  0.85096327966E+03 -0.48811777085E+03  0.98135491126E+03  0.12699999809E+01 0. -1.
</event>
<event>
 5   0  0.8602414E-05  0.2241043E+04  0.7818609E-02  0.8501537E-01
       -1   -1    0    0    0  501  0.00000000000E+00  0.00000000000E+00  0.81468950233E+03  0.81468950235E+03  0.50400001928E-02 0.  1.
        1   -1    0    0  501    0  0.00000000000E+00  0.00000000000E+00 -0.15411619389E+04  0.15411619389E+04  0.50400001928E-02 0. -1.
    10030    2    1    2    0    0  0.00000000000E+00  0.00000000000E+00 -0.72647243657E+03  0.23558514413E+04  0.22410430188E+04 0.  0.
        3    1    3    3  502    0  0.63627166582E+03 -0.41431800562E+03 -0.12295079612E+04  0.14450573966E+04  0.10100000352E+00 0. -1.
       -3    1    3    3    0  502 -0.63627166582E+03  0.41431800562E+03  0.50303552467E+03  0.91079404466E+03  0.10100000352E+00 0.  1.
</event>
<event>
 5   0  0.1754356E-04  0.2192948E+04  0.7818609E-02  0.8521369E-01
        2   -1    0    0  501    0  0.00000000000E+00  0.00000000000E+00  0.11361236776E+04  0.11361236776E+04  0.25500000920E-02 0.  1.
       -2   -1    0    0    0  501  0.00000000000E+00  0.00000000000E+00 -0.10582077754E+04  0.10582077754E+04  0.25500000920E-02 0. -1.
    10030    2    1    2    0    0  0.00000000000E+00  0.00000000000E+00  0.77915902170E+02  0.21943314530E+04  0.21929477052E+04 0.  0.
        1    1    3    3  502    0  0.64996718057E+03  0.84427271997E+03  0.29796708207E+03  0.11063625733E+04  0.50400001928E-02 0.  1.
       -1    1    3    3    0  502 -0.64996718057E+03 -0.84427271997E+03 -0.22005117990E+03  0.10879688797E+04  0.50400001928E-02 0. -1.
</event>
<event>
 5   0  0.8306787E-05  0.1232440E+04  0.7818609E-02  0.9084926E-01
       -1   -1    0    0    0  501  0.00000000000E+00  0.00000000000E+00  0.49721372037E+03  0.49721372040E+03  0.50400001928E-02 0.  1.
        1   -1    0    0  501    0  0.00000000000E+00  0.00000000000E+00 -0.76371008234E+03  0.76371008236E+03  0.50400001928E-02 0. -1.
    10030    2    1    2    0    0  0.00000000000E+00  0.00000000000E+00 -0.26649636197E+03  0.12609238028E+04  0.12324400697E+04 0.  0.
        1    1    3    3  502    0 -0.23101802839E+03 -0.52243265346E+03 -0.36972185437E+03  0.68044063405E+03  0.50400001928E-02 0. -1.
       -1    1    3    3    0  502  0.23101802839E+03  0.52243265346E+03  0.10322549240E+03  0.58048316871E+03  0.50400001928E-02 0.  1.
</event>
<event>
 5   0  0.1733962E-04  0.2236786E+04  0.7818609E-02  0.8503271E-01
       -2   -1    0    0    0  501  0.00000000000E+00  0.00000000000E+00  0.13318941673E+04  0.13318941673E+04  0.25500000920E-02 0.  1.
        2   -1    0    0  501    0  0.00000000000E+00  0.00000000000E+00 -0.93911589054E+03  0.93911589054E+03  0.25500000920E-02 0. -1.
    10030    2    1    2    0    0  0.00000000000E+00  0.00000000000E+00  0.39277827676E+03  0.22710100578E+04  0.22367860667E+04 0.  0.
        3    1    3    3  502    0 -0.45697415133E+03 -0.86629897022E+03  0.74456086792E+03  0.12303130403E+04  0.10100000352E+00 0.  1.
       -3    1    3    3    0  502  0.45697415133E+03  0.86629897022E+03 -0.35178259116E+03  0.10406970176E+04  0.10100000352E+00 0. -1.
</event>
<event>
 5   0  0.1733962E-04  0.2053909E+04  0.7818609E-02  0.8581823E-01
        2   -1    0    0  501    0  0.00000000000E+00  0.00000000000E+00  0.14313867404E+04  0.14313867404E+04  0.25500000920E-02 0.  1.
       -2   -1    0    0    0  501  0.00000000000E+00  0.00000000000E+00 -0.73679260674E+03  0.73679260674E+03  0.25500000920E-02 0. -1.
    10030    2    1    2    0    0  0.00000000000E+00  0.00000000000E+00  0.69459413369E+03  0.21681793472E+04  0.20539086326E+04 0.  0.
        3    1    3    3  502    0  0.10168517464E+04 -0.10706829332E+03  0.44846235720E+03  0.11164988086E+04  0.10100000352E+00 0.  1.
       -3    1    3    3    0  502 -0.10168517464E+04  0.10706829332E+03  0.24613177649E+03  0.10516805386E+04  0.10100000352E+00 0. -1.
</event>
<event>
 5   0  0.1798917E-04  0.2180125E+04  0.7818609E-02  0.8526746E-01
        2   -1    0    0  501    0  0.00000000000E+00  0.00000000000E+00  0.11611319556E+04  0.11611319556E+04  0.25500000920E-02 0. -1.
       -2   -1    0    0    0  501  0.00000000000E+00  0.00000000000E+00 -0.10233429152E+04  0.10233429152E+04  0.25500000920E-02 0.  1.
    10030    2    1    2    0    0  0.00000000000E+00  0.00000000000E+00  0.13778904036E+03  0.21844748708E+04  0.21801249142E+04 0.  0.
        4    1    3    3  502    0 -0.78431675260E+03  0.38647816325E+02 -0.68864845291E+03  0.10444542722E+04  0.12699999809E+01 0.  1.
       -4    1    3    3    0  502  0.78431675260E+03 -0.38647816325E+02  0.82643749326E+03  0.11400205986E+04  0.12699999809E+01 0. -1.
</event>
<event>
 5   0  0.7954459E-05  0.2182857E+04  0.7818609E-02  0.8525597E-01
        1   -1    0    0  501    0  0.00000000000E+00  0.00000000000E+00  0.13340127151E+04  0.13340127151E+04  0.50400001928E-02 0. -1.
       -1   -1    0    0    0  501  0.00000000000E+00  0.00000000000E+00 -0.89295702429E+03  0.89295702431E+03  0.50400001928E-02 0.  1.
    10030    2    1    2    0    0  0.00000000000E+00  0.00000000000E+00  0.44105569079E+03  0.22269697394E+04  0.21828568661E+04 0.  0.
        5    1    3    3  502    0  0.10011002561E+04  0.43146933966E+02  0.66185577004E+03  0.12008907240E+04  0.46999998093E+01 0. -1.
       -5    1    3    3    0  502 -0.10011002561E+04 -0.43146933966E+02 -0.22080007926E+03  0.10260790154E+04  0.46999998093E+01 0.  1.
</event>
<event>
 5   0  0.1798917E-04  0.2245575E+04  0.7818609E-02  0.8499695E-01
        2   -1    0    0  501    0  0.00000000000E+00  0.00000000000E+00  0.23849738511E+04  0.23849738511E+04  0.25500000920E-02 0. -1.
       -2   -1    0    0    0  501  0.00000000000E+00  0.00000000000E+00 -0.52858072902E+03  0.52858072903E+03  0.25500000920E-02 0.  1.
    10030    2    1    2    0    0  0.00000000000E+00  0.00000000000E+00  0.18563931221E+04  0.29135545801E+04  0.22455745073E+04 0.  0.
        4    1    3    3  502    0  0.10111631076E+04 -0.48246788991E+03  0.83264542072E+03  0.13958961654E+04  0.12699999809E+01 0.  1.
       -4    1    3    3    0  502 -0.10111631076E+04  0.48246788991E+03  0.10237477014E+04  0.15176584148E+04  0.12699999809E+01 0. -1.
</event>
<event>
 5   0  0.7954459E-05  0.2207420E+04  0.7818609E-02  0.8515346E-01
        1   -1    0    0  501    0  0.00000000000E+00  0.00000000000E+00  0.10158566950E+04  0.10158566950E+04  0.50400001928E-02 0. -1.
       -1   -1    0    0    0  501  0.00000000000E+00  0.00000000000E+00 -0.11991613233E+04  0.11991613233E+04  0.50400001928E-02 0.  1.
    10030    2    1    2    0    0  0.00000000000E+00  0.00000000000E+00 -0.18330462826E+03  0.22150180183E+04  0.22074202669E+04 0.  0.
        5    1    3    3  502    0  0.85057500423E+03  0.42070221283E+02  0.61283696801E+03  0.10492087403E+04  0.46999998093E+01 0. -1.
       -5    1    3    3    0  502 -0.85057500423E+03 -0.42070221283E+02 -0.79614159626E+03  0.11658092780E+04  0.46999998093E+01 0.  1.
</event>
<event>
 5   0  0.1754356E-04  0.2174352E+04  0.7818609E-02  0.8529180E-01
        2   -1    0    0  501    0  0.00000000000E+00  0.00000000000E+00  0.11875335166E+04  0.11875335166E+04  0.25500000920E-02 0.  1.
       -2   -1    0    0    0  501  0.00000000000E+00  0.00000000000E+00 -0.99529927813E+03  0.99529927814E+03  0.25500000920E-02 0. -1.
    10030    2    1    2    0    0  0.00000000000E+00  0.00000000000E+00  0.19223423851E+03  0.21828327948E+04  0.21743516292E+04 0.  0.
        1    1    3    3  502    0 -0.78725595443E+03 -0.23075547073E+03 -0.62005966927E+03  0.10283452818E+04  0.50400001928E-02 0. -1.
       -1    1    3    3    0  502  0.78725595443E+03  0.23075547073E+03  0.81229390778E+03  0.11544875130E+04  0.50400001928E-02 0.  1.
</event>
<event>
 5   0  0.8470971E-05  0.2206482E+04  0.7818609E-02  0.8515735E-01
        1   -1    0    0  501    0  0.00000000000E+00  0.00000000000E+00  0.25044674477E+04  0.25044674477E+04  0.50400001928E-02 0.  1.
       -1   -1    0    0    0  501  0.00000000000E+00  0.00000000000E+00 -0.48598804989E+03  0.48598804992E+03  0.50400001928E-02 0. -1.
    10030    2    1    2    0    0  0.00000000000E+00  0.00000000000E+00  0.20184793978E+04  0.29904554976E+04  0.22064824957E+04 0.  0.
        2    1    3    3  502    0 -0.40714534692E+03 -0.33746829371E+03  0.23214999180E+04  0.23809691414E+04  0.25500000920E-02 0.  1.
       -2    1    3    3    0  502  0.40714534692E+03  0.33746829371E+03 -0.30302052022E+03  0.60948635625E+03  0.25500000920E-02 0. -1.
</event>
<event>
 5   0  0.1680258E-04  0.2106861E+04  0.7818609E-02  0.8558227E-01
       -2   -1    0    0    0  501  0.00000000000E+00  0.00000000000E+00  0.60614545050E+03  0.60614545051E+03  0.25500000920E-02 0. -1.
        2   -1    0    0  501    0  0.00000000000E+00  0.00000000000E+00 -0.18307743666E+04  0.18307743666E+04  0.25500000920E-02 0.  1.
    10030    2    1    2    0    0  0.00000000000E+00  0.00000000000E+00 -0.12246289161E+04  0.24369198171E+04  0.21068607483E+04 0.  0.
        5    1    3    3  502    0  0.78974758799E+03  0.61947099405E+03 -0.98217040128E+03  0.14043241621E+04  0.46999998093E+01 0.  1.
       -5    1    3    3    0  502 -0.78974758799E+03 -0.61947099405E+03 -0.24245851478E+03  0.10325956549E+04  0.46999998093E+01 0. -1.
</event>
<event>
 5   0  0.8602414E-05  0.2204325E+04  0.7818609E-02  0.8516630E-01
       -1   -1    0    0    0  501  0.00000000000E+00  0.00000000000E+00  0.12220844103E+04  0.12220844104E+04  0.50400001928E-02 0. -1.
        1   -1    0    0  501    0  0.00000000000E+00  0.00000000000E+00 -0.99400804414E+03  0.99400804416E+03  0.50400001928E-02 0.  1.
    10030    2    1    2    0    0  0.00000000000E+00  0.00000000000E+00  0.22807636620E+03  0.22160924545E+04  0.22043245991E+04 0.  0.
        3    1    3    3  502    0 -0.10489085985E+04  0.16259824147E+03 -0.18438701873E+03  0.10773328265E+04  0.10100000352E+00 0. -1.
       -3    1    3    3    0  502  0.10489085985E+04 -0.16259824147E+03  0.41246338493E+03  0.11387596280E+04  0.10100000352E+00 0.  1.
</event>
<event>
 5   0  0.8602414E-05  0.2151054E+04  0.7818609E-02  0.8539081E-01
        1   -1    0    0  501    0  0.00000000000E+00  0.00000000000E+00  0.67564636775E+03  0.67564636777E+03  0.50400001928E-02 0. -1.
       -1   -1    0    0    0  501  0.00000000000E+00  0.00000000000E+00 -0.17120764733E+04  0.17120764733E+04  0.50400001928E-02 0.  1.
    10030    2    1    2    0    0  0.00000000000E+00  0.00000000000E+00 -0.10364301055E+04  0.23877228411E+04  0.21510539282E+04 0.  0.
        3    1    3    3  502    0  0.42493010518E+03  0.90281897258E+03 -0.96376316083E+03  0.13872588554E+04  0.10100000352E+00 0.  1.
       -3    1    3    3    0  502 -0.42493010518E+03 -0.90281897258E+03 -0.72666944718E+02  0.10004639857E+04  0.10100000352E+00 0. -1.
</event>
<event>
 5   0  0.8602414E-05  0.2185332E+04  0.7818609E-02  0.8524558E-01
        1   -1    0    0  501    0  0.00000000000E+00  0.00000000000E+00  0.64060689436E+03  0.64060689438E+03  0.50400001928E-02 0. -1.
       -1   -1    0    0    0  501  0.00000000000E+00  0.00000000000E+00 -0.18637313500E+04  0.18637313500E+04  0.50400001928E-02 0.  1.
    10030    2    1    2    0    0  0.00000000000E+00  0.00000000000E+00 -0.12231244557E+04  0.25043382444E+04  0.21853321506E+04 0.  0.
        3    1    3    3  502    0 -0.97413706429E+03 -0.48489785564E+03 -0.72529820593E+03  0.13077180308E+04  0.10100000352E+00 0. -1.
       -3    1    3    3    0  502  0.97413706429E+03  0.48489785564E+03 -0.49782624974E+03  0.11966202136E+04  0.10100000352E+00 0.  1.
</event>
<event>
 5   0  0.8470971E-05  0.2289192E+04  0.7818609E-02  0.8482195E-01
       -1   -1    0    0    0  501  0.00000000000E+00  0.00000000000E+00  0.75393179725E+03  0.75393179726E+03  0.50400001928E-02 0.  1.
        1   -1    0    0  501    0  0.00000000000E+00  0.00000000000E+00 -0.17376899978E+04  0.17376899978E+04  0.50400001928E-02 0. -1.
    10030    2    1    2    0    0  0.00000000000E+00  0.00000000000E+00 -0.98375820057E+03  0.24916217951E+04  0.22891917728E+04 0.  0.
        2    1    3    3  502    0 -0.41100419380E+03 -0.10404170665E+03  0.66531585843E+03  0.78891971424E+03  0.25500000920E-02 0.  1.
       -2    1    3    3    0  502  0.41100419380E+03  0.10404170665E+03 -0.16490740590E+04  0.17027020808E+04  0.25500000920E-02 0. -1.
</event>
<event>
 5   0  0.7954459E-05  0.2190552E+04  0.7818609E-02  0.8522371E-01
       -1   -1    0    0    0  501  0.00000000000E+00  0.00000000000E+00  0.85371822001E+03  0.85371822002E+03  0.50400001928E-02 0. -1.
        1   -1    0    0  501    0  0.00000000000E+00  0.00000000000E+00 -0.14051814902E+04  0.14051814902E+04  0.50400001928E-02 0.  1.
    10030    2    1    2    0    0  0.00000000000E+00  0.00000000000E+00 -0.55146327016E+03  0.22588997102E+04  0.21905515658E+04 0.  0.
        5    1    3    3  502    0  0.16106269004E+03 -0.49480739219E+03  0.71809793459E+03  0.88682708526E+03  0.46999998093E+01 0. -1.
       -5    1    3    3    0  502 -0.16106269004E+03  0.49480739219E+03 -0.12695612048E+04  0.13720726249E+04  0.46999998093E+01 0.  1.
</event>
<event>
 5   0  0.1680258E-04  0.2184361E+04  0.7818609E-02  0.8524966E-01
        2   -1    0    0  501    0  0.00000000000E+00  0.00000000000E+00  0.11330473795E+04  0.11330473795E+04  0.25500000920E-02 0. -1.
       -2   -1    0    0    0  501  0.00000000000E+00  0.00000000000E+00 -0.10527873256E+04  0.10527873256E+04  0.25500000920E-02 0.  1.
    10030    2    1    2    0    0  0.00000000000E+00  0.00000000000E+00  0.80260053941E+02  0.21858347050E+04  0.21843607032E+04 0.  0.
        5    1    3    3  502    0 -0.64692401051E+03 -0.37107566702E+03 -0.75829810671E+03  0.10636004582E+04  0.46999998093E+01 0.  1.
       -5    1    3    3    0  502  0.64692401051E+03  0.37107566702E+03  0.83855816065E+03  0.11222342469E+04  0.46999998093E+01 0. -1.
</event>
<event>
 5   0  0.6250625E-05  0.2182654E+04  0.7818609E-02  0.8525683E-01
       -3   -1    0    0    0  501  0.00000000000E+00  0.00000000000E+00  0.90345524062E+03  0.90345524627E+03  0.10100000352E+00 0. -1.
        3   -1    0    0  501    0  0.00000000000E+00  0.00000000000E+00 -0.13182657424E+04  0.13182657463E+04  0.10100000352E+00 0.  1.
    10030    2    1    2    0    0  0.00000000000E+00  0.00000000000E+00 -0.41481050180E+03  0.22217209926E+04  0.21826535264E+04 0.  0.
        4    1    3    3  502    0  0.92537459289E+03 -0.48025981331E+03 -0.53570707758E+03  0.11721566923E+04  0.12699999809E+01 0.  1.
       -4    1    3    3    0  502 -0.92537459289E+03  0.48025981331E+03  0.12089657578E+03  0.10495643003E+04  0.12699999809E+01 0. -1.
</event>
<event>
 5   0  0.1754356E-04  0.2186332E+04  0.7818609E-02  0.8524139E-01
       -2   -1    0    0    0  501  0.00000000000E+00  0.00000000000E+00  0.51648730686E+03  0.51648730687E+03  0.25500000920E-02 0.  1.
        2   -1    0    0  501    0  0.00000000000E+00  0.00000000000E+00 -0.23137292322E+04  0.23137292322E+04  0.25500000920E-02 0. -1.
    10030    2    1    2    0    0  0.00000000000E+00  0.00000000000E+00 -0.17972419253E+04  0.28302165390E+04  0.21863318869E+04 0.  0.
        1    1    3    3  502    0 -0.73965404814E+03  0.80402351333E+02  0.13816252414E+03  0.75673081881E+03  0.50400001928E-02 0.  1.
       -1    1    3    3    0  502  0.73965404814E+03 -0.80402351333E+02 -0.19354044494E+04  0.20734857202E+04  0.50400001928E-02 0. -1.
</event>
<event>
 5   0  0.8306787E-05  0.2158559E+04  0.7818609E-02  0.8535877E-01
        1   -1    0    0  501    0  0.00000000000E+00  0.00000000000E+00  0.11524380707E+04  0.11524380707E+04  0.50400001928E-02 0.  1.
       -1   -1    0    0    0  501  0.00000000000E+00  0.00000000000E+00 -0.10107652269E+04  0.10107652269E+04  0.50400001928E-02 0. -1.
    10030    2    1    2    0    0  0.00000000000E+00  0.00000000000E+00  0.14167284378E+03  0.21632032976E+04  0.21585590824E+04 0.  0.
        1    1    3    3  502    0  0.49103629832E+03 -0.92259029728E+03 -0.19910314437E+03  0.10639227251E+04  0.50400001928E-02 0. -1.
       -1    1    3    3    0  502 -0.49103629832E+03  0.92259029728E+03  0.34077598815E+03  0.10992805725E+04  0.50400001928E-02 0.  1.
</event>
<event>
 5   0  0.1798917E-04  0.2204870E+04  0.7818609E-02  0.8516404E-01
       -2   -1    0    0    0  501  0.00000000000E+00  0.00000000000E+00  0.11223548032E+04  0.11223548032E+04  0.25500000920E-02 0.  1.
        2   -1    0    0  501    0  0.00000000000E+00  0.00000000000E+00 -0.10828689263E+04  0.10828689263E+04  0.25500000920E-02 0. -1.
    10030    2    1    2    0    0  0.00000000000E+00  0.00000000000E+00  0.39485876875E+02  0.22052237294E+04  0.22048701917E+04 0.  0.
        4    1    3    3  502    0  0.18032976439E+03 -0.60206109785E+03  0.92562827367E+03  0.11188322946E+04  0.12699999809E+01 0.  1.
       -4    1    3    3    0  502 -0.18032976439E+03  0.60206109785E+03 -0.88614239679E+03  0.10863914349E+04  0.12699999809E+01 0. -1.
</event>
<event>
 5   0  0.1733962E-04  0.2211088E+04  0.7818609E-02  0.8513827E-01
        2   -1    0    0  501    0  0.00000000000E+00  0.00000000000E+00  0.13794446875E+04  0.13794446875E+04  0.25500000920E-02 0.  1.
       -2   -1    0    0    0  501  0.00000000000E+00  0.00000000000E+00 -0.88602850110E+03  0.88602850111E+03  0.25500000920E-02 0. -1.
    10030    2    1    2    0    0  0.00000000000E+00  0.00000000000E+00  0.49341618637E+03  0.22654731886E+04  0.22110877946E+04 0.  0.
        3    1    3    3  502    0 -0.46644820496E+03 -0.30978427224E+03 -0.72998949434E+03  0.92001352995E+03  0.10100000352E+00 0. -1.
       -3    1    3    3    0  502  0.46644820496E+03  0.30978427224E+03  0.12234056807E+04  0.13454596586E+04  0.10100000352E+00 0.  1.
</event>
<event>
 5   0  0.8602414E-05  0.2165357E+04  0.7818609E-02  0.8532987E-01
       -1   -1    0    0    0  501  0.00000000000E+00  0.00000000000E+00  0.96677877596E+03  0.96677877597E+03  0.50400001928E-02 0.  1.
        1   -1    0    0  501    0  0.00000000000E+00  0.00000000000E+00 -0.12124727540E+04  0.12124727540E+04  0.50400001928E-02 0. -1.
    10030    2    1    2    0    0  0.00000000000E+00  0.00000000000E+00 -0.24569397804E+03  0.21792515300E+04  0.21653571761E+04 0.  0.
        3    1    3    3  502    0 -0.12818236719E+03  0.23276520525E+03  0.93345072715E+03  0.97053625911E+03  0.10100000352E+00 0.  1.
       -3    1    3    3    0  502  0.12818236719E+03 -0.23276520525E+03 -0.11791447052E+04  0.12087152709E+04  0.10100000352E+00 0. -1.
</event>
<event>
 5   0  0.7954459E-05  0.2191175E+04  0.7818609E-02  0.8522110E-01
       -1   -1    0    0    0  501  0.00000000000E+00  0.00000000000E+00  0.61672844074E+03  0.61672844076E+03  0.50400001928E-02 0. -1.
        1   -1    0    0  501    0  0.00000000000E+00  0.00000000000E+00 -0.19462572523E+04  0.19462572523E+04  0.50400001928E-02 0.  1.
    10030    2    1    2    0    0  0.00000000000E+00  0.00000000000E+00 -0.13295288115E+04  0.25629856930E+04  0.21911752103E+04 0.  0.
        5    1    3    3  502    0  0.10373921366E+04 -0.24649487862E+03 -0.95916272438E+03  0.14342096751E+04  0.46999998093E+01 0.  1.
       -5    1    3    3    0  502 -0.10373921366E+04  0.24649487862E+03 -0.37036608717E+03  0.11287760180E+04  0.46999998093E+01 0. -1.
</event>
<event>
 5   0  0.8784659E-05  0.2028224E+04  0.7818609E-02  0.8593537E-01
        1   -1    0    0  501    0  0.00000000000E+00  0.00000000000E+00  0.81137601939E+03  0.81137601941E+03  0.50400001928E-02 0.  1.
       -1   -1    0    0    0  501  0.00000000000E+00  0.00000000000E+00 -0.12675051968E+04  0.12675051968E+04  0.50400001928E-02 0. -1.
    10030    2    1    2    0    0  0.00000000000E+00  0.00000000000E+00 -0.45612917743E+03  0.20788812162E+04  0.20282241702E+04 0.  0.
        4    1    3    3  502    0 -0.26259147963E+03  0.97923386814E+03 -0.25250236088E+03  0.10448025215E+04  0.12699999809E+01 0.  1.
       -4    1    3    3    0  502  0.26259147963E+03 -0.97923386814E+03 -0.20362681655E+03  0.10340786948E+04  0.12699999809E+01 0. -1.
</event>
<event>
 5   0  0.1680258E-04  0.2218782E+04  0.7818609E-02  0.8510651E-01
       -2   -1    0    0    0  501  0.00000000000E+00  0.00000000000E+00  0.99688842019E+03  0.99688842019E+03  0.25500000920E-02 0. -1.
        2   -1    0    0  501    0  0.00000000000E+00  0.00000000000E+00 -0.12345898282E+04  0.12345898282E+04  0.25500000920E-02 0.  1.
    10030    2    1    2    0    0  0.00000000000E+00  0.00000000000E+00 -0.23770140798E+03  0.22314782484E+04  0.22187819211E+04 0.  0.
        5    1    3    3  502    0  0.19708001797E+03 -0.24380288141E+03  0.95140304724E+03  0.10017336107E+04  0.46999998093E+01 0. -1.
       -5    1    3    3    0  502 -0.19708001797E+03  0.24380288141E+03 -0.11891044552E+04  0.12297446377E+04  0.46999998093E+01 0.  1.
</event>
<event>
 5   0  0.1805501E-04  0.2215304E+04  0.7818609E-02  0.8512085E-01
       -2   -1    0    0    0  501  0.00000000000E+00  0.00000000000E+00  0.13189413626E+04  0.13189413626E+04  0.25500000920E-02 0. -1.
        2   -1    0    0  501    0  0.00000000000E+00  0.00000000000E+00 -0.93021071695E+03  0.93021071695E+03  0.25500000920E-02 0.  1.
    10030    2    1    2    0    0  0.00000000000E+00  0.00000000000E+00  0.38873064563E+03  0.22491520795E+04  0.22153043949E+04 0.  0.
        2    1    3    3  502    0  0.13031463411E+03  0.24052056600E+02 -0.92213373801E+03  0.93160669602E+03  0.25500000920E-02 0.  1.
       -2    1    3    3    0  502 -0.13031463411E+03 -0.24052056600E+02  0.13108643836E+04  0.13175453835E+04  0.25500000920E-02 0. -1.
</event>
<event>
 5   0  0.1733962E-04  0.2217120E+04  0.7818609E-02  0.8511336E-01
       -2   -1    0    0    0  501  0.00000000000E+00  0.00000000000E+00  0.13403678723E+04  0.13403678723E+04  0.25500000920E-02 0. -1.
        2   -1    0    0  501    0  0.00000000000E+00  0.00000000000E+00 -0.91684194928E+03  0.91684194928E+03  0.25500000920E-02 0.  1.
    10030    2    1    2    0    0  0.00000000000E+00  0.00000000000E+00  0.42352592303E+03  0.22572098216E+04  0.22171201977E+04 0.  0.
        3    1    3    3  502    0  0.35077532462E+02  0.40839235540E+03 -0.83685675916E+03  0.93184977051E+03  0.10100000352E+00 0.  1.
       -3    1    3    3    0  502 -0.35077532462E+02 -0.40839235540E+03  0.12603826822E+04  0.13253600511E+04  0.10100000352E+00 0. -1.
</event>
<event>
 5   0  0.1805501E-04  0.2105423E+04  0.7818609E-02  0.8558858E-01
        2   -1    0    0  501    0  0.00000000000E+00  0.00000000000E+00  0.10184909708E+04  0.10184909708E+04  0.25500000920E-02 0.  1.
       -2   -1    0    0    0  501  0.00000000000E+00  0.00000000000E+00 -0.10880820206E+04  0.10880820207E+04  0.25500000920E-02 0. -1.
    10030    2    1    2    0    0  0.00000000000E+00  0.00000000000E+00 -0.69591049889E+02  0.21065729914E+04  0.21054232007E+04 0.  0.
        2    1    3    3  502    0 -0.37614818103E+03  0.25618519951E+03 -0.98456805105E+03  0.10846624165E+04  0.25500000920E-02 0. -1.
       -2    1    3    3    0  502  0.37614818103E+03 -0.25618519951E+03  0.91497700116E+03  0.10219105750E+04  0.25500000920E-02 0.  1.
</event>
<event>
 5   0  0.1733962E-04  0.2139786E+04  0.7818609E-02  0.8543917E-01
       -2   -1    0    0    0  501  0.00000000000E+00  0.00000000000E+00  0.73441895625E+03  0.73441895625E+03  0.25500000920E-02 0.  1.
        2   -1    0    0  501    0  0.00000000000E+00  0.00000000000E+00 -0.15586077906E+04  0.15586077906E+04  0.25500000920E-02 0. -1.
    10030    2    1    2    0    0  0.00000000000E+00  0.00000000000E+00 -0.82418883432E+03  0.22930267468E+04  0.21397860704E+04 0.  0.
        3    1    3    3  502    0  0.16334194744E+03 -0.88293847287E+03  0.21129648496E+03  0.92244628756E+03  0.10100000352E+00 0.  1.
       -3    1    3    3    0  502 -0.16334194744E+03  0.88293847287E+03 -0.10354853193E+04  0.13705804593E+04  0.10100000352E+00 0. -1.
</event>
<event>
 5   0  0.1680258E-04  0.2192016E+04  0.7818609E-02  0.8521759E-01
        2   -1    0    0  501    0  0.00000000000E+00  0.00000000000E+00  0.88447258315E+03  0.88447258315E+03  0.25500000920E-02 0.  1.
       -2   -1    0    0    0  501  0.00000000000E+00  0.00000000000E+00 -0.13581348282E+04  0.13581348282E+04  0.25500000920E-02 0. -1.
    10030    2    1    2    0    0  0.00000000000E+00  0.00000000000E+00 -0.47366224509E+03  0.22426074114E+04  0.21920155290E+04 0.  0.
        5    1    3    3  502    0  0.34909080605E+02 -0.88770911545E+03  0.41982755524E+03  0.98261049439E+03  0.46999998093E+01 0. -1.
       -5    1    3    3    0  502 -0.34909080605E+02  0.88770911545E+03 -0.89348980033E+03  0.12599969170E+04  0.46999998093E+01 0.  1.
</event>
<event>
 5   0  0.1798917E-04  0.2272944E+04  0.7818609E-02  0.8488666E-01
       -2   -1    0    0    0  501  0.00000000000E+00  0.00000000000E+00  0.56288147916E+03  0.56288147917E+03  0.25500000920E-02 0.  1.
        2   -1    0    0  501    0  0.00000000000E+00  0.00000000000E+00 -0.22945656246E+04  0.22945656246E+04  0.25500000920E-02 0. -1.
    10030    2    1    2    0    0  0.00000000000E+00  0.00000000000E+00 -0.17316841454E+04  0.28574471037E+04  0.22729438997E+04 0.  0.
        4    1    3    3  502    0 -0.53328334388E+03 -0.73161469705E+03 -0.22240612102E+01  0.90534951767E+03  0.12699999809E+01 0.  1.
       -4    1    3    3    0  502  0.53328334388E+03  0.73161469705E+03 -0.17294600842E+04  0.19520975861E+04  0.12699999809E+01 0. -1.
</event>
<event>
 5   0  0.1798917E-04  0.2023895E+04  0.7818609E-02  0.8595530E-01
       -2   -1    0    0    0  501  0.00000000000E+00  0.00000000000E+00  0.85529010058E+03  0.85529010058E+03  0.25500000920E-02 0. -1.
        2   -1    0    0  501    0  0.00000000000E+00  0.00000000000E+00 -0.11972983358E+04  0.11972983358E+04  0.25500000920E-02 0.  1.
    10030    2    1    2    0    0  0.00000000000E+00  0.00000000000E+00 -0.34200823526E+03  0.20525884364E+04  0.20238946752E+04 0.  0.
        4    1    3    3  502    0  0.49095656067E+03  0.52028177337E+03 -0.89690610377E+03  0.11472461114E+04  0.12699999809E+01 0.  1.
       -4    1    3    3    0  502 -0.49095656067E+03 -0.52028177337E+03  0.55489786851E+03  0.90534232506E+03  0.12699999809E+01 0. -1.
</event>
<event>
 5   0  0.8306787E-05  0.2173089E+04  0.7818609E-02  0.8529713E-01
       -1   -1    0    0    0  501  0.00000000000E+00  0.00000000000E+00  0.72905057245E+03  0.72905057247E+03  0.50400001928E-02 0.  1.
        1   -1    0    0  501    0  0.00000000000E+00  0.00000000000E+00 -0.16193378762E+04  0.16193378762E+04  0.50400001928E-02 0. -1.
    10030    2    1    2    0    0  0.00000000000E+00  0.00000000000E+00 -0.89028730378E+03  0.23483884487E+04  0.21730892349E+04 0.  0.
        1    1    3    3  502    0 -0.36164770724E+03 -0.32845258722E+03  0.60366643986E+03  0.77658440420E+03  0.50400001928E-02 0.  1.
       -1    1    3    3    0  502  0.36164770724E+03  0.32845258722E+03 -0.14939537436E+04  0.15718040445E+04  0.50400001928E-02 0. -1.
</event>
<event>
 5   0  0.1805501E-04  0.2204999E+04  0.7818609E-02  0.8516350E-01
       -2   -1    0    0    0  501  0.00000000000E+00  0.00000000000E+00  0.17925931551E+04  0.17925931551E+04  0.25500000920E-02 0. -1.
        2   -1    0    0  501    0  0.00000000000E+00  0.00000000000E+00 -0.67807056277E+03  0.67807056278E+03  0.25500000920E-02 0.  1.
    10030    2    1    2    0    0  0.00000000000E+00  0.00000000000E+00  0.11145225923E+04  0.24706637179E+04  0.22049985483E+04 0.  0.
        2    1    3    3  502    0  0.58572768468E+03  0.61712526630E+03  0.13428663320E+04  0.15897202586E+04  0.25500000920E-02 0. -1.
       -2    1    3    3    0  502 -0.58572768468E+03 -0.61712526630E+03 -0.22834373974E+03  0.88094345924E+03  0.25500000920E-02 0.  1.
</event>
<event>
 5   0  0.7954459E-05  0.2056049E+04  0.7818609E-02  0.8580855E-01
       -1   -1    0    0    0  501  0.00000000000E+00  0.00000000000E+00  0.58383411950E+03  0.58383411952E+03  0.50400001928E-02 0. -1.
        1   -1    0    0  501    0  0.00000000000E+00  0.00000000000E+00 -0.18101616343E+04  0.18101616343E+04  0.50400001928E-02 0.  1.
    10030    2    1    2    0    0  0.00000000000E+00  0.00000000000E+00 -0.12263275148E+04  0.23939957538E+04  0.20560487581E+04 0.  0.
        5    1    3    3  502    0 -0.44960766682E+03 -0.30589534535E+03  0.40263770818E+03  0.67665222265E+03  0.46999998093E+01 0. -1.
       -5    1    3    3    0  502  0.44960766682E+03  0.30589534535E+03 -0.16289652230E+04  0.17173435312E+04  0.46999998093E+01 0.  1.
</event>
<event>
 5   0  0.8306787E-05  0.2224875E+04  0.7818609E-02  0.8508145E-01
       -1   -1    0    0    0  501  0.00000000000E+00  0.00000000000E+00  0.62922449565E+03  0.62922449567E+03  0.50400001928E-02 0. -1.
        1   -1    0    0  501    0  0.00000000000E+00  0.00000000000E+00 -0.19667340836E+04  0.19667340836E+04  0.50400001928E-02 0.  1.
    10030    2    1    2    0    0  0.00000000000E+00  0.00000000000E+00 -0.13375095879E+04  0.25959585793E+04  0.22248750633E+04 0.  0.
        1    1    3    3  502    0 -0.64716109431E+03 -0.13610717655E+03  0.37496643112E+03  0.76022527581E+03  0.50400001928E-02 0. -1.
       -1    1    3    3    0  502  0.64716109431E+03  0.13610717655E+03 -0.17124760191E+04  0.18357333034E+04  0.50400001928E-02 0.  1.
</event>
<event>
 5   0  0.7954459E-05  0.2182211E+04  0.7818609E-02  0.8525869E-01
       -1   -1    0    0    0  501  0.00000000000E+00  0.00000000000E+00  0.54717714870E+03  0.54717714873E+03  0.50400001928E-02 0.  1.
        1   -1    0    0  501    0  0.00000000000E+00  0.00000000000E+00 -0.21757323203E+04  0.21757323203E+04  0.50400001928E-02 0. -1.
    10030    2    1    2    0    0  0.00000000000E+00  0.00000000000E+00 -0.16285551716E+04  0.27229094691E+04  0.21822108124E+04 0.  0.
        5    1    3    3  502    0 -0.46796139923E+03 -0.94169560243E+03 -0.11774434031E+04  0.15786619449E+04  0.46999998093E+01 0. -1.
       -5    1    3    3    0  502  0.46796139923E+03  0.94169560243E+03 -0.45111176851E+03  0.11442475241E+04  0.46999998093E+01 0.  1.
</event>
<event>
 5   0  0.1754356E-04  0.2224649E+04  0.7818609E-02  0.8508238E-01
       -2   -1    0    0    0  501  0.00000000000E+00  0.00000000000E+00  0.80512247604E+03  0.80512247605E+03  0.25500000920E-02 0.  1.
        2   -1    0    0  501    0  0.00000000000E+00  0.00000000000E+00 -0.15367420856E+04  0.15367420856E+04  0.25500000920E-02 0. -1.
    10030    2    1    2    0    0  0.00000000000E+00  0.00000000000E+00 -0.73161960958E+03  0.23418645617E+04  0.22246488200E+04 0.  0.
        1    1    3    3  502    0  0.57245267022E+03  0.39326389255E+03  0.54882358130E+03  0.88519256224E+03  0.50400001928E-02 0.  1.
       -1    1    3    3    0  502 -0.57245267022E+03 -0.39326389255E+03 -0.12804431909E+04  0.14566719994E+04  0.50400001928E-02 0. -1.
</event>
<event>
 5   0  0.1733962E-04  0.2169435E+04  0.7818609E-02  0.8531259E-01
       -2   -1    0    0    0  501  0.00000000000E+00  0.00000000000E+00  0.68886693954E+03  0.68886693954E+03  0.25500000920E-02 0. -1.
        2   -1    0    0  501    0  0.00000000000E+00  0.00000000000E+00 -0.17080389447E+04  0.17080389447E+04  0.25500000920E-02 0.  1.
    10030    2    1    2    0    0  0.00000000000E+00  0.00000000000E+00 -0.10191720052E+04  0.23969058843E+04  0.21694345443E+04 0.  0.
        3    1    3    3  502    0 -0.16474959849E+03  0.65082973546E+02  0.67277859932E+03  0.69570775298E+03  0.10100000352E+00 0. -1.
       -3    1    3    3    0  502  0.16474959849E+03 -0.65082973546E+02 -0.16919506045E+04  0.17011981313E+04  0.10100000352E+00 0.  1.
</event>
<event>
 5   0  0.1680258E-04  0.2157761E+04  0.7818609E-02  0.8536217E-01
       -2   -1    0    0    0  501  0.00000000000E+00  0.00000000000E+00  0.77665628365E+03  0.77665628365E+03  0.25500000920E-02 0.  1.
        2   -1    0    0  501    0  0.00000000000E+00  0.00000000000E+00 -0.14987109659E+04  0.14987109659E+04  0.25500000920E-02 0. -1.
    10030    2    1    2    0    0  0.00000000000E+00  0.00000000000E+00 -0.72205468228E+03  0.22753672496E+04  0.21577611444E+04 0.  0.
        5    1    3    3  502    0 -0.69159344258E+03 -0.76500572293E+03 -0.69520015499E+03  0.12437285039E+04  0.46999998093E+01 0. -1.
       -5    1    3    3    0  502  0.69159344258E+03  0.76500572293E+03 -0.26854527292E+02  0.10316387457E+04  0.46999998093E+01 0.  1.
</event>
<event>
 5   0  0.7954459E-05  0.2230302E+04  0.7818609E-02  0.8505921E-01
        1   -1    0    0  501    0  0.00000000000E+00  0.00000000000E+00  0.12457877784E+04  0.12457877785E+04  0.50400001928E-02 0. -1.
       -1   -1    0    0    0  501  0.00000000000E+00  0.00000000000E+00 -0.99821312058E+03  0.99821312060E+03  0.50400001928E-02 0.  1.
    10030    2    1    2    0    0  0.00000000000E+00  0.00000000000E+00  0.24757465786E+03  0.22440008990E+04  0.22303019580E+04 0.  0.
        5    1    3    3  502    0  0.44735870147E+03 -0.37875326483E+03 -0.83069950995E+03  0.10166944522E+04  0.46999998093E+01 0.  1.
       -5    1    3    3    0  502 -0.44735870147E+03  0.37875326483E+03  0.10782741678E+04  0.12273064468E+04  0.46999998093E+01 0. -1.
</event>
<event>
 5   0  0.1733962E-04  0.2156365E+04  0.7818609E-02  0.8536813E-01
        2   -1    0    0  501    0  0.00000000000E+00  0.00000000000E+00  0.12859024950E+04  0.12859024950E+04  0.25500000920E-02 0. -1.
       -2   -1    0    0    0  501  0.00000000000E+00  0.00000000000E+00 -0.90401668367E+03  0.90401668367E+03  0.25500000920E-02 0.  1.
    10030    2    1    2    0    0  0.00000000000E+00  0.00000000000E+00  0.38188581131E+03  0.21899191787E+04  0.21563648198E+04 0.  0.
        3    1    3    3  502    0 -0.25394089608E+03  0.12109121190E+03 -0.86608360822E+03  0.91063158683E+03  0.10100000352E+00 0.  1.
       -3    1    3    3    0  502  0.25394089608E+03 -0.12109121190E+03  0.12479694195E+04  0.12792875918E+04  0.10100000352E+00 0. -1.
</event>
<event>
 5   0  0.1798917E-04  0.2158348E+04  0.7818609E-02  0.8535967E-01
       -2   -1    0    0    0  501  0.00000000000E+00  0.00000000000E+00  0.46824534624E+03  0.46824534624E+03  0.25500000920E-02 0. -1.
        2   -1    0    0  501    0  0.00000000000E+00  0.00000000000E+00 -0.24871922080E+04  0.24871922080E+04  0.25500000920E-02 0.  1.
    10030    2    1    2    0    0  0.00000000000E+00  0.00000000000E+00 -0.20189468617E+04  0.29554375542E+04  0.21583476797E+04 0.  0.
        4    1    3    3  502    0  0.32990276878E+03  0.90805297105E+03 -0.35104026380E+03  0.10279235938E+04  0.12699999809E+01 0.  1.
       -4    1    3    3    0  502 -0.32990276878E+03 -0.90805297105E+03 -0.16679065979E+04  0.19275139604E+04  0.12699999809E+01 0. -1.
</event>
<event>
 5   0  0.1680258E-04  0.2395370E+04  0.7818609E-02  0.8441239E-01
        2   -1    0    0  501    0  0.00000000000E+00  0.00000000000E+00  0.94011464139E+03  0.94011464139E+03  0.25500000920E-02 0.  1.
       -2   -1    0    0    0  501  0.00000000000E+00  0.00000000000E+00 -0.15258242979E+04  0.15258242979E+04  0.25500000920E-02 0. -1.
    10030    2    1    2    0    0  0.00000000000E+00  0.00000000000E+00 -0.58570965651E+03  0.24659389393E+04  0.23953703368E+04 0.  0.
        5    1    3    3  502    0  0.36321159691E+03  0.12751730353E+03  0.87468415630E+03  0.95565568596E+03  0.46999998093E+01 0.  1.
       -5    1    3    3    0  502 -0.36321159691E+03 -0.12751730353E+03 -0.14603938128E+04  0.15102832533E+04  0.46999998093E+01 0. -1.
</event>
<event>
 5   0  0.7954459E-05  0.1212771E+04  0.7818609E-02  0.9101751E-01
        1   -1    0    0  501    0  0.00000000000E+00  0.00000000000E+00  0.11445899217E+04  0.11445899217E+04  0.50400001928E-02 0. -1.
       -1   -1    0    0    0  501  0.00000000000E+00  0.00000000000E+00 -0.32125326471E+03  0.32125326475E+03  0.50400001928E-02 0.  1.
    10030    2    1    2    0    0  0.00000000000E+00  0.00000000000E+00  0.82333665701E+03  0.14658431865E+04  0.12127707931E+04 0.  0.
        5    1    3    3  502    0 -0.36768715118E+03 -0.44026184182E+03  0.64930961474E+03  0.86640025179E+03  0.46999998093E+01 0.  1.
       -5    1    3    3    0  502  0.36768715118E+03  0.44026184182E+03  0.17402704226E+03  0.59944293469E+03  0.46999998093E+01 0. -1.
</event>
<event>
 5   0  0.1733962E-04  0.2157821E+04  0.7818609E-02  0.8536192E-01
       -2   -1    0    0    0  501  0.00000000000E+00  0.00000000000E+00  0.64952221125E+03  0.64952221126E+03  0.25500000920E-02 0.  1.
        2   -1    0    0  501    0  0.00000000000E+00  0.00000000000E+00 -0.17921593949E+04  0.17921593949E+04  0.25500000920E-02 0. -1.
    10030    2    1    2    0    0  0.00000000000E+00  0.00000000000E+00 -0.11426371837E+04  0.24416816062E+04  0.21578205051E+04 0.  0.
        3    1    3    3  502    0 -0.96599093324E+03  0.41071662969E+03 -0.85357325579E+03  0.13529279161E+04  0.10100000352E+00 0. -1.
       -3    1    3    3    0  502  0.96599093324E+03 -0.41071662969E+03 -0.28906392786E+03  0.10887536900E+04  0.10100000352E+00 0.  1.
</event>
<event>
 5   0  0.1754356E-04  0.2226172E+04  0.7818609E-02  0.8507613E-01
        2   -1    0    0  501    0  0.00000000000E+00  0.00000000000E+00  0.17907969660E+04  0.17907969660E+04  0.25500000920E-02 0. -1.
       -2   -1    0    0    0  501  0.00000000000E+00  0.00000000000E+00 -0.69184885901E+03  0.69184885902E+03  0.25500000920E-02 0.  1.
    10030    2    1    2    0    0  0.00000000000E+00  0.00000000000E+00  0.10989481070E+04  0.24826458250E+04  0.22261723542E+04 0.  0.
        1    1    3    3  502    0 -0.26750975815E+03 -0.96651846883E+03  0.10883394192E+02  0.10029146871E+04  0.50400001928E-02 0.  1.
       -1    1    3    3    0  502  0.26750975815E+03  0.96651846883E+03  0.10880647128E+04  0.14797311379E+04  0.50400001928E-02 0. -1.
</event>
<event>
 5   0  0.1798917E-04  0.2188692E+04  0.7818609E-02  0.8523149E-01
       -2   -1    0    0    0  501  0.00000000000E+00  0.00000000000E+00  0.14505390385E+04  0.14505390385E+04  0.25500000920E-02 0.  1.
        2   -1    0    0  501    0  0.00000000000E+00  0.00000000000E+00 -0.82561976356E+03  0.82561976357E+03  0.25500000920E-02 0. -1.
    10030    2    1    2    0    0  0.00000000000E+00  0.00000000000E+00  0.62491927494E+03  0.22761588021E+04  0.21886924846E+04 0.  0.
        4    1    3    3  502    0 -0.61322170580E+03  0.72575885131E+03 -0.25221749022E+03  0.98304732643E+03  0.12699999809E+01 0. -1.
       -4    1    3    3    0  502  0.61322170580E+03 -0.72575885131E+03  0.87713676516E+03  0.12931114756E+04  0.12699999809E+01 0.  1.
</event>
<event>
 5   0  0.1754356E-04  0.2172859E+04  0.7818609E-02  0.8529810E-01
        2   -1    0    0  501    0  0.00000000000E+00  0.00000000000E+00  0.94155116841E+03  0.94155116842E+03  0.25500000920E-02 0. -1.
       -2   -1    0    0    0  501  0.00000000000E+00  0.00000000000E+00 -0.12536004334E+04  0.12536004334E+04  0.25500000920E-02 0.  1.
    10030    2    1    2    0    0  0.00000000000E+00  0.00000000000E+00 -0.31204926500E+03  0.21951516018E+04  0.21728589027E+04 0.  0.
        1    1    3    3  502    0 -0.25693923758E+03 -0.10550602403E+04 -0.12163022073E+03  0.10926865027E+04  0.50400001928E-02 0.  1.
       -1    1    3    3    0  502  0.25693923758E+03  0.10550602403E+04 -0.19041904426E+03  0.11024650992E+04  0.50400001928E-02 0. -1.
</event>
<event>
 5   0  0.1733962E-04  0.2262785E+04  0.7818609E-02  0.8492741E-01
        2   -1    0    0  501    0  0.00000000000E+00  0.00000000000E+00  0.19322094208E+04  0.19322094208E+04  0.25500000920E-02 0. -1.
       -2   -1    0    0    0  501  0.00000000000E+00  0.00000000000E+00 -0.66247948719E+03  0.66247948719E+03  0.25500000920E-02 0.  1.
    10030    2    1    2    0    0  0.00000000000E+00  0.00000000000E+00  0.12697299336E+04  0.25946889080E+04  0.22627851036E+04 0.  0.
        3    1    3    3  502    0  0.10697940562E+04 -0.22294175949E+03  0.97091586201E+03  0.14617934095E+04  0.10100000352E+00 0. -1.
       -3    1    3    3    0  502 -0.10697940562E+04  0.22294175949E+03  0.29881407159E+03  0.11328954985E+04  0.10100000352E+00 0.  1.
</event>
<event>
 5   0  0.1805501E-04  0.2098078E+04  0.7818609E-02  0.8562091E-01
       -2   -1    0    0    0  501  0.00000000000E+00  0.00000000000E+00  0.54363313433E+03  0.54363313434E+03  0.25500000920E-02 0. -1.
        2   -1    0    0  501    0  0.00000000000E+00  0.00000000000E+00 -0.20243106576E+04  0.20243106576E+04  0.25500000920E-02 0.  1.
    10030    2    1    2    0    0  0.00000000000E+00  0.00000000000E+00 -0.14806775232E+04  0.25679437919E+04  0.20980775464E+04 0.  0.
        2    1    3    3  502    0 -0.71351033235E+03  0.17828835961E+03 -0.16559314010E+04  0.18119030157E+04  0.25500000920E-02 0.  1.
       -2    1    3    3    0  502  0.71351033235E+03 -0.17828835961E+03  0.17525387779E+03  0.75604077617E+03  0.25500000920E-02 0. -1.
</event>
<event>
 5   0  0.1754356E-04  0.1484747E+04  0.7818609E-02  0.8894660E-01
        2   -1    0    0  501    0  0.00000000000E+00  0.00000000000E+00  0.17753416108E+04  0.17753416108E+04  0.25500000920E-02 0. -1.
       -2   -1    0    0    0  501  0.00000000000E+00  0.00000000000E+00 -0.31042943839E+03  0.31042943840E+03  0.25500000920E-02 0.  1.
    10030    2    1    2    0    0  0.00000000000E+00  0.00000000000E+00  0.14649121725E+04  0.20857710492E+04  0.14847468460E+04 0.  0.
        1    1    3    3  502    0 -0.31843432307E+03 -0.21299890214E+03  0.16257463442E+04  0.16702754641E+04  0.50400001928E-02 0. -1.
       -1    1    3    3    0  502  0.31843432307E+03  0.21299890214E+03 -0.16083417173E+03  0.41549558511E+03  0.50400001928E-02 0.  1.
</event>
<event>
 5   0  0.1805501E-04  0.2226231E+04  0.7818609E-02  0.8507589E-01
       -2   -1    0    0    0  501  0.00000000000E+00  0.00000000000E+00  0.86024329061E+03  0.86024329062E+03  0.25500000920E-02 0.  1.
        2   -1    0    0  501    0  0.00000000000E+00  0.00000000000E+00 -0.14403205395E+04  0.14403205395E+04  0.25500000920E-02 0. -1.
    10030    2    1    2    0    0  0.00000000000E+00  0.00000000000E+00 -0.58007724887E+03  0.23005638301E+04  0.22262309677E+04 0.  0.
        2    1    3    3  502    0  0.46309095627E+03  0.98545113214E+03 -0.52897052021E+03  0.12105275622E+04  0.25500000920E-02 0. -1.
       -2    1    3    3    0  502 -0.46309095627E+03 -0.98545113214E+03 -0.51106728666E+02  0.10900362679E+04  0.25500000920E-02 0.  1.
</event>
<event>
 5   0  0.8306787E-05  0.1864607E+04  0.7818609E-02  0.8672677E-01
       -1   -1    0    0    0  501  0.00000000000E+00  0.00000000000E+00  0.79374635975E+03  0.79374635976E+03  0.50400001928E-02 0. -1.
        1   -1    0    0  501    0  0.00000000000E+00  0.00000000000E+00 -0.10950472327E+04  0.10950472327E+04  0.50400001928E-02 0.  1.
    10030    2    1    2    0    0  0.00000000000E+00  0.00000000000E+00 -0.30130087293E+03  0.18887935925E+04  0.18646069341E+04 0.  0.
        1    1    3    3  502    0  0.37621747720E+03  0.71030488123E+02  0.71043776214E+03  0.80703577015E+03  0.50400001928E-02 0. -1.
       -1    1    3    3    0  502 -0.37621747720E+03 -0.71030488123E+02 -0.10117386351E+04  0.10817578223E+04  0.50400001928E-02 0.  1.
</event>
<event>
 5   0  0.8470971E-05  0.2158892E+04  0.7818609E-02  0.8535735E-01
        1   -1    0    0  501    0  0.00000000000E+00  0.00000000000E+00  0.98045672066E+03  0.98045672067E+03  0.50400001928E-02 0.  1.
       -1   -1    0    0    0  501  0.00000000000E+00  0.00000000000E+00 -0.11884299093E+04  0.11884299093E+04  0.50400001928E-02 0. -1.
    10030    2    1    2    0    0  0.00000000000E+00  0.00000000000E+00 -0.20797318862E+03  0.21688866300E+04  0.21588923934E+04 0.  0.
        2    1    3    3  502    0 -0.85945346849E+03 -0.65182511899E+03 -0.14501486609E+03  0.10883774904E+04  0.25500000920E-02 0.  1.
       -2    1    3    3    0  502  0.85945346849E+03  0.65182511899E+03 -0.62958322525E+02  0.10805091395E+04  0.25500000920E-02 0. -1.
</event>
<event>
 5   0  0.8784659E-05  0.1830190E+04  0.7818609E-02  0.8690408E-01
        1   -1    0    0  501    0  0.00000000000E+00  0.00000000000E+00  0.14602621861E+04  0.14602621861E+04  0.50400001928E-02 0. -1.
       -1   -1    0    0    0  501  0.00000000000E+00  0.00000000000E+00 -0.57345780385E+03  0.57345780387E+03  0.50400001928E-02 0.  1.
    10030    2    1    2    0    0  0.00000000000E+00  0.00000000000E+00  0.88680438222E+03  0.20337199899E+04  0.18301898768E+04 0.  0.
        4    1    3    3  502    0 -0.73058573370E+03 -0.17522072411E+03 -0.13713234189E+03  0.76371768903E+03  0.12699999809E+01 0.  1.
       -4    1    3    3    0  502  0.73058573370E+03  0.17522072411E+03  0.10239367241E+04  0.12700023009E+04  0.12699999809E+01 0. -1.
</event>
<event>
 5   0  0.6250625E-05  0.2127194E+04  0.7818609E-02  0.8549358E-01
        3   -1    0    0  501    0  0.00000000000E+00  0.00000000000E+00  0.11046226712E+04  0.11046226758E+04  0.10100000352E+00 0.  1.
       -3   -1    0    0    0  501  0.00000000000E+00  0.00000000000E+00 -0.10240954117E+04  0.10240954166E+04  0.10100000352E+00 0. -1.
    10030    2    1    2    0    0  0.00000000000E+00  0.00000000000E+00  0.80527259529E+02  0.21287180924E+04  0.21271944146E+04 0.  0.
        2    1    3    3  502    0 -0.50869633960E+03 -0.76736430186E+03 -0.49267682799E+03  0.10441984460E+04  0.25500000920E-02 0. -1.
       -2    1    3    3    0  502  0.50869633960E+03  0.76736430186E+03  0.57320408752E+03  0.10845196465E+04  0.25500000920E-02 0.  1.
</event>
<event>
 5   0  0.1733962E-04  0.2163899E+04  0.7818609E-02  0.8533606E-01
        2   -1    0    0  501    0  0.00000000000E+00  0.00000000000E+00  0.18518040387E+04  0.18518040387E+04  0.25500000920E-02 0. -1.
       -2   -1    0    0    0  501  0.00000000000E+00  0.00000000000E+00 -0.63214852408E+03  0.63214852409E+03  0.25500000920E-02 0.  1.
    10030    2    1    2    0    0  0.00000000000E+00  0.00000000000E+00  0.12196555146E+04  0.24839525628E+04  0.21638994338E+04 0.  0.
        3    1    3    3  502    0 -0.58023987814E+03 -0.54312071198E+03  0.14525475311E+04  0.16557634989E+04  0.10100000352E+00 0. -1.
       -3    1    3    3    0  502  0.58023987814E+03  0.54312071198E+03 -0.23289201650E+03  0.82818906387E+03  0.10100000352E+00 0.  1.
</event>
<event>
 5   0  0.1733962E-04  0.1740674E+04  0.7818609E-02  0.8738501E-01
        2   -1    0    0  501    0  0.00000000000E+00  0.00000000000E+00  0.93101671254E+03  0.93101671254E+03  0.25500000920E-02 0. -1.
       -2   -1    0    0    0  501  0.00000000000E+00  0.00000000000E+00 -0.81361214617E+03  0.81361214617E+03  0.25500000920E-02 0.  1.
    10030    2    1    2    0    0  0.00000000000E+00  0.00000000000E+00  0.11740456637E+03  0.17446288587E+04  0.17406740138E+04 0.  0.
        3    1    3    3  502    0  0.35496219816E+03 -0.63684753354E+03 -0.41768125807E+03  0.84025626248E+03  0.10100000352E+00 0.  1.
       -3    1    3    3    0  502 -0.35496219816E+03  0.63684753354E+03  0.53508582444E+03  0.90437259623E+03  0.10100000352E+00 0. -1.
</event>
<event>
 5   0  0.8602414E-05  0.2071242E+04  0.7818609E-02  0.8574018E-01
       -1   -1    0    0    0  501  0.00000000000E+00  0.00000000000E+00  0.12537718612E+04  0.12537718612E+04  0.50400001928E-02 0. -1.
        1   -1    0    0  501    0  0.00000000000E+00  0.00000000000E+00 -0.85542731713E+03  0.85542731714E+03  0.50400001928E-02 0.  1.
    10030    2    1    2    0    0  0.00000000000E+00  0.00000000000E+00  0.39834454404E+03  0.21091991783E+04  0.20712418492E+04 0.  0.
        3    1    3    3  502    0  0.86917324585E+03 -0.31943476207E+03 -0.27301698428E+03  0.96542166043E+03  0.10100000352E+00 0.  1.
       -3    1    3    3    0  502 -0.86917324585E+03  0.31943476207E+03  0.67136152831E+03  0.11437775179E+04  0.10100000352E+00 0. -1.
</event>
<event>
 5   0  0.8784659E-05  0.2115205E+04  0.7818609E-02  0.8554575E-01
        1   -1    0    0  501    0  0.00000000000E+00  0.00000000000E+00  0.14340087052E+04  0.14340087052E+04  0.50400001928E-02 0.  1.
       -1   -1    0    0    0  501  0.00000000000E+00  0.00000000000E+00 -0.77999743179E+03  0.77999743181E+03  0.50400001928E-02 0. -1.
    10030    2    1    2    0    0  0.00000000000E+00  0.00000000000E+00  0.65401127340E+03  0.22140061370E+04  0.21152050560E+04 0.  0.
        4    1    3    3  502    0  0.52261463593E+03  0.87050950736E+03  0.17192520871E+02  0.10154851332E+04  0.12699999809E+01 0.  1.
       -4    1    3    3    0  502 -0.52261463593E+03 -0.87050950736E+03  0.63681875253E+03  0.11985210038E+04  0.12699999809E+01 0. -1.
</event>
<event>
 5   0  0.7954459E-05  0.1230674E+04  0.7818609E-02  0.9086423E-01
        1   -1    0    0  501    0  0.00000000000E+00  0.00000000000E+00  0.15142821101E+04  0.15142821101E+04  0.50400001928E-02 0.  1.
       -1   -1    0    0    0  501  0.00000000000E+00  0.00000000000E+00 -0.25004560788E+03  0.25004560793E+03  0.50400001928E-02 0. -1.
    10030    2    1    2    0    0  0.00000000000E+00  0.00000000000E+00  0.12642365023E+04  0.17643277181E+04  0.12306739467E+04 0.  0.
        5    1    3    3  502    0  0.27919886672E+03 -0.31783064425E+03  0.12726932884E+04  0.13411706162E+04  0.46999998093E+01 0.  1.
       -5    1    3    3    0  502 -0.27919886672E+03  0.31783064425E+03 -0.84567861045E+01  0.42315710184E+03  0.46999998093E+01 0. -1.
</event>
<event>
 5   0  0.1798917E-04  0.2433646E+04  0.7818609E-02  0.8427013E-01
        2   -1    0    0  501    0  0.00000000000E+00  0.00000000000E+00  0.29553610471E+04  0.29553610471E+04  0.25500000920E-02 0.  1.
       -2   -1    0    0    0  501  0.00000000000E+00  0.00000000000E+00 -0.50100752899E+03  0.50100752900E+03  0.25500000920E-02 0. -1.
    10030    2    1    2    0    0  0.00000000000E+00  0.00000000000E+00  0.24543535181E+04  0.34563685761E+04  0.24336459360E+04 0.  0.
        4    1    3    3  502    0  0.61932876835E+03  0.78623993851E+03  0.24431611463E+03  0.10302588709E+04  0.12699999809E+01 0.  1.
       -4    1    3    3    0  502 -0.61932876835E+03 -0.78623993851E+03  0.22100374035E+04  0.24261097052E+04  0.12699999809E+01 0. -1.
</event>
<event>
 5   0  0.1798917E-04  0.2109566E+04  0.7818609E-02  0.8557041E-01
        2   -1    0    0  501    0  0.00000000000E+00  0.00000000000E+00  0.19659953037E+04  0.19659953037E+04  0.25500000920E-02 0. -1.
       -2   -1    0    0    0  501  0.00000000000E+00  0.00000000000E+00 -0.56590527074E+03  0.56590527074E+03  0.25500000920E-02 0.  1.
    10030    2    1    2    0    0  0.00000000000E+00  0.00000000000E+00  0.14000900330E+04  0.25319005745E+04  0.21095659313E+04 0.  0.
        4    1    3    3  502    0  0.93088788159E+02  0.20433185733E+03  0.19369779600E+04  0.19499492970E+04  0.12699999809E+01 0. -1.
       -4    1    3    3    0  502 -0.93088788159E+02 -0.20433185733E+03 -0.53688792696E+03  0.58195127753E+03  0.12699999809E+01 0.  1.
</event>
<event>
 5   0  0.1733962E-04  0.2182132E+04  0.7818609E-02  0.8525902E-01
        2   -1    0    0  501    0  0.00000000000E+00  0.00000000000E+00  0.17364033517E+04  0.17364033517E+04  0.25500000920E-02 0. -1.
       -2   -1    0    0    0  501  0.00000000000E+00  0.00000000000E+00 -0.68556943903E+03  0.68556943904E+03  0.25500000920E-02 0.  1.
    10030    2    1    2    0    0  0.00000000000E+00  0.00000000000E+00  0.10508339126E+04  0.24219727907E+04  0.21821320508E+04 0.  0.
        3    1    3    3  502    0  0.27601455838E+03 -0.38801669682E+03 -0.56415413315E+03  0.73824852834E+03  0.10100000352E+00 0.  1.
       -3    1    3    3    0  502 -0.27601455838E+03  0.38801669682E+03  0.16149880458E+04  0.16837242623E+04  0.10100000352E+00 0. -1.
</event>
<event>
 5   0  0.8306787E-05  0.2199119E+04  0.7818609E-02  0.8518795E-01
       -1   -1    0    0    0  501  0.00000000000E+00  0.00000000000E+00  0.20586093169E+04  0.20586093169E+04  0.50400001928E-02 0.  1.
        1   -1    0    0  501    0  0.00000000000E+00  0.00000000000E+00 -0.58730456869E+03  0.58730456871E+03  0.50400001928E-02 0. -1.
    10030    2    1    2    0    0  0.00000000000E+00  0.00000000000E+00  0.14713047482E+04  0.26459138856E+04  0.21991186025E+04 0.  0.
        1    1    3    3  502    0  0.17434025824E+02 -0.10419761176E+04  0.31366287503E+03  0.10883026114E+04  0.50400001928E-02 0. -1.
       -1    1    3    3    0  502 -0.17434025824E+02  0.10419761176E+04  0.11576418732E+04  0.15576112742E+04  0.50400001928E-02 0.  1.
</event>
<event>
 5   0  0.1798917E-04  0.2208803E+04  0.7818609E-02  0.8514773E-01
       -2   -1    0    0    0  501  0.00000000000E+00  0.00000000000E+00  0.73321387071E+03  0.73321387071E+03  0.25500000920E-02 0.  1.
        2   -1    0    0  501    0  0.00000000000E+00  0.00000000000E+00 -0.16635014949E+04  0.16635014949E+04  0.25500000920E-02 0. -1.
    10030    2    1    2    0    0  0.00000000000E+00  0.00000000000E+00 -0.93028762416E+03  0.23967153656E+04  0.22088027254E+04 0.  0.
        4    1    3    3  502    0 -0.10202528514E+03  0.20857415544E+03 -0.16367169330E+04  0.16531050386E+04  0.12699999809E+01 0. -1.
       -4    1    3    3    0  502  0.10202528514E+03 -0.20857415544E+03  0.70642930881E+03  0.74361032696E+03  0.12699999809E+01 0.  1.
</event>
<event>
 5   0  0.8784659E-05  0.2486488E+04  0.7818609E-02  0.8407815E-01
       -1   -1    0    0    0  501  0.00000000000E+00  0.00000000000E+00  0.27358366536E+04  0.27358366536E+04  0.50400001928E-02 0. -1.
        1   -1    0    0  501    0  0.00000000000E+00  0.00000000000E+00 -0.56496639896E+03  0.56496639898E+03  0.50400001928E-02 0.  1.
    10030    2    1    2    0    0  0.00000000000E+00  0.00000000000E+00  0.21708702546E+04  0.33008030526E+04  0.24864881117E+04 0.  0.
        4    1    3    3  502    0 -0.28939691775E+03 -0.76267409470E+03 -0.16003053035E+03  0.83128438833E+03  0.12699999809E+01 0.  1.
       -4    1    3    3    0  502  0.28939691775E+03  0.76267409470E+03  0.23309007850E+04  0.24695186642E+04  0.12699999809E+01 0. -1.
</event>
<event>
 5   0  0.1754356E-04  0.2223838E+04  0.7818609E-02  0.8508571E-01
       -2   -1    0    0    0  501  0.00000000000E+00  0.00000000000E+00  0.12779377854E+04  0.12779377854E+04  0.25500000920E-02 0. -1.
        2   -1    0    0  501    0  0.00000000000E+00  0.00000000000E+00 -0.96746756485E+03  0.96746756485E+03  0.25500000920E-02 0.  1.
    10030    2    1    2    0    0  0.00000000000E+00  0.00000000000E+00  0.31047022052E+03  0.22454053502E+04  0.22238375456E+04 0.  0.
        1    1    3    3  502    0 -0.71515967787E+03 -0.62575342150E+03 -0.42772271355E+03  0.10420976102E+04  0.50400001928E-02 0.  1.
       -1    1    3    3    0  502  0.71515967787E+03  0.62575342150E+03  0.73819293407E+03  0.12033077401E+04  0.50400001928E-02 0. -1.
</event>
<event>
 5   0  0.1680258E-04  0.2226421E+04  0.7818609E-02  0.8507511E-01
       -2   -1    0    0    0  501  0.00000000000E+00  0.00000000000E+00  0.57278049776E+03  0.57278049777E+03  0.25500000920E-02 0.  1.
        2   -1    0    0  501    0  0.00000000000E+00  0.00000000000E+00 -0.21635478961E+04  0.21635478961E+04  0.25500000920E-02 0. -1.
    10030    2    1    2    0    0  0.00000000000E+00  0.00000000000E+00 -0.15907673983E+04  0.27363283939E+04  0.22264213805E+04 0.  0.
        5    1    3    3  502    0  0.10079094094E+04  0.12579693394E+03 -0.23552290047E+03  0.10426885310E+04  0.46999998093E+01 0.  1.
       -5    1    3    3    0  502 -0.10079094094E+04 -0.12579693394E+03 -0.13552444978E+04  0.16936398628E+04  0.46999998093E+01 0. -1.
</event>
<event>
 5   0  0.8306787E-05  0.1789250E+04  0.7818609E-02  0.8712037E-01
       -1   -1    0    0    0  501  0.00000000000E+00  0.00000000000E+00  0.12453521206E+04  0.12453521206E+04  0.50400001928E-02 0.  1.
        1   -1    0    0  501    0  0.00000000000E+00  0.00000000000E+00 -0.64267287725E+03  0.64267287727E+03  0.50400001928E-02 0. -1.
    10030    2    1    2    0    0  0.00000000000E+00  0.00000000000E+00  0.60267924331E+03  0.18880249978E+04  0.17892501564E+04 0.  0.
        1    1    3    3  502    0  0.28941720894E+03  0.85470147475E+02  0.11900239932E+04  0.12276907475E+04  0.50400001928E-02 0.  1.
       -1    1    3    3    0  502 -0.28941720894E+03 -0.85470147475E+02 -0.58734474991E+03  0.66033425037E+03  0.50400001928E-02 0. -1.
</event>
<event>
 5   0  0.8306787E-05  0.2265528E+04  0.7818609E-02  0.8491638E-01
       -1   -1    0    0    0  501  0.00000000000E+00  0.00000000000E+00  0.95654407098E+03  0.95654407099E+03  0.50400001928E-02 0. -1.
        1   -1    0    0  501    0  0.00000000000E+00  0.00000000000E+00 -0.13414482686E+04  0.13414482686E+04  0.50400001928E-02 0.  1.
    10030    2    1    2    0    0  0.00000000000E+00  0.00000000000E+00 -0.38490419765E+03  0.22979923396E+04  0.22655280955E+04 0.  0.
        1    1    3    3  502    0 -0.35694900571E+03  0.87150682253E+03 -0.83093024244E+03  0.12559386140E+04  0.50400001928E-02 0.  1.
       -1    1    3    3    0  502  0.35694900571E+03 -0.87150682253E+03  0.44602604479E+03  0.10420537256E+04  0.50400001928E-02 0. -1.
</event>
<event>
 5   0  0.8784659E-05  0.2216486E+04  0.7818609E-02  0.8511597E-01
       -1   -1    0    0    0  501  0.00000000000E+00  0.00000000000E+00  0.25072929401E+04  0.25072929401E+04  0.50400001928E-02 0.  1.
        1   -1    0    0  501    0  0.00000000000E+00  0.00000000000E+00 -0.48985216827E+03  0.48985216830E+03  0.50400001928E-02 0. -1.
    10030    2    1    2    0    0  0.00000000000E+00  0.00000000000E+00  0.20174407719E+04  0.29971451084E+04  0.22164863034E+04 0.  0.
        4    1    3    3  502    0 -0.92111766710E+03  0.69653779169E+02  0.18078636973E+03  0.94127293065E+03  0.12699999809E+01 0. -1.
       -4    1    3    3    0  502  0.92111766710E+03 -0.69653779169E+02  0.18366544021E+04  0.20558721778E+04  0.12699999809E+01 0.  1.
</event>
<event>
 5   0  0.1798917E-04  0.2213599E+04  0.7818609E-02  0.8512789E-01
       -2   -1    0    0    0  501  0.00000000000E+00  0.00000000000E+00  0.95317180171E+03  0.95317180171E+03  0.25500000920E-02 0. -1.
        2   -1    0    0  501    0  0.00000000000E+00  0.00000000000E+00 -0.12851881246E+04  0.12851881246E+04  0.25500000920E-02 0.  1.
    10030    2    1    2    0    0  0.00000000000E+00  0.00000000000E+00 -0.33201632293E+03  0.22383599263E+04  0.22135989522E+04 0.  0.
        4    1    3    3  502    0 -0.87914401904E+02 -0.10333575522E+04 -0.55691578332E+03  0.11771633597E+04  0.12699999809E+01 0.  1.
       -4    1    3    3    0  502  0.87914401904E+02  0.10333575522E+04  0.22489946040E+03  0.10611965666E+04  0.12699999809E+01 0. -1.
</event>
<event>
 5   0  0.8306787E-05  0.2212481E+04  0.7818609E-02  0.8513251E-01
        1   -1    0    0  501    0  0.00000000000E+00  0.00000000000E+00  0.13346158864E+04  0.13346158864E+04  0.50400001928E-02 0. -1.
       -1   -1    0    0    0  501  0.00000000000E+00  0.00000000000E+00 -0.91694425539E+03  0.91694425541E+03  0.50400001928E-02 0.  1.
    10030    2    1    2    0    0  0.00000000000E+00  0.00000000000E+00  0.41767163104E+03  0.22515601419E+04  0.22124812951E+04 0.  0.
        1    1    3    3  502    0  0.34944460552E+03  0.47206595508E+03  0.11628428579E+04  0.13027514385E+04  0.50400001928E-02 0. -1.
       -1    1    3    3    0  502 -0.34944460552E+03 -0.47206595508E+03 -0.74517122684E+03  0.94880870338E+03  0.50400001928E-02 0.  1.
</event>
<event>
 5   0  0.1754356E-04  0.2124419E+04  0.7818609E-02  0.8550562E-01
        2   -1    0    0  501    0  0.00000000000E+00  0.00000000000E+00  0.27112730527E+04  0.27112730527E+04  0.25500000920E-02 0.  1.
       -2   -1    0    0    0  501  0.00000000000E+00  0.00000000000E+00 -0.41614720553E+03  0.41614720554E+03  0.25500000920E-02 0. -1.
    10030    2    1    2    0    0  0.00000000000E+00  0.00000000000E+00  0.22951258472E+04  0.31274202583E+04  0.21244187011E+04 0.  0.
        1    1    3    3  502    0 -0.95185259454E+03 -0.43467242277E+03  0.87882268988E+03  0.13664892232E+04  0.50400001928E-02 0. -1.
       -1    1    3    3    0  502  0.95185259454E+03  0.43467242277E+03  0.14163031573E+04  0.17609310351E+04  0.50400001928E-02 0.  1.
</event>
<event>
 5   0  0.6250625E-05  0.2174251E+04  0.7818609E-02  0.8529223E-01
       -3   -1    0    0    0  501  0.00000000000E+00  0.00000000000E+00  0.63642111963E+03  0.63642112764E+03  0.10100000352E+00 0. -1.
        3   -1    0    0  501    0  0.00000000000E+00  0.00000000000E+00 -0.18570115142E+04  0.18570115170E+04  0.10100000352E+00 0.  1.
    10030    2    1    2    0    0  0.00000000000E+00  0.00000000000E+00 -0.12205903946E+04  0.24934326446E+04  0.21742505472E+04 0.  0.
        2    1    3    3  502    0 -0.17962240245E+03 -0.46378032406E+03  0.49830311215E+03  0.70403294527E+03  0.25500000920E-02 0. -1.
       -2    1    3    3    0  502  0.17962240245E+03  0.46378032406E+03 -0.17188935067E+04  0.17893996993E+04  0.25500000920E-02 0.  1.
</event>
<event>
 5   0  0.1733962E-04  0.2012208E+04  0.7818609E-02  0.8600934E-01
       -2   -1    0    0    0  501  0.00000000000E+00  0.00000000000E+00  0.36984449058E+03  0.36984449059E+03  0.25500000920E-02 0. -1.
        2   -1    0    0  501    0  0.00000000000E+00  0.00000000000E+00 -0.27369476646E+04  0.27369476646E+04  0.25500000920E-02 0.  1.
    10030    2    1    2    0    0  0.00000000000E+00  0.00000000000E+00 -0.23671031740E+04  0.31067921552E+04  0.20122077574E+04 0.  0.
        3    1    3    3  502    0  0.27103919936E+02 -0.38020048694E+03  0.25404953514E+03  0.45807009207E+03  0.10100000352E+00 0. -1.
       -3    1    3    3    0  502 -0.27103919936E+02  0.38020048694E+03 -0.26211527091E+04  0.26487220631E+04  0.10100000352E+00 0.  1.
</event>
<event>
 5   0  0.8306787E-05  0.2188681E+04  0.7818609E-02  0.8523154E-01
        1   -1    0    0  501    0  0.00000000000E+00  0.00000000000E+00  0.10369056351E+04  0.10369056351E+04  0.50400001928E-02 0. -1.
       -1   -1    0    0    0  501  0.00000000000E+00  0.00000000000E+00 -0.11549567171E+04  0.11549567171E+04  0.50400001928E-02 0.  1.
    10030    2    1    2    0    0  0.00000000000E+00  0.00000000000E+00 -0.11805108193E+03  0.21918623522E+04  0.21886809985E+04 0.  0.
        1    1    3    3  502    0  0.82338162490E+03  0.61226878596E+03  0.32198872655E+03  0.10754102039E+04  0.50400001928E-02 0. -1.
       -1    1    3    3    0  502 -0.82338162490E+03 -0.61226878596E+03 -0.44003980849E+03  0.11164521484E+04  0.50400001928E-02 0.  1.
</event>
<event>
 5   0  0.6250625E-05  0.2146158E+04  0.7818609E-02  0.8541179E-01
       -3   -1    0    0    0  501  0.00000000000E+00  0.00000000000E+00  0.13229108081E+04  0.13229108119E+04  0.10100000352E+00 0. -1.
        3   -1    0    0  501    0  0.00000000000E+00  0.00000000000E+00 -0.87042780266E+03  0.87042780852E+03  0.10100000352E+00 0.  1.
    10030    2    1    2    0    0  0.00000000000E+00  0.00000000000E+00  0.45248300541E+03  0.21933386204E+04  0.21461578306E+04 0.  0.
        4    1    3    3  502    0 -0.46769587856E+03 -0.88658639040E+03  0.61770518288E+03  0.11774277763E+04  0.12699999809E+01 0. -1.
       -4    1    3    3    0  502  0.46769587856E+03  0.88658639040E+03 -0.16522217748E+03  0.10159108442E+04  0.12699999809E+01 0.  1.
</event>
<event>
 5   0  0.1680258E-04  0.2053291E+04  0.7818609E-02  0.8582103E-01
       -2   -1    0    0    0  501  0.00000000000E+00  0.00000000000E+00  0.96340555822E+03  0.96340555823E+03  0.25500000920E-02 0. -1.
        2   -1    0    0  501    0  0.00000000000E+00  0.00000000000E+00 -0.10940368239E+04  0.10940368239E+04  0.25500000920E-02 0.  1.
    10030    2    1    2    0    0  0.00000000000E+00  0.00000000000E+00 -0.13063126567E+03  0.20574423821E+04  0.20532911698E+04 0.  0.
        5    1    3    3  502    0  0.34833474149E+03 -0.66488954147E+03  0.63650304659E+03  0.98416127378E+03  0.46999998093E+01 0. -1.
       -5    1    3    3    0  502 -0.34833474149E+03  0.66488954147E+03 -0.76713431226E+03  0.10732811083E+04  0.46999998093E+01 0.  1.
</event>
<event>
 5   0  0.8306787E-05  0.1938209E+04  0.7818609E-02  0.8636068E-01
       -1   -1    0    0    0  501  0.00000000000E+00  0.00000000000E+00  0.59645658504E+03  0.59645658507E+03  0.50400001928E-02 0.  1.
        1   -1    0    0  501    0  0.00000000000E+00  0.00000000000E+00 -0.15745719223E+04  0.15745719223E+04  0.50400001928E-02 0. -1.
    10030    2    1    2    0    0  0.00000000000E+00  0.00000000000E+00 -0.97811533721E+03  0.21710285073E+04  0.19382092680E+04 0.  0.
        1    1    3    3  502    0 -0.67832113155E+03  0.23476566516E+03 -0.12183666900E+04  0.14140904732E+04  0.50400001928E-02 0. -1.
       -1    1    3    3    0  502  0.67832113155E+03 -0.23476566516E+03  0.24025135276E+03  0.75693803417E+03  0.50400001928E-02 0.  1.
</event>
<event>
 5   0  0.7954459E-05  0.2160093E+04  0.7818609E-02  0.8535224E-01
       -1   -1    0    0    0  501  0.00000000000E+00  0.00000000000E+00  0.13246724760E+04  0.13246724760E+04  0.50400001928E-02 0. -1.
        1   -1    0    0  501    0  0.00000000000E+00  0.00000000000E+00 -0.88059534416E+03  0.88059534417E+03  0.50400001928E-02 0.  1.
    10030    2    1    2    0    0  0.00000000000E+00  0.00000000000E+00  0.44407713188E+03  0.22052678202E+04  0.21600929748E+04 0.  0.
        5    1    3    3  502    0  0.23985455381E+03 -0.98944362430E+03 -0.14598538976E+03  0.10285245338E+04  0.46999998093E+01 0.  1.
       -5    1    3    3    0  502 -0.23985455381E+03  0.98944362430E+03  0.59006252163E+03  0.11767432864E+04  0.46999998093E+01 0. -1.
</event>
<event>
 5   0  0.8602414E-05  0.2282581E+04  0.7818609E-02  0.8484821E-01
        1   -1    0    0  501    0  0.00000000000E+00  0.00000000000E+00  0.65932690128E+03  0.65932690130E+03  0.50400001928E-02 0. -1.
       -1   -1    0    0    0  501  0.00000000000E+00  0.00000000000E+00 -0.19755664572E+04  0.19755664572E+04  0.50400001928E-02 0.  1.
    10030    2    1    2    0    0  0.00000000000E+00  0.00000000000E+00 -0.13162395559E+04  0.26348933585E+04  0.22825810921E+04 0.  0.
        3    1    3    3  502    0 -0.27568086673E+03 -0.94161704688E+02  0.61568539908E+03  0.68112765893E+03  0.10100000352E+00 0. -1.
       -3    1    3    3    0  502  0.27568086673E+03  0.94161704688E+02 -0.19319249550E+04  0.19537656996E+04  0.10100000352E+00 0.  1.
</event>
<event>
 5   0  0.1798917E-04  0.1994885E+04  0.7818609E-02  0.8609016E-01
       -2   -1    0    0    0  501  0.00000000000E+00  0.00000000000E+00  0.12429776552E+04  0.12429776552E+04  0.25500000920E-02 0.  1.
        2   -1    0    0  501    0  0.00000000000E+00  0.00000000000E+00 -0.80041000680E+03  0.80041000680E+03  0.25500000920E-02 0. -1.
    10030    2    1    2    0    0  0.00000000000E+00  0.00000000000E+00  0.44256764840E+03  0.20433876620E+04  0.19948852132E+04 0.  0.
        4    1    3    3  502    0  0.30753621111E+03  0.34537389238E+03 -0.68396150933E+03  0.82563103492E+03  0.12699999809E+01 0. -1.
       -4    1    3    3    0  502 -0.30753621111E+03 -0.34537389238E+03  0.11265291577E+04  0.12177566271E+04  0.12699999809E+01 0.  1.
</event>
<event>
 5   0  0.8470971E-05  0.2150874E+04  0.7818609E-02  0.8539158E-01
        1   -1    0    0  501    0  0.00000000000E+00  0.00000000000E+00  0.12664556003E+04  0.12664556003E+04  0.50400001928E-02 0.  1.
       -1   -1    0    0    0  501  0.00000000000E+00  0.00000000000E+00 -0.91322939578E+03  0.91322939579E+03  0.50400001928E-02 0. -1.
    10030    2    1    2    0    0  0.00000000000E+00  0.00000000000E+00  0.35322620448E+03  0.21796849961E+04  0.21508737598E+04 0.  0.
        2    1    3    3  502    0  0.90498332354E+03 -0.45365798066E+03 -0.19124249524E+03  0.10302301060E+04  0.25500000920E-02 0.  1.
       -2    1    3    3    0  502 -0.90498332354E+03  0.45365798066E+03  0.54446869973E+03  0.11494548901E+04  0.25500000920E-02 0. -1.
</event>
<event>
 5   0  0.1754356E-04  0.2197835E+04  0.7818609E-02  0.8519330E-01
       -2   -1    0    0    0  501  0.00000000000E+00  0.00000000000E+00  0.11012182873E+04  0.11012182873E+04  0.25500000920E-02 0. -1.
        2   -1    0    0  501    0  0.00000000000E+00  0.00000000000E+00 -0.10966216333E+04  0.10966216333E+04  0.25500000920E-02 0.  1.
    10030    2    1    2    0    0  0.00000000000E+00  0.00000000000E+00  0.45966539883E+01  0.21978399206E+04  0.21978351138E+04 0.  0.
        1    1    3    3  502    0  0.22057567671E+02 -0.10773650263E+04 -0.21315019060E+03  0.10984693623E+04  0.50400001928E-02 0.  1.
       -1    1    3    3    0  502 -0.22057567671E+02  0.10773650263E+04  0.21774684459E+03  0.10993705583E+04  0.50400001928E-02 0. -1.
</event>
<event>
 5   0  0.1798917E-04  0.2179565E+04  0.7818609E-02  0.8526982E-01
       -2   -1    0    0    0  501  0.00000000000E+00  0.00000000000E+00  0.12557379217E+04  0.12557379217E+04  0.25500000920E-02 0. -1.
        2   -1    0    0  501    0  0.00000000000E+00  0.00000000000E+00 -0.94575968988E+03  0.94575968989E+03  0.25500000920E-02 0.  1.
    10030    2    1    2    0    0  0.00000000000E+00  0.00000000000E+00  0.30997823183E+03  0.22014976116E+04  0.21795653763E+04 0.  0.
        4    1    3    3  502    0 -0.13740234135E+03  0.19157712894E+03  0.12296708689E+04  0.12520675934E+04  0.12699999809E+01 0. -1.
       -4    1    3    3    0  502  0.13740234135E+03 -0.19157712894E+03 -0.91969263710E+03  0.94943001816E+03  0.12699999809E+01 0.  1.
</event>
<event>
 5   0  0.1798917E-04  0.2227543E+04  0.7818609E-02  0.8507051E-01
       -2   -1    0    0    0  501  0.00000000000E+00  0.00000000000E+00  0.71432869378E+03  0.71432869379E+03  0.25500000920E-02 0. -1.
        2   -1    0    0  501    0  0.00000000000E+00  0.00000000000E+00 -0.17365773352E+04  0.17365773352E+04  0.25500000920E-02 0.  1.
    10030    2    1    2    0    0  0.00000000000E+00  0.00000000000E+00 -0.10222486414E+04  0.24509060290E+04  0.22275430586E+04 0.  0.
        4    1    3    3  502    0 -0.10970649702E+04  0.17789620424E+03 -0.59112559883E+03  0.12588207556E+04  0.12699999809E+01 0.  1.
       -4    1    3    3    0  502  0.10970649702E+04 -0.17789620424E+03 -0.43112304259E+03  0.11920852734E+04  0.12699999809E+01 0. -1.
</event>
<event>
 5   0  0.1798917E-04  0.1400706E+04  0.7818609E-02  0.8953308E-01
       -2   -1    0    0    0  501  0.00000000000E+00  0.00000000000E+00  0.50017462010E+03  0.50017462010E+03  0.25500000920E-02 0.  1.
        2   -1    0    0  501    0  0.00000000000E+00  0.00000000000E+00 -0.98064622705E+03  0.98064622705E+03  0.25500000920E-02 0. -1.
    10030    2    1    2    0    0  0.00000000000E+00  0.00000000000E+00 -0.48047160695E+03  0.14808208472E+04  0.14007060421E+04 0.  0.
        4    1    3    3  502    0 -0.27515378210E+03 -0.36995887228E+03  0.31709159602E+03  0.55957829135E+03  0.12699999809E+01 0.  1.
       -4    1    3    3    0  502  0.27515378210E+03  0.36995887228E+03 -0.79756320297E+03  0.92124255580E+03  0.12699999809E+01 0. -1.
</event>
<event>
 5   0  0.1733962E-04  0.2150153E+04  0.7818609E-02  0.8539467E-01
       -2   -1    0    0    0  501  0.00000000000E+00  0.00000000000E+00  0.21100945057E+04  0.21100945057E+04  0.25500000920E-02 0. -1.
        2   -1    0    0  501    0  0.00000000000E+00  0.00000000000E+00 -0.54774313842E+03  0.54774313843E+03  0.25500000920E-02 0.  1.
    10030    2    1    2    0    0  0.00000000000E+00  0.00000000000E+00  0.15623513672E+04  0.26578376441E+04  0.21501532847E+04 0.  0.
        3    1    3    3  502    0  0.59833965688E+03  0.83051445646E+03  0.11874519981E+04  0.15677394125E+04  0.10100000352E+00 0. -1.
       -3    1    3    3    0  502 -0.59833965688E+03 -0.83051445646E+03  0.37489936912E+03  0.10900982316E+04  0.10100000352E+00 0.  1.
</event>
<event>
 5   0  0.8602414E-05  0.2126131E+04  0.7818609E-02  0.8549819E-01
        1   -1    0    0  501    0  0.00000000000E+00  0.00000000000E+00  0.10350632279E+04  0.10350632279E+04  0.50400001928E-02 0. -1.
       -1   -1    0    0    0  501  0.00000000000E+00  0.00000000000E+00 -0.10918257801E+04  0.10918257802E+04  0.50400001928E-02 0.  1.
    10030    2    1    2    0    0  0.00000000000E+00  0.00000000000E+00 -0.56762552261E+02  0.21268890081E+04  0.21261314318E+04 0.  0.
        3    1    3    3  502    0  0.73019638088E+03 -0.54248807872E+03  0.52193166906E+03  0.10487577163E+04  0.10100000352E+00 0.  1.
       -3    1    3    3    0  502 -0.73019638088E+03  0.54248807872E+03 -0.57869422132E+03  0.10781312917E+04  0.10100000352E+00 0. -1.
</event>
<event>
 5   0  0.8784659E-05  0.2161093E+04  0.7818609E-02  0.8534799E-01
       -1   -1    0    0    0  501  0.00000000000E+00  0.00000000000E+00  0.83680198712E+03  0.83680198713E+03  0.50400001928E-02 0.  1.
        1   -1    0    0  501    0  0.00000000000E+00  0.00000000000E+00 -0.13952894905E+04  0.13952894906E+04  0.50400001928E-02 0. -1.
    10030    2    1    2    0    0  0.00000000000E+00  0.00000000000E+00 -0.55848750343E+03  0.22320914777E+04  0.21610932588E+04 0.  0.
        4    1    3    3  502    0 -0.17183805082E+03  0.47466741167E+03 -0.12660059038E+04  0.13629416821E+04  0.12699999809E+01 0. -1.
       -4    1    3    3    0  502  0.17183805082E+03 -0.47466741167E+03  0.70751840038E+03  0.86914979560E+03  0.12699999809E+01 0.  1.
</event>
<event>
 5   0  0.1733962E-04  0.2219639E+04  0.7818609E-02  0.8510298E-01
       -2   -1    0    0    0  501  0.00000000000E+00  0.00000000000E+00  0.69020734063E+03  0.69020734064E+03  0.25500000920E-02 0. -1.
        2   -1    0    0  501    0  0.00000000000E+00  0.00000000000E+00 -0.17845352381E+04  0.17845352381E+04  0.25500000920E-02 0.  1.
    10030    2    1    2    0    0  0.00000000000E+00  0.00000000000E+00 -0.10943278975E+04  0.24747425788E+04  0.22196389986E+04 0.  0.
        3    1    3    3  502    0 -0.48717042268E+03  0.96741071845E+03 -0.81678531571E+03  0.13565975015E+04  0.10100000352E+00 0. -1.
       -3    1    3    3    0  502  0.48717042268E+03 -0.96741071845E+03 -0.27754258178E+03  0.11181450773E+04  0.10100000352E+00 0.  1.
</event>
<event>
 5   0  0.1805501E-04  0.2143967E+04  0.7818609E-02  0.8542119E-01
       -2   -1    0    0    0  501  0.00000000000E+00  0.00000000000E+00  0.55471236462E+03  0.55471236463E+03  0.25500000920E-02 0.  1.
        2   -1    0    0  501    0  0.00000000000E+00  0.00000000000E+00 -0.20716122497E+04  0.20716122497E+04  0.25500000920E-02 0. -1.
    10030    2    1    2    0    0  0.00000000000E+00  0.00000000000E+00 -0.15168998851E+04  0.26263246143E+04  0.21439672848E+04 0.  0.
        2    1    3    3  502    0  0.56283816275E+03 -0.59332638487E+03 -0.16074315222E+04  0.18035129872E+04  0.25500000920E-02 0. -1.
       -2    1    3    3    0  502 -0.56283816275E+03  0.59332638487E+03  0.90531637111E+02  0.82281162714E+03  0.25500000920E-02 0.  1.
</event>
<event>
 5   0  0.8306787E-05  0.2245202E+04  0.7818609E-02  0.8499846E-01
        1   -1    0    0  501    0  0.00000000000E+00  0.00000000000E+00  0.10380799740E+04  0.10380799740E+04  0.50400001928E-02 0.  1.
       -1   -1    0    0    0  501  0.00000000000E+00  0.00000000000E+00 -0.12140041920E+04  0.12140041920E+04  0.50400001928E-02 0. -1.
    10030    2    1    2    0    0  0.00000000000E+00  0.00000000000E+00 -0.17592421798E+03  0.22520841660E+04  0.22452023873E+04 0.  0.
        1    1    3    3  502    0  0.82262873646E+03  0.62525034516E+03  0.35221939517E+03  0.10916567842E+04  0.50400001928E-02 0.  1.
       -1    1    3    3    0  502 -0.82262873646E+03 -0.62525034516E+03 -0.52814361315E+03  0.11604273818E+04  0.50400001928E-02 0. -1.
</event>
<event>
 5   0  0.1754356E-04  0.2181788E+04  0.7818609E-02  0.8526047E-01
        2   -1    0    0  501    0  0.00000000000E+00  0.00000000000E+00  0.17756820337E+04  0.17756820337E+04  0.25500000920E-02 0.  1.
       -2   -1    0    0    0  501  0.00000000000E+00  0.00000000000E+00 -0.67019280530E+03  0.67019280530E+03  0.25500000920E-02 0. -1.
    10030    2    1    2    0    0  0.00000000000E+00  0.00000000000E+00  0.11054892284E+04  0.24458748390E+04  0.21817876372E+04 0.  0.
        1    1    3    3  502    0 -0.60323626856E+03 -0.83650185292E+03  0.15415166897E+03  0.10427809371E+04  0.50400001928E-02 0. -1.
       -1    1    3    3    0  502  0.60323626856E+03  0.83650185292E+03  0.95133755943E+03  0.14030939019E+04  0.50400001928E-02 0.  1.
</event>
<event>
 5   0  0.8470971E-05  0.2148777E+04  0.7818609E-02  0.8540056E-01
       -1   -1    0    0    0  501  0.00000000000E+00  0.00000000000E+00  0.10819951319E+04  0.10819951319E+04  0.50400001928E-02 0.  1.
        1   -1    0    0  501    0  0.00000000000E+00  0.00000000000E+00 -0.10668349358E+04  0.10668349358E+04  0.50400001928E-02 0. -1.
    10030    2    1    2    0    0  0.00000000000E+00  0.00000000000E+00  0.15160196111E+02  0.21488300677E+04  0.21487765888E+04 0.  0.
        2    1    3    3  502    0  0.64527901331E+02  0.17486018754E+03  0.10657039096E+04  0.10818801958E+04  0.25500000920E-02 0.  1.
       -2    1    3    3    0  502 -0.64527901331E+02 -0.17486018754E+03 -0.10505437135E+04  0.10669498719E+04  0.25500000920E-02 0. -1.
</event>
<event>
 5   0  0.1680258E-04  0.2159315E+04  0.7818609E-02  0.8535556E-01
        2   -1    0    0  501    0  0.00000000000E+00  0.00000000000E+00  0.18184319743E+04  0.18184319743E+04  0.25500000920E-02 0. -1.
       -2   -1    0    0    0  501  0.00000000000E+00  0.00000000000E+00 -0.64102485758E+03  0.64102485759E+03  0.25500000920E-02 0.  1.
    10030    2    1    2    0    0  0.00000000000E+00  0.00000000000E+00  0.11774071167E+04  0.24594568318E+04  0.21593147963E+04 0.  0.
        5    1    3    3  502    0 -0.71141417675E+03  0.57739142876E+03  0.12391775660E+04  0.15411275492E+04  0.46999998093E+01 0. -1.
       -5    1    3    3    0  502  0.71141417675E+03 -0.57739142876E+03 -0.61770449346E+02  0.91832928261E+03  0.46999998093E+01 0.  1.
</event>
<event>
 5   0  0.8470971E-05  0.1661426E+04  0.7818609E-02  0.8783675E-01
        1   -1    0    0  501    0  0.00000000000E+00  0.00000000000E+00  0.81760004967E+03  0.81760004968E+03  0.50400001928E-02 0.  1.
       -1   -1    0    0    0  501  0.00000000000E+00  0.00000000000E+00 -0.84403638161E+03  0.84403638162E+03  0.50400001928E-02 0. -1.
    10030    2    1    2    0    0  0.00000000000E+00  0.00000000000E+00 -0.26436331940E+02  0.16616364313E+04  0.16614261194E+04 0.  0.
        2    1    3    3  502    0  0.28548787287E+03 -0.46180007914E+03  0.61560743698E+03  0.82081371523E+03  0.25500000920E-02 0.  1.
       -2    1    3    3    0  502 -0.28548787287E+03  0.46180007914E+03 -0.64204376892E+03  0.84082271607E+03  0.25500000920E-02 0. -1.
</event>
<event>
 5   0  0.8602414E-05  0.2123970E+04  0.7818609E-02  0.8550757E-01
       -1   -1    0    0    0  501  0.00000000000E+00  0.00000000000E+00  0.15857450652E+04  0.15857450652E+04  0.50400001928E-02 0. -1.
        1   -1    0    0  501    0  0.00000000000E+00  0.00000000000E+00 -0.71121925011E+03  0.71121925013E+03  0.50400001928E-02 0.  1.
    10030    2    1    2    0    0  0.00000000000E+00  0.00000000000E+00  0.87452581509E+03  0.22969643153E+04  0.21239702598E+04 0.  0.
        3    1    3    3  502    0  0.19395683472E+03  0.20371618721E+03 -0.67020200096E+03  0.72683579367E+03  0.10100000352E+00 0.  1.
       -3    1    3    3    0  502 -0.19395683472E+03 -0.20371618721E+03  0.15447278161E+04  0.15701285217E+04  0.10100000352E+00 0. -1.
</event>
<event>
 5   0  0.7954459E-05  0.2222260E+04  0.7818609E-02  0.8509220E-01
       -1   -1    0    0    0  501  0.00000000000E+00  0.00000000000E+00  0.72629372592E+03  0.72629372594E+03  0.50400001928E-02 0.  1.
        1   -1    0    0  501    0  0.00000000000E+00  0.00000000000E+00 -0.16998764457E+04  0.16998764457E+04  0.50400001928E-02 0. -1.
    10030    2    1    2    0    0  0.00000000000E+00  0.00000000000E+00 -0.97358271978E+03  0.24261701716E+04  0.22222597484E+04 0.  0.
        5    1    3    3  502    0  0.68444193992E+03 -0.49913431179E+03  0.29820603373E+03  0.89807837012E+03  0.46999998093E+01 0.  1.
       -5    1    3    3    0  502 -0.68444193992E+03  0.49913431179E+03 -0.12717887535E+04  0.15280918015E+04  0.46999998093E+01 0. -1.
</event>
<event>
 5   0  0.1754356E-04  0.1974819E+04  0.7818609E-02  0.8618485E-01
       -2   -1    0    0    0  501  0.00000000000E+00  0.00000000000E+00  0.22986994642E+04  0.22986994642E+04  0.25500000920E-02 0. -1.
        2   -1    0    0  501    0  0.00000000000E+00  0.00000000000E+00 -0.42414306966E+03  0.42414306967E+03  0.25500000920E-02 0.  1.
    10030    2    1    2    0    0  0.00000000000E+00  0.00000000000E+00  0.18745563945E+04  0.27228425338E+04  0.19748189253E+04 0.  0.
        1    1    3    3  502    0 -0.67997792091E+03 -0.66008098883E+03  0.13196272363E+04  0.16246516327E+04  0.50400001928E-02 0. -1.
       -1    1    3    3    0  502  0.67997792091E+03  0.66008098883E+03  0.55492915823E+03  0.10981909012E+04  0.50400001928E-02 0.  1.
</event>
<event>
 5   0  0.8602414E-05  0.1425767E+04  0.7818609E-02  0.8935375E-01
       -1   -1    0    0    0  501  0.00000000000E+00  0.00000000000E+00  0.86384313695E+03  0.86384313697E+03  0.50400001928E-02 0.  1.
        1   -1    0    0  501    0  0.00000000000E+00  0.00000000000E+00 -0.58830454186E+03  0.58830454188E+03  0.50400001928E-02 0. -1.
    10030    2    1    2    0    0  0.00000000000E+00  0.00000000000E+00  0.27553859509E+03  0.14521476788E+04  0.14257669388E+04 0.  0.
        3    1    3    3  502    0  0.20752627880E+03 -0.58441448987E+03  0.49583552516E+03  0.79401532137E+03  0.10100000352E+00 0.  1.
       -3    1    3    3    0  502 -0.20752627880E+03  0.58441448987E+03 -0.22029693007E+03  0.65813235748E+03  0.10100000352E+00 0. -1.
</event>
<event>
 5   0  0.1805501E-04  0.2169127E+04  0.7818609E-02  0.8531389E-01
       -2   -1    0    0    0  501  0.00000000000E+00  0.00000000000E+00  0.84772635252E+03  0.84772635252E+03  0.25500000920E-02 0. -1.
        2   -1    0    0  501    0  0.00000000000E+00  0.00000000000E+00 -0.13875683172E+04  0.13875683172E+04  0.25500000920E-02 0.  1.
    10030    2    1    2    0    0  0.00000000000E+00  0.00000000000E+00 -0.53984196470E+03  0.22352946697E+04  0.21691272240E+04 0.  0.
        2    1    3    3  502    0 -0.29164548655E+03  0.10140815267E+04 -0.52828750539E+03  0.11800449656E+04  0.25500000920E-02 0.  1.
       -2    1    3    3    0  502  0.29164548655E+03 -0.10140815267E+04 -0.11554459309E+02  0.10552497041E+04  0.25500000920E-02 0. -1.
</event>
<event>
 5   0  0.8784659E-05  0.2305990E+04  0.7818609E-02  0.8475563E-01
        1   -1    0    0  501    0  0.00000000000E+00  0.00000000000E+00  0.13076995673E+04  0.13076995673E+04  0.50400001928E-02 0.  1.
       -1   -1    0    0    0  501  0.00000000000E+00  0.00000000000E+00 -0.10165923737E+04  0.10165923737E+04  0.50400001928E-02 0. -1.
    10030    2    1    2    0    0  0.00000000000E+00  0.00000000000E+00  0.29110719358E+03  0.23242919410E+04  0.23059899455E+04 0.  0.
        4    1    3    3  502    0 -0.34391644124E+03 -0.68296076408E+03  0.10153521030E+04  0.12710843520E+04  0.12699999809E+01 0.  1.
       -4    1    3    3    0  502  0.34391644124E+03  0.68296076408E+03 -0.72424490944E+03  0.10532075890E+04  0.12699999809E+01 0. -1.
</event>
<event>
 5   0  0.7954459E-05  0.2242226E+04  0.7818609E-02  0.8501055E-01
        1   -1    0    0  501    0  0.00000000000E+00  0.00000000000E+00  0.25031538373E+04  0.25031538373E+04  0.50400001928E-02 0. -1.
       -1   -1    0    0    0  501  0.00000000000E+00  0.00000000000E+00 -0.50212424268E+03  0.50212424271E+03  0.50400001928E-02 0.  1.
    10030    2    1    2    0    0  0.00000000000E+00  0.00000000000E+00  0.20010295946E+04  0.30052780800E+04  0.22422258806E+04 0.  0.
        5    1    3    3  502    0 -0.51240578990E+03  0.99578253696E+03  0.93048977537E+03  0.14560136904E+04  0.46999998093E+01 0. -1.
       -5    1    3    3    0  502  0.51240578990E+03 -0.99578253696E+03  0.10705398192E+04  0.15492643896E+04  0.46999998093E+01 0.  1.
</event>
<event>
 5   0  0.1680258E-04  0.2055546E+04  0.7818609E-02  0.8581083E-01
       -2   -1    0    0    0  501  0.00000000000E+00  0.00000000000E+00  0.59492403893E+03  0.59492403894E+03  0.25500000920E-02 0. -1.
        2   -1    0    0  501    0  0.00000000000E+00  0.00000000000E+00 -0.17755497634E+04  0.17755497634E+04  0.25500000920E-02 0.  1.
    10030    2    1    2    0    0  0.00000000000E+00  0.00000000000E+00 -0.11806257245E+04  0.23704738024E+04  0.20555458999E+04 0.  0.
        5    1    3    3  502    0 -0.66690834900E+03  0.53207194070E+03  0.70575295734E+02  0.85607841838E+03  0.46999998093E+01 0. -1.
       -5    1    3    3    0  502  0.66690834900E+03 -0.53207194070E+03 -0.12512010202E+04  0.15143953840E+04  0.46999998093E+01 0.  1.
</event>
<event>
 5   0  0.7954459E-05  0.2179743E+04  0.7818609E-02  0.8526907E-01
        1   -1    0    0  501    0  0.00000000000E+00  0.00000000000E+00  0.77456239965E+03  0.77456239966E+03  0.50400001928E-02 0. -1.
       -1   -1    0    0    0  501  0.00000000000E+00  0.00000000000E+00 -0.15335365720E+04  0.15335365720E+04  0.50400001928E-02 0.  1.
    10030    2    1    2    0    0  0.00000000000E+00  0.00000000000E+00 -0.75897417235E+03  0.23080989717E+04  0.21797428905E+04 0.  0.
        5    1    3    3  502    0 -0.13383967610E+03 -0.66918728469E+03 -0.12792740765E+04  0.14499272167E+04  0.46999998093E+01 0.  1.
       -5    1    3    3    0  502  0.13383967610E+03  0.66918728469E+03  0.52029990411E+03  0.85817175502E+03  0.46999998093E+01 0. -1.
</event>
<event>
 5   0  0.8470971E-05  0.2116942E+04  0.7818609E-02  0.8553817E-01
       -1   -1    0    0    0  501  0.00000000000E+00  0.00000000000E+00  0.78997501136E+03  0.78997501137E+03  0.50400001928E-02 0.  1.
        1   -1    0    0  501    0  0.00000000000E+00  0.00000000000E+00 -0.14182234798E+04  0.14182234798E+04  0.50400001928E-02 0. -1.
    10030    2    1    2    0    0  0.00000000000E+00  0.00000000000E+00 -0.62824846844E+03  0.22081984912E+04  0.21169422378E+04 0.  0.
        2    1    3    3  502    0 -0.94510610235E+03  0.45772515822E+03 -0.17564902410E+03  0.10647020451E+04  0.25500000920E-02 0. -1.
       -2    1    3    3    0  502  0.94510610235E+03 -0.45772515822E+03 -0.45259944433E+03  0.11434964461E+04  0.25500000920E-02 0.  1.
</event>
<event>
 5   0  0.1754356E-04  0.2016733E+04  0.7818609E-02  0.8598837E-01
        2   -1    0    0  501    0  0.00000000000E+00  0.00000000000E+00  0.11022187751E+04  0.11022187751E+04  0.25500000920E-02 0.  1.
       -2   -1    0    0    0  501  0.00000000000E+00  0.00000000000E+00 -0.92250556480E+03  0.92250556480E+03  0.25500000920E-02 0. -1.
    10030    2    1    2    0    0  0.00000000000E+00  0.00000000000E+00  0.17971321028E+03  0.20247243399E+04  0.20167329557E+04 0.  0.
        1    1    3    3  502    0  0.97833307810E+03  0.24273871116E+03  0.62448979300E+02  0.10099294870E+04  0.50400001928E-02 0.  1.
       -1    1    3    3    0  502 -0.97833307810E+03 -0.24273871116E+03  0.11726423098E+03  0.10147948529E+04  0.50400001928E-02 0. -1.
</event>
<event>
 5   0  0.8784659E-05  0.2168639E+04  0.7818609E-02  0.8531596E-01
       -1   -1    0    0    0  501  0.00000000000E+00  0.00000000000E+00  0.86168476189E+03  0.86168476190E+03  0.50400001928E-02 0. -1.
        1   -1    0    0  501    0  0.00000000000E+00  0.00000000000E+00 -0.13644770594E+04  0.13644770595E+04  0.50400001928E-02 0.  1.
    10030    2    1    2    0    0  0.00000000000E+00  0.00000000000E+00 -0.50279229756E+03  0.22261618214E+04  0.21686392878E+04 0.  0.
        4    1    3    3  502    0 -0.65178301412E+03  0.78436714404E+03 -0.62953441837E+03  0.11984857575E+04  0.12699999809E+01 0.  1.
       -4    1    3    3    0  502  0.65178301412E+03 -0.78436714404E+03  0.12674212081E+03  0.10276760639E+04  0.12699999809E+01 0. -1.
</event>
<event>
 5   0  0.1754356E-04  0.2231368E+04  0.7818609E-02  0.8505484E-01
       -2   -1    0    0    0  501  0.00000000000E+00  0.00000000000E+00  0.12995689460E+04  0.12995689460E+04  0.25500000920E-02 0.  1.
        2   -1    0    0  501    0  0.00000000000E+00  0.00000000000E+00 -0.95781842192E+03  0.95781842192E+03  0.25500000920E-02 0. -1.
    10030    2    1    2    0    0  0.00000000000E+00  0.00000000000E+00  0.34175052405E+03  0.22573873679E+04  0.22313682592E+04 0.  0.
        1    1    3    3  502    0  0.15308119458E+03 -0.54427440675E+03  0.11439027168E+04  0.12760023149E+04  0.50400001928E-02 0.  1.
       -1    1    3    3    0  502 -0.15308119458E+03  0.54427440675E+03 -0.80215219275E+03  0.98138505304E+03  0.50400001928E-02 0. -1.
</event>
<event>
 5   0  0.1754356E-04  0.2314713E+04  0.7818609E-02  0.8472143E-01
        2   -1    0    0  501    0  0.00000000000E+00  0.00000000000E+00  0.15870985430E+04  0.15870985430E+04  0.25500000920E-02 0.  1.
       -2   -1    0    0    0  501  0.00000000000E+00  0.00000000000E+00 -0.84397655739E+03  0.84397655740E+03  0.25500000920E-02 0. -1.
    10030    2    1    2    0    0  0.00000000000E+00  0.00000000000E+00  0.74312198558E+03  0.24310751004E+04  0.23147129105E+04 0.  0.
        1    1    3    3  502    0  0.10078666481E+04  0.10112733583E+03  0.95957381425E+03  0.13952791202E+04  0.50400001928E-02 0.  1.
       -1    1    3    3    0  502 -0.10078666481E+04 -0.10112733583E+03 -0.21645182867E+03  0.10357959801E+04  0.50400001928E-02 0. -1.
</event>
<event>
 5   0  0.8784659E-05  0.2108016E+04  0.7818609E-02  0.8557721E-01
       -1   -1    0    0    0  501  0.00000000000E+00  0.00000000000E+00  0.87395726318E+03  0.87395726320E+03  0.50400001928E-02 0.  1.
        1   -1    0    0  501    0  0.00000000000E+00  0.00000000000E+00 -0.12711522406E+04  0.12711522406E+04  0.50400001928E-02 0. -1.
    10030    2    1    2    0    0  0.00000000000E+00  0.00000000000E+00 -0.39719497737E+03  0.21451095038E+04  0.21080158759E+04 0.  0.
        4    1    3    3  502    0  0.57688304510E+02 -0.23368545868E+03 -0.12428092896E+04  0.12659041739E+04  0.12699999809E+01 0. -1.
       -4    1    3    3    0  502 -0.57688304510E+02  0.23368545868E+03  0.84561431228E+03  0.87920532989E+03  0.12699999809E+01 0.  1.
</event>
<event>
 5   0  0.7954459E-05  0.2215540E+04  0.7818609E-02  0.8511988E-01
        1   -1    0    0  501    0  0.00000000000E+00  0.00000000000E+00  0.28046464021E+04  0.28046464021E+04  0.50400001928E-02 0. -1.
       -1   -1    0    0    0  501  0.00000000000E+00  0.00000000000E+00 -0.43754321880E+03  0.43754321883E+03  0.50400001928E-02 0.  1.
    10030    2    1    2    0    0  0.00000000000E+00  0.00000000000E+00  0.23671031833E+04  0.32421896210E+04  0.22155396764E+04 0.  0.
        5    1    3    3  502    0 -0.50625507663E+02  0.52308273225E+03 -0.24349615996E+03  0.57921581187E+03  0.46999998093E+01 0.  1.
       -5    1    3    3    0  502  0.50625507663E+02 -0.52308273225E+03  0.26105993433E+04  0.26629738091E+04  0.46999998093E+01 0. -1.
</event>
<event>
 5   0  0.1798917E-04  0.2216678E+04  0.7818609E-02  0.8511518E-01
        2   -1    0    0  501    0  0.00000000000E+00  0.00000000000E+00  0.13520933358E+04  0.13520933358E+04  0.25500000920E-02 0. -1.
       -2   -1    0    0    0  501  0.00000000000E+00  0.00000000000E+00 -0.90852864445E+03  0.90852864445E+03  0.25500000920E-02 0.  1.
    10030    2    1    2    0    0  0.00000000000E+00  0.00000000000E+00  0.44356469131E+03  0.22606219802E+04  0.22166781683E+04 0.  0.
        4    1    3    3  502    0  0.27780156103E+03 -0.51384707190E+02  0.13147559491E+04  0.13447672341E+04  0.12699999809E+01 0. -1.
       -4    1    3    3    0  502 -0.27780156103E+03  0.51384707190E+02 -0.87119125776E+03  0.91585474609E+03  0.12699999809E+01 0.  1.
</event>
<event>
 5   0  0.8784659E-05  0.2161889E+04  0.7818609E-02  0.8534460E-01
        1   -1    0    0  501    0  0.00000000000E+00  0.00000000000E+00  0.15441602090E+04  0.15441602090E+04  0.50400001928E-02 0. -1.
       -1   -1    0    0    0  501  0.00000000000E+00  0.00000000000E+00 -0.75668383509E+03  0.75668383511E+03  0.50400001928E-02 0.  1.
    10030    2    1    2    0    0  0.00000000000E+00  0.00000000000E+00  0.78747637395E+03  0.23008440442E+04  0.21618890527E+04 0.  0.
        4    1    3    3  502    0 -0.26773691025E+03  0.76979036859E+03  0.11494326474E+04  0.14090625566E+04  0.12699999809E+01 0. -1.
       -4    1    3    3    0  502  0.26773691025E+03 -0.76979036859E+03 -0.36195627346E+03  0.89178148752E+03  0.12699999809E+01 0.  1.
</event>
<event>
 5   0  0.8306787E-05  0.2127828E+04  0.7818609E-02  0.8549083E-01
       -1   -1    0    0    0  501  0.00000000000E+00  0.00000000000E+00  0.44615732806E+03  0.44615732809E+03  0.50400001928E-02 0.  1.
        1   -1    0    0  501    0  0.00000000000E+00  0.00000000000E+00 -0.25370257047E+04  0.25370257047E+04  0.50400001928E-02 0. -1.
    10030    2    1    2    0    0  0.00000000000E+00  0.00000000000E+00 -0.20908683767E+04  0.29831830328E+04  0.21278276337E+04 0.  0.
        1    1    3    3  502    0  0.97001970086E+03 -0.43697911018E+03 -0.10386166063E+04  0.14868131751E+04  0.50400001928E-02 0. -1.
       -1    1    3    3    0  502 -0.97001970086E+03  0.43697911018E+03 -0.10522517704E+04  0.14963698577E+04  0.50400001928E-02 0.  1.
</event>
<event>
 5   0  0.7954459E-05  0.2192356E+04  0.7818609E-02  0.8521616E-01
       -1   -1    0    0    0  501  0.00000000000E+00  0.00000000000E+00  0.95783119041E+03  0.95783119042E+03  0.50400001928E-02 0.  1.
        1   -1    0    0  501    0  0.00000000000E+00  0.00000000000E+00 -0.12545072625E+04  0.12545072625E+04  0.50400001928E-02 0. -1.
    10030    2    1    2    0    0  0.00000000000E+00  0.00000000000E+00 -0.29667607212E+03  0.22123384530E+04  0.21923559790E+04 0.  0.
        5    1    3    3  502    0 -0.22604184754E+03  0.73749504119E+03  0.63759981424E+03  0.10007744330E+04  0.46999998093E+01 0.  1.
       -5    1    3    3    0  502  0.22604184754E+03 -0.73749504119E+03 -0.93427588636E+03  0.12115640200E+04  0.46999998093E+01 0. -1.
</event>
<event>
 5   0  0.1798917E-04  0.2323757E+04  0.7818609E-02  0.8468613E-01
       -2   -1    0    0    0  501  0.00000000000E+00  0.00000000000E+00  0.83516681661E+03  0.83516681661E+03  0.25500000920E-02 0. -1.
        2   -1    0    0  501    0  0.00000000000E+00  0.00000000000E+00 -0.16163973840E+04  0.16163973840E+04  0.25500000920E-02 0.  1.
    10030    2    1    2    0    0  0.00000000000E+00  0.00000000000E+00 -0.78123056740E+03  0.24515642006E+04  0.23237568355E+04 0.  0.
        4    1    3    3  502    0  0.37898234553E+02  0.61050780439E+03  0.65154337387E+03  0.89368139531E+03  0.12699999809E+01 0. -1.
       -4    1    3    3    0  502 -0.37898234553E+02 -0.61050780439E+03 -0.14327739413E+04  0.15578828053E+04  0.12699999809E+01 0.  1.
</event>
<event>
 5   0  0.1805501E-04  0.2171515E+04  0.7818609E-02  0.8530378E-01
        2   -1    0    0  501    0  0.00000000000E+00  0.00000000000E+00  0.19344257366E+04  0.19344257366E+04  0.25500000920E-02 0. -1.
       -2   -1    0    0    0  501  0.00000000000E+00  0.00000000000E+00 -0.60941591268E+03  0.60941591269E+03  0.25500000920E-02 0.  1.
    10030    2    1    2    0    0  0.00000000000E+00  0.00000000000E+00  0.13250098240E+04  0.25438416493E+04  0.21715154393E+04 0.  0.
        2    1    3    3  502    0 -0.48670956491E+03  0.72157624325E+03 -0.97871667845E+02  0.87586376724E+03  0.25500000920E-02 0.  1.
       -2    1    3    3    0  502  0.48670956491E+03 -0.72157624325E+03  0.14228814918E+04  0.16679778821E+04  0.25500000920E-02 0. -1.
</event>
<event>
 5   0  0.7954459E-05  0.2309847E+04  0.7818609E-02  0.8474049E-01
        1   -1    0    0  501    0  0.00000000000E+00  0.00000000000E+00  0.98046202981E+03  0.98046202982E+03  0.50400001928E-02 0.  1.
       -1   -1    0    0    0  501  0.00000000000E+00  0.00000000000E+00 -0.13604284126E+04  0.13604284126E+04  0.50400001928E-02 0. -1.
    10030    2    1    2    0    0  0.00000000000E+00  0.00000000000E+00 -0.37996638276E+03  0.23408904424E+04  0.23098470970E+04 0.  0.
        5    1    3    3  502    0  0.41903793112E+03  0.94134485371E+03  0.33866266648E+03  0.10846369960E+04  0.46999998093E+01 0.  1.
       -5    1    3    3    0  502 -0.41903793112E+03 -0.94134485371E+03 -0.71862904925E+03  0.12562534465E+04  0.46999998093E+01 0. -1.
</event>
<event>
 5   0  0.8306787E-05  0.2200443E+04  0.7818609E-02  0.8518244E-01
        1   -1    0    0  501    0  0.00000000000E+00  0.00000000000E+00  0.10199450391E+04  0.10199450391E+04  0.50400001928E-02 0. -1.
       -1   -1    0    0    0  501  0.00000000000E+00  0.00000000000E+00 -0.11868161180E+04  0.11868161180E+04  0.50400001928E-02 0.  1.
    10030    2    1    2    0    0  0.00000000000E+00  0.00000000000E+00 -0.16687107887E+03  0.22067611571E+04  0.22004428753E+04 0.  0.
        1    1    3    3  502    0 -0.78547438444E+03  0.76652621996E+03 -0.60468903601E+01  0.10975285962E+04  0.50400001928E-02 0. -1.
       -1    1    3    3    0  502  0.78547438444E+03 -0.76652621996E+03 -0.16082418851E+03  0.11092325609E+04  0.50400001928E-02 0.  1.
</event>
<event>
 5   0  0.1733962E-04  0.2160341E+04  0.7818609E-02  0.8535119E-01
        2   -1    0    0  501    0  0.00000000000E+00  0.00000000000E+00  0.18736934412E+04  0.18736934412E+04  0.25500000920E-02 0. -1.
       -2   -1    0    0    0  501  0.00000000000E+00  0.00000000000E+00 -0.62271044359E+03  0.62271044360E+03  0.25500000920E-02 0.  1.
    10030    2    1    2    0    0  0.00000000000E+00  0.00000000000E+00  0.12509829976E+04  0.24964038848E+04  0.21603411526E+04 0.  0.
        3    1    3    3  502    0  0.10305495455E+04  0.26192854065E+03  0.84513770846E+03  0.13582697385E+04  0.10100000352E+00 0.  1.
       -3    1    3    3    0  502 -0.10305495455E+04 -0.26192854065E+03  0.40584528913E+03  0.11381341463E+04  0.10100000352E+00 0. -1.
</event>
<event>
 5   0  0.1798917E-04  0.2215798E+04  0.7818609E-02  0.8511881E-01
       -2   -1    0    0    0  501  0.00000000000E+00  0.00000000000E+00  0.96747986509E+03  0.96747986510E+03  0.25500000920E-02 0. -1.
        2   -1    0    0  501    0  0.00000000000E+00  0.00000000000E+00 -0.12686985303E+04  0.12686985303E+04  0.25500000920E-02 0.  1.
    10030    2    1    2    0    0  0.00000000000E+00  0.00000000000E+00 -0.30121866525E+03  0.22361783954E+04  0.22157980801E+04 0.  0.
        4    1    3    3  502    0 -0.75791192252E+03 -0.48413966682E+03 -0.80356648120E+03  0.12060441127E+04  0.12699999809E+01 0.  1.
       -4    1    3    3    0  502  0.75791192252E+03  0.48413966682E+03  0.50234781595E+03  0.10301342827E+04  0.12699999809E+01 0. -1.
</event>
<event>
 5   0  0.1798917E-04  0.2151619E+04  0.7818609E-02  0.8538840E-01
       -2   -1    0    0    0  501  0.00000000000E+00  0.00000000000E+00  0.17605633952E+04  0.17605633952E+04  0.25500000920E-02 0. -1.
        2   -1    0    0  501    0  0.00000000000E+00  0.00000000000E+00 -0.65738380874E+03  0.65738380874E+03  0.25500000920E-02 0.  1.
    10030    2    1    2    0    0  0.00000000000E+00  0.00000000000E+00  0.11031795865E+04  0.24179472040E+04  0.21516188048E+04 0.  0.
        4    1    3    3  502    0  0.44463248773E+03 -0.97047130015E+02  0.16470585075E+04  0.17087772045E+04  0.12699999809E+01 0. -1.
       -4    1    3    3    0  502 -0.44463248773E+03  0.97047130015E+02 -0.54387892099E+03  0.70916999949E+03  0.12699999809E+01 0.  1.
</event>
<event>
 5   0  0.8602414E-05  0.2172556E+04  0.7818609E-02  0.8529939E-01
        1   -1    0    0  501    0  0.00000000000E+00  0.00000000000E+00  0.16745622864E+04  0.16745622864E+04  0.50400001928E-02 0.  1.
       -1   -1    0    0    0  501  0.00000000000E+00  0.00000000000E+00 -0.70466154457E+03  0.70466154459E+03  0.50400001928E-02 0. -1.
    10030    2    1    2    0    0  0.00000000000E+00  0.00000000000E+00  0.96990074183E+03  0.23792238310E+04  0.21725557735E+04 0.  0.
        3    1    3    3  502    0  0.76105100709E+03 -0.68345355971E+03  0.88537193345E+03  0.13528454732E+04  0.10100000352E+00 0.  1.
       -3    1    3    3    0  502 -0.76105100709E+03  0.68345355971E+03  0.84528808382E+02  0.10263783578E+04  0.10100000352E+00 0. -1.
</event>
<event>
 5   0  0.7954459E-05  0.2226736E+04  0.7818609E-02  0.8507382E-01
        1   -1    0    0  501    0  0.00000000000E+00  0.00000000000E+00  0.12115187345E+04  0.12115187346E+04  0.50400001928E-02 0.  1.
       -1   -1    0    0    0  501  0.00000000000E+00  0.00000000000E+00 -0.10231686586E+04  0.10231686587E+04  0.50400001928E-02 0. -1.
    10030    2    1    2    0    0  0.00000000000E+00  0.00000000000E+00  0.18835007591E+03  0.22346873932E+04  0.22267357262E+04 0.  0.
        5    1    3    3  502    0  0.53194646141E+03  0.97370950352E+03  0.17120301248E+01  0.11095504748E+04  0.46999998093E+01 0. -1.
       -5    1    3    3    0  502 -0.53194646141E+03 -0.97370950352E+03  0.18663804578E+03  0.11251369184E+04  0.46999998093E+01 0.  1.
</event>
<event>
 5   0  0.8602414E-05  0.2166021E+04  0.7818609E-02  0.8532705E-01
        1   -1    0    0  501    0  0.00000000000E+00  0.00000000000E+00  0.53001715119E+03  0.53001715121E+03  0.50400001928E-02 0.  1.
       -1   -1    0    0    0  501  0.00000000000E+00  0.00000000000E+00 -0.22129700588E+04  0.22129700588E+04  0.50400001928E-02 0. -1.
    10030    2    1    2    0    0  0.00000000000E+00  0.00000000000E+00 -0.16829529076E+04  0.27429872100E+04  0.21660213169E+04 0.  0.
        3    1    3    3  502    0 -0.39494739521E+03 -0.95039070961E+03 -0.12684635965E+04  0.16334704931E+04  0.10100000352E+00 0.  1.
       -3    1    3    3    0  502  0.39494739521E+03  0.95039070961E+03 -0.41448931106E+03  0.11095167169E+04  0.10100000352E+00 0. -1.
</event>
<event>
 5   0  0.8470971E-05  0.2153154E+04  0.7818609E-02  0.8538183E-01
        1   -1    0    0  501    0  0.00000000000E+00  0.00000000000E+00  0.19812726131E+04  0.19812726131E+04  0.50400001928E-02 0.  1.
       -1   -1    0    0    0  501  0.00000000000E+00  0.00000000000E+00 -0.58498662236E+03  0.58498662238E+03  0.50400001928E-02 0. -1.
    10030    2    1    2    0    0  0.00000000000E+00  0.00000000000E+00  0.13962859907E+04  0.25662592355E+04  0.21531539415E+04 0.  0.
        2    1    3    3  502    0  0.55202220424E+03 -0.42926470422E+03  0.16737383870E+04  0.18139451173E+04  0.25500000920E-02 0. -1.
       -2    1    3    3    0  502 -0.55202220424E+03  0.42926470422E+03 -0.27745239629E+03  0.75231411822E+03  0.25500000920E-02 0.  1.
</event>
<event>
 5   0  0.1733962E-04  0.2256139E+04  0.7818609E-02  0.8495418E-01
       -2   -1    0    0    0  501  0.00000000000E+00  0.00000000000E+00  0.50624574685E+03  0.50624574686E+03  0.25500000920E-02 0.  1.
        2   -1    0    0  501    0  0.00000000000E+00  0.00000000000E+00 -0.25136824157E+04  0.25136824157E+04  0.25500000920E-02 0. -1.
    10030    2    1    2    0    0  0.00000000000E+00  0.00000000000E+00 -0.20074366689E+04  0.30199281626E+04  0.22561392084E+04 0.  0.
        3    1    3    3  502    0  0.93827594850E+03 -0.55612585467E+03 -0.61831397030E+03  0.12537742611E+04  0.10100000352E+00 0.  1.
       -3    1    3    3    0  502 -0.93827594850E+03  0.55612585467E+03 -0.13891226986E+04  0.17661539015E+04  0.10100000352E+00 0. -1.
</event>
<event>
 5   0  0.1733962E-04  0.2217310E+04  0.7818609E-02  0.8511258E-01
        2   -1    0    0  501    0  0.00000000000E+00  0.00000000000E+00  0.13534724029E+04  0.13534724029E+04  0.25500000920E-02 0. -1.
       -2   -1    0    0    0  501  0.00000000000E+00  0.00000000000E+00 -0.90812020004E+03  0.90812020005E+03  0.25500000920E-02 0.  1.
    10030    2    1    2    0    0  0.00000000000E+00  0.00000000000E+00  0.44535220288E+03  0.22615926030E+04  0.22173097477E+04 0.  0.
        3    1    3    3  502    0 -0.70562337081E+02 -0.37493651271E+03 -0.83905448357E+03  0.92172060223E+03  0.10100000352E+00 0.  1.
       -3    1    3    3    0  502  0.70562337081E+02  0.37493651271E+03  0.12844066865E+04  0.13398720007E+04  0.10100000352E+00 0. -1.
</event>
<event>
 5   0  0.8602414E-05  0.2205249E+04  0.7818609E-02  0.8516247E-01
       -1   -1    0    0    0  501  0.00000000000E+00  0.00000000000E+00  0.57027827645E+03  0.57027827648E+03  0.50400001928E-02 0. -1.
        1   -1    0    0  501    0  0.00000000000E+00  0.00000000000E+00 -0.21319072589E+04  0.21319072589E+04  0.50400001928E-02 0.  1.
    10030    2    1    2    0    0  0.00000000000E+00  0.00000000000E+00 -0.15616289824E+04  0.27021855354E+04  0.22052486456E+04 0.  0.
        3    1    3    3  502    0  0.19958399103E+03 -0.42631067439E+02 -0.21085621586E+04  0.21184158147E+04  0.10100000352E+00 0.  1.
       -3    1    3    3    0  502 -0.19958399103E+03  0.42631067439E+02  0.54693317613E+03  0.58376972064E+03  0.10100000352E+00 0. -1.
</event>
<event>
 5   0  0.1805501E-04  0.1976696E+04  0.7818609E-02  0.8617594E-01
        2   -1    0    0  501    0  0.00000000000E+00  0.00000000000E+00  0.11471990165E+04  0.11471990166E+04  0.25500000920E-02 0.  1.
       -2   -1    0    0    0  501  0.00000000000E+00  0.00000000000E+00 -0.85149283344E+03  0.85149283344E+03  0.25500000920E-02 0. -1.
    10030    2    1    2    0    0  0.00000000000E+00  0.00000000000E+00  0.29570618311E+03  0.19986918500E+04  0.19766959717E+04 0.  0.
        2    1    3    3  502    0 -0.25199044370E+02 -0.36964871416E+03 -0.77861602855E+03  0.86227494666E+03  0.25500000920E-02 0. -1.
       -2    1    3    3    0  502  0.25199044370E+02  0.36964871416E+03  0.10743222117E+04  0.11364169033E+04  0.25500000920E-02 0.  1.
</event>
<event>
 5   0  0.1754356E-04  0.1563341E+04  0.7818609E-02  0.8843391E-01
       -2   -1    0    0    0  501  0.00000000000E+00  0.00000000000E+00  0.43537340744E+03  0.43537340745E+03  0.25500000920E-02 0. -1.
        2   -1    0    0  501    0  0.00000000000E+00  0.00000000000E+00 -0.14034137481E+04  0.14034137481E+04  0.25500000920E-02 0.  1.
    10030    2    1    2    0    0  0.00000000000E+00  0.00000000000E+00 -0.96804034063E+03  0.18387871555E+04  0.15633413262E+04 0.  0.
        1    1    3    3  502    0 -0.68004860067E+02 -0.80316543325E+02 -0.13950429831E+04  0.13990069095E+04  0.50400001928E-02 0.  1.
       -1    1    3    3    0  502  0.68004860067E+02  0.80316543325E+02  0.42700264244E+03  0.43978024604E+03  0.50400001928E-02 0. -1.
</event>
<event>
 5   0  0.1798917E-04  0.2196736E+04  0.7818609E-02  0.8519788E-01
        2   -1    0    0  501    0  0.00000000000E+00  0.00000000000E+00  0.15545228539E+04  0.15545228539E+04  0.25500000920E-02 0.  1.
       -2   -1    0    0    0  501  0.00000000000E+00  0.00000000000E+00 -0.77606562825E+03  0.77606562825E+03  0.25500000920E-02 0. -1.
    10030    2    1    2    0    0  0.00000000000E+00  0.00000000000E+00  0.77845722564E+03  0.23305884821E+04  0.21967355373E+04 0.  0.
        4    1    3    3  502    0  0.82558216357E+03 -0.21872203039E+03  0.11219521432E+04  0.14100366875E+04  0.12699999809E+01 0.  1.
       -4    1    3    3    0  502 -0.82558216357E+03  0.21872203039E+03 -0.34349491760E+03  0.92055179468E+03  0.12699999809E+01 0. -1.
</event>
<event>
 5   0  0.7954459E-05  0.2299382E+04  0.7818609E-02  0.8478165E-01
        1   -1    0    0  501    0  0.00000000000E+00  0.00000000000E+00  0.18370522858E+04  0.18370522858E+04  0.50400001928E-02 0.  1.
       -1   -1    0    0    0  501  0.00000000000E+00  0.00000000000E+00 -0.71951639434E+03  0.71951639436E+03  0.50400001928E-02 0. -1.
    10030    2    1    2    0    0  0.00000000000E+00  0.00000000000E+00  0.11175358914E+04  0.25565686801E+04  0.22993818621E+04 0.  0.
        5    1    3    3  502    0  0.12815482904E+03 -0.10387046145E+04  0.10878454569E+04  0.15095564795E+04  0.46999998093E+01 0.  1.
       -5    1    3    3    0  502 -0.12815482904E+03  0.10387046145E+04  0.29690434484E+02  0.10470122007E+04  0.46999998093E+01 0. -1.
</event>
<event>
 5   0  0.1754356E-04  0.1133409E+04  0.7818609E-02  0.9173228E-01
       -2   -1    0    0    0  501  0.00000000000E+00  0.00000000000E+00  0.17450906463E+03  0.17450906464E+03  0.25500000920E-02 0.  1.
        2   -1    0    0  501    0  0.00000000000E+00  0.00000000000E+00 -0.18403271965E+04  0.18403271965E+04  0.25500000920E-02 0. -1.
    10030    2    1    2    0    0  0.00000000000E+00  0.00000000000E+00 -0.16658181319E+04  0.20148362611E+04  0.11334086248E+04 0.  0.
        1    1    3    3  502    0  0.16277616113E+03  0.51736392412E+03 -0.11249696452E+04  0.12488867888E+04  0.50400001928E-02 0. -1.
       -1    1    3    3    0  502 -0.16277616113E+03 -0.51736392412E+03 -0.54084848670E+03  0.76594947236E+03  0.50400001928E-02 0.  1.
</event>
<event>
 5   0  0.1733962E-04  0.2328291E+04  0.7818609E-02  0.8466849E-01
        2   -1    0    0  501    0  0.00000000000E+00  0.00000000000E+00  0.85718506756E+03  0.85718506756E+03  0.25500000920E-02 0. -1.
       -2   -1    0    0    0  501  0.00000000000E+00  0.00000000000E+00 -0.15810289822E+04  0.15810289822E+04  0.25500000920E-02 0.  1.
    10030    2    1    2    0    0  0.00000000000E+00  0.00000000000E+00 -0.72384391464E+03  0.24382140498E+04  0.23282907335E+04 0.  0.
        3    1    3    3  502    0 -0.94687327601E+03  0.63317933164E+03 -0.11026542985E+03  0.11443965843E+04  0.10100000352E+00 0.  1.
       -3    1    3    3    0  502  0.94687327601E+03 -0.63317933164E+03 -0.61357848479E+03  0.12938174655E+04  0.10100000352E+00 0. -1.
</event>
<event>
 5   0  0.8784659E-05  0.2141663E+04  0.7818609E-02  0.8543109E-01
       -1   -1    0    0    0  501  0.00000000000E+00  0.00000000000E+00  0.71014836379E+03  0.71014836381E+03  0.50400001928E-02 0.  1.
        1   -1    0    0  501    0  0.00000000000E+00  0.00000000000E+00 -0.16147047759E+04  0.16147047759E+04  0.50400001928E-02 0. -1.
    10030    2    1    2    0    0  0.00000000000E+00  0.00000000000E+00 -0.90455641214E+03  0.23248531397E+04  0.21416628630E+04 0.  0.
        4    1    3    3  502    0  0.10163535902E+03  0.10528434838E+03 -0.16037984890E+04  0.16104613459E+04  0.12699999809E+01 0. -1.
       -4    1    3    3    0  502 -0.10163535902E+03 -0.10528434838E+03  0.69924207687E+03  0.71439179389E+03  0.12699999809E+01 0.  1.
</event>
<event>
 5   0  0.1680258E-04  0.2156953E+04  0.7818609E-02  0.8536562E-01
        2   -1    0    0  501    0  0.00000000000E+00  0.00000000000E+00  0.98294987107E+03  0.98294987107E+03  0.25500000920E-02 0.  1.
       -2   -1    0    0    0  501  0.00000000000E+00  0.00000000000E+00 -0.11832867330E+04  0.11832867330E+04  0.25500000920E-02 0. -1.
    10030    2    1    2    0    0  0.00000000000E+00  0.00000000000E+00 -0.20033686197E+03  0.21662366041E+04  0.21569529820E+04 0.  0.
        5    1    3    3  502    0 -0.75745915725E+02  0.88714579071E+03 -0.71133043840E+03  0.11396394958E+04  0.46999998093E+01 0. -1.
       -5    1    3    3    0  502  0.75745915725E+02 -0.88714579071E+03  0.51099357643E+03  0.10265971084E+04  0.46999998093E+01 0.  1.
</event>
<event>
 5   0  0.1805501E-04  0.2202585E+04  0.7818609E-02  0.8517353E-01
       -2   -1    0    0    0  501  0.00000000000E+00  0.00000000000E+00  0.40551779206E+03  0.40551779207E+03  0.25500000920E-02 0.  1.
        2   -1    0    0  501    0  0.00000000000E+00  0.00000000000E+00 -0.29908556065E+04  0.29908556065E+04  0.25500000920E-02 0. -1.
    10030    2    1    2    0    0  0.00000000000E+00  0.00000000000E+00 -0.25853378144E+04  0.33963733986E+04  0.22025849922E+04 0.  0.
        2    1    3    3  502    0  0.51518152508E+03  0.97314715958E+03 -0.12611516628E+04  0.16741956022E+04  0.25500000920E-02 0.  1.
       -2    1    3    3    0  502 -0.51518152508E+03 -0.97314715958E+03 -0.13241861517E+04  0.17221777964E+04  0.25500000920E-02 0. -1.
</event>
<event>
 5   0  0.1805501E-04  0.1969282E+04  0.7818609E-02  0.8621118E-01
        2   -1    0    0  501    0  0.00000000000E+00  0.00000000000E+00  0.13643785743E+04  0.13643785743E+04  0.25500000920E-02 0.  1.
       -2   -1    0    0    0  501  0.00000000000E+00  0.00000000000E+00 -0.71059322699E+03  0.71059322699E+03  0.25500000920E-02 0. -1.
    10030    2    1    2    0    0  0.00000000000E+00  0.00000000000E+00  0.65378534731E+03  0.20749718013E+04  0.19692822794E+04 0.  0.
        2    1    3    3  502    0  0.48034683387E+03  0.63879151943E+03 -0.27906367767E+03  0.84656022958E+03  0.25500000920E-02 0. -1.
       -2    1    3    3    0  502 -0.48034683387E+03 -0.63879151943E+03  0.93284902498E+03  0.12284115717E+04  0.25500000920E-02 0.  1.
</event>
<event>
 5   0  0.8602414E-05  0.1940861E+04  0.7818609E-02  0.8634781E-01
       -1   -1    0    0    0  501  0.00000000000E+00  0.00000000000E+00  0.11831844700E+04  0.11831844700E+04  0.50400001928E-02 0.  1.
        1   -1    0    0  501    0  0.00000000000E+00  0.00000000000E+00 -0.79593246741E+03  0.79593246743E+03  0.50400001928E-02 0. -1.
    10030    2    1    2    0    0  0.00000000000E+00  0.00000000000E+00  0.38725200256E+03  0.19791169374E+04  0.19408605665E+04 0.  0.
        3    1    3    3  502    0  0.72424654945E+03  0.80448117435E+01  0.85221815045E+03  0.11184245927E+04  0.10100000352E+00 0.  1.
       -3    1    3    3    0  502 -0.72424654945E+03 -0.80448117435E+01 -0.46496614789E+03  0.86069234472E+03  0.10100000352E+00 0. -1.
</event>
<event>
 5   0  0.8470971E-05  0.2210569E+04  0.7818609E-02  0.8514042E-01
       -1   -1    0    0    0  501  0.00000000000E+00  0.00000000000E+00  0.12728732028E+04  0.12728732028E+04  0.50400001928E-02 0. -1.
        1   -1    0    0  501    0  0.00000000000E+00  0.00000000000E+00 -0.95976042076E+03  0.95976042077E+03  0.50400001928E-02 0.  1.
    10030    2    1    2    0    0  0.00000000000E+00  0.00000000000E+00  0.31311278199E+03  0.22326336235E+04  0.22105685429E+04 0.  0.
        2    1    3    3  502    0 -0.16849745589E+03  0.10435311692E+04 -0.16962956803E+03  0.10705712886E+04  0.25500000920E-02 0.  1.
       -2    1    3    3    0  502  0.16849745589E+03 -0.10435311692E+04  0.48274235003E+03  0.11620623349E+04  0.25500000920E-02 0. -1.
</event>
<event>
 5   0  0.1754356E-04  0.2212192E+04  0.7818609E-02  0.8513371E-01
       -2   -1    0    0    0  501  0.00000000000E+00  0.00000000000E+00  0.14242174862E+04  0.14242174862E+04  0.25500000920E-02 0.  1.
        2   -1    0    0  501    0  0.00000000000E+00  0.00000000000E+00 -0.85903213744E+03  0.85903213745E+03  0.25500000920E-02 0. -1.
    10030    2    1    2    0    0  0.00000000000E+00  0.00000000000E+00  0.56518534878E+03  0.22832496237E+04  0.22121922081E+04 0.  0.
        1    1    3    3  502    0 -0.20072831396E+01 -0.97682174560E+03  0.81816675822E+03  0.12741984132E+04  0.50400001928E-02 0.  1.
       -1    1    3    3    0  502  0.20072831396E+01  0.97682174560E+03 -0.25298140944E+03  0.10090512105E+04  0.50400001928E-02 0. -1.
</event>
<event>
 5   0  0.6250625E-05  0.2235257E+04  0.7818609E-02  0.8503895E-01
        4   -1    0    0  501    0  0.00000000000E+00  0.00000000000E+00  0.10475741049E+04  0.10475748747E+04  0.12699999809E+01 0.  1.
       -4   -1    0    0    0  501  0.00000000000E+00  0.00000000000E+00 -0.11923661355E+04  0.11923668119E+04  0.12699999809E+01 0. -1.
    10030    2    1    2    0    0  0.00000000000E+00  0.00000000000E+00 -0.14479203065E+03  0.22399416866E+04  0.22352570383E+04 0.  0.
        5    1    3    3  502    0 -0.95678072919E+03 -0.53724595584E+03  0.14020147419E+03  0.11062283328E+04  0.46999998093E+01 0.  1.
       -5    1    3    3    0  502  0.95678072919E+03  0.53724595584E+03 -0.28499350484E+03  0.11337133538E+04  0.46999998093E+01 0. -1.
</event>
<event>
 5   0  0.7954459E-05  0.2200874E+04  0.7818609E-02  0.8518064E-01
       -1   -1    0    0    0  501  0.00000000000E+00  0.00000000000E+00  0.24327382099E+04  0.24327382099E+04  0.50400001928E-02 0.  1.
        1   -1    0    0  501    0  0.00000000000E+00  0.00000000000E+00 -0.49777740981E+03  0.49777740983E+03  0.50400001928E-02 0. -1.
    10030    2    1    2    0    0  0.00000000000E+00  0.00000000000E+00  0.19349608001E+04  0.29305156197E+04  0.22008744852E+04 0.  0.
        5    1    3    3  502    0 -0.10591891582E+04  0.99688671280E+02  0.13420162215E+04  0.17125563152E+04  0.46999998093E+01 0.  1.
       -5    1    3    3    0  502  0.10591891582E+04 -0.99688671280E+02  0.59294457861E+03  0.12179593045E+04  0.46999998093E+01 0. -1.
</event>
<event>
 5   0  0.1680258E-04  0.2279726E+04  0.7818609E-02  0.8485958E-01
       -2   -1    0    0    0  501  0.00000000000E+00  0.00000000000E+00  0.11278863326E+04  0.11278863326E+04  0.25500000920E-02 0. -1.
        2   -1    0    0  501    0  0.00000000000E+00  0.00000000000E+00 -0.11519665468E+04  0.11519665468E+04  0.25500000920E-02 0.  1.
    10030    2    1    2    0    0  0.00000000000E+00  0.00000000000E+00 -0.24080214215E+02  0.22798528795E+04  0.22797257062E+04 0.  0.
        5    1    3    3  502    0  0.67610395632E+03  0.81812755274E+03 -0.42777471352E+03  0.11443175031E+04  0.46999998093E+01 0.  1.
       -5    1    3    3    0  502 -0.67610395632E+03 -0.81812755274E+03  0.40369449930E+03  0.11355353764E+04  0.46999998093E+01 0. -1.
</event>
<event>
 5   0  0.8470971E-05  0.2235831E+04  0.7818609E-02  0.8503661E-01
       -1   -1    0    0    0  501  0.00000000000E+00  0.00000000000E+00  0.99144237749E+03  0.99144237750E+03  0.50400001928E-02 0. -1.
        1   -1    0    0  501    0  0.00000000000E+00  0.00000000000E+00 -0.12605224322E+04  0.12605224322E+04  0.50400001928E-02 0.  1.
    10030    2    1    2    0    0  0.00000000000E+00  0.00000000000E+00 -0.26908005473E+03  0.22519648097E+04  0.22358312612E+04 0.  0.
        2    1    3    3  502    0  0.23933797197E+03 -0.59927164142E+03 -0.10539942078E+04  0.12358450369E+04  0.25500000920E-02 0.  1.
       -2    1    3    3    0  502 -0.23933797197E+03  0.59927164142E+03  0.78491415310E+03  0.10161197729E+04  0.25500000920E-02 0. -1.
</event>
<event>
 5   0  0.8602414E-05  0.2381645E+04  0.7818609E-02  0.8446407E-01
        1   -1    0    0  501    0  0.00000000000E+00  0.00000000000E+00  0.26366545926E+04  0.26366545926E+04  0.50400001928E-02 0. -1.
       -1   -1    0    0    0  501  0.00000000000E+00  0.00000000000E+00 -0.53782498727E+03  0.53782498729E+03  0.50400001928E-02 0.  1.
    10030    2    1    2    0    0  0.00000000000E+00  0.00000000000E+00  0.20988296053E+04  0.31744795799E+04  0.23816454167E+04 0.  0.
        3    1    3    3  502    0 -0.13360618633E+03  0.71188088098E+03 -0.21045771312E+03  0.75426617380E+03  0.10100000352E+00 0.  1.
       -3    1    3    3    0  502  0.13360618633E+03 -0.71188088098E+03  0.23092873184E+04  0.24202134061E+04  0.10100000352E+00 0. -1.
</event>
<event>
 5   0  0.7954459E-05  0.2190126E+04  0.7818609E-02  0.8522549E-01
        1   -1    0    0  501    0  0.00000000000E+00  0.00000000000E+00  0.15030685839E+04  0.15030685839E+04  0.50400001928E-02 0. -1.
       -1   -1    0    0    0  501  0.00000000000E+00  0.00000000000E+00 -0.79780984516E+03  0.79780984517E+03  0.50400001928E-02 0.  1.
    10030    2    1    2    0    0  0.00000000000E+00  0.00000000000E+00  0.70525873876E+03  0.23008784291E+04  0.21901259454E+04 0.  0.
        5    1    3    3  502    0  0.63453593708E+03  0.15084580977E+03 -0.57148358166E+03  0.86718273038E+03  0.46999998093E+01 0.  1.
       -5    1    3    3    0  502 -0.63453593708E+03 -0.15084580977E+03  0.12767423204E+04  0.14336956987E+04  0.46999998093E+01 0. -1.
</event>
<event>
 5   0  0.1805501E-04  0.2298608E+04  0.7818609E-02  0.8478470E-01
        2   -1    0    0  501    0  0.00000000000E+00  0.00000000000E+00  0.12779480421E+04  0.12779480421E+04  0.25500000920E-02 0. -1.
       -2   -1    0    0    0  501  0.00000000000E+00  0.00000000000E+00 -0.10336094037E+04  0.10336094037E+04  0.25500000920E-02 0.  1.
    10030    2    1    2    0    0  0.00000000000E+00  0.00000000000E+00  0.24433863843E+03  0.23115574459E+04  0.22986075035E+04 0.  0.
        2    1    3    3  502    0 -0.14646773687E+03 -0.11068236639E+04  0.39644696645E+03  0.11847707028E+04  0.25500000920E-02 0. -1.
       -2    1    3    3    0  502  0.14646773687E+03  0.11068236639E+04 -0.15210832802E+03  0.11267867431E+04  0.25500000920E-02 0.  1.
</event>
<event>
 5   0  0.1733962E-04  0.2338814E+04  0.7818609E-02  0.8462773E-01
        2   -1    0    0  501    0  0.00000000000E+00  0.00000000000E+00  0.98896592777E+03  0.98896592777E+03  0.25500000920E-02 0. -1.
       -2   -1    0    0    0  501  0.00000000000E+00  0.00000000000E+00 -0.13827701277E+04  0.13827701277E+04  0.25500000920E-02 0.  1.
    10030    2    1    2    0    0  0.00000000000E+00  0.00000000000E+00 -0.39380419992E+03  0.23717360555E+04  0.23388138380E+04 0.  0.
        3    1    3    3  502    0 -0.20633832094E+03  0.85313569120E+03  0.58669527372E+03  0.10557591414E+04  0.10100000352E+00 0. -1.
       -3    1    3    3    0  502  0.20633832094E+03 -0.85313569120E+03 -0.98049947364E+03  0.13159769140E+04  0.10100000352E+00 0.  1.
</event>
<event>
 5   0  0.8602414E-05  0.2179310E+04  0.7818609E-02  0.8527089E-01
       -1   -1    0    0    0  501  0.00000000000E+00  0.00000000000E+00  0.97906701414E+03  0.97906701415E+03  0.50400001928E-02 0.  1.
        1   -1    0    0  501    0  0.00000000000E+00  0.00000000000E+00 -0.12127340866E+04  0.12127340866E+04  0.50400001928E-02 0. -1.
    10030    2    1    2    0    0  0.00000000000E+00  0.00000000000E+00 -0.23366707243E+03  0.21918011007E+04  0.21793099285E+04 0.  0.
        3    1    3    3  502    0 -0.23798970015E+03  0.31096965771E+03 -0.11395230923E+04  0.12049290906E+04  0.10100000352E+00 0. -1.
       -3    1    3    3    0  502  0.23798970015E+03 -0.31096965771E+03  0.90585601986E+03  0.98687201009E+03  0.10100000352E+00 0.  1.
</event>
<event>
 5   0  0.1754356E-04  0.2113529E+04  0.7818609E-02  0.8555307E-01
        2   -1    0    0  501    0  0.00000000000E+00  0.00000000000E+00  0.11082111455E+04  0.11082111455E+04  0.25500000920E-02 0.  1.
       -2   -1    0    0    0  501  0.00000000000E+00  0.00000000000E+00 -0.10077063691E+04  0.10077063691E+04  0.25500000920E-02 0. -1.
    10030    2    1    2    0    0  0.00000000000E+00  0.00000000000E+00  0.10050477639E+03  0.21159175146E+04  0.21135292093E+04 0.  0.
        1    1    3    3  502    0 -0.61766348773E+03  0.46587901666E+03  0.77092692605E+03  0.10921903532E+04  0.50400001928E-02 0.  1.
       -1    1    3    3    0  502  0.61766348773E+03 -0.46587901666E+03 -0.67042214966E+03  0.10237271614E+04  0.50400001928E-02 0. -1.
</event>
<event>
 5   0  0.1754356E-04  0.2381360E+04  0.7818609E-02  0.8446515E-01
       -2   -1    0    0    0  501  0.00000000000E+00  0.00000000000E+00  0.11021774785E+04  0.11021774785E+04  0.25500000920E-02 0.  1.
        2   -1    0    0  501    0  0.00000000000E+00  0.00000000000E+00 -0.12862887968E+04  0.12862887968E+04  0.25500000920E-02 0. -1.
    10030    2    1    2    0    0  0.00000000000E+00  0.00000000000E+00 -0.18411131833E+03  0.23884662753E+04  0.23813597314E+04 0.  0.
        1    1    3    3  502    0 -0.59013074128E+03 -0.13370047797E+03  0.93647444642E+03  0.11149504466E+04  0.50400001928E-02 0.  1.
       -1    1    3    3    0  502  0.59013074128E+03  0.13370047797E+03 -0.11205857647E+04  0.12735158286E+04  0.50400001928E-02 0. -1.
</event>
<event>
 5   0  0.1680258E-04  0.2214520E+04  0.7818609E-02  0.8512409E-01
       -2   -1    0    0    0  501  0.00000000000E+00  0.00000000000E+00  0.15229666669E+04  0.15229666669E+04  0.25500000920E-02 0.  1.
        2   -1    0    0  501    0  0.00000000000E+00  0.00000000000E+00 -0.80502416191E+03  0.80502416191E+03  0.25500000920E-02 0. -1.
    10030    2    1    2    0    0  0.00000000000E+00  0.00000000000E+00  0.71794250499E+03  0.23279908288E+04  0.22145202321E+04 0.  0.
        5    1    3    3  502    0 -0.14235053251E+02  0.26452610092E+03 -0.77120942048E+03  0.81545248485E+03  0.46999998093E+01 0. -1.
       -5    1    3    3    0  502  0.14235053251E+02 -0.26452610092E+03  0.14891519255E+04  0.15125383440E+04  0.46999998093E+01 0.  1.
</event>
<event>
 5   0  0.1733962E-04  0.2183919E+04  0.7818609E-02  0.8525151E-01
        2   -1    0    0  501    0  0.00000000000E+00  0.00000000000E+00  0.12107873889E+04  0.12107873889E+04  0.25500000920E-02 0. -1.
       -2   -1    0    0    0  501  0.00000000000E+00  0.00000000000E+00 -0.98479349224E+03  0.98479349225E+03  0.25500000920E-02 0.  1.
    10030    2    1    2    0    0  0.00000000000E+00  0.00000000000E+00  0.22599389662E+03  0.21955808811E+04  0.21839189921E+04 0.  0.
        3    1    3    3  502    0  0.84480542582E+03  0.14382122047E+03 -0.56736995535E+03  0.10277594210E+04  0.10100000352E+00 0.  1.
       -3    1    3    3    0  502 -0.84480542582E+03 -0.14382122047E+03  0.79336385197E+03  0.11678214601E+04  0.10100000352E+00 0. -1.
</event>
<event>
 5   0  0.8306787E-05  0.1150175E+04  0.7818609E-02  0.9157623E-01
        1   -1    0    0  501    0  0.00000000000E+00  0.00000000000E+00  0.54731828053E+03  0.54731828056E+03  0.50400001928E-02 0.  1.
       -1   -1    0    0    0  501  0.00000000000E+00  0.00000000000E+00 -0.60426515306E+03  0.60426515308E+03  0.50400001928E-02 0. -1.
    10030    2    1    2    0    0  0.00000000000E+00  0.00000000000E+00 -0.56946872525E+02  0.11515834336E+04  0.11501745339E+04 0.  0.
        1    1    3    3  502    0 -0.23284184915E+02  0.52577256468E+03 -0.26059016318E+03  0.58727010499E+03  0.50400001928E-02 0. -1.
       -1    1    3    3    0  502  0.23284184915E+02 -0.52577256468E+03  0.20364329065E+03  0.56431332865E+03  0.50400001928E-02 0.  1.
</event>
<event>
 5   0  0.8306787E-05  0.2159798E+04  0.7818609E-02  0.8535350E-01
       -1   -1    0    0    0  501  0.00000000000E+00  0.00000000000E+00  0.96050548666E+03  0.96050548667E+03  0.50400001928E-02 0. -1.
        1   -1    0    0  501    0  0.00000000000E+00  0.00000000000E+00 -0.12141339048E+04  0.12141339048E+04  0.50400001928E-02 0.  1.
    10030    2    1    2    0    0  0.00000000000E+00  0.00000000000E+00 -0.25362841809E+03  0.21746393914E+04  0.21597983953E+04 0.  0.
        1    1    3    3  502    0 -0.47076505922E+02 -0.71241781727E+03 -0.94258327419E+03  0.11824629265E+04  0.50400001928E-02 0.  1.
       -1    1    3    3    0  502  0.47076505922E+02  0.71241781727E+03  0.68895485610E+03  0.99217646492E+03  0.50400001928E-02 0. -1.
</event>
<event>
 5   0  0.8602414E-05  0.1970706E+04  0.7818609E-02  0.8620440E-01
        1   -1    0    0  501    0  0.00000000000E+00  0.00000000000E+00  0.23135466146E+04  0.23135466146E+04  0.50400001928E-02 0. -1.
       -1   -1    0    0    0  501  0.00000000000E+00  0.00000000000E+00 -0.41966777132E+03  0.41966777135E+03  0.50400001928E-02 0.  1.
    10030    2    1    2    0    0  0.00000000000E+00  0.00000000000E+00  0.18938788433E+04  0.27332143859E+04  0.19707064232E+04 0.  0.
        3    1    3    3  502    0 -0.68311181373E+03  0.34501838262E+03  0.86107620713E+02  0.77012594226E+03  0.10100000352E+00 0.  1.
       -3    1    3    3    0  502  0.68311181373E+03 -0.34501838262E+03  0.18077712225E+04  0.19630884437E+04  0.10100000352E+00 0. -1.
</event>
<event>
 5   0  0.1680258E-04  0.2073515E+04  0.7818609E-02  0.8573001E-01
        2   -1    0    0  501    0  0.00000000000E+00  0.00000000000E+00  0.12613347895E+04  0.12613347895E+04  0.25500000920E-02 0.  1.
       -2   -1    0    0    0  501  0.00000000000E+00  0.00000000000E+00 -0.85216541129E+03  0.85216541129E+03  0.25500000920E-02 0. -1.
    10030    2    1    2    0    0  0.00000000000E+00  0.00000000000E+00  0.40916937825E+03  0.21135002008E+04  0.20735147742E+04 0.  0.
        5    1    3    3  502    0 -0.40176657224E+01  0.21219572013E+03 -0.82977535189E+03  0.85650008166E+03  0.46999998093E+01 0. -1.
       -5    1    3    3    0  502  0.40176657224E+01 -0.21219572013E+03  0.12389447301E+04  0.12570001192E+04  0.46999998093E+01 0.  1.
</event>
<event>
 5   0  0.1754356E-04  0.2199826E+04  0.7818609E-02  0.8518501E-01
        2   -1    0    0  501    0  0.00000000000E+00  0.00000000000E+00  0.85130857259E+03  0.85130857260E+03  0.25500000920E-02 0. -1.
       -2   -1    0    0    0  501  0.00000000000E+00  0.00000000000E+00 -0.14211159567E+04  0.14211159567E+04  0.25500000920E-02 0.  1.
    10030    2    1    2    0    0  0.00000000000E+00  0.00000000000E+00 -0.56980738414E+03  0.22724245293E+04  0.21998256264E+04 0.  0.
        1    1    3    3  502    0  0.93584113317E+03 -0.33287843418E+03 -0.77293736000E+03  0.12585860483E+04  0.50400001928E-02 0.  1.
       -1    1    3    3    0  502 -0.93584113317E+03  0.33287843418E+03  0.20312997587E+03  0.10138384810E+04  0.50400001928E-02 0. -1.
</event>
<event>
 5   0  0.7954459E-05  0.2195075E+04  0.7818609E-02  0.8520481E-01
       -1   -1    0    0    0  501  0.00000000000E+00  0.00000000000E+00  0.75503006270E+03  0.75503006272E+03  0.50400001928E-02 0. -1.
        1   -1    0    0  501    0  0.00000000000E+00  0.00000000000E+00 -0.15954172903E+04  0.15954172903E+04  0.50400001928E-02 0.  1.
    10030    2    1    2    0    0  0.00000000000E+00  0.00000000000E+00 -0.84038722760E+03  0.23504473530E+04  0.21950745015E+04 0.  0.
        5    1    3    3  502    0  0.10112619456E+04 -0.51840774798E+02  0.33125337185E+02  0.10131424217E+04  0.46999998093E+01 0. -1.
       -5    1    3    3    0  502 -0.10112619456E+04  0.51840774798E+02 -0.87351256479E+03  0.13373049314E+04  0.46999998093E+01 0.  1.
</event>
<event>
 5   0  0.7954459E-05  0.2240830E+04  0.7818609E-02  0.8501623E-01
        1   -1    0    0  501    0  0.00000000000E+00  0.00000000000E+00  0.17636136639E+04  0.17636136639E+04  0.50400001928E-02 0.  1.
       -1   -1    0    0    0  501  0.00000000000E+00  0.00000000000E+00 -0.71179414705E+03  0.71179414707E+03  0.50400001928E-02 0. -1.
    10030    2    1    2    0    0  0.00000000000E+00  0.00000000000E+00  0.10518195168E+04  0.24754078109E+04  0.22408300994E+04 0.  0.
        5    1    3    3  502    0  0.10455929681E+04  0.50481330054E+02  0.84734593901E+02  0.10502452385E+04  0.46999998093E+01 0. -1.
       -5    1    3    3    0  502 -0.10455929681E+04 -0.50481330054E+02  0.96708492291E+03  0.14251625724E+04  0.46999998093E+01 0.  1.
</event>
<event>
 5   0  0.1754356E-04  0.2186223E+04  0.7818609E-02  0.8524184E-01
       -2   -1    0    0    0  501  0.00000000000E+00  0.00000000000E+00  0.10347303770E+04  0.10347303770E+04  0.25500000920E-02 0. -1.
        2   -1    0    0  501    0  0.00000000000E+00  0.00000000000E+00 -0.11547868306E+04  0.11547868306E+04  0.25500000920E-02 0.  1.
    10030    2    1    2    0    0  0.00000000000E+00  0.00000000000E+00 -0.12005645360E+03  0.21895172075E+04  0.21862232388E+04 0.  0.
        1    1    3    3  502    0  0.95518479118E+03 -0.14787669664E+03 -0.57133394100E+03  0.11227947163E+04  0.50400001928E-02 0.  1.
       -1    1    3    3    0  502 -0.95518479118E+03  0.14787669664E+03  0.45127748740E+03  0.10667224913E+04  0.50400001928E-02 0. -1.
</event>
<event>
 5   0  0.8602414E-05  0.2229726E+04  0.7818609E-02  0.8506156E-01
       -1   -1    0    0    0  501  0.00000000000E+00  0.00000000000E+00  0.62960457496E+03  0.62960457498E+03  0.50400001928E-02 0. -1.
        1   -1    0    0  501    0  0.00000000000E+00  0.00000000000E+00 -0.19741270878E+04  0.19741270878E+04  0.50400001928E-02 0.  1.
    10030    2    1    2    0    0  0.00000000000E+00  0.00000000000E+00 -0.13445225129E+04  0.26037316628E+04  0.22297259438E+04 0.  0.
        3    1    3    3  502    0 -0.20281036124E+03  0.10056097472E+04 -0.11819836908E+04  0.15650777815E+04  0.10100000352E+00 0. -1.
       -3    1    3    3    0  502  0.20281036124E+03 -0.10056097472E+04 -0.16253882202E+03  0.10386538814E+04  0.10100000352E+00 0.  1.
</event>
<event>
 5   0  0.8470971E-05  0.2249963E+04  0.7818609E-02  0.8497915E-01
        1   -1    0    0  501    0  0.00000000000E+00  0.00000000000E+00  0.11249687071E+04  0.11249687071E+04  0.50400001928E-02 0.  1.
       -1   -1    0    0    0  501  0.00000000000E+00  0.00000000000E+00 -0.11249943816E+04  0.11249943816E+04  0.50400001928E-02 0. -1.
    10030    2    1    2    0    0  0.00000000000E+00  0.00000000000E+00 -0.25674541460E-01  0.22499630887E+04  0.22499630885E+04 0.  0.
        2    1    3    3  502    0 -0.68339700888E+03 -0.71494650976E+03  0.53608742518E+03  0.11249754268E+04  0.25500000920E-02 0.  1.
       -2    1    3    3    0  502  0.68339700888E+03  0.71494650976E+03 -0.53611309972E+03  0.11249876618E+04  0.25500000920E-02 0. -1.
</event>
<event>
 5   0  0.8784659E-05  0.2261573E+04  0.7818609E-02  0.8493228E-01
        1   -1    0    0  501    0  0.00000000000E+00  0.00000000000E+00  0.12449154448E+04  0.12449154448E+04  0.50400001928E-02 0.  1.
       -1   -1    0    0    0  501  0.00000000000E+00  0.00000000000E+00 -0.10271205677E+04  0.10271205677E+04  0.50400001928E-02 0. -1.
    10030    2    1    2    0    0  0.00000000000E+00  0.00000000000E+00  0.21779487713E+03  0.22720360125E+04  0.22615731325E+04 0.  0.
        4    1    3    3  502    0  0.11033792251E+04  0.22740914604E+03  0.10896090406E+02  0.11266237046E+04  0.12699999809E+01 0. -1.
       -4    1    3    3    0  502 -0.11033792251E+04 -0.22740914604E+03  0.20689878673E+03  0.11454123079E+04  0.12699999809E+01 0.  1.
</event>
<event>
 5   0  0.8784659E-05  0.2222821E+04  0.7818609E-02  0.8508989E-01
       -1   -1    0    0    0  501  0.00000000000E+00  0.00000000000E+00  0.96127010926E+03  0.96127010927E+03  0.50400001928E-02 0. -1.
        1   -1    0    0  501    0  0.00000000000E+00  0.00000000000E+00 -0.12850014465E+04  0.12850014465E+04  0.50400001928E-02 0.  1.
    10030    2    1    2    0    0  0.00000000000E+00  0.00000000000E+00 -0.32373133720E+03  0.22462715557E+04  0.22228211632E+04 0.  0.
        4    1    3    3  502    0 -0.56769826836E+03  0.81802893132E+03  0.33708323059E+03  0.10512275556E+04  0.12699999809E+01 0. -1.
       -4    1    3    3    0  502  0.56769826836E+03 -0.81802893132E+03 -0.66081456779E+03  0.11950440001E+04  0.12699999809E+01 0.  1.
</event>
<event>
 5   0  0.8306787E-05  0.2326260E+04  0.7818609E-02  0.8467638E-01
       -1   -1    0    0    0  501  0.00000000000E+00  0.00000000000E+00  0.79009957506E+03  0.79009957507E+03  0.50400001928E-02 0.  1.
        1   -1    0    0  501    0  0.00000000000E+00  0.00000000000E+00 -0.17122801027E+04  0.17122801027E+04  0.50400001928E-02 0. -1.
    10030    2    1    2    0    0  0.00000000000E+00  0.00000000000E+00 -0.92218052764E+03  0.25023796778E+04  0.23262603307E+04 0.  0.
        1    1    3    3  502    0  0.10146697026E+04  0.56659402612E+03 -0.51254904617E+03  0.12701535028E+04  0.50400001928E-02 0.  1.
       -1    1    3    3    0  502 -0.10146697026E+04 -0.56659402612E+03 -0.40963148147E+03  0.12322261750E+04  0.50400001928E-02 0. -1.
</event>
<event>
 5   0  0.8602414E-05  0.2129604E+04  0.7818609E-02  0.8548314E-01
        1   -1    0    0  501    0  0.00000000000E+00  0.00000000000E+00  0.11829688995E+04  0.11829688995E+04  0.50400001928E-02 0.  1.
       -1   -1    0    0    0  501  0.00000000000E+00  0.00000000000E+00 -0.95843848175E+03  0.95843848177E+03  0.50400001928E-02 0. -1.
    10030    2    1    2    0    0  0.00000000000E+00  0.00000000000E+00  0.22453041773E+03  0.21414073813E+04  0.21296036401E+04 0.  0.
        3    1    3    3  502    0 -0.87481738428E+03  0.51455558130E+03 -0.21159136091E+03  0.10367467465E+04  0.10100000352E+00 0.  1.
       -3    1    3    3    0  502  0.87481738428E+03 -0.51455558130E+03  0.43612177864E+03  0.11046606348E+04  0.10100000352E+00 0. -1.
</event>
<event>
 5   0  0.8784659E-05  0.2192065E+04  0.7818609E-02  0.8521738E-01
       -1   -1    0    0    0  501  0.00000000000E+00  0.00000000000E+00  0.89691729522E+03  0.89691729524E+03  0.50400001928E-02 0.  1.
        1   -1    0    0  501    0  0.00000000000E+00  0.00000000000E+00 -0.13393510685E+04  0.13393510685E+04  0.50400001928E-02 0. -1.
    10030    2    1    2    0    0  0.00000000000E+00  0.00000000000E+00 -0.44243377328E+03  0.22362683637E+04  0.21920649057E+04 0.  0.
        4    1    3    3  502    0 -0.10062666987E+04 -0.40072745511E+03 -0.50113669439E+02  0.10842823226E+04  0.12699999809E+01 0. -1.
       -4    1    3    3    0  502  0.10062666987E+04  0.40072745511E+03 -0.39232010384E+03  0.11519860412E+04  0.12699999809E+01 0.  1.
</event>
<event>
 5   0  0.1733962E-04  0.2238835E+04  0.7818609E-02  0.8502436E-01
       -2   -1    0    0    0  501  0.00000000000E+00  0.00000000000E+00  0.61040976112E+03  0.61040976112E+03  0.25500000920E-02 0. -1.
        2   -1    0    0  501    0  0.00000000000E+00  0.00000000000E+00 -0.20528766147E+04  0.20528766147E+04  0.25500000920E-02 0.  1.
    10030    2    1    2    0    0  0.00000000000E+00  0.00000000000E+00 -0.14424668536E+04  0.26632863758E+04  0.22388353437E+04 0.  0.
        3    1    3    3  502    0  0.54925070204E+03  0.87737022469E+03 -0.21423952265E+03  0.10570493972E+04  0.10100000352E+00 0. -1.
       -3    1    3    3    0  502 -0.54925070204E+03 -0.87737022469E+03 -0.12282273310E+04  0.16062369786E+04  0.10100000352E+00 0.  1.
</event>
<event>
 5   0  0.8470971E-05  0.1198921E+04  0.7818609E-02  0.9113801E-01
       -1   -1    0    0    0  501  0.00000000000E+00  0.00000000000E+00  0.68784288424E+03  0.68784288426E+03  0.50400001928E-02 0.  1.
        1   -1    0    0  501    0  0.00000000000E+00  0.00000000000E+00 -0.52243476927E+03  0.52243476929E+03  0.50400001928E-02 0. -1.
    10030    2    1    2    0    0  0.00000000000E+00  0.00000000000E+00  0.16540811498E+03  0.12102776536E+04  0.11989212460E+04 0.  0.
        2    1    3    3  502    0  0.40899218646E+03 -0.19594586564E+03  0.47844245262E+03  0.65922421931E+03  0.25500000920E-02 0.  1.
       -2    1    3    3    0  502 -0.40899218646E+03  0.19594586564E+03 -0.31303433765E+03  0.55105343425E+03  0.25500000920E-02 0. -1.
</event>
<event>
 5   0  0.8602414E-05  0.2179221E+04  0.7818609E-02  0.8527127E-01
       -1   -1    0    0    0  501  0.00000000000E+00  0.00000000000E+00  0.95861846118E+03  0.95861846119E+03  0.50400001928E-02 0.  1.
        1   -1    0    0  501    0  0.00000000000E+00  0.00000000000E+00 -0.12385022549E+04  0.12385022549E+04  0.50400001928E-02 0. -1.
    10030    2    1    2    0    0  0.00000000000E+00  0.00000000000E+00 -0.27988379374E+03  0.21971207161E+04  0.21792210772E+04 0.  0.
        3    1    3    3  502    0 -0.40836765345E+03 -0.44073542812E+03 -0.10563850719E+04  0.12153029615E+04  0.10100000352E+00 0. -1.
       -3    1    3    3    0  502  0.40836765345E+03  0.44073542812E+03  0.77650127817E+03  0.98181775457E+03  0.10100000352E+00 0.  1.
</event>
<event>
 5   0  0.8470971E-05  0.2227759E+04  0.7818609E-02  0.8506962E-01
       -1   -1    0    0    0  501  0.00000000000E+00  0.00000000000E+00  0.11134965790E+04  0.11134965790E+04  0.50400001928E-02 0.  1.
        1   -1    0    0  501    0  0.00000000000E+00  0.00000000000E+00 -0.11142628491E+04  0.11142628491E+04  0.50400001928E-02 0. -1.
    10030    2    1    2    0    0  0.00000000000E+00  0.00000000000E+00 -0.76627007170E+00  0.22277594281E+04  0.22277592963E+04 0.  0.
        2    1    3    3  502    0 -0.10980471968E+04 -0.35237696523E+02 -0.18417250629E+03  0.11139429311E+04  0.25500000920E-02 0.  1.
       -2    1    3    3    0  502  0.10980471968E+04  0.35237696523E+02  0.18340623622E+03  0.11138164970E+04  0.25500000920E-02 0. -1.
</event>
<event>
 5   0  0.1754356E-04  0.1856149E+04  0.7818609E-02  0.8676997E-01
       -2   -1    0    0    0  501  0.00000000000E+00  0.00000000000E+00  0.55493315599E+03  0.55493315599E+03  0.25500000920E-02 0.  1.
        2   -1    0    0  501    0  0.00000000000E+00  0.00000000000E+00 -0.15521184005E+04  0.15521184005E+04  0.25500000920E-02 0. -1.
    10030    2    1    2    0    0  0.00000000000E+00  0.00000000000E+00 -0.99718524452E+03  0.21070515565E+04  0.18561486605E+04 0.  0.
        1    1    3    3  502    0 -0.78730858462E+03  0.43679676435E+02 -0.10542011081E+04  0.13164735842E+04  0.50400001928E-02 0. -1.
       -1    1    3    3    0  502  0.78730858462E+03 -0.43679676435E+02  0.57015863594E+02  0.79057797229E+03  0.50400001928E-02 0.  1.
</event>
<event>
 5   0  0.8306787E-05  0.2184595E+04  0.7818609E-02  0.8524867E-01
        1   -1    0    0  501    0  0.00000000000E+00  0.00000000000E+00  0.59219528220E+03  0.59219528222E+03  0.50400001928E-02 0.  1.
       -1   -1    0    0    0  501  0.00000000000E+00  0.00000000000E+00 -0.20147306971E+04  0.20147306971E+04  0.50400001928E-02 0. -1.
    10030    2    1    2    0    0  0.00000000000E+00  0.00000000000E+00 -0.14225354149E+04  0.26069259794E+04  0.21845951696E+04 0.  0.
        1    1    3    3  502    0 -0.47833320873E+03 -0.26098555875E+03  0.41842334849E+03  0.68701835422E+03  0.50400001928E-02 0.  1.
       -1    1    3    3    0  502  0.47833320873E+03  0.26098555875E+03 -0.18409587634E+04  0.19199076251E+04  0.50400001928E-02 0. -1.
</event>
<event>
 5   0  0.1805501E-04  0.2209855E+04  0.7818609E-02  0.8514337E-01
       -2   -1    0    0    0  501  0.00000000000E+00  0.00000000000E+00  0.56051607733E+03  0.56051607734E+03  0.25500000920E-02 0.  1.
        2   -1    0    0  501    0  0.00000000000E+00  0.00000000000E+00 -0.21781087338E+04  0.21781087338E+04  0.25500000920E-02 0. -1.
    10030    2    1    2    0    0  0.00000000000E+00  0.00000000000E+00 -0.16175926564E+04  0.27386248111E+04  0.22098551658E+04 0.  0.
        2    1    3    3  502    0  0.42907607930E+03 -0.10110628564E+04 -0.65951305690E+03  0.12811369379E+04  0.25500000920E-02 0. -1.
       -2    1    3    3    0  502 -0.42907607930E+03  0.10110628564E+04 -0.95807959953E+03  0.14574878732E+04  0.25500000920E-02 0.  1.
</event>
<event>
 5   0  0.6250625E-05  0.1471669E+04  0.7818609E-02  0.8903514E-01
        3   -1    0    0  501    0  0.00000000000E+00  0.00000000000E+00  0.12585078325E+04  0.12585078366E+04  0.10100000352E+00 0. -1.
       -3   -1    0    0    0  501  0.00000000000E+00  0.00000000000E+00 -0.43023369223E+03  0.43023370409E+03  0.10100000352E+00 0.  1.
    10030    2    1    2    0    0  0.00000000000E+00  0.00000000000E+00  0.82827414031E+03  0.16887415407E+04  0.14716690999E+04 0.  0.
        1    1    3    3  502    0  0.55224844480E+03  0.25118368209E+03 -0.63671174442E+02  0.61002098768E+03  0.50400001928E-02 0.  1.
       -1    1    3    3    0  502 -0.55224844480E+03 -0.25118368209E+03  0.89194531475E+03  0.10787205530E+04  0.50400001928E-02 0. -1.
</event>
<event>
 5   0  0.8306787E-05  0.2224525E+04  0.7818609E-02  0.8508289E-01
       -1   -1    0    0    0  501  0.00000000000E+00  0.00000000000E+00  0.87593726268E+03  0.87593726270E+03  0.50400001928E-02 0.  1.
        1   -1    0    0  501    0  0.00000000000E+00  0.00000000000E+00 -0.14123471834E+04  0.14123471834E+04  0.50400001928E-02 0. -1.
    10030    2    1    2    0    0  0.00000000000E+00  0.00000000000E+00 -0.53640992072E+03  0.22882844461E+04  0.22245246915E+04 0.  0.
        1    1    3    3  502    0  0.65329326688E+03  0.54393144617E+03 -0.10060318864E+04  0.13171004772E+04  0.50400001928E-02 0. -1.
       -1    1    3    3    0  502 -0.65329326688E+03 -0.54393144617E+03  0.46962196568E+03  0.97118396886E+03  0.50400001928E-02 0.  1.
</event>
<event>
 5   0  0.8602414E-05  0.2256010E+04  0.7818609E-02  0.8495471E-01
        1   -1    0    0  501    0  0.00000000000E+00  0.00000000000E+00  0.21384148282E+04  0.21384148282E+04  0.50400001928E-02 0. -1.
       -1   -1    0    0    0  501  0.00000000000E+00  0.00000000000E+00 -0.59501796351E+03  0.59501796354E+03  0.50400001928E-02 0.  1.
    10030    2    1    2    0    0  0.00000000000E+00  0.00000000000E+00  0.15433968647E+04  0.27334327917E+04  0.22560099612E+04 0.  0.
        3    1    3    3  502    0 -0.20131506520E+03 -0.69258745977E+03 -0.27912848376E+03  0.77338080242E+03  0.10100000352E+00 0.  1.
       -3    1    3    3    0  502  0.20131506520E+03  0.69258745977E+03  0.18225253484E+04  0.19600519893E+04  0.10100000352E+00 0. -1.
</event>
<event>
 5   0  0.1733962E-04  0.2191931E+04  0.7818609E-02  0.8521794E-01
       -2   -1    0    0    0  501  0.00000000000E+00  0.00000000000E+00  0.11962792186E+04  0.11962792186E+04  0.25500000920E-02 0.  1.
        2   -1    0    0  501    0  0.00000000000E+00  0.00000000000E+00 -0.10040638909E+04  0.10040638909E+04  0.25500000920E-02 0. -1.
    10030    2    1    2    0    0  0.00000000000E+00  0.00000000000E+00  0.19221532764E+03  0.22003431095E+04  0.21919313555E+04 0.  0.
        3    1    3    3  502    0 -0.46091594383E+03  0.51485701602E+02  0.10929171219E+04  0.11872498180E+04  0.10100000352E+00 0.  1.
       -3    1    3    3    0  502  0.46091594383E+03 -0.51485701602E+02 -0.90070179429E+03  0.10130932915E+04  0.10100000352E+00 0. -1.
</event>
<event>
 5   0  0.1798917E-04  0.2227564E+04  0.7818609E-02  0.8507042E-01
       -2   -1    0    0    0  501  0.00000000000E+00  0.00000000000E+00  0.16092150544E+04  0.16092150544E+04  0.25500000920E-02 0. -1.
        2   -1    0    0  501    0  0.00000000000E+00  0.00000000000E+00 -0.77087898172E+03  0.77087898173E+03  0.25500000920E-02 0.  1.
    10030    2    1    2    0    0  0.00000000000E+00  0.00000000000E+00  0.83833607268E+03  0.23800940361E+04  0.22275637477E+04 0.  0.
        4    1    3    3  502    0 -0.74220403413E+03  0.48821194732E+03 -0.29861332084E+03  0.93722423254E+03  0.12699999809E+01 0.  1.
       -4    1    3    3    0  502  0.74220403413E+03 -0.48821194732E+03  0.11369493935E+04  0.14428698036E+04  0.12699999809E+01 0. -1.
</event>
<event>
 5   0  0.8306787E-05  0.2247550E+04  0.7818609E-02  0.8498893E-01
       -1   -1    0    0    0  501  0.00000000000E+00  0.00000000000E+00  0.10611621643E+04  0.10611621643E+04  0.50400001928E-02 0.  1.
        1   -1    0    0  501    0  0.00000000000E+00  0.00000000000E+00 -0.11900822937E+04  0.11900822938E+04  0.50400001928E-02 0. -1.
    10030    2    1    2    0    0  0.00000000000E+00  0.00000000000E+00 -0.12892012946E+03  0.22512444581E+04  0.22475500462E+04 0.  0.
        1    1    3    3  502    0 -0.70004791749E+03 -0.87628565311E+03 -0.13476568053E+03  0.11296483618E+04  0.50400001928E-02 0. -1.
       -1    1    3    3    0  502  0.70004791749E+03  0.87628565311E+03  0.58455510697E+01  0.11215960963E+04  0.50400001928E-02 0.  1.
</event>
<event>
 5   0  0.7954459E-05  0.2160247E+04  0.7818609E-02  0.8535159E-01
        1   -1    0    0  501    0  0.00000000000E+00  0.00000000000E+00  0.14924763846E+04  0.14924763847E+04  0.50400001928E-02 0. -1.
       -1   -1    0    0    0  501  0.00000000000E+00  0.00000000000E+00 -0.78169896247E+03  0.78169896249E+03  0.50400001928E-02 0.  1.
    10030    2    1    2    0    0  0.00000000000E+00  0.00000000000E+00  0.71077742217E+03  0.22741753471E+04  0.21602474316E+04 0.  0.
        5    1    3    3  502    0  0.57933062641E+03  0.88630867921E+03  0.57989143515E+03  0.12072544123E+04  0.46999998093E+01 0. -1.
       -5    1    3    3    0  502 -0.57933062641E+03 -0.88630867921E+03  0.13088598702E+03  0.10669209348E+04  0.46999998093E+01 0.  1.
</event>
<event>
 5   0  0.1733962E-04  0.2209256E+04  0.7818609E-02  0.8514586E-01
        2   -1    0    0  501    0  0.00000000000E+00  0.00000000000E+00  0.18115054250E+04  0.18115054250E+04  0.25500000920E-02 0.  1.
       -2   -1    0    0    0  501  0.00000000000E+00  0.00000000000E+00 -0.67358483673E+03  0.67358483673E+03  0.25500000920E-02 0. -1.
    10030    2    1    2    0    0  0.00000000000E+00  0.00000000000E+00  0.11379205883E+04  0.24850902617E+04  0.22092556085E+04 0.  0.
        3    1    3    3  502    0 -0.11333085932E+03 -0.20292941565E+03  0.17836873019E+04  0.17987675315E+04  0.10100000352E+00 0.  1.
       -3    1    3    3    0  502  0.11333085932E+03  0.20292941565E+03 -0.64576671360E+03  0.68632273021E+03  0.10100000352E+00 0. -1.
</event>
<event>
 5   0  0.8784659E-05  0.2247905E+04  0.7818609E-02  0.8498750E-01
        1   -1    0    0  501    0  0.00000000000E+00  0.00000000000E+00  0.16123230505E+04  0.16123230505E+04  0.50400001928E-02 0. -1.
       -1   -1    0    0    0  501  0.00000000000E+00  0.00000000000E+00 -0.78350852966E+03  0.78350852968E+03  0.50400001928E-02 0.  1.
    10030    2    1    2    0    0  0.00000000000E+00  0.00000000000E+00  0.82881452083E+03  0.23958315802E+04  0.22479046801E+04 0.  0.
        4    1    3    3  502    0  0.54475861585E+03 -0.87867046334E+03  0.88438266200E+03  0.13604991872E+04  0.12699999809E+01 0.  1.
       -4    1    3    3    0  502 -0.54475861585E+03  0.87867046334E+03 -0.55568141170E+02  0.10353323930E+04  0.12699999809E+01 0. -1.
</event>
<event>
 5   0  0.1733962E-04  0.2251959E+04  0.7818609E-02  0.8497108E-01
        2   -1    0    0  501    0  0.00000000000E+00  0.00000000000E+00  0.17946488258E+04  0.17946488258E+04  0.25500000920E-02 0.  1.
       -2   -1    0    0    0  501  0.00000000000E+00  0.00000000000E+00 -0.70645007777E+03  0.70645007777E+03  0.25500000920E-02 0. -1.
    10030    2    1    2    0    0  0.00000000000E+00  0.00000000000E+00  0.10881987480E+04  0.25010989035E+04  0.22519589717E+04 0.  0.
        3    1    3    3  502    0  0.46622594276E+03  0.86054081259E+03  0.11624062448E+04  0.15195675069E+04  0.10100000352E+00 0.  1.
       -3    1    3    3    0  502 -0.46622594276E+03 -0.86054081259E+03 -0.74207496801E+02  0.98153139665E+03  0.10100000352E+00 0. -1.
</event>
<event>
 5   0  0.6250625E-05  0.2188281E+04  0.7818609E-02  0.8523322E-01
        3   -1    0    0  501    0  0.00000000000E+00  0.00000000000E+00  0.12073920873E+04  0.12073920916E+04  0.10100000352E+00 0. -1.
       -3   -1    0    0    0  501  0.00000000000E+00  0.00000000000E+00 -0.99151177507E+03  0.99151178022E+03  0.10100000352E+00 0.  1.
    10030    2    1    2    0    0  0.00000000000E+00  0.00000000000E+00  0.21588031226E+03  0.21989038718E+04  0.21882810441E+04 0.  0.
        4    1    3    3  502    0  0.36002541600E+03 -0.10326682066E+04  0.74312134601E+02  0.10961504601E+04  0.12699999809E+01 0.  1.
       -4    1    3    3    0  502 -0.36002541600E+03  0.10326682066E+04  0.14156817766E+03  0.11027534116E+04  0.12699999809E+01 0. -1.
</event>
<event>
 5   0  0.8470971E-05  0.2203004E+04  0.7818609E-02  0.8517179E-01
        1   -1    0    0  501    0  0.00000000000E+00  0.00000000000E+00  0.68747337271E+03  0.68747337273E+03  0.50400001928E-02 0.  1.
       -1   -1    0    0    0  501  0.00000000000E+00  0.00000000000E+00 -0.17648785933E+04  0.17648785934E+04  0.50400001928E-02 0. -1.
    10030    2    1    2    0    0  0.00000000000E+00  0.00000000000E+00 -0.10774052206E+04  0.24523519661E+04  0.22030043477E+04 0.  0.
        2    1    3    3  502    0  0.10854815850E+04  0.18686474643E+03 -0.52659321574E+03  0.12208558964E+04  0.25500000920E-02 0.  1.
       -2    1    3    3    0  502 -0.10854815850E+04 -0.18686474643E+03 -0.55081200489E+03  0.12314960697E+04  0.25500000920E-02 0. -1.
</event>
<event>
 5   0  0.1680258E-04  0.2398802E+04  0.7818609E-02  0.8439952E-01
        2   -1    0    0  501    0  0.00000000000E+00  0.00000000000E+00  0.23715997532E+04  0.23715997532E+04  0.25500000920E-02 0. -1.
       -2   -1    0    0    0  501  0.00000000000E+00  0.00000000000E+00 -0.60657886087E+03  0.60657886088E+03  0.25500000920E-02 0.  1.
    10030    2    1    2    0    0  0.00000000000E+00  0.00000000000E+00  0.17650208924E+04  0.29781786141E+04  0.23988015981E+04 0.  0.
        5    1    3    3  502    0 -0.51531374500E+03  0.14544876605E+03 -0.44994239118E+03  0.69940964013E+03  0.46999998093E+01 0.  1.
       -5    1    3    3    0  502  0.51531374500E+03 -0.14544876605E+03  0.22149632835E+04  0.22787689740E+04  0.46999998093E+01 0. -1.
</event>
<event>
 5   0  0.8306787E-05  0.2189551E+04  0.7818609E-02  0.8522790E-01
       -1   -1    0    0    0  501  0.00000000000E+00  0.00000000000E+00  0.71743393786E+03  0.71743393788E+03  0.50400001928E-02 0. -1.
        1   -1    0    0  501    0  0.00000000000E+00  0.00000000000E+00 -0.16705839148E+04  0.16705839148E+04  0.50400001928E-02 0.  1.
    10030    2    1    2    0    0  0.00000000000E+00  0.00000000000E+00 -0.95314997696E+03  0.23880178527E+04  0.21895511838E+04 0.  0.
        1    1    3    3  502    0  0.10089026611E+04 -0.88927609406E+02 -0.23280902455E+02  0.10130817833E+04  0.50400001928E-02 0. -1.
       -1    1    3    3    0  502 -0.10089026611E+04  0.88927609406E+02 -0.92986907451E+03  0.13749360694E+04  0.50400001928E-02 0.  1.
</event>
<event>
 5   0  0.8306787E-05  0.2153778E+04  0.7818609E-02  0.8537917E-01
       -1   -1    0    0    0  501  0.00000000000E+00  0.00000000000E+00  0.94133970963E+03  0.94133970965E+03  0.50400001928E-02 0. -1.
        1   -1    0    0  501    0  0.00000000000E+00  0.00000000000E+00 -0.12319569642E+04  0.12319569642E+04  0.50400001928E-02 0.  1.
    10030    2    1    2    0    0  0.00000000000E+00  0.00000000000E+00 -0.29061725455E+03  0.21732966738E+04  0.21537780860E+04 0.  0.
        1    1    3    3  502    0  0.66954611140E+02  0.98079015573E+03  0.29828626185E+03  0.10273300071E+04  0.50400001928E-02 0. -1.
       -1    1    3    3    0  502 -0.66954611140E+02 -0.98079015573E+03 -0.58890351640E+03  0.11459666667E+04  0.50400001928E-02 0.  1.
</event>
<event>
 5   0  0.1733962E-04  0.2198447E+04  0.7818609E-02  0.8519075E-01
        2   -1    0    0  501    0  0.00000000000E+00  0.00000000000E+00  0.97103789931E+03  0.97103789932E+03  0.25500000920E-02 0. -1.
       -2   -1    0    0    0  501  0.00000000000E+00  0.00000000000E+00 -0.12443304728E+04  0.12443304728E+04  0.25500000920E-02 0.  1.
    10030    2    1    2    0    0  0.00000000000E+00  0.00000000000E+00 -0.27329257352E+03  0.22153683721E+04  0.21984467684E+04 0.  0.
        3    1    3    3  502    0  0.62459968462E+02 -0.25435014307E+03  0.93913667173E+03  0.97497330288E+03  0.10100000352E+00 0. -1.
       -3    1    3    3    0  502 -0.62459968462E+02  0.25435014307E+03 -0.12124292452E+04  0.12403950693E+04  0.10100000352E+00 0.  1.
</event>
<event>
 5   0  0.8784659E-05  0.2178161E+04  0.7818609E-02  0.8527573E-01
       -1   -1    0    0    0  501  0.00000000000E+00  0.00000000000E+00  0.62067691763E+03  0.62067691765E+03  0.50400001928E-02 0. -1.
        1   -1    0    0  501    0  0.00000000000E+00  0.00000000000E+00 -0.19109728113E+04  0.19109728113E+04  0.50400001928E-02 0.  1.
    10030    2    1    2    0    0  0.00000000000E+00  0.00000000000E+00 -0.12902958937E+04  0.25316497290E+04  0.21781613478E+04 0.  0.
        4    1    3    3  502    0  0.41758739480E+03  0.16164024089E+03  0.50873389959E+03  0.67773047243E+03  0.12699999809E+01 0. -1.
       -4    1    3    3    0  502 -0.41758739480E+03 -0.16164024089E+03 -0.17990297933E+04  0.18539192565E+04  0.12699999809E+01 0.  1.
</event>
<event>
 5   0  0.8306787E-05  0.2187814E+04  0.7818609E-02  0.8523517E-01
        1   -1    0    0  501    0  0.00000000000E+00  0.00000000000E+00  0.18372268150E+04  0.18372268150E+04  0.50400001928E-02 0.  1.
       -1   -1    0    0    0  501  0.00000000000E+00  0.00000000000E+00 -0.65132542748E+03  0.65132542750E+03  0.50400001928E-02 0. -1.
    10030    2    1    2    0    0  0.00000000000E+00  0.00000000000E+00  0.11859013875E+04  0.24885522425E+04  0.21878140147E+04 0.  0.
        1    1    3    3  502    0  0.93267306237E+03 -0.19948155348E+03 -0.16372212997E+02  0.95390774231E+03  0.50400001928E-02 0. -1.
       -1    1    3    3    0  502 -0.93267306237E+03  0.19948155348E+03  0.12022736005E+04  0.15346445002E+04  0.50400001928E-02 0.  1.
</event>
<event>
 5   0  0.1680258E-04  0.2232063E+04  0.7818609E-02  0.8505200E-01
        2   -1    0    0  501    0  0.00000000000E+00  0.00000000000E+00  0.84716983587E+03  0.84716983588E+03  0.25500000920E-02 0.  1.
       -2   -1    0    0    0  501  0.00000000000E+00  0.00000000000E+00 -0.14702196998E+04  0.14702196998E+04  0.25500000920E-02 0. -1.
    10030    2    1    2    0    0  0.00000000000E+00  0.00000000000E+00 -0.62304986395E+03  0.23173895357E+04  0.22320625276E+04 0.  0.
        5    1    3    3  502    0  0.23351542961E+03 -0.55768306304E+02  0.82003111411E+03  0.85446631178E+03  0.46999998093E+01 0.  1.
       -5    1    3    3    0  502 -0.23351542961E+03  0.55768306304E+02 -0.14430809781E+04  0.14629232239E+04  0.46999998093E+01 0. -1.
</event>
<event>
 5   0  0.7954459E-05  0.1881072E+04  0.7818609E-02  0.8664336E-01
       -1   -1    0    0    0  501  0.00000000000E+00  0.00000000000E+00  0.88200718782E+03  0.88200718784E+03  0.50400001928E-02 0.  1.
        1   -1    0    0  501    0  0.00000000000E+00  0.00000000000E+00 -0.10029489994E+04  0.10029489994E+04  0.50400001928E-02 0. -1.
    10030    2    1    2    0    0  0.00000000000E+00  0.00000000000E+00 -0.12094181156E+03  0.18849561872E+04  0.18810722756E+04 0.  0.
        5    1    3    3  502    0 -0.73084080102E+03 -0.51204856207E+03 -0.35817712024E+03  0.96157940172E+03  0.46999998093E+01 0. -1.
       -5    1    3    3    0  502  0.73084080102E+03  0.51204856207E+03  0.23723530868E+03  0.92337678552E+03  0.46999998093E+01 0.  1.
</event>
<event>
 5   0  0.1733962E-04  0.2082376E+04  0.7818609E-02  0.8569047E-01
       -2   -1    0    0    0  501  0.00000000000E+00  0.00000000000E+00  0.10187874072E+04  0.10187874072E+04  0.25500000920E-02 0.  1.
        2   -1    0    0  501    0  0.00000000000E+00  0.00000000000E+00 -0.10640815417E+04  0.10640815417E+04  0.25500000920E-02 0. -1.
    10030    2    1    2    0    0  0.00000000000E+00  0.00000000000E+00 -0.45294134509E+02  0.20828689490E+04  0.20823764069E+04 0.  0.
        3    1    3    3  502    0 -0.91563522443E+03  0.65249308232E+02  0.46882190534E+03  0.10307469746E+04  0.10100000352E+00 0.  1.
       -3    1    3    3    0  502  0.91563522443E+03 -0.65249308232E+02 -0.51411603985E+03  0.10521219744E+04  0.10100000352E+00 0. -1.
</event>
<event>
 5   0  0.8470971E-05  0.1814998E+04  0.7818609E-02  0.8698364E-01
       -1   -1    0    0    0  501  0.00000000000E+00  0.00000000000E+00  0.14669537379E+04  0.14669537379E+04  0.50400001928E-02 0.  1.
        1   -1    0    0  501    0  0.00000000000E+00  0.00000000000E+00 -0.56140456885E+03  0.56140456888E+03  0.50400001928E-02 0. -1.
    10030    2    1    2    0    0  0.00000000000E+00  0.00000000000E+00  0.90554916903E+03  0.20283583068E+04  0.18149981055E+04 0.  0.
        2    1    3    3  502    0  0.36384710378E+03 -0.29302451552E+03 -0.41669851392E+03  0.62600777402E+03  0.25500000920E-02 0. -1.
       -2    1    3    3    0  502 -0.36384710378E+03  0.29302451552E+03  0.13222476829E+04  0.14023505327E+04  0.25500000920E-02 0.  1.
</event>
<event>
 5   0  0.8784659E-05  0.2219847E+04  0.7818609E-02  0.8510212E-01
        1   -1    0    0  501    0  0.00000000000E+00  0.00000000000E+00  0.14849055522E+04  0.14849055522E+04  0.50400001928E-02 0.  1.
       -1   -1    0    0    0  501  0.00000000000E+00  0.00000000000E+00 -0.82963537566E+03  0.82963537568E+03  0.50400001928E-02 0. -1.
    10030    2    1    2    0    0  0.00000000000E+00  0.00000000000E+00  0.65527017655E+03  0.23145409279E+04  0.22198469998E+04 0.  0.
        4    1    3    3  502    0  0.35068764323E+03 -0.87699728100E+03 -0.28017498501E+03  0.98519322426E+03  0.12699999809E+01 0. -1.
       -4    1    3    3    0  502 -0.35068764323E+03  0.87699728100E+03  0.93544516156E+03  0.13293477036E+04  0.12699999809E+01 0.  1.
</event>
<event>
 5   0  0.8306787E-05  0.2230533E+04  0.7818609E-02  0.8505826E-01
       -1   -1    0    0    0  501  0.00000000000E+00  0.00000000000E+00  0.12501964659E+04  0.12501964659E+04  0.50400001928E-02 0.  1.
        1   -1    0    0  501    0  0.00000000000E+00  0.00000000000E+00 -0.99489893742E+03  0.99489893743E+03  0.50400001928E-02 0. -1.
    10030    2    1    2    0    0  0.00000000000E+00  0.00000000000E+00  0.25529752848E+03  0.22450954033E+04  0.22305327933E+04 0.  0.
        1    1    3    3  502    0 -0.29445593193E+03 -0.10042658556E+04  0.51560643284E+03  0.11666637040E+04  0.50400001928E-02 0.  1.
       -1    1    3    3    0  502  0.29445593193E+03  0.10042658556E+04 -0.26030890436E+03  0.10784316994E+04  0.50400001928E-02 0. -1.
</event>
<event>
 5   0  0.8784659E-05  0.2216818E+04  0.7818609E-02  0.8511460E-01
       -1   -1    0    0    0  501  0.00000000000E+00  0.00000000000E+00  0.54916811485E+03  0.54916811487E+03  0.50400001928E-02 0.  1.
        1   -1    0    0  501    0  0.00000000000E+00  0.00000000000E+00 -0.22371490383E+04  0.22371490383E+04  0.50400001928E-02 0. -1.
    10030    2    1    2    0    0  0.00000000000E+00  0.00000000000E+00 -0.16879809234E+04  0.27863171531E+04  0.22168183688E+04 0.  0.
        4    1    3    3  502    0  0.54088197593E+03  0.36140905133E+03 -0.19719827046E+04  0.20765084191E+04  0.12699999809E+01 0. -1.
       -4    1    3    3    0  502 -0.54088197593E+03 -0.36140905133E+03  0.28400178123E+03  0.70980873404E+03  0.12699999809E+01 0.  1.
</event>
<event>
 5   0  0.1805501E-04  0.2257645E+04  0.7818609E-02  0.8494811E-01
       -2   -1    0    0    0  501  0.00000000000E+00  0.00000000000E+00  0.61135448266E+03  0.61135448267E+03  0.25500000920E-02 0. -1.
        2   -1    0    0  501    0  0.00000000000E+00  0.00000000000E+00 -0.20842909869E+04  0.20842909869E+04  0.25500000920E-02 0.  1.
    10030    2    1    2    0    0  0.00000000000E+00  0.00000000000E+00 -0.14729365042E+04  0.26956454696E+04  0.22576453557E+04 0.  0.
        2    1    3    3  502    0  0.17260467820E+03  0.84459456986E+03 -0.16066271916E+04  0.18232891420E+04  0.25500000920E-02 0.  1.
       -2    1    3    3    0  502 -0.17260467820E+03 -0.84459456986E+03  0.13369068740E+03  0.87235632758E+03  0.25500000920E-02 0. -1.
</event>
<event>
 5   0  0.1754356E-04  0.1485298E+04  0.7818609E-02  0.8894289E-01
       -2   -1    0    0    0  501  0.00000000000E+00  0.00000000000E+00  0.62139652632E+03  0.62139652633E+03  0.25500000920E-02 0.  1.
        2   -1    0    0  501    0  0.00000000000E+00  0.00000000000E+00 -0.88756131128E+03  0.88756131129E+03  0.25500000920E-02 0. -1.
    10030    2    1    2    0    0  0.00000000000E+00  0.00000000000E+00 -0.26616478496E+03  0.15089578376E+04  0.14852979711E+04 0.  0.
        1    1    3    3  502    0  0.11406078314E+03 -0.28164292460E+03 -0.82151598389E+03  0.87591158859E+03  0.50400001928E-02 0. -1.
       -1    1    3    3    0  502 -0.11406078314E+03  0.28164292460E+03  0.55535119893E+03  0.63304624902E+03  0.50400001928E-02 0.  1.
</event>
<event>
 5   0  0.1733962E-04  0.2174678E+04  0.7818609E-02  0.8529042E-01
       -2   -1    0    0    0  501  0.00000000000E+00  0.00000000000E+00  0.11302518441E+04  0.11302518441E+04  0.25500000920E-02 0. -1.
        2   -1    0    0  501    0  0.00000000000E+00  0.00000000000E+00 -0.10460557491E+04  0.10460557491E+04  0.25500000920E-02 0.  1.
    10030    2    1    2    0    0  0.00000000000E+00  0.00000000000E+00  0.84196095036E+02  0.21763075932E+04  0.21746783114E+04 0.  0.
        3    1    3    3  502    0  0.79256661128E+03 -0.68779741413E+03  0.32705567387E+03  0.10991781203E+04  0.10100000352E+00 0. -1.
       -3    1    3    3    0  502 -0.79256661128E+03  0.68779741413E+03 -0.24285957884E+03  0.10771294729E+04  0.10100000352E+00 0.  1.
</event>
<event>
 5   0  0.1754356E-04  0.2125350E+04  0.7818609E-02  0.8550158E-01
        2   -1    0    0  501    0  0.00000000000E+00  0.00000000000E+00  0.81416803381E+03  0.81416803382E+03  0.25500000920E-02 0.  1.
       -2   -1    0    0    0  501  0.00000000000E+00  0.00000000000E+00 -0.13870333119E+04  0.13870333119E+04  0.25500000920E-02 0. -1.
    10030    2    1    2    0    0  0.00000000000E+00  0.00000000000E+00 -0.57286527809E+03  0.22012013457E+04  0.21253500271E+04 0.  0.
        1    1    3    3  502    0  0.93542863608E+03 -0.46669852249E+02 -0.80642000737E+03  0.12359280062E+04  0.50400001928E-02 0. -1.
       -1    1    3    3    0  502 -0.93542863608E+03  0.46669852249E+02  0.23355472928E+03  0.96527333948E+03  0.50400001928E-02 0.  1.
</event>
<event>
 5   0  0.1798917E-04  0.2185757E+04  0.7818609E-02  0.8524380E-01
        2   -1    0    0  501    0  0.00000000000E+00  0.00000000000E+00  0.21740216891E+04  0.21740216891E+04  0.25500000920E-02 0.  1.
       -2   -1    0    0    0  501  0.00000000000E+00  0.00000000000E+00 -0.54938887449E+03  0.54938887450E+03  0.25500000920E-02 0. -1.
    10030    2    1    2    0    0  0.00000000000E+00  0.00000000000E+00  0.16246328146E+04  0.27234105636E+04  0.21857569205E+04 0.  0.
        4    1    3    3  502    0  0.45691668888E+03 -0.89752244444E+03  0.28360013990E+03  0.10463030398E+04  0.12699999809E+01 0. -1.
       -4    1    3    3    0  502 -0.45691668888E+03  0.89752244444E+03  0.13410326747E+04  0.16771075238E+04  0.12699999809E+01 0.  1.
</event>
<event>
 5   0  0.8602414E-05  0.2198406E+04  0.7818609E-02  0.8519092E-01
       -1   -1    0    0    0  501  0.00000000000E+00  0.00000000000E+00  0.59546286541E+03  0.59546286543E+03  0.50400001928E-02 0.  1.
        1   -1    0    0  501    0  0.00000000000E+00  0.00000000000E+00 -0.20290890299E+04  0.20290890299E+04  0.50400001928E-02 0. -1.
    10030    2    1    2    0    0  0.00000000000E+00  0.00000000000E+00 -0.14336261645E+04  0.26245518954E+04  0.21984059388E+04 0.  0.
        3    1    3    3  502    0  0.77496296131E+03 -0.48632159359E+03  0.10521472189E+02  0.91497923221E+03  0.10100000352E+00 0.  1.
       -3    1    3    3    0  502 -0.77496296131E+03  0.48632159359E+03 -0.14441476367E+04  0.17095726632E+04  0.10100000352E+00 0. -1.
</event>
<event>
 5   0  0.8306787E-05  0.2222124E+04  0.7818609E-02  0.8509276E-01
        1   -1    0    0  501    0  0.00000000000E+00  0.00000000000E+00  0.15935124401E+04  0.15935124401E+04  0.50400001928E-02 0. -1.
       -1   -1    0    0    0  501  0.00000000000E+00  0.00000000000E+00 -0.77467770322E+03  0.77467770323E+03  0.50400001928E-02 0.  1.
    10030    2    1    2    0    0  0.00000000000E+00  0.00000000000E+00  0.81883473687E+03  0.23681901433E+04  0.22221238104E+04 0.  0.
        1    1    3    3  502    0 -0.28605717985E+00  0.68625896704E+03  0.13406428641E+04  0.15060792611E+04  0.50400001928E-02 0. -1.
       -1    1    3    3    0  502  0.28605717985E+00 -0.68625896704E+03 -0.52180812719E+03  0.86211088225E+03  0.50400001928E-02 0.  1.
</event>
<event>
 5   0  0.6250625E-05  0.2163902E+04  0.7818609E-02  0.8533605E-01
       -3   -1    0    0    0  501  0.00000000000E+00  0.00000000000E+00  0.88252088405E+03  0.88252088983E+03  0.10100000352E+00 0.  1.
        3   -1    0    0  501    0  0.00000000000E+00  0.00000000000E+00 -0.13264484276E+04  0.13264484315E+04  0.10100000352E+00 0. -1.
    10030    2    1    2    0    0  0.00000000000E+00  0.00000000000E+00 -0.44392754359E+03  0.22089693213E+04  0.21639024466E+04 0.  0.
        1    1    3    3  502    0  0.96066653463E+03  0.49513185318E+03 -0.27384252874E+03  0.11149105226E+04  0.50400001928E-02 0.  1.
       -1    1    3    3    0  502 -0.96066653463E+03 -0.49513185318E+03 -0.17008501485E+03  0.10940587987E+04  0.50400001928E-02 0. -1.
</event>
<event>
 5   0  0.8306787E-05  0.2188234E+04  0.7818609E-02  0.8523341E-01
        1   -1    0    0  501    0  0.00000000000E+00  0.00000000000E+00  0.86572654214E+03  0.86572654215E+03  0.50400001928E-02 0. -1.
       -1   -1    0    0    0  501  0.00000000000E+00  0.00000000000E+00 -0.13827600381E+04  0.13827600382E+04  0.50400001928E-02 0.  1.
    10030    2    1    2    0    0  0.00000000000E+00  0.00000000000E+00 -0.51703349601E+03  0.22484865803E+04  0.21882340519E+04 0.  0.
        1    1    3    3  502    0  0.16469895153E+03 -0.10513845682E+04 -0.51959311723E+03  0.11842771054E+04  0.50400001928E-02 0. -1.
       -1    1    3    3    0  502 -0.16469895153E+03  0.10513845682E+04  0.25596212220E+01  0.10642094749E+04  0.50400001928E-02 0.  1.
</event>
<event>
 5   0  0.8784659E-05  0.2206195E+04  0.7818609E-02  0.8515854E-01
       -1   -1    0    0    0  501  0.00000000000E+00  0.00000000000E+00  0.11677187308E+04  0.11677187308E+04  0.50400001928E-02 0. -1.
        1   -1    0    0  501    0  0.00000000000E+00  0.00000000000E+00 -0.10420520499E+04  0.10420520499E+04  0.50400001928E-02 0.  1.
    10030    2    1    2    0    0  0.00000000000E+00  0.00000000000E+00  0.12566668096E+03  0.22097707807E+04  0.22061946398E+04 0.  0.
        4    1    3    3  502    0  0.22075256470E+03 -0.60737468137E+03  0.95825467991E+03  0.11558067931E+04  0.12699999809E+01 0. -1.
       -4    1    3    3    0  502 -0.22075256470E+03  0.60737468137E+03 -0.83258799895E+03  0.10539639877E+04  0.12699999809E+01 0.  1.
</event>
<event>
 5   0  0.8602414E-05  0.2232475E+04  0.7818609E-02  0.8505031E-01
        1   -1    0    0  501    0  0.00000000000E+00  0.00000000000E+00  0.13658882582E+04  0.13658882582E+04  0.50400001928E-02 0. -1.
       -1   -1    0    0    0  501  0.00000000000E+00  0.00000000000E+00 -0.91221715185E+03  0.91221715187E+03  0.50400001928E-02 0.  1.
    10030    2    1    2    0    0  0.00000000000E+00  0.00000000000E+00  0.45367110630E+03  0.22781054100E+04  0.22324754840E+04 0.  0.
        3    1    3    3  502    0 -0.93915141640E+03  0.42109459402E+03 -0.21403744404E+03  0.10512554769E+04  0.10100000352E+00 0.  1.
       -3    1    3    3    0  502  0.93915141640E+03 -0.42109459402E+03  0.66770855034E+03  0.12268499331E+04  0.10100000352E+00 0. -1.
</event>
<event>
 5   0  0.1798917E-04  0.2208012E+04  0.7818609E-02  0.8515101E-01
       -2   -1    0    0    0  501  0.00000000000E+00  0.00000000000E+00  0.96592188202E+03  0.96592188203E+03  0.25500000920E-02 0. -1.
        2   -1    0    0  501    0  0.00000000000E+00  0.00000000000E+00 -0.12618300676E+04  0.12618300676E+04  0.25500000920E-02 0.  1.
    10030    2    1    2    0    0  0.00000000000E+00  0.00000000000E+00 -0.29590818555E+03  0.22277519496E+04  0.22080120232E+04 0.  0.
        4    1    3    3  502    0 -0.20045650634E+03  0.67883247662E+03 -0.10027778818E+04  0.12274206432E+04  0.12699999809E+01 0.  1.
       -4    1    3    3    0  502  0.20045650634E+03 -0.67883247662E+03  0.70686969622E+03  0.10003313064E+04  0.12699999809E+01 0. -1.
</event>
<event>
 5   0  0.8470971E-05  0.2126012E+04  0.7818609E-02  0.8549871E-01
       -1   -1    0    0    0  501  0.00000000000E+00  0.00000000000E+00  0.96569448203E+03  0.96569448205E+03  0.50400001928E-02 0. -1.
        1   -1    0    0  501    0  0.00000000000E+00  0.00000000000E+00 -0.11701231764E+04  0.11701231765E+04  0.50400001928E-02 0.  1.
    10030    2    1    2    0    0  0.00000000000E+00  0.00000000000E+00 -0.20442869441E+03  0.21358176585E+04  0.21260117543E+04 0.  0.
        2    1    3    3  502    0 -0.23970849791E+03 -0.87004446621E+03  0.46210955536E+03  0.10138948556E+04  0.25500000920E-02 0. -1.
       -2    1    3    3    0  502  0.23970849791E+03  0.87004446621E+03 -0.66653824977E+03  0.11219228029E+04  0.25500000920E-02 0.  1.
</event>
<event>
 5   0  0.8602414E-05  0.2152602E+04  0.7818609E-02  0.8538419E-01
       -1   -1    0    0    0  501  0.00000000000E+00  0.00000000000E+00  0.60673377406E+03  0.60673377408E+03  0.50400001928E-02 0. -1.
        1   -1    0    0  501    0  0.00000000000E+00  0.00000000000E+00 -0.19092792293E+04  0.19092792293E+04  0.50400001928E-02 0.  1.
    10030    2    1    2    0    0  0.00000000000E+00  0.00000000000E+00 -0.13025454552E+04  0.25160130034E+04  0.21526023251E+04 0.  0.
        3    1    3    3  502    0  0.33524549313E+03  0.46854233022E+01 -0.18466845666E+04  0.18768738350E+04  0.10100000352E+00 0.  1.
       -3    1    3    3    0  502 -0.33524549313E+03 -0.46854233022E+01  0.54413911135E+03  0.63913916838E+03  0.10100000352E+00 0. -1.
</event>
<event>
 5   0  0.1680258E-04  0.1564705E+04  0.7818609E-02  0.8842529E-01
        2   -1    0    0  501    0  0.00000000000E+00  0.00000000000E+00  0.83650824772E+03  0.83650824772E+03  0.25500000920E-02 0. -1.
       -2   -1    0    0    0  501  0.00000000000E+00  0.00000000000E+00 -0.73170299217E+03  0.73170299218E+03  0.25500000920E-02 0.  1.
    10030    2    1    2    0    0  0.00000000000E+00  0.00000000000E+00  0.10480525554E+03  0.15682112399E+04  0.15647051963E+04 0.  0.
        5    1    3    3  502    0  0.76164911045E+03 -0.48076580255E+01  0.23146749950E+03  0.79607271925E+03  0.46999998093E+01 0.  1.
       -5    1    3    3    0  502 -0.76164911045E+03  0.48076580255E+01 -0.12666224395E+03  0.77213852064E+03  0.46999998093E+01 0. -1.
</event>
<event>
 5   0  0.8470971E-05  0.2204357E+04  0.7818609E-02  0.8516617E-01
        1   -1    0    0  501    0  0.00000000000E+00  0.00000000000E+00  0.10840519590E+04  0.10840519590E+04  0.50400001928E-02 0.  1.
       -1   -1    0    0    0  501  0.00000000000E+00  0.00000000000E+00 -0.11206082400E+04  0.11206082400E+04  0.50400001928E-02 0. -1.
    10030    2    1    2    0    0  0.00000000000E+00  0.00000000000E+00 -0.36556280971E+02  0.22046601990E+04  0.22043571016E+04 0.  0.
        2    1    3    3  502    0  0.25871657445E+03 -0.60945007329E+03  0.86299788487E+03  0.10877173378E+04  0.25500000920E-02 0.  1.
       -2    1    3    3    0  502 -0.25871657445E+03  0.60945007329E+03 -0.89955416584E+03  0.11169428611E+04  0.25500000920E-02 0. -1.
</event>
<event>
 5   0  0.7954459E-05  0.2228508E+04  0.7818609E-02  0.8506655E-01
       -1   -1    0    0    0  501  0.00000000000E+00  0.00000000000E+00  0.61887961916E+03  0.61887961918E+03  0.50400001928E-02 0.  1.
        1   -1    0    0  501    0  0.00000000000E+00  0.00000000000E+00 -0.20061438351E+04  0.20061438351E+04  0.50400001928E-02 0. -1.
    10030    2    1    2    0    0  0.00000000000E+00  0.00000000000E+00 -0.13872642160E+04  0.26250234543E+04  0.22285076017E+04 0.  0.
        5    1    3    3  502    0 -0.88541010014E+03 -0.27935098943E+02 -0.14897656688E+04  0.17332499107E+04  0.46999998093E+01 0. -1.
       -5    1    3    3    0  502  0.88541010014E+03  0.27935098943E+02  0.10250145283E+03  0.89177354357E+03  0.46999998093E+01 0.  1.
</event>
<event>
 5   0  0.7954459E-05  0.2257561E+04  0.7818609E-02  0.8494845E-01
        1   -1    0    0  501    0  0.00000000000E+00  0.00000000000E+00  0.15812039609E+04  0.15812039609E+04  0.50400001928E-02 0.  1.
       -1   -1    0    0    0  501  0.00000000000E+00  0.00000000000E+00 -0.80580677514E+03  0.80580677516E+03  0.50400001928E-02 0. -1.
    10030    2    1    2    0    0  0.00000000000E+00  0.00000000000E+00  0.77539718572E+03  0.23870107360E+04  0.22575605104E+04 0.  0.
        5    1    3    3  502    0 -0.14577205227E+03 -0.11193061162E+04  0.38219416595E+03  0.11917173086E+04  0.46999998093E+01 0.  1.
       -5    1    3    3    0  502  0.14577205227E+03  0.11193061162E+04  0.39320301977E+03  0.11952934275E+04  0.46999998093E+01 0. -1.
</event>
<event>
 5   0  0.1805501E-04  0.2019543E+04  0.7818609E-02  0.8597538E-01
        2   -1    0    0  501    0  0.00000000000E+00  0.00000000000E+00  0.10825712834E+04  0.10825712834E+04  0.25500000920E-02 0.  1.
       -2   -1    0    0    0  501  0.00000000000E+00  0.00000000000E+00 -0.94186699808E+03  0.94186699808E+03  0.25500000920E-02 0. -1.
    10030    2    1    2    0    0  0.00000000000E+00  0.00000000000E+00  0.14070428537E+03  0.20244382815E+04  0.20195426858E+04 0.  0.
        2    1    3    3  502    0  0.66444937000E+03  0.46211498334E+03  0.67563283917E+03  0.10542878907E+04  0.25500000920E-02 0.  1.
       -2    1    3    3    0  502 -0.66444937000E+03 -0.46211498334E+03 -0.53492855380E+03  0.97015039082E+03  0.25500000920E-02 0. -1.
</event>
<event>
 5   0  0.1805501E-04  0.2395467E+04  0.7818609E-02  0.8441203E-01
        2   -1    0    0  501    0  0.00000000000E+00  0.00000000000E+00  0.22384640549E+04  0.22384640549E+04  0.25500000920E-02 0.  1.
       -2   -1    0    0    0  501  0.00000000000E+00  0.00000000000E+00 -0.64087036182E+03  0.64087036182E+03  0.25500000920E-02 0. -1.
    10030    2    1    2    0    0  0.00000000000E+00  0.00000000000E+00  0.15975936931E+04  0.28793344167E+04  0.23954667760E+04 0.  0.
        2    1    3    3  502    0  0.58611008248E+03  0.60492780354E+03 -0.22473576726E+03  0.87176191783E+03  0.25500000920E-02 0. -1.
       -2    1    3    3    0  502 -0.58611008248E+03 -0.60492780354E+03  0.18223294603E+04  0.20075724989E+04  0.25500000920E-02 0.  1.
</event>
<event>
 5   0  0.1680258E-04  0.2207554E+04  0.7818609E-02  0.8515291E-01
       -2   -1    0    0    0  501  0.00000000000E+00  0.00000000000E+00  0.65238544379E+03  0.65238544379E+03  0.25500000920E-02 0. -1.
        2   -1    0    0  501    0  0.00000000000E+00  0.00000000000E+00 -0.18674900034E+04  0.18674900034E+04  0.25500000920E-02 0.  1.
    10030    2    1    2    0    0  0.00000000000E+00  0.00000000000E+00 -0.12151045596E+04  0.25198754472E+04  0.22075536638E+04 0.  0.
        5    1    3    3  502    0 -0.47004124321E+03 -0.45161975311E+03 -0.16243029321E+04  0.17502232077E+04  0.46999998093E+01 0.  1.
       -5    1    3    3    0  502  0.47004124321E+03  0.45161975311E+03  0.40919837245E+03  0.76965223948E+03  0.46999998093E+01 0. -1.
</event>
<event>
 5   0  0.1798917E-04  0.2148063E+04  0.7818609E-02  0.8540362E-01
        2   -1    0    0  501    0  0.00000000000E+00  0.00000000000E+00  0.83825441014E+03  0.83825441015E+03  0.25500000920E-02 0. -1.
       -2   -1    0    0    0  501  0.00000000000E+00  0.00000000000E+00 -0.13761257163E+04  0.13761257163E+04  0.25500000920E-02 0.  1.
    10030    2    1    2    0    0  0.00000000000E+00  0.00000000000E+00 -0.53787130619E+03  0.22143801265E+04  0.21480628023E+04 0.  0.
        4    1    3    3  502    0  0.14163317208E+03  0.54278779052E+03  0.67523565118E+03  0.87785154696E+03  0.12699999809E+01 0. -1.
       -4    1    3    3    0  502 -0.14163317208E+03 -0.54278779052E+03 -0.12131069574E+04  0.13365285795E+04  0.12699999809E+01 0.  1.
</event>
<event>
 5   0  0.8306787E-05  0.2261600E+04  0.7818609E-02  0.8493218E-01
       -1   -1    0    0    0  501  0.00000000000E+00  0.00000000000E+00  0.87558014928E+03  0.87558014929E+03  0.50400001928E-02 0.  1.
        1   -1    0    0  501    0  0.00000000000E+00  0.00000000000E+00 -0.14604125331E+04  0.14604125331E+04  0.50400001928E-02 0. -1.
    10030    2    1    2    0    0  0.00000000000E+00  0.00000000000E+00 -0.58483238380E+03  0.23359926824E+04  0.22615996319E+04 0.  0.
        1    1    3    3  502    0  0.57552751573E+03  0.22900408217E+03  0.68476563642E+03  0.92335191984E+03  0.50400001928E-02 0.  1.
       -1    1    3    3    0  502 -0.57552751573E+03 -0.22900408217E+03 -0.12695980202E+04  0.14126407625E+04  0.50400001928E-02 0. -1.
</event>
<event>
 5   0  0.1798917E-04  0.2204199E+04  0.7818609E-02  0.8516682E-01
        2   -1    0    0  501    0  0.00000000000E+00  0.00000000000E+00  0.17624618332E+04  0.17624618332E+04  0.25500000920E-02 0. -1.
       -2   -1    0    0    0  501  0.00000000000E+00  0.00000000000E+00 -0.68916300629E+03  0.68916300630E+03  0.25500000920E-02 0.  1.
    10030    2    1    2    0    0  0.00000000000E+00  0.00000000000E+00  0.10732988269E+04  0.24516248395E+04  0.22041991702E+04 0.  0.
        4    1    3    3  502    0 -0.92759219364E+03 -0.46648884291E+03  0.94770554184E+03  0.14057690156E+04  0.12699999809E+01 0. -1.
       -4    1    3    3    0  502  0.92759219364E+03  0.46648884291E+03  0.12559328507E+03  0.10458558239E+04  0.12699999809E+01 0.  1.
</event>
<event>
 5   0  0.8784659E-05  0.2199169E+04  0.7818609E-02  0.8518774E-01
        1   -1    0    0  501    0  0.00000000000E+00  0.00000000000E+00  0.15676303338E+04  0.15676303338E+04  0.50400001928E-02 0.  1.
       -1   -1    0    0    0  501  0.00000000000E+00  0.00000000000E+00 -0.77128279255E+03  0.77128279256E+03  0.50400001928E-02 0. -1.
    10030    2    1    2    0    0  0.00000000000E+00  0.00000000000E+00  0.79634754123E+03  0.23389131263E+04  0.21991692082E+04 0.  0.
        4    1    3    3  502    0  0.25152777433E+03  0.19224591754E+03  0.15181113017E+04  0.15507702123E+04  0.12699999809E+01 0.  1.
       -4    1    3    3    0  502 -0.25152777433E+03 -0.19224591754E+03 -0.72176376050E+03  0.78814291403E+03  0.12699999809E+01 0. -1.
</event>
<event>
 5   0  0.1754356E-04  0.2160824E+04  0.7818609E-02  0.8534913E-01
        2   -1    0    0  501    0  0.00000000000E+00  0.00000000000E+00  0.29558878625E+04  0.29558878625E+04  0.25500000920E-02 0. -1.
       -2   -1    0    0    0  501  0.00000000000E+00  0.00000000000E+00 -0.39490325637E+03  0.39490325637E+03  0.25500000920E-02 0.  1.
    10030    2    1    2    0    0  0.00000000000E+00  0.00000000000E+00  0.25609846062E+04  0.33507911189E+04  0.21608236785E+04 0.  0.
        1    1    3    3  502    0  0.10737067160E+04  0.46713863916E+02  0.11087810101E+04  0.15441579017E+04  0.50400001928E-02 0.  1.
       -1    1    3    3    0  502 -0.10737067160E+04 -0.46713863916E+02  0.14522035961E+04  0.18066332172E+04  0.50400001928E-02 0. -1.
</event>
<event>
 5   0  0.8602414E-05  0.2174222E+04  0.7818609E-02  0.8529235E-01
        1   -1    0    0  501    0  0.00000000000E+00  0.00000000000E+00  0.21703025125E+04  0.21703025125E+04  0.50400001928E-02 0. -1.
       -1   -1    0    0    0  501  0.00000000000E+00  0.00000000000E+00 -0.54453731775E+03  0.54453731777E+03  0.50400001928E-02 0.  1.
    10030    2    1    2    0    0  0.00000000000E+00  0.00000000000E+00  0.16257651947E+04  0.27148398302E+04  0.21742223519E+04 0.  0.
        3    1    3    3  502    0 -0.32116054979E+03  0.50526941872E+03  0.19459027152E+04  0.20359220691E+04  0.10100000352E+00 0. -1.
       -3    1    3    3    0  502  0.32116054979E+03 -0.50526941872E+03 -0.32013752045E+03  0.67891776118E+03  0.10100000352E+00 0.  1.
</event>
<event>
 5   0  0.1733962E-04  0.2168890E+04  0.7818609E-02  0.8531489E-01
        2   -1    0    0  501    0  0.00000000000E+00  0.00000000000E+00  0.11816285966E+04  0.11816285966E+04  0.25500000920E-02 0. -1.
       -2   -1    0    0    0  501  0.00000000000E+00  0.00000000000E+00 -0.99525466694E+03  0.99525466694E+03  0.25500000920E-02 0.  1.
    10030    2    1    2    0    0  0.00000000000E+00  0.00000000000E+00  0.18637392966E+03  0.21768832635E+04  0.21688903848E+04 0.  0.
        3    1    3    3  502    0  0.51094793042E+02  0.52527673924E+03 -0.85766643616E+03  0.10070342877E+04  0.10100000352E+00 0.  1.
       -3    1    3    3    0  502 -0.51094793042E+02 -0.52527673924E+03  0.10440403658E+04  0.11698489759E+04  0.10100000352E+00 0. -1.
</event>
<event>
 5   0  0.7954459E-05  0.2207400E+04  0.7818609E-02  0.8515354E-01
        1   -1    0    0  501    0  0.00000000000E+00  0.00000000000E+00  0.20328294707E+04  0.20328294707E+04  0.50400001928E-02 0. -1.
       -1   -1    0    0    0  501  0.00000000000E+00  0.00000000000E+00 -0.59924043821E+03  0.59924043823E+03  0.50400001928E-02 0.  1.
    10030    2    1    2    0    0  0.00000000000E+00  0.00000000000E+00  0.14335890325E+04  0.26320699090E+04  0.22073999392E+04 0.  0.
        5    1    3    3  502    0  0.29983529718E+02 -0.27888731406E+03 -0.55601925721E+03  0.62278138250E+03  0.46999998093E+01 0.  1.
       -5    1    3    3    0  502 -0.29983529718E+02  0.27888731406E+03  0.19896082897E+04  0.20092885265E+04  0.46999998093E+01 0. -1.
</event>
<event>
 5   0  0.1754356E-04  0.2080772E+04  0.7818609E-02  0.8569761E-01
       -2   -1    0    0    0  501  0.00000000000E+00  0.00000000000E+00  0.87668736032E+03  0.87668736032E+03  0.25500000920E-02 0. -1.
        2   -1    0    0  501    0  0.00000000000E+00  0.00000000000E+00 -0.12346511876E+04  0.12346511876E+04  0.25500000920E-02 0.  1.
    10030    2    1    2    0    0  0.00000000000E+00  0.00000000000E+00 -0.35796382725E+03  0.21113385479E+04  0.20807720592E+04 0.  0.
        1    1    3    3  502    0 -0.10228951310E+03  0.10037263077E+04  0.78664326142E+02  0.10119870165E+04  0.50400001928E-02 0. -1.
       -1    1    3    3    0  502  0.10228951310E+03 -0.10037263077E+04 -0.43662815339E+03  0.10993515314E+04  0.50400001928E-02 0.  1.
</event>
<event>
 5   0  0.1733962E-04  0.2178196E+04  0.7818609E-02  0.8527559E-01
       -2   -1    0    0    0  501  0.00000000000E+00  0.00000000000E+00  0.12185166777E+04  0.12185166777E+04  0.25500000920E-02 0.  1.
        2   -1    0    0  501    0  0.00000000000E+00  0.00000000000E+00 -0.97342446738E+03  0.97342446739E+03  0.25500000920E-02 0. -1.
    10030    2    1    2    0    0  0.00000000000E+00  0.00000000000E+00  0.24509221032E+03  0.21919411451E+04  0.21781955358E+04 0.  0.
        3    1    3    3  502    0 -0.45080966440E+03 -0.85321544788E+03  0.63063626132E+03  0.11527827455E+04  0.10100000352E+00 0.  1.
       -3    1    3    3    0  502  0.45080966440E+03  0.85321544788E+03 -0.38554405099E+03  0.10391583996E+04  0.10100000352E+00 0. -1.
</event>
<event>
 5   0  0.6250625E-05  0.2086662E+04  0.7818609E-02  0.8567142E-01
       -3   -1    0    0    0  501  0.00000000000E+00  0.00000000000E+00  0.10544611017E+04  0.10544611065E+04  0.10100000352E+00 0. -1.
        3   -1    0    0  501    0  0.00000000000E+00  0.00000000000E+00 -0.10323187802E+04  0.10323187851E+04  0.10100000352E+00 0.  1.
    10030    2    1    2    0    0  0.00000000000E+00  0.00000000000E+00  0.22142321523E+02  0.20867798917E+04  0.20866624149E+04 0.  0.
        1    1    3    3  502    0 -0.99107969623E+03 -0.30044269619E+03 -0.11556625889E+03  0.10420462265E+04  0.50400001928E-02 0. -1.
       -1    1    3    3    0  502  0.99107969623E+03  0.30044269619E+03  0.13770858041E+03  0.10447336652E+04  0.50400001928E-02 0.  1.
</event>
<event>
 5   0  0.8784659E-05  0.2243546E+04  0.7818609E-02  0.8500519E-01
        1   -1    0    0  501    0  0.00000000000E+00  0.00000000000E+00  0.12379993526E+04  0.12379993526E+04  0.50400001928E-02 0.  1.
       -1   -1    0    0    0  501  0.00000000000E+00  0.00000000000E+00 -0.10164587084E+04  0.10164587084E+04  0.50400001928E-02 0. -1.
    10030    2    1    2    0    0  0.00000000000E+00  0.00000000000E+00  0.22154064414E+03  0.22544580610E+04  0.22435464987E+04 0.  0.
        4    1    3    3  502    0  0.44911093865E+03 -0.98208216349E+03  0.41587111598E+03  0.11572106157E+04  0.12699999809E+01 0.  1.
       -4    1    3    3    0  502 -0.44911093865E+03  0.98208216349E+03 -0.19433047185E+03  0.10972474453E+04  0.12699999809E+01 0. -1.
</event>
<event>
 5   0  0.8470971E-05  0.2144221E+04  0.7818609E-02  0.8542010E-01
       -1   -1    0    0    0  501  0.00000000000E+00  0.00000000000E+00  0.13440823806E+04  0.13440823806E+04  0.50400001928E-02 0.  1.
        1   -1    0    0  501    0  0.00000000000E+00  0.00000000000E+00 -0.85517120634E+03  0.85517120636E+03  0.50400001928E-02 0. -1.
    10030    2    1    2    0    0  0.00000000000E+00  0.00000000000E+00  0.48891117429E+03  0.21992535870E+04  0.21442206518E+04 0.  0.
        2    1    3    3  502    0 -0.21061608943E+03 -0.32441189420E+03  0.12700281252E+04  0.13276195438E+04  0.25500000920E-02 0.  1.
       -2    1    3    3    0  502  0.21061608943E+03  0.32441189420E+03 -0.78111695093E+03  0.87163404320E+03  0.25500000920E-02 0. -1.
</event>
<event>
 5   0  0.1798917E-04  0.2295119E+04  0.7818609E-02  0.8479848E-01
       -2   -1    0    0    0  501  0.00000000000E+00  0.00000000000E+00  0.72451485926E+03  0.72451485927E+03  0.25500000920E-02 0.  1.
        2   -1    0    0  501    0  0.00000000000E+00  0.00000000000E+00 -0.18176194560E+04  0.18176194560E+04  0.25500000920E-02 0. -1.
    10030    2    1    2    0    0  0.00000000000E+00  0.00000000000E+00 -0.10931045968E+04  0.25421343153E+04  0.22951185629E+04 0.  0.
        4    1    3    3  502    0 -0.24882356390E+02 -0.11409054561E+04 -0.68041619933E+03  0.13286279421E+04  0.12699999809E+01 0. -1.
       -4    1    3    3    0  502  0.24882356390E+02  0.11409054561E+04 -0.41268839745E+03  0.12135063732E+04  0.12699999809E+01 0.  1.
</event>
<event>
 5   0  0.1754356E-04  0.2181634E+04  0.7818609E-02  0.8526112E-01
       -2   -1    0    0    0  501  0.00000000000E+00  0.00000000000E+00  0.71129592690E+03  0.71129592690E+03  0.25500000920E-02 0. -1.
        2   -1    0    0  501    0  0.00000000000E+00  0.00000000000E+00 -0.16728359247E+04  0.16728359247E+04  0.25500000920E-02 0.  1.
    10030    2    1    2    0    0  0.00000000000E+00  0.00000000000E+00 -0.96153999783E+03  0.23841318516E+04  0.21816336811E+04 0.  0.
        1    1    3    3  502    0  0.10268634955E+04  0.10793600806E+03 -0.86525390815E+03  0.13471314508E+04  0.50400001928E-02 0.  1.
       -1    1    3    3    0  502 -0.10268634955E+04 -0.10793600806E+03 -0.96286089685E+02  0.10370004008E+04  0.50400001928E-02 0. -1.
</event>
<event>
 5   0  0.8306787E-05  0.2212699E+04  0.7818609E-02  0.8513161E-01
       -1   -1    0    0    0  501  0.00000000000E+00  0.00000000000E+00  0.61332465005E+03  0.61332465007E+03  0.50400001928E-02 0. -1.
        1   -1    0    0  501    0  0.00000000000E+00  0.00000000000E+00 -0.19956946743E+04  0.19956946743E+04  0.50400001928E-02 0.  1.
    10030    2    1    2    0    0  0.00000000000E+00  0.00000000000E+00 -0.13823700242E+04  0.26090193243E+04  0.22126985676E+04 0.  0.
        1    1    3    3  502    0 -0.50212290196E+02  0.23268366002E+03 -0.19651421004E+04  0.19795066139E+04  0.50400001928E-02 0.  1.
       -1    1    3    3    0  502  0.50212290196E+02 -0.23268366002E+03  0.58277207621E+03  0.62951271041E+03  0.50400001928E-02 0. -1.
</event>
<event>
 5   0  0.1680258E-04  0.2242654E+04  0.7818609E-02  0.8500881E-01
       -2   -1    0    0    0  501  0.00000000000E+00  0.00000000000E+00  0.83651350033E+03  0.83651350033E+03  0.25500000920E-02 0. -1.
        2   -1    0    0  501    0  0.00000000000E+00  0.00000000000E+00 -0.15031128592E+04  0.15031128592E+04  0.25500000920E-02 0.  1.
    10030    2    1    2    0    0  0.00000000000E+00  0.00000000000E+00 -0.66659935892E+03  0.23396263596E+04  0.22426539629E+04 0.  0.
        5    1    3    3  502    0 -0.45777924306E+03  0.99274535079E+03 -0.59358114867E+03  0.12439717991E+04  0.46999998093E+01 0.  1.
       -5    1    3    3    0  502  0.45777924306E+03 -0.99274535079E+03 -0.73018210249E+02  0.10956545605E+04  0.46999998093E+01 0. -1.
</event>
<event>
 5   0  0.8784659E-05  0.2258597E+04  0.7818609E-02  0.8494427E-01
       -1   -1    0    0    0  501  0.00000000000E+00  0.00000000000E+00  0.81880628048E+03  0.81880628050E+03  0.50400001928E-02 0.  1.
        1   -1    0    0  501    0  0.00000000000E+00  0.00000000000E+00 -0.15575292586E+04  0.15575292586E+04  0.50400001928E-02 0. -1.
    10030    2    1    2    0    0  0.00000000000E+00  0.00000000000E+00 -0.73872297809E+03  0.23763355391E+04  0.22585966784E+04 0.  0.
        4    1    3    3  502    0 -0.19110265330E+03 -0.15212477357E+02 -0.15402832116E+04  0.15521680413E+04  0.12699999809E+01 0. -1.
       -4    1    3    3    0  502  0.19110265330E+03  0.15212477357E+02  0.80156023351E+03  0.82416749779E+03  0.12699999809E+01 0.  1.
</event>
<event>
 5   0  0.7954459E-05  0.1716043E+04  0.7818609E-02  0.8752267E-01
       -1   -1    0    0    0  501  0.00000000000E+00  0.00000000000E+00  0.91943199512E+03  0.91943199514E+03  0.50400001928E-02 0. -1.
        1   -1    0    0  501    0  0.00000000000E+00  0.00000000000E+00 -0.80071242086E+03  0.80071242087E+03  0.50400001928E-02 0.  1.
    10030    2    1    2    0    0  0.00000000000E+00  0.00000000000E+00  0.11871957427E+03  0.17201444160E+04  0.17160426786E+04 0.  0.
        5    1    3    3  502    0 -0.63513264193E+03 -0.52864884971E+03 -0.17209350522E+03  0.84409794673E+03  0.46999998093E+01 0. -1.
       -5    1    3    3    0  502  0.63513264193E+03  0.52864884971E+03  0.29081307948E+03  0.87604646928E+03  0.46999998093E+01 0.  1.
</event>
<event>
 5   0  0.8470971E-05  0.2192804E+04  0.7818609E-02  0.8521429E-01
        1   -1    0    0  501    0  0.00000000000E+00  0.00000000000E+00  0.83778883601E+03  0.83778883602E+03  0.50400001928E-02 0.  1.
       -1   -1    0    0    0  501  0.00000000000E+00  0.00000000000E+00 -0.14348452826E+04  0.14348452826E+04  0.50400001928E-02 0. -1.
    10030    2    1    2    0    0  0.00000000000E+00  0.00000000000E+00 -0.59705644661E+03  0.22726341186E+04  0.21928040124E+04 0.  0.
        2    1    3    3  502    0  0.77054221194E+03  0.64247906198E+03  0.15981935282E+03  0.10159019987E+04  0.25500000920E-02 0. -1.
       -2    1    3    3    0  502 -0.77054221194E+03 -0.64247906198E+03 -0.75687579943E+03  0.12567321199E+04  0.25500000920E-02 0.  1.
</event>
<event>
 5   0  0.1798917E-04  0.2146680E+04  0.7818609E-02  0.8540955E-01
       -2   -1    0    0    0  501  0.00000000000E+00  0.00000000000E+00  0.86393388688E+03  0.86393388688E+03  0.25500000920E-02 0. -1.
        2   -1    0    0  501    0  0.00000000000E+00  0.00000000000E+00 -0.13335031171E+04  0.13335031171E+04  0.25500000920E-02 0.  1.
    10030    2    1    2    0    0  0.00000000000E+00  0.00000000000E+00 -0.46956923019E+03  0.21974370040E+04  0.21466797908E+04 0.  0.
        4    1    3    3  502    0  0.11725748558E+03  0.15722535184E+03 -0.13150025804E+04  0.13295497465E+04  0.12699999809E+01 0.  1.
       -4    1    3    3    0  502 -0.11725748558E+03 -0.15722535184E+03  0.84543335016E+03  0.86788725745E+03  0.12699999809E+01 0. -1.
</event>
<event>
 5   0  0.8306787E-05  0.1084999E+04  0.7818609E-02  0.9219937E-01
       -1   -1    0    0    0  501  0.00000000000E+00  0.00000000000E+00  0.24283425270E+03  0.24283425275E+03  0.50400001928E-02 0. -1.
        1   -1    0    0  501    0  0.00000000000E+00  0.00000000000E+00 -0.12119621785E+04  0.12119621785E+04  0.50400001928E-02 0.  1.
    10030    2    1    2    0    0  0.00000000000E+00  0.00000000000E+00 -0.96912792575E+03  0.14547964312E+04  0.10849994100E+04 0.  0.
        1    1    3    3  502    0 -0.37726680402E+03 -0.16427061429E+03 -0.10527398038E+02  0.41161377804E+03  0.50400001928E-02 0. -1.
       -1    1    3    3    0  502  0.37726680402E+03  0.16427061429E+03 -0.95860052771E+03  0.10431826532E+04  0.50400001928E-02 0.  1.
</event>
<event>
 5   0  0.8602414E-05  0.2378530E+04  0.7818609E-02  0.8447586E-01
       -1   -1    0    0    0  501  0.00000000000E+00  0.00000000000E+00  0.11732918186E+04  0.11732918186E+04  0.50400001928E-02 0.  1.
        1   -1    0    0  501    0  0.00000000000E+00  0.00000000000E+00 -0.12054552129E+04  0.12054552129E+04  0.50400001928E-02 0. -1.
    10030    2    1    2    0    0  0.00000000000E+00  0.00000000000E+00 -0.32163394303E+02  0.23787470315E+04  0.23785295785E+04 0.  0.
        3    1    3    3  502    0  0.29891811404E+03 -0.45972382332E+03  0.10393122260E+04  0.11751033767E+04  0.10100000352E+00 0.  1.
       -3    1    3    3    0  502 -0.29891811404E+03  0.45972382332E+03 -0.10714756203E+04  0.12036436548E+04  0.10100000352E+00 0. -1.
</event>
<event>
 5   0  0.1805501E-04  0.2144332E+04  0.7818609E-02  0.8541962E-01
        2   -1    0    0  501    0  0.00000000000E+00  0.00000000000E+00  0.98478398371E+03  0.98478398371E+03  0.25500000920E-02 0. -1.
       -2   -1    0    0    0  501  0.00000000000E+00  0.00000000000E+00 -0.11673016207E+04  0.11673016207E+04  0.25500000920E-02 0.  1.
    10030    2    1    2    0    0  0.00000000000E+00  0.00000000000E+00 -0.18251763695E+03  0.21520856044E+04  0.21443320081E+04 0.  0.
        2    1    3    3  502    0 -0.27618887327E+03  0.20573199197E+03 -0.11102793733E+04  0.11624655836E+04  0.25500000920E-02 0.  1.
       -2    1    3    3    0  502  0.27618887327E+03 -0.20573199197E+03  0.92776173632E+03  0.98962002082E+03  0.25500000920E-02 0. -1.
</event>
<event>
 5   0  0.1798917E-04  0.2184373E+04  0.7818609E-02  0.8524961E-01
       -2   -1    0    0    0  501  0.00000000000E+00  0.00000000000E+00  0.11102937166E+04  0.11102937166E+04  0.25500000920E-02 0. -1.
        2   -1    0    0  501    0  0.00000000000E+00  0.00000000000E+00 -0.10743746188E+04  0.10743746188E+04  0.25500000920E-02 0.  1.
    10030    2    1    2    0    0  0.00000000000E+00  0.00000000000E+00  0.35919097827E+02  0.21846683355E+04  0.21843730346E+04 0.  0.
        4    1    3    3  502    0  0.19012293538E+03  0.71520881025E+03 -0.78539209327E+03  0.10791259083E+04  0.12699999809E+01 0.  1.
       -4    1    3    3    0  502 -0.19012293538E+03 -0.71520881025E+03  0.82131119110E+03  0.11055424272E+04  0.12699999809E+01 0. -1.
</event>
<event>
 5   0  0.7954459E-05  0.2104032E+04  0.7818609E-02  0.8559469E-01
        1   -1    0    0  501    0  0.00000000000E+00  0.00000000000E+00  0.11466165872E+04  0.11466165872E+04  0.50400001928E-02 0. -1.
       -1   -1    0    0    0  501  0.00000000000E+00  0.00000000000E+00 -0.96522026401E+03  0.96522026402E+03  0.50400001928E-02 0.  1.
    10030    2    1    2    0    0  0.00000000000E+00  0.00000000000E+00  0.18139632320E+03  0.21118368512E+04  0.21040319057E+04 0.  0.
        5    1    3    3  502    0 -0.41085919184E+03 -0.91790786374E+03  0.40064026955E+03  0.10825409172E+04  0.46999998093E+01 0. -1.
       -5    1    3    3    0  502  0.41085919184E+03  0.91790786374E+03 -0.21924394636E+03  0.10292959340E+04  0.46999998093E+01 0.  1.
</event>
<event>
 5   0  0.1798917E-04  0.2202831E+04  0.7818609E-02  0.8517251E-01
       -2   -1    0    0    0  501  0.00000000000E+00  0.00000000000E+00  0.10281261922E+04  0.10281261922E+04  0.25500000920E-02 0.  1.
        2   -1    0    0  501    0  0.00000000000E+00  0.00000000000E+00 -0.11799288340E+04  0.11799288340E+04  0.25500000920E-02 0. -1.
    10030    2    1    2    0    0  0.00000000000E+00  0.00000000000E+00 -0.15180264175E+03  0.22080550262E+04  0.22028306690E+04 0.  0.
        4    1    3    3  502    0  0.81712142018E+03 -0.13717670634E+03 -0.80330086478E+03  0.11540358557E+04  0.12699999809E+01 0. -1.
       -4    1    3    3    0  502 -0.81712142018E+03  0.13717670634E+03  0.65149822303E+03  0.10540191704E+04  0.12699999809E+01 0.  1.
</event>
<event>
 5   0  0.8470971E-05  0.2244782E+04  0.7818609E-02  0.8500017E-01
        1   -1    0    0  501    0  0.00000000000E+00  0.00000000000E+00  0.92391775472E+03  0.92391775473E+03  0.50400001928E-02 0.  1.
       -1   -1    0    0    0  501  0.00000000000E+00  0.00000000000E+00 -0.13634996141E+04  0.13634996142E+04  0.50400001928E-02 0. -1.
    10030    2    1    2    0    0  0.00000000000E+00  0.00000000000E+00 -0.43958185943E+03  0.22874173689E+04  0.22447819512E+04 0.  0.
        2    1    3    3  502    0 -0.32712826988E+03  0.61169556458E+03 -0.11189200736E+04  0.13164978161E+04  0.25500000920E-02 0. -1.
       -2    1    3    3    0  502  0.32712826988E+03 -0.61169556458E+03  0.67933821419E+03  0.97091955277E+03  0.25500000920E-02 0.  1.
</event>
<event>
 5   0  0.1680258E-04  0.2221191E+04  0.7818609E-02  0.8509660E-01
        2   -1    0    0  501    0  0.00000000000E+00  0.00000000000E+00  0.15841847184E+04  0.15841847184E+04  0.25500000920E-02 0. -1.
       -2   -1    0    0    0  501  0.00000000000E+00  0.00000000000E+00 -0.77858461857E+03  0.77858461857E+03  0.25500000920E-02 0.  1.
    10030    2    1    2    0    0  0.00000000000E+00  0.00000000000E+00  0.80560009987E+03  0.23627693370E+04  0.22211905409E+04 0.  0.
        5    1    3    3  502    0  0.64624428959E+03 -0.88314537436E+03  0.20146822506E+03  0.11127393989E+04  0.46999998093E+01 0.  1.
       -5    1    3    3    0  502 -0.64624428959E+03  0.88314537436E+03  0.60413187481E+03  0.12500299381E+04  0.46999998093E+01 0. -1.
</event>
<event>
 5   0  0.8784659E-05  0.2241518E+04  0.7818609E-02  0.8501343E-01
        1   -1    0    0  501    0  0.00000000000E+00  0.00000000000E+00  0.76421105748E+03  0.76421105750E+03  0.50400001928E-02 0. -1.
       -1   -1    0    0    0  501  0.00000000000E+00  0.00000000000E+00 -0.16436574167E+04  0.16436574167E+04  0.50400001928E-02 0.  1.
    10030    2    1    2    0    0  0.00000000000E+00  0.00000000000E+00 -0.87944635919E+03  0.24078684742E+04  0.22415183895E+04 0.  0.
        4    1    3    3  502    0 -0.79878036845E+03 -0.21058567869E+03  0.37392015943E+03  0.90676033417E+03  0.12699999809E+01 0. -1.
       -4    1    3    3    0  502  0.79878036845E+03  0.21058567869E+03 -0.12533665186E+04  0.15011081400E+04  0.12699999809E+01 0.  1.
</event>
<event>
 5   0  0.1733962E-04  0.2181285E+04  0.7818609E-02  0.8526258E-01
       -2   -1    0    0    0  501  0.00000000000E+00  0.00000000000E+00  0.55150363851E+03  0.55150363851E+03  0.25500000920E-02 0.  1.
        2   -1    0    0  501    0  0.00000000000E+00  0.00000000000E+00 -0.21568327202E+04  0.21568327202E+04  0.25500000920E-02 0. -1.
    10030    2    1    2    0    0  0.00000000000E+00  0.00000000000E+00 -0.16053290817E+04  0.27083363587E+04  0.21812850276E+04 0.  0.
        3    1    3    3  502    0  0.22921152187E+03  0.22498836048E+03 -0.20967821494E+04  0.21212385713E+04  0.10100000352E+00 0. -1.
       -3    1    3    3    0  502 -0.22921152187E+03 -0.22498836048E+03  0.49145306767E+03  0.58709778745E+03  0.10100000352E+00 0.  1.
</event>
<event>
 5   0  0.6250625E-05  0.1944989E+04  0.7818609E-02  0.8632781E-01
        4   -1    0    0  501    0  0.00000000000E+00  0.00000000000E+00  0.11246682679E+04  0.11246689850E+04  0.12699999809E+01 0. -1.
       -4   -1    0    0    0  501  0.00000000000E+00  0.00000000000E+00 -0.84090934245E+03  0.84091030147E+03  0.12699999809E+01 0.  1.
    10030    2    1    2    0    0  0.00000000000E+00  0.00000000000E+00  0.28375892548E+03  0.19655792864E+04  0.19449891525E+04 0.  0.
        4    1    3    3  502    0 -0.75575500909E+03  0.13193494171E+03  0.74584458306E+03  0.10699804753E+04  0.12699999809E+01 0.  1.
       -4    1    3    3    0  502  0.75575500909E+03 -0.13193494171E+03 -0.46208565758E+03  0.89559881111E+03  0.12699999809E+01 0. -1.
</event>
<event>
 5   0  0.1805501E-04  0.2031546E+04  0.7818609E-02  0.8592012E-01
        2   -1    0    0  501    0  0.00000000000E+00  0.00000000000E+00  0.12885721013E+04  0.12885721013E+04  0.25500000920E-02 0.  1.
       -2   -1    0    0    0  501  0.00000000000E+00  0.00000000000E+00 -0.80072755441E+03  0.80072755441E+03  0.25500000920E-02 0. -1.
    10030    2    1    2    0    0  0.00000000000E+00  0.00000000000E+00  0.48784454691E+03  0.20892996557E+04  0.20315463936E+04 0.  0.
        2    1    3    3  502    0 -0.38599836944E+03 -0.36783988718E+03  0.11330781849E+04  0.12522647870E+04  0.25500000920E-02 0.  1.
       -2    1    3    3    0  502  0.38599836944E+03  0.36783988718E+03 -0.64523363797E+03  0.83703486868E+03  0.25500000920E-02 0. -1.
</event>
<event>
 5   0  0.1798917E-04  0.1927017E+04  0.7818609E-02  0.8641524E-01
        2   -1    0    0  501    0  0.00000000000E+00  0.00000000000E+00  0.56232601325E+03  0.56232601326E+03  0.25500000920E-02 0.  1.
       -2   -1    0    0    0  501  0.00000000000E+00  0.00000000000E+00 -0.16509088601E+04  0.16509088601E+04  0.25500000920E-02 0. -1.
    10030    2    1    2    0    0  0.00000000000E+00  0.00000000000E+00 -0.10885828469E+04  0.22132348734E+04  0.19270173819E+04 0.  0.
        4    1    3    3  502    0  0.21172408803E+03 -0.84945099859E+03 -0.82084157445E+02  0.87928010910E+03  0.12699999809E+01 0.  1.
       -4    1    3    3    0  502 -0.21172408803E+03  0.84945099859E+03 -0.10064986894E+04  0.13339547643E+04  0.12699999809E+01 0. -1.
</event>
<event>
 5   0  0.1680258E-04  0.2176253E+04  0.7818609E-02  0.8528377E-01
        2   -1    0    0  501    0  0.00000000000E+00  0.00000000000E+00  0.12420618791E+04  0.12420618791E+04  0.25500000920E-02 0.  1.
       -2   -1    0    0    0  501  0.00000000000E+00  0.00000000000E+00 -0.95326939473E+03  0.95326939474E+03  0.25500000920E-02 0. -1.
    10030    2    1    2    0    0  0.00000000000E+00  0.00000000000E+00  0.28879248441E+03  0.21953312739E+04  0.21762532718E+04 0.  0.
        5    1    3    3  502    0 -0.27854663435E+03  0.94923302531E+03 -0.31274964483E+03  0.10375287920E+04  0.46999998093E+01 0. -1.
       -5    1    3    3    0  502  0.27854663435E+03 -0.94923302531E+03  0.60154212924E+03  0.11578024819E+04  0.46999998093E+01 0.  1.
</event>
<event>
 5   0  0.8306787E-05  0.2218800E+04  0.7818609E-02  0.8510643E-01
        1   -1    0    0  501    0  0.00000000000E+00  0.00000000000E+00  0.85513665352E+03  0.85513665353E+03  0.50400001928E-02 0. -1.
       -1   -1    0    0    0  501  0.00000000000E+00  0.00000000000E+00 -0.14392657194E+04  0.14392657194E+04  0.50400001928E-02 0.  1.
    10030    2    1    2    0    0  0.00000000000E+00  0.00000000000E+00 -0.58412906587E+03  0.22944023729E+04  0.22188004604E+04 0.  0.
        1    1    3    3  502    0 -0.53348859928E+03  0.89294676121E+03 -0.69096073711E+03  0.12487556783E+04  0.50400001928E-02 0.  1.
       -1    1    3    3    0  502  0.53348859928E+03 -0.89294676121E+03  0.10683167124E+03  0.10456466946E+04  0.50400001928E-02 0. -1.
</event>
<event>
 5   0  0.6250625E-05  0.2002750E+04  0.7818609E-02  0.8605336E-01
       -4   -1    0    0    0  501  0.00000000000E+00  0.00000000000E+00  0.74282578408E+03  0.74282686973E+03  0.12699999809E+01 0. -1.
        4   -1    0    0  501    0  0.00000000000E+00  0.00000000000E+00 -0.13499133985E+04  0.13499139959E+04  0.12699999809E+01 0.  1.
    10030    2    1    2    0    0  0.00000000000E+00  0.00000000000E+00 -0.60708761437E+03  0.20927408656E+04  0.20027503486E+04 0.  0.
        5    1    3    3  502    0 -0.89850470205E+03 -0.30052764212E+03 -0.64230631626E+03  0.11446427640E+04  0.46999998093E+01 0. -1.
       -5    1    3    3    0  502  0.89850470205E+03  0.30052764212E+03  0.35218701885E+02  0.94809810159E+03  0.46999998093E+01 0.  1.
</event>
<event>
 5   0  0.1680258E-04  0.2215451E+04  0.7818609E-02  0.8512025E-01
        2   -1    0    0  501    0  0.00000000000E+00  0.00000000000E+00  0.12007361030E+04  0.12007361030E+04  0.25500000920E-02 0.  1.
       -2   -1    0    0    0  501  0.00000000000E+00  0.00000000000E+00 -0.10219193529E+04  0.10219193529E+04  0.25500000920E-02 0. -1.
    10030    2    1    2    0    0  0.00000000000E+00  0.00000000000E+00  0.17881675014E+03  0.22226554559E+04  0.22154507093E+04 0.  0.
        5    1    3    3  502    0 -0.30344976554E+03 -0.58554102908E+03 -0.80348217728E+03  0.10394930284E+04  0.46999998093E+01 0. -1.
       -5    1    3    3    0  502  0.30344976554E+03  0.58554102908E+03  0.98229892743E+03  0.11831624275E+04  0.46999998093E+01 0.  1.
</event>
<event>
 5   0  0.8602414E-05  0.2202942E+04  0.7818609E-02  0.8517205E-01
        1   -1    0    0  501    0  0.00000000000E+00  0.00000000000E+00  0.10579335204E+04  0.10579335205E+04  0.50400001928E-02 0.  1.
       -1   -1    0    0    0  501  0.00000000000E+00  0.00000000000E+00 -0.11467999366E+04  0.11467999366E+04  0.50400001928E-02 0. -1.
    10030    2    1    2    0    0  0.00000000000E+00  0.00000000000E+00 -0.88866416172E+02  0.22047334571E+04  0.22029417552E+04 0.  0.
        3    1    3    3  502    0 -0.91360065304E+03 -0.46622848306E+03  0.35739419129E+03  0.10861702306E+04  0.10100000352E+00 0.  1.
       -3    1    3    3    0  502  0.91360065304E+03  0.46622848306E+03 -0.44626060746E+03  0.11185632265E+04  0.10100000352E+00 0. -1.
</event>
<event>
 5   0  0.1754356E-04  0.2189839E+04  0.7818609E-02  0.8522669E-01
       -2   -1    0    0    0  501  0.00000000000E+00  0.00000000000E+00  0.27811955173E+04  0.27811955173E+04  0.25500000920E-02 0.  1.
        2   -1    0    0  501    0  0.00000000000E+00  0.00000000000E+00 -0.43105498139E+03  0.43105498139E+03  0.25500000920E-02 0. -1.
    10030    2    1    2    0    0  0.00000000000E+00  0.00000000000E+00  0.23501405359E+04  0.32122504987E+04  0.21898385164E+04 0.  0.
        1    1    3    3  502    0  0.20140885087E+03 -0.22151905237E+03 -0.36984472568E+03  0.47583751103E+03  0.50400001928E-02 0. -1.
       -1    1    3    3    0  502 -0.20140885087E+03  0.22151905237E+03  0.27199852616E+04  0.27364129877E+04  0.50400001928E-02 0.  1.
</event>
<event>
 5   0  0.8306787E-05  0.2263755E+04  0.7818609E-02  0.8492351E-01
       -1   -1    0    0    0  501  0.00000000000E+00  0.00000000000E+00  0.94888125866E+03  0.94888125867E+03  0.50400001928E-02 0.  1.
        1   -1    0    0  501    0  0.00000000000E+00  0.00000000000E+00 -0.13501655797E+04  0.13501655797E+04  0.50400001928E-02 0. -1.
    10030    2    1    2    0    0  0.00000000000E+00  0.00000000000E+00 -0.40128432102E+03  0.22990468384E+04  0.22637551234E+04 0.  0.
        1    1    3    3  502    0 -0.68669197083E+03  0.11963780527E+03 -0.11063341337E+04  0.13076063179E+04  0.50400001928E-02 0. -1.
       -1    1    3    3    0  502  0.68669197083E+03 -0.11963780527E+03  0.70504981266E+03  0.99144052046E+03  0.50400001928E-02 0.  1.
</event>
<event>
 5   0  0.1754356E-04  0.2238327E+04  0.7818609E-02  0.8502643E-01
        2   -1    0    0  501    0  0.00000000000E+00  0.00000000000E+00  0.19447842849E+04  0.19447842849E+04  0.25500000920E-02 0. -1.
       -2   -1    0    0    0  501  0.00000000000E+00  0.00000000000E+00 -0.64404416016E+03  0.64404416016E+03  0.25500000920E-02 0.  1.
    10030    2    1    2    0    0  0.00000000000E+00  0.00000000000E+00  0.13007401248E+04  0.25888284451E+04  0.22383270194E+04 0.  0.
        1    1    3    3  502    0  0.85548804476E+03  0.50424745560E+01  0.14849140373E+04  0.17137254504E+04  0.50400001928E-02 0. -1.
       -1    1    3    3    0  502 -0.85548804476E+03 -0.50424745560E+01 -0.18417391248E+03  0.87510299470E+03  0.50400001928E-02 0.  1.
</event>
<event>
 5   0  0.1754356E-04  0.1168500E+04  0.7818609E-02  0.9140884E-01
        2   -1    0    0  501    0  0.00000000000E+00  0.00000000000E+00  0.11650395503E+04  0.11650395503E+04  0.25500000920E-02 0.  1.
       -2   -1    0    0    0  501  0.00000000000E+00  0.00000000000E+00 -0.29299284665E+03  0.29299284666E+03  0.25500000920E-02 0. -1.
    10030    2    1    2    0    0  0.00000000000E+00  0.00000000000E+00  0.87204670366E+03  0.14580323970E+04  0.11685003283E+04 0.  0.
        1    1    3    3  502    0 -0.54108830915E+03  0.84867616726E+02  0.68981469870E+03  0.88080837259E+03  0.50400001928E-02 0.  1.
       -1    1    3    3    0  502  0.54108830915E+03 -0.84867616726E+02  0.18223200496E+03  0.57722402438E+03  0.50400001928E-02 0. -1.
</event>
<event>
 5   0  0.1680258E-04  0.2204208E+04  0.7818609E-02  0.8516679E-01
       -2   -1    0    0    0  501  0.00000000000E+00  0.00000000000E+00  0.69282898707E+03  0.69282898707E+03  0.25500000920E-02 0.  1.
        2   -1    0    0  501    0  0.00000000000E+00  0.00000000000E+00 -0.17531496035E+04  0.17531496035E+04  0.25500000920E-02 0. -1.
    10030    2    1    2    0    0  0.00000000000E+00  0.00000000000E+00 -0.10603206164E+04  0.24459785905E+04  0.22042076708E+04 0.  0.
        5    1    3    3  502    0  0.38299685333E+03 -0.12080919115E+03 -0.16690514873E+04  0.17166934518E+04  0.46999998093E+01 0. -1.
       -5    1    3    3    0  502 -0.38299685333E+03  0.12080919115E+03  0.60873087091E+03  0.72928513870E+03  0.46999998093E+01 0.  1.
</event>
<event>
 5   0  0.1733962E-04  0.2049597E+04  0.7818609E-02  0.8583777E-01
       -2   -1    0    0    0  501  0.00000000000E+00  0.00000000000E+00  0.84747478057E+03  0.84747478058E+03  0.25500000920E-02 0.  1.
        2   -1    0    0  501    0  0.00000000000E+00  0.00000000000E+00 -0.12392255164E+04  0.12392255164E+04  0.25500000920E-02 0. -1.
    10030    2    1    2    0    0  0.00000000000E+00  0.00000000000E+00 -0.39175073580E+03  0.20867002970E+04  0.20495973971E+04 0.  0.
        3    1    3    3  502    0  0.32127278978E+03  0.77655815697E+03 -0.79296762259E+03  0.11554464234E+04  0.10100000352E+00 0. -1.
       -3    1    3    3    0  502 -0.32127278978E+03 -0.77655815697E+03  0.40121688679E+03  0.93125387358E+03  0.10100000352E+00 0.  1.
</event>
<event>
 5   0  0.8470971E-05  0.2256367E+04  0.7818609E-02  0.8495326E-01
       -1   -1    0    0    0  501  0.00000000000E+00  0.00000000000E+00  0.75944394222E+03  0.75944394224E+03  0.50400001928E-02 0. -1.
        1   -1    0    0  501    0  0.00000000000E+00  0.00000000000E+00 -0.16759611342E+04  0.16759611342E+04  0.50400001928E-02 0.  1.
    10030    2    1    2    0    0  0.00000000000E+00  0.00000000000E+00 -0.91651719202E+03  0.24354050765E+04  0.22563674619E+04 0.  0.
        2    1    3    3  502    0  0.88816063372E+02  0.10628664136E+04 -0.85516694490E+03  0.13670712527E+04  0.25500000920E-02 0.  1.
       -2    1    3    3    0  502 -0.88816063372E+02 -0.10628664136E+04 -0.61350247112E+02  0.10683338238E+04  0.25500000920E-02 0. -1.
</event>
<event>
 5   0  0.8602414E-05  0.2036888E+04  0.7818609E-02  0.8589566E-01
        1   -1    0    0  501    0  0.00000000000E+00  0.00000000000E+00  0.18995710006E+04  0.18995710006E+04  0.50400001928E-02 0. -1.
       -1   -1    0    0    0  501  0.00000000000E+00  0.00000000000E+00 -0.54603300434E+03  0.54603300436E+03  0.50400001928E-02 0.  1.
    10030    2    1    2    0    0  0.00000000000E+00  0.00000000000E+00  0.13535379963E+04  0.24456040050E+04  0.20368882742E+04 0.  0.
        3    1    3    3  502    0 -0.11411411044E+03 -0.83888143415E+03  0.13564769467E+04  0.15989914971E+04  0.10100000352E+00 0. -1.
       -3    1    3    3    0  502  0.11411411044E+03  0.83888143415E+03 -0.29389504649E+01  0.84661250781E+03  0.10100000352E+00 0.  1.
</event>
<event>
 5   0  0.8470971E-05  0.2038078E+04  0.7818609E-02  0.8589022E-01
       -1   -1    0    0    0  501  0.00000000000E+00  0.00000000000E+00  0.55056619941E+03  0.55056619943E+03  0.50400001928E-02 0.  1.
        1   -1    0    0  501    0  0.00000000000E+00  0.00000000000E+00 -0.18861321238E+04  0.18861321239E+04  0.50400001928E-02 0. -1.
    10030    2    1    2    0    0  0.00000000000E+00  0.00000000000E+00 -0.13355659244E+04  0.24366983233E+04  0.20380781094E+04 0.  0.
        2    1    3    3  502    0 -0.61012837019E+03 -0.52570166030E+03 -0.14142557202E+04  0.16274944258E+04  0.25500000920E-02 0. -1.
       -2    1    3    3    0  502  0.61012837019E+03  0.52570166030E+03  0.78689795805E+02  0.80920389749E+03  0.25500000920E-02 0.  1.
</event>
<event>
 5   0  0.8306787E-05  0.2208820E+04  0.7818609E-02  0.8514766E-01
        1   -1    0    0  501    0  0.00000000000E+00  0.00000000000E+00  0.28181346893E+04  0.28181346893E+04  0.50400001928E-02 0.  1.
       -1   -1    0    0    0  501  0.00000000000E+00  0.00000000000E+00 -0.43281160755E+03  0.43281160758E+03  0.50400001928E-02 0. -1.
    10030    2    1    2    0    0  0.00000000000E+00  0.00000000000E+00  0.23853230818E+04  0.32509462969E+04  0.22088199612E+04 0.  0.
        1    1    3    3  502    0  0.10769761673E+04  0.19489781054E+03  0.14102623407E+04  0.17851338020E+04  0.50400001928E-02 0. -1.
       -1    1    3    3    0  502 -0.10769761673E+04 -0.19489781054E+03  0.97506074105E+03  0.14658124949E+04  0.50400001928E-02 0.  1.
</event>
<event>
 5   0  0.1754356E-04  0.2172826E+04  0.7818609E-02  0.8529824E-01
       -2   -1    0    0    0  501  0.00000000000E+00  0.00000000000E+00  0.40588827440E+03  0.40588827441E+03  0.25500000920E-02 0. -1.
        2   -1    0    0  501    0  0.00000000000E+00  0.00000000000E+00 -0.29079274894E+04  0.29079274894E+04  0.25500000920E-02 0.  1.
    10030    2    1    2    0    0  0.00000000000E+00  0.00000000000E+00 -0.25020392150E+04  0.33138157638E+04  0.21728264273E+04 0.  0.
        1    1    3    3  502    0 -0.65545523218E+02 -0.48839521140E+03  0.22564359227E+03  0.54197890078E+03  0.50400001928E-02 0. -1.
       -1    1    3    3    0  502  0.65545523218E+02  0.48839521140E+03 -0.27276828073E+04  0.27718368630E+04  0.50400001928E-02 0.  1.
</event>
<event>
 5   0  0.8602414E-05  0.2172575E+04  0.7818609E-02  0.8529930E-01
       -1   -1    0    0    0  501  0.00000000000E+00  0.00000000000E+00  0.84020798896E+03  0.84020798897E+03  0.50400001928E-02 0.  1.
        1   -1    0    0  501    0  0.00000000000E+00  0.00000000000E+00 -0.14044390261E+04  0.14044390261E+04  0.50400001928E-02 0. -1.
    10030    2    1    2    0    0  0.00000000000E+00  0.00000000000E+00 -0.56423103716E+03  0.22446470151E+04  0.21725753288E+04 0.  0.
        3    1    3    3  502    0 -0.98319178522E+03 -0.27050977237E+03 -0.66894101110E+03  0.12195588178E+04  0.10100000352E+00 0.  1.
       -3    1    3    3    0  502  0.98319178522E+03  0.27050977237E+03  0.10470997394E+03  0.10250881973E+04  0.10100000352E+00 0. -1.
</event>
<event>
 5   0  0.1805501E-04  0.2109369E+04  0.7818609E-02  0.8557127E-01
       -2   -1    0    0    0  501  0.00000000000E+00  0.00000000000E+00  0.15001696587E+04  0.15001696587E+04  0.25500000920E-02 0. -1.
        2   -1    0    0  501    0  0.00000000000E+00  0.00000000000E+00 -0.74148900013E+03  0.74148900013E+03  0.25500000920E-02 0.  1.
    10030    2    1    2    0    0  0.00000000000E+00  0.00000000000E+00  0.75868065859E+03  0.22416586588E+04  0.21093689106E+04 0.  0.
        2    1    3    3  502    0 -0.93240948366E+03 -0.44416594052E+03  0.15218639655E+03  0.10439499640E+04  0.25500000920E-02 0. -1.
       -2    1    3    3    0  502  0.93240948366E+03  0.44416594052E+03  0.60649426204E+03  0.11977086949E+04  0.25500000920E-02 0.  1.
</event>
<event>
 5   0  0.7954459E-05  0.2205650E+04  0.7818609E-02  0.8516080E-01
       -1   -1    0    0    0  501  0.00000000000E+00  0.00000000000E+00  0.84968429373E+03  0.84968429374E+03  0.50400001928E-02 0. -1.
        1   -1    0    0  501    0  0.00000000000E+00  0.00000000000E+00 -0.14313828132E+04  0.14313828132E+04  0.50400001928E-02 0.  1.
    10030    2    1    2    0    0  0.00000000000E+00  0.00000000000E+00 -0.58169851946E+03  0.22810671069E+04  0.22056504661E+04 0.  0.
        5    1    3    3  502    0  0.24861152889E+03  0.14765208817E+03 -0.13914713540E+04  0.14212049290E+04  0.46999998093E+01 0.  1.
       -5    1    3    3    0  502 -0.24861152889E+03 -0.14765208817E+03  0.80977283451E+03  0.85986217788E+03  0.46999998093E+01 0. -1.
</event>
<event>
 5   0  0.1798917E-04  0.1551823E+04  0.7818609E-02  0.8850704E-01
       -2   -1    0    0    0  501  0.00000000000E+00  0.00000000000E+00  0.39861719943E+03  0.39861719944E+03  0.25500000920E-02 0.  1.
        2   -1    0    0  501    0  0.00000000000E+00  0.00000000000E+00 -0.15103183032E+04  0.15103183032E+04  0.25500000920E-02 0. -1.
    10030    2    1    2    0    0  0.00000000000E+00  0.00000000000E+00 -0.11117011038E+04  0.19089355026E+04  0.15518232532E+04 0.  0.
        4    1    3    3  502    0  0.19605097488E+03  0.10234823855E+03 -0.14707241040E+04  0.14872599469E+04  0.12699999809E+01 0. -1.
       -4    1    3    3    0  502 -0.19605097488E+03 -0.10234823855E+03  0.35902300025E+03  0.42167555572E+03  0.12699999809E+01 0.  1.
</event>
<event>
 5   0  0.1754356E-04  0.2219762E+04  0.7818609E-02  0.8510248E-01
        2   -1    0    0  501    0  0.00000000000E+00  0.00000000000E+00  0.11933725553E+04  0.11933725553E+04  0.25500000920E-02 0. -1.
       -2   -1    0    0    0  501  0.00000000000E+00  0.00000000000E+00 -0.10322304941E+04  0.10322304941E+04  0.25500000920E-02 0.  1.
    10030    2    1    2    0    0  0.00000000000E+00  0.00000000000E+00  0.16114206120E+03  0.22256030494E+04  0.22197617371E+04 0.  0.
        1    1    3    3  502    0 -0.78792877548E+03  0.42560418046E+03  0.73793715979E+03  0.11603973136E+04  0.50400001928E-02 0. -1.
       -1    1    3    3    0  502  0.78792877548E+03 -0.42560418046E+03 -0.57679509859E+03  0.10652057357E+04  0.50400001928E-02 0.  1.
</event>
<event>
 5   0  0.1754356E-04  0.2122237E+04  0.7818609E-02  0.8551511E-01
        2   -1    0    0  501    0  0.00000000000E+00  0.00000000000E+00  0.71559376993E+03  0.71559376993E+03  0.25500000920E-02 0.  1.
       -2   -1    0    0    0  501  0.00000000000E+00  0.00000000000E+00 -0.15734801168E+04  0.15734801168E+04  0.25500000920E-02 0. -1.
    10030    2    1    2    0    0  0.00000000000E+00  0.00000000000E+00 -0.85788634688E+03  0.22890738867E+04  0.21222370920E+04 0.  0.
        1    1    3    3  502    0  0.36703852574E+03 -0.47163673348E+02  0.64373843728E+03  0.74252331082E+03  0.50400001928E-02 0.  1.
       -1    1    3    3    0  502 -0.36703852574E+03  0.47163673348E+02 -0.15016247842E+04  0.15465505759E+04  0.50400001928E-02 0. -1.
</event>
<event>
 5   0  0.8784659E-05  0.2282211E+04  0.7818609E-02  0.8484968E-01
        1   -1    0    0  501    0  0.00000000000E+00  0.00000000000E+00  0.86215173339E+03  0.86215173340E+03  0.50400001928E-02 0.  1.
       -1   -1    0    0    0  501  0.00000000000E+00  0.00000000000E+00 -0.15103156549E+04  0.15103156549E+04  0.50400001928E-02 0. -1.
    10030    2    1    2    0    0  0.00000000000E+00  0.00000000000E+00 -0.64816392148E+03  0.23724673883E+04  0.22822105598E+04 0.  0.
        4    1    3    3  502    0 -0.39951676931E+03 -0.10057763397E+04 -0.70022017670E+03  0.12889955792E+04  0.12699999809E+01 0. -1.
       -4    1    3    3    0  502  0.39951676931E+03  0.10057763397E+04  0.52056255215E+02  0.10834718091E+04  0.12699999809E+01 0.  1.
</event>
<event>
 5   0  0.1798917E-04  0.2202834E+04  0.7818609E-02  0.8517250E-01
       -2   -1    0    0    0  501  0.00000000000E+00  0.00000000000E+00  0.88671963738E+03  0.88671963739E+03  0.25500000920E-02 0. -1.
        2   -1    0    0  501    0  0.00000000000E+00  0.00000000000E+00 -0.13680975193E+04  0.13680975193E+04  0.25500000920E-02 0.  1.
    10030    2    1    2    0    0  0.00000000000E+00  0.00000000000E+00 -0.48137788190E+03  0.22548171567E+04  0.22028335718E+04 0.  0.
        4    1    3    3  502    0 -0.96187403830E+03 -0.16183964634E+03  0.28297307780E+03  0.10156126783E+04  0.12699999809E+01 0. -1.
       -4    1    3    3    0  502  0.96187403830E+03  0.16183964634E+03 -0.76435095971E+03  0.12392044784E+04  0.12699999809E+01 0.  1.
</event>
<event>
 5   0  0.1798917E-04  0.1955387E+04  0.7818609E-02  0.8627768E-01
        2   -1    0    0  501    0  0.00000000000E+00  0.00000000000E+00  0.12489191627E+04  0.12489191627E+04  0.25500000920E-02 0.  1.
       -2   -1    0    0    0  501  0.00000000000E+00  0.00000000000E+00 -0.76536920165E+03  0.76536920166E+03  0.25500000920E-02 0. -1.
    10030    2    1    2    0    0  0.00000000000E+00  0.00000000000E+00  0.48354996105E+03  0.20142883644E+04  0.19553866753E+04 0.  0.
        4    1    3    3  502    0 -0.26932155124E+03  0.87222093256E+03  0.60243448164E+03  0.10937240835E+04  0.12699999809E+01 0.  1.
       -4    1    3    3    0  502  0.26932155124E+03 -0.87222093256E+03 -0.11888452059E+03  0.92056428091E+03  0.12699999809E+01 0. -1.
</event>
<event>
 5   0  0.8470971E-05  0.2196019E+04  0.7818609E-02  0.8520087E-01
       -1   -1    0    0    0  501  0.00000000000E+00  0.00000000000E+00  0.65183827015E+03  0.65183827017E+03  0.50400001928E-02 0.  1.
        1   -1    0    0  501    0  0.00000000000E+00  0.00000000000E+00 -0.18495764687E+04  0.18495764687E+04  0.50400001928E-02 0. -1.
    10030    2    1    2    0    0  0.00000000000E+00  0.00000000000E+00 -0.11977381986E+04  0.25014147389E+04  0.21960188760E+04 0.  0.
        2    1    3    3  502    0 -0.97190312468E+03 -0.40067527750E+03 -0.95995249989E+03  0.14236028814E+04  0.25500000920E-02 0.  1.
       -2    1    3    3    0  502  0.97190312468E+03  0.40067527750E+03 -0.23778569869E+03  0.10778118575E+04  0.25500000920E-02 0. -1.
</event>
<event>
 5   0  0.1754356E-04  0.2187926E+04  0.7818609E-02  0.8523470E-01
        2   -1    0    0  501    0  0.00000000000E+00  0.00000000000E+00  0.16312102743E+04  0.16312102743E+04  0.25500000920E-02 0.  1.
       -2   -1    0    0    0  501  0.00000000000E+00  0.00000000000E+00 -0.73366105774E+03  0.73366105774E+03  0.25500000920E-02 0. -1.
    10030    2    1    2    0    0  0.00000000000E+00  0.00000000000E+00  0.89754921652E+03  0.23648713320E+04  0.21879263746E+04 0.  0.
        1    1    3    3  502    0 -0.95919310462E+03  0.33954838359E+03  0.14523141254E+02  0.10176224439E+04  0.50400001928E-02 0. -1.
       -1    1    3    3    0  502  0.95919310462E+03 -0.33954838359E+03  0.88302607526E+03  0.13472488881E+04  0.50400001928E-02 0.  1.
</event>
<event>
 5   0  0.7954459E-05  0.1967611E+04  0.7818609E-02  0.8621915E-01
       -1   -1    0    0    0  501  0.00000000000E+00  0.00000000000E+00  0.71472429049E+03  0.71472429051E+03  0.50400001928E-02 0.  1.
        1   -1    0    0  501    0  0.00000000000E+00  0.00000000000E+00 -0.13541914085E+04  0.13541914085E+04  0.50400001928E-02 0. -1.
    10030    2    1    2    0    0  0.00000000000E+00  0.00000000000E+00 -0.63946711796E+03  0.20689156990E+04  0.19676112356E+04 0.  0.
        5    1    3    3  502    0 -0.94671969106E+03 -0.24805530073E+03 -0.21436543664E+03  0.10018903314E+04  0.46999998093E+01 0. -1.
       -5    1    3    3    0  502  0.94671969106E+03  0.24805530073E+03 -0.42510168132E+03  0.10670253676E+04  0.46999998093E+01 0.  1.
</event>
<event>
 5   0  0.7954459E-05  0.1513403E+04  0.7818609E-02  0.8875589E-01
        1   -1    0    0  501    0  0.00000000000E+00  0.00000000000E+00  0.42205272814E+03  0.42205272817E+03  0.50400001928E-02 0.  1.
       -1   -1    0    0    0  501  0.00000000000E+00  0.00000000000E+00 -0.13566952814E+04  0.13566952814E+04  0.50400001928E-02 0. -1.
    10030    2    1    2    0    0  0.00000000000E+00  0.00000000000E+00 -0.93464255330E+03  0.17787480096E+04  0.15134027155E+04 0.  0.
        5    1    3    3  502    0 -0.48625376773E+03 -0.75247393153E+02 -0.11429777015E+04  0.12443974498E+04  0.46999998093E+01 0. -1.
       -5    1    3    3    0  502  0.48625376773E+03  0.75247393153E+02  0.20833514824E+03  0.53435055984E+03  0.46999998093E+01 0.  1.
</event>
<event>
 5   0  0.7954459E-05  0.2205622E+04  0.7818609E-02  0.8516092E-01
        1   -1    0    0  501    0  0.00000000000E+00  0.00000000000E+00  0.98365849588E+03  0.98365849589E+03  0.50400001928E-02 0. -1.
       -1   -1    0    0    0  501  0.00000000000E+00  0.00000000000E+00 -0.12363970469E+04  0.12363970469E+04  0.50400001928E-02 0.  1.
    10030    2    1    2    0    0  0.00000000000E+00  0.00000000000E+00 -0.25273855105E+03  0.22200555428E+04  0.22056223244E+04 0.  0.
        5    1    3    3  502    0 -0.78924449701E+03  0.42045799060E+03 -0.77594385646E+03  0.11839775151E+04  0.46999998093E+01 0. -1.
       -5    1    3    3    0  502  0.78924449701E+03 -0.42045799060E+03  0.52320530541E+03  0.10360780277E+04  0.46999998093E+01 0.  1.
</event>
<event>
 5   0  0.8470971E-05  0.2330593E+04  0.7818609E-02  0.8465956E-01
        1   -1    0    0  501    0  0.00000000000E+00  0.00000000000E+00  0.14758134730E+04  0.14758134730E+04  0.50400001928E-02 0. -1.
       -1   -1    0    0    0  501  0.00000000000E+00  0.00000000000E+00 -0.92011347485E+03  0.92011347487E+03  0.50400001928E-02 0.  1.
    10030    2    1    2    0    0  0.00000000000E+00  0.00000000000E+00  0.55569999813E+03  0.23959269479E+04  0.23305929399E+04 0.  0.
        2    1    3    3  502    0 -0.79614043323E+03 -0.22607731806E+03 -0.56549153141E+03  0.10023628162E+04  0.25500000920E-02 0.  1.
       -2    1    3    3    0  502  0.79614043323E+03  0.22607731806E+03  0.11211915295E+04  0.13935641317E+04  0.25500000920E-02 0. -1.
</event>
<event>
 5   0  0.1733962E-04  0.2237653E+04  0.7818609E-02  0.8502918E-01
       -2   -1    0    0    0  501  0.00000000000E+00  0.00000000000E+00  0.13665938417E+04  0.13665938417E+04  0.25500000920E-02 0. -1.
        2   -1    0    0  501    0  0.00000000000E+00  0.00000000000E+00 -0.91598016699E+03  0.91598016699E+03  0.25500000920E-02 0.  1.
    10030    2    1    2    0    0  0.00000000000E+00  0.00000000000E+00  0.45061367468E+03  0.22825740087E+04  0.22376531056E+04 0.  0.
        3    1    3    3  502    0 -0.78507349772E+03 -0.51841079904E+03 -0.39239275198E+03  0.10193440221E+04  0.10100000352E+00 0.  1.
       -3    1    3    3    0  502  0.78507349772E+03  0.51841079904E+03  0.84300642665E+03  0.12632299866E+04  0.10100000352E+00 0. -1.
</event>
<event>
 5   0  0.1680258E-04  0.2172980E+04  0.7818609E-02  0.8529759E-01
        2   -1    0    0  501    0  0.00000000000E+00  0.00000000000E+00  0.11832712781E+04  0.11832712781E+04  0.25500000920E-02 0.  1.
       -2   -1    0    0    0  501  0.00000000000E+00  0.00000000000E+00 -0.99762481902E+03  0.99762481902E+03  0.25500000920E-02 0. -1.
    10030    2    1    2    0    0  0.00000000000E+00  0.00000000000E+00  0.18564645904E+03  0.21808960971E+04  0.21729802527E+04 0.  0.
        5    1    3    3  502    0 -0.80273449804E+03 -0.34481763404E+03  0.74105285408E+03  0.11456279054E+04  0.46999998093E+01 0. -1.
       -5    1    3    3    0  502  0.80273449804E+03  0.34481763404E+03 -0.55540639504E+03  0.10352681917E+04  0.46999998093E+01 0.  1.
</event>
<event>
 5   0  0.1805501E-04  0.2210464E+04  0.7818609E-02  0.8514085E-01
        2   -1    0    0  501    0  0.00000000000E+00  0.00000000000E+00  0.10077503693E+04  0.10077503693E+04  0.25500000920E-02 0.  1.
       -2   -1    0    0    0  501  0.00000000000E+00  0.00000000000E+00 -0.12121437224E+04  0.12121437224E+04  0.25500000920E-02 0. -1.
    10030    2    1    2    0    0  0.00000000000E+00  0.00000000000E+00 -0.20439335317E+03  0.22198940917E+04  0.22104644615E+04 0.  0.
        2    1    3    3  502    0 -0.69765938085E+03 -0.67931922530E+03  0.42284815866E+03  0.10616043457E+04  0.25500000920E-02 0. -1.
       -2    1    3    3    0  502  0.69765938085E+03  0.67931922530E+03 -0.62724151184E+03  0.11582897460E+04  0.25500000920E-02 0.  1.
</event>
<event>
 5   0  0.8470971E-05  0.2163923E+04  0.7818609E-02  0.8533596E-01
       -1   -1    0    0    0  501  0.00000000000E+00  0.00000000000E+00  0.13306469662E+04  0.13306469662E+04  0.50400001928E-02 0. -1.
        1   -1    0    0  501    0  0.00000000000E+00  0.00000000000E+00 -0.87975293683E+03  0.87975293684E+03  0.50400001928E-02 0.  1.
    10030    2    1    2    0    0  0.00000000000E+00  0.00000000000E+00  0.45089402933E+03  0.22103999030E+04  0.21639228973E+04 0.  0.
        2    1    3    3  502    0 -0.15974088765E+02  0.70246946472E+03  0.10658709311E+04  0.12766359552E+04  0.25500000920E-02 0. -1.
       -2    1    3    3    0  502  0.15974088765E+02 -0.70246946472E+03 -0.61497690180E+03  0.93376394776E+03  0.25500000920E-02 0.  1.
</event>
<event>
 5   0  0.1754356E-04  0.2199513E+04  0.7818609E-02  0.8518631E-01
        2   -1    0    0  501    0  0.00000000000E+00  0.00000000000E+00  0.21011425984E+04  0.21011425984E+04  0.25500000920E-02 0. -1.
       -2   -1    0    0    0  501  0.00000000000E+00  0.00000000000E+00 -0.57562207801E+03  0.57562207801E+03  0.25500000920E-02 0.  1.
    10030    2    1    2    0    0  0.00000000000E+00  0.00000000000E+00  0.15255205204E+04  0.26767646764E+04  0.21995127358E+04 0.  0.
        1    1    3    3  502    0  0.89564079396E+03  0.21277451123E+03  0.14949930625E+04  0.17556906565E+04  0.50400001928E-02 0. -1.
       -1    1    3    3    0  502 -0.89564079396E+03 -0.21277451123E+03  0.30527457896E+02  0.92107401991E+03  0.50400001928E-02 0.  1.
</event>
<event>
 5   0  0.6250625E-05  0.2292773E+04  0.7818609E-02  0.8480776E-01
       -4   -1    0    0    0  501  0.00000000000E+00  0.00000000000E+00  0.12072365512E+04  0.12072372193E+04  0.12699999809E+01 0.  1.
        4   -1    0    0  501    0  0.00000000000E+00  0.00000000000E+00 -0.10886024268E+04  0.10886031677E+04  0.12699999809E+01 0. -1.
    10030    2    1    2    0    0  0.00000000000E+00  0.00000000000E+00  0.11863412440E+03  0.22958403869E+04  0.22927732175E+04 0.  0.
        5    1    3    3  502    0 -0.77314372522E+03 -0.70892113117E+03 -0.40375133818E+03  0.11239918252E+04  0.46999998093E+01 0. -1.
       -5    1    3    3    0  502  0.77314372522E+03  0.70892113117E+03  0.52238546258E+03  0.11718485617E+04  0.46999998093E+01 0.  1.
</event>
<event>
 5   0  0.8306787E-05  0.2184733E+04  0.7818609E-02  0.8524810E-01
        1   -1    0    0  501    0  0.00000000000E+00  0.00000000000E+00  0.10428656997E+04  0.10428656997E+04  0.50400001928E-02 0.  1.
       -1   -1    0    0    0  501  0.00000000000E+00  0.00000000000E+00 -0.11442165271E+04  0.11442165271E+04  0.50400001928E-02 0. -1.
    10030    2    1    2    0    0  0.00000000000E+00  0.00000000000E+00 -0.10135082740E+03  0.21870822267E+04  0.21847326327E+04 0.  0.
        1    1    3    3  502    0 -0.10792160978E+03  0.33401716711E+03  0.98486910853E+03  0.10455532998E+04  0.50400001928E-02 0.  1.
       -1    1    3    3    0  502  0.10792160978E+03 -0.33401716711E+03 -0.10862199359E+04  0.11415289269E+04  0.50400001928E-02 0. -1.
</event>
<event>
 5   0  0.8602414E-05  0.2034614E+04  0.7818609E-02  0.8590607E-01
        1   -1    0    0  501    0  0.00000000000E+00  0.00000000000E+00  0.19522450298E+04  0.19522450298E+04  0.50400001928E-02 0.  1.
       -1   -1    0    0    0  501  0.00000000000E+00  0.00000000000E+00 -0.53011432880E+03  0.53011432883E+03  0.50400001928E-02 0. -1.
    10030    2    1    2    0    0  0.00000000000E+00  0.00000000000E+00  0.14221307010E+04  0.24823593586E+04  0.20346135394E+04 0.  0.
        3    1    3    3  502    0  0.79726115507E+03  0.36667591810E+03  0.83192619609E+02  0.88147467375E+03  0.10100000352E+00 0. -1.
       -3    1    3    3    0  502 -0.79726115507E+03 -0.36667591810E+03  0.13389380814E+04  0.16008846849E+04  0.10100000352E+00 0.  1.
</event>
<event>
 5   0  0.8470971E-05  0.2344555E+04  0.7818609E-02  0.8460558E-01
        1   -1    0    0  501    0  0.00000000000E+00  0.00000000000E+00  0.10957474094E+04  0.10957474094E+04  0.50400001928E-02 0. -1.
       -1   -1    0    0    0  501  0.00000000000E+00  0.00000000000E+00 -0.12541522853E+04  0.12541522853E+04  0.50400001928E-02 0.  1.
    10030    2    1    2    0    0  0.00000000000E+00  0.00000000000E+00 -0.15840487592E+03  0.23498996947E+04  0.23445546422E+04 0.  0.
        2    1    3    3  502    0 -0.20210480699E+03  0.61932533742E+03 -0.10560133682E+04  0.12407958979E+04  0.25500000920E-02 0.  1.
       -2    1    3    3    0  502  0.20210480699E+03 -0.61932533742E+03  0.89760849226E+03  0.11091037967E+04  0.25500000920E-02 0. -1.
</event>
<event>
 5   0  0.8602414E-05  0.2238038E+04  0.7818609E-02  0.8502760E-01
       -1   -1    0    0    0  501  0.00000000000E+00  0.00000000000E+00  0.86555032200E+03  0.86555032202E+03  0.50400001928E-02 0.  1.
        1   -1    0    0  501    0  0.00000000000E+00  0.00000000000E+00 -0.14467140418E+04  0.14467140418E+04  0.50400001928E-02 0. -1.
    10030    2    1    2    0    0  0.00000000000E+00  0.00000000000E+00 -0.58116371978E+03  0.23122643638E+04  0.22380382523E+04 0.  0.
        3    1    3    3  502    0 -0.37742958465E+03  0.80717568648E+03  0.40878670478E+03  0.98035313047E+03  0.10100000352E+00 0.  1.
       -3    1    3    3    0  502  0.37742958465E+03 -0.80717568648E+03 -0.98995042457E+03  0.13319112333E+04  0.10100000352E+00 0. -1.
</event>
<event>
 5   0  0.8306787E-05  0.2124987E+04  0.7818609E-02  0.8550316E-01
        1   -1    0    0  501    0  0.00000000000E+00  0.00000000000E+00  0.78638087339E+03  0.78638087341E+03  0.50400001928E-02 0. -1.
       -1   -1    0    0    0  501  0.00000000000E+00  0.00000000000E+00 -0.14355539998E+04  0.14355539998E+04  0.50400001928E-02 0.  1.
    10030    2    1    2    0    0  0.00000000000E+00  0.00000000000E+00 -0.64917312638E+03  0.22219348732E+04  0.21249867841E+04 0.  0.
        1    1    3    3  502    0  0.18744853222E+03 -0.95707436286E+03  0.11626958415E+03  0.98216439790E+03  0.50400001928E-02 0. -1.
       -1    1    3    3    0  502 -0.18744853222E+03  0.95707436286E+03 -0.76544271053E+03  0.12397704753E+04  0.50400001928E-02 0.  1.
</event>
<event>
 5   0  0.8470971E-05  0.2223472E+04  0.7818609E-02  0.8508721E-01
        1   -1    0    0  501    0  0.00000000000E+00  0.00000000000E+00  0.23878400073E+04  0.23878400073E+04  0.50400001928E-02 0.  1.
       -1   -1    0    0    0  501  0.00000000000E+00  0.00000000000E+00 -0.51760470288E+03  0.51760470290E+03  0.50400001928E-02 0. -1.
    10030    2    1    2    0    0  0.00000000000E+00  0.00000000000E+00  0.18702353044E+04  0.29054447102E+04  0.22234722553E+04 0.  0.
        2    1    3    3  502    0  0.80992282112E+03 -0.50258908856E+03  0.16827898827E+04  0.19339991100E+04  0.25500000920E-02 0.  1.
       -2    1    3    3    0  502 -0.80992282112E+03  0.50258908856E+03  0.18744542176E+03  0.97144560026E+03  0.25500000920E-02 0. -1.
</event>
<event>
 5   0  0.1805501E-04  0.1728483E+04  0.7818609E-02  0.8745284E-01
       -2   -1    0    0    0  501  0.00000000000E+00  0.00000000000E+00  0.11802796757E+04  0.11802796757E+04  0.25500000920E-02 0. -1.
        2   -1    0    0  501    0  0.00000000000E+00  0.00000000000E+00 -0.63282774593E+03  0.63282774594E+03  0.25500000920E-02 0.  1.
    10030    2    1    2    0    0  0.00000000000E+00  0.00000000000E+00  0.54745192974E+03  0.18131074216E+04  0.17284834124E+04 0.  0.
        2    1    3    3  502    0 -0.38498373630E+03 -0.40127526988E+02  0.10842736939E+04  0.11512915091E+04  0.25500000920E-02 0. -1.
       -2    1    3    3    0  502  0.38498373630E+03  0.40127526988E+02 -0.53682176413E+03  0.66181591254E+03  0.25500000920E-02 0.  1.
</event>
<event>
 5   0  0.8470971E-05  0.2248915E+04  0.7818609E-02  0.8498340E-01
       -1   -1    0    0    0  501  0.00000000000E+00  0.00000000000E+00  0.10530607243E+04  0.10530607243E+04  0.50400001928E-02 0. -1.
        1   -1    0    0  501    0  0.00000000000E+00  0.00000000000E+00 -0.12006953501E+04  0.12006953501E+04  0.50400001928E-02 0.  1.
    10030    2    1    2    0    0  0.00000000000E+00  0.00000000000E+00 -0.14763462574E+03  0.22537560744E+04  0.22489153964E+04 0.  0.
        2    1    3    3  502    0 -0.10039812808E+04  0.32487540740E+03 -0.46308959087E+03  0.11523777209E+04  0.25500000920E-02 0.  1.
       -2    1    3    3    0  502  0.10039812808E+04 -0.32487540740E+03  0.31545496513E+03  0.11013783535E+04  0.25500000920E-02 0. -1.
</event>
<event>
 5   0  0.7954459E-05  0.2246491E+04  0.7818609E-02  0.8499323E-01
       -1   -1    0    0    0  501  0.00000000000E+00  0.00000000000E+00  0.71124640726E+03  0.71124640728E+03  0.50400001928E-02 0. -1.
        1   -1    0    0  501    0  0.00000000000E+00  0.00000000000E+00 -0.17739006855E+04  0.17739006855E+04  0.50400001928E-02 0.  1.
    10030    2    1    2    0    0  0.00000000000E+00  0.00000000000E+00 -0.10626542783E+04  0.24851470928E+04  0.22464910322E+04 0.  0.
        5    1    3    3  502    0  0.17170194289E+03  0.83496775390E+03  0.27781833871E+03  0.89658118794E+03  0.46999998093E+01 0. -1.
       -5    1    3    3    0  502 -0.17170194289E+03 -0.83496775390E+03 -0.13404726170E+04  0.15885659049E+04  0.46999998093E+01 0.  1.
</event>
<event>
 5   0  0.1733962E-04  0.1927273E+04  0.7818609E-02  0.8641399E-01
        2   -1    0    0  501    0  0.00000000000E+00  0.00000000000E+00  0.12914880239E+04  0.12914880239E+04  0.25500000920E-02 0. -1.
       -2   -1    0    0    0  501  0.00000000000E+00  0.00000000000E+00 -0.71901186957E+03  0.71901186957E+03  0.25500000920E-02 0.  1.
    10030    2    1    2    0    0  0.00000000000E+00  0.00000000000E+00  0.57247615437E+03  0.20104998935E+04  0.19272729113E+04 0.  0.
        3    1    3    3  502    0  0.49666504481E+03 -0.51578546412E+03  0.95897792173E+03  0.11968080365E+04  0.10100000352E+00 0. -1.
       -3    1    3    3    0  502 -0.49666504481E+03  0.51578546412E+03 -0.38650176736E+03  0.81369185698E+03  0.10100000352E+00 0.  1.
</event>
<event>
 5   0  0.1733962E-04  0.2186305E+04  0.7818609E-02  0.8524150E-01
       -2   -1    0    0    0  501  0.00000000000E+00  0.00000000000E+00  0.75077561280E+03  0.75077561281E+03  0.25500000920E-02 0. -1.
        2   -1    0    0  501    0  0.00000000000E+00  0.00000000000E+00 -0.15916633090E+04  0.15916633090E+04  0.25500000920E-02 0.  1.
    10030    2    1    2    0    0  0.00000000000E+00  0.00000000000E+00 -0.84088769619E+03  0.23424389218E+04  0.21863046413E+04 0.  0.
        3    1    3    3  502    0  0.46312907844E+03 -0.80397451902E+03  0.19886574240E+03  0.94889997588E+03  0.10100000352E+00 0.  1.
       -3    1    3    3    0  502 -0.46312907844E+03  0.80397451902E+03 -0.10397534386E+04  0.13935389459E+04  0.10100000352E+00 0. -1.
</event>
<event>
 5   0  0.1798917E-04  0.2180122E+04  0.7818609E-02  0.8526748E-01
        2   -1    0    0  501    0  0.00000000000E+00  0.00000000000E+00  0.18053714792E+04  0.18053714793E+04  0.25500000920E-02 0. -1.
       -2   -1    0    0    0  501  0.00000000000E+00  0.00000000000E+00 -0.65816524511E+03  0.65816524512E+03  0.25500000920E-02 0.  1.
    10030    2    1    2    0    0  0.00000000000E+00  0.00000000000E+00  0.11472062341E+04  0.24635367244E+04  0.21801217968E+04 0.  0.
        4    1    3    3  502    0  0.29658117503E+03  0.10155459537E+04  0.87029455608E+03  0.13699299999E+04  0.12699999809E+01 0.  1.
       -4    1    3    3    0  502 -0.29658117503E+03 -0.10155459537E+04  0.27691167805E+03  0.10936067245E+04  0.12699999809E+01 0. -1.
</event>
<event>
 5   0  0.1733962E-04  0.2247310E+04  0.7818609E-02  0.8498991E-01
       -2   -1    0    0    0  501  0.00000000000E+00  0.00000000000E+00  0.91239039245E+03  0.91239039245E+03  0.25500000920E-02 0. -1.
        2   -1    0    0  501    0  0.00000000000E+00  0.00000000000E+00 -0.13838381215E+04  0.13838381215E+04  0.25500000920E-02 0.  1.
    10030    2    1    2    0    0  0.00000000000E+00  0.00000000000E+00 -0.47144772905E+03  0.22962285140E+04  0.22473100425E+04 0.  0.
        3    1    3    3  502    0  0.54465369049E+02 -0.77222144893E+03  0.59644177784E+03  0.97725904814E+03  0.10100000352E+00 0. -1.
       -3    1    3    3    0  502 -0.54465369049E+02  0.77222144893E+03 -0.10678895069E+04  0.13189694658E+04  0.10100000352E+00 0.  1.
</event>
<event>
 5   0  0.1754356E-04  0.2238792E+04  0.7818609E-02  0.8502453E-01
       -2   -1    0    0    0  501  0.00000000000E+00  0.00000000000E+00  0.64248546732E+03  0.64248546733E+03  0.25500000920E-02 0. -1.
        2   -1    0    0  501    0  0.00000000000E+00  0.00000000000E+00 -0.19503128327E+04  0.19503128327E+04  0.25500000920E-02 0.  1.
    10030    2    1    2    0    0  0.00000000000E+00  0.00000000000E+00 -0.13078273654E+04  0.25927983000E+04  0.22387922206E+04 0.  0.
        1    1    3    3  502    0  0.10566550229E+04  0.36853175952E+03 -0.68481967200E+03  0.13119883683E+04  0.50400001928E-02 0. -1.
       -1    1    3    3    0  502 -0.10566550229E+04 -0.36853175952E+03 -0.62300769336E+03  0.12808099317E+04  0.50400001928E-02 0.  1.
</event>
<event>
 5   0  0.1733962E-04  0.2184419E+04  0.7818609E-02  0.8524941E-01
       -2   -1    0    0    0  501  0.00000000000E+00  0.00000000000E+00  0.68523658930E+03  0.68523658931E+03  0.25500000920E-02 0. -1.
        2   -1    0    0  501    0  0.00000000000E+00  0.00000000000E+00 -0.17408900109E+04  0.17408900109E+04  0.25500000920E-02 0.  1.
    10030    2    1    2    0    0  0.00000000000E+00  0.00000000000E+00 -0.10556534216E+04  0.24261266002E+04  0.21844189464E+04 0.  0.
        3    1    3    3  502    0  0.51076133907E+03  0.96338594446E+03 -0.45818350696E+03  0.11827602292E+04  0.10100000352E+00 0. -1.
       -3    1    3    3    0  502 -0.51076133907E+03 -0.96338594446E+03 -0.59746991459E+03  0.12433663710E+04  0.10100000352E+00 0.  1.
</event>
<event>
 5   0  0.1680258E-04  0.2249762E+04  0.7818609E-02  0.8497997E-01
        2   -1    0    0  501    0  0.00000000000E+00  0.00000000000E+00  0.11507331876E+04  0.11507331876E+04  0.25500000920E-02 0. -1.
       -2   -1    0    0    0  501  0.00000000000E+00  0.00000000000E+00 -0.10996099512E+04  0.10996099512E+04  0.25500000920E-02 0.  1.
    10030    2    1    2    0    0  0.00000000000E+00  0.00000000000E+00  0.51123236367E+02  0.22503431388E+04  0.22497623557E+04 0.  0.
        5    1    3    3  502    0 -0.49102647924E+03  0.88657955624E+03  0.51375037687E+03  0.11362622288E+04  0.46999998093E+01 0. -1.
       -5    1    3    3    0  502  0.49102647924E+03 -0.88657955624E+03 -0.46262714050E+03  0.11140809100E+04  0.46999998093E+01 0.  1.
</event>
<event>
 5   0  0.7954459E-05  0.2223433E+04  0.7818609E-02  0.8508737E-01
       -1   -1    0    0    0  501  0.00000000000E+00  0.00000000000E+00  0.13310277530E+04  0.13310277530E+04  0.50400001928E-02 0.  1.
        1   -1    0    0  501    0  0.00000000000E+00  0.00000000000E+00 -0.92854109269E+03  0.92854109270E+03  0.50400001928E-02 0. -1.
    10030    2    1    2    0    0  0.00000000000E+00  0.00000000000E+00  0.40248666034E+03  0.22595688457E+04  0.22234333489E+04 0.  0.
        5    1    3    3  502    0 -0.23526240013E+02 -0.99849134337E+03  0.69739237956E+03  0.12181611830E+04  0.46999998093E+01 0.  1.
       -5    1    3    3    0  502  0.23526240013E+02  0.99849134337E+03 -0.29490571922E+03  0.10414076627E+04  0.46999998093E+01 0. -1.
</event>
<event>
 5   0  0.8306787E-05  0.2160462E+04  0.7818609E-02  0.8535067E-01
        1   -1    0    0  501    0  0.00000000000E+00  0.00000000000E+00  0.98477623329E+03  0.98477623330E+03  0.50400001928E-02 0. -1.
       -1   -1    0    0    0  501  0.00000000000E+00  0.00000000000E+00 -0.11849378813E+04  0.11849378813E+04  0.50400001928E-02 0.  1.
    10030    2    1    2    0    0  0.00000000000E+00  0.00000000000E+00 -0.20016164799E+03  0.21697141146E+04  0.21604616761E+04 0.  0.
        1    1    3    3  502    0 -0.52477617668E+03  0.93909105302E+03 -0.15964750133E+01  0.10757716255E+04  0.50400001928E-02 0. -1.
       -1    1    3    3    0  502  0.52477617668E+03 -0.93909105302E+03 -0.19856517297E+03  0.10939424891E+04  0.50400001928E-02 0.  1.
</event>
<event>
 5   0  0.8602414E-05  0.2211367E+04  0.7818609E-02  0.8513712E-01
        1   -1    0    0  501    0  0.00000000000E+00  0.00000000000E+00  0.10376381856E+04  0.10376381856E+04  0.50400001928E-02 0.  1.
       -1   -1    0    0    0  501  0.00000000000E+00  0.00000000000E+00 -0.11781912525E+04  0.11781912525E+04  0.50400001928E-02 0. -1.
    10030    2    1    2    0    0  0.00000000000E+00  0.00000000000E+00 -0.14055306693E+03  0.22158294381E+04  0.22113672092E+04 0.  0.
        3    1    3    3  502    0  0.60504229361E+03 -0.66984449161E+03  0.56957946793E+03  0.10673277849E+04  0.10100000352E+00 0. -1.
       -3    1    3    3    0  502 -0.60504229361E+03  0.66984449161E+03 -0.71013253486E+03  0.11485016531E+04  0.10100000352E+00 0.  1.
</event>
<event>
 5   0  0.8306787E-05  0.1299990E+04  0.7818609E-02  0.9029573E-01
       -1   -1    0    0    0  501  0.00000000000E+00  0.00000000000E+00  0.47404592553E+03  0.47404592556E+03  0.50400001928E-02 0. -1.
        1   -1    0    0  501    0  0.00000000000E+00  0.00000000000E+00 -0.89125040843E+03  0.89125040845E+03  0.50400001928E-02 0.  1.
    10030    2    1    2    0    0  0.00000000000E+00  0.00000000000E+00 -0.41720448290E+03  0.13652963340E+04  0.12999901919E+04 0.  0.
        1    1    3    3  502    0 -0.10799523666E+03 -0.63492086656E+03 -0.11640764071E+03  0.65447552802E+03  0.50400001928E-02 0. -1.
       -1    1    3    3    0  502  0.10799523666E+03  0.63492086656E+03 -0.30079684219E+03  0.71082080599E+03  0.50400001928E-02 0.  1.
</event>
<event>
 5   0  0.8784659E-05  0.2187969E+04  0.7818609E-02  0.8523452E-01
        1   -1    0    0  501    0  0.00000000000E+00  0.00000000000E+00  0.17797077228E+04  0.17797077228E+04  0.50400001928E-02 0.  1.
       -1   -1    0    0    0  501  0.00000000000E+00  0.00000000000E+00 -0.67247100703E+03  0.67247100705E+03  0.50400001928E-02 0. -1.
    10030    2    1    2    0    0  0.00000000000E+00  0.00000000000E+00  0.11072367158E+04  0.24521787298E+04  0.21879687791E+04 0.  0.
        4    1    3    3  502    0  0.50715234849E+03 -0.70693142660E+02  0.16371053568E+04  0.17153182175E+04  0.12699999809E+01 0.  1.
       -4    1    3    3    0  502 -0.50715234849E+03  0.70693142660E+02 -0.52986864106E+03  0.73686051236E+03  0.12699999809E+01 0. -1.
</event>
<event>
 5   0  0.1798917E-04  0.2187294E+04  0.7818609E-02  0.8523735E-01
       -2   -1    0    0    0  501  0.00000000000E+00  0.00000000000E+00  0.10377885232E+04  0.10377885232E+04  0.25500000920E-02 0. -1.
        2   -1    0    0  501    0  0.00000000000E+00  0.00000000000E+00 -0.11525122919E+04  0.11525122919E+04  0.25500000920E-02 0.  1.
    10030    2    1    2    0    0  0.00000000000E+00  0.00000000000E+00 -0.11472376872E+03  0.21903008152E+04  0.21872942458E+04 0.  0.
        4    1    3    3  502    0  0.30877185555E+00 -0.64331738517E+03 -0.94300115528E+03  0.11415384992E+04  0.12699999809E+01 0.  1.
       -4    1    3    3    0  502 -0.30877185555E+00  0.64331738517E+03  0.82827738656E+03  0.10487623160E+04  0.12699999809E+01 0. -1.
</event>
<event>
 5   0  0.1680258E-04  0.2273110E+04  0.7818609E-02  0.8488599E-01
        2   -1    0    0  501    0  0.00000000000E+00  0.00000000000E+00  0.12617827736E+04  0.12617827736E+04  0.25500000920E-02 0. -1.
       -2   -1    0    0    0  501  0.00000000000E+00  0.00000000000E+00 -0.10237560212E+04  0.10237560212E+04  0.25500000920E-02 0.  1.
    10030    2    1    2    0    0  0.00000000000E+00  0.00000000000E+00  0.23802675240E+03  0.22855387948E+04  0.22731103906E+04 0.  0.
        5    1    3    3  502    0  0.10338616922E+04  0.44999082691E+03 -0.24504147645E+02  0.11278228079E+04  0.46999998093E+01 0.  1.
       -5    1    3    3    0  502 -0.10338616922E+04 -0.44999082691E+03  0.26253090004E+03  0.11577159869E+04  0.46999998093E+01 0. -1.
</event>
<event>
 5   0  0.8306787E-05  0.2220645E+04  0.7818609E-02  0.8509884E-01
        1   -1    0    0  501    0  0.00000000000E+00  0.00000000000E+00  0.12906892337E+04  0.12906892337E+04  0.50400001928E-02 0.  1.
       -1   -1    0    0    0  501  0.00000000000E+00  0.00000000000E+00 -0.95516117633E+03  0.95516117634E+03  0.50400001928E-02 0. -1.
    10030    2    1    2    0    0  0.00000000000E+00  0.00000000000E+00  0.33552805733E+03  0.22458504100E+04  0.22206451736E+04 0.  0.
        1    1    3    3  502    0  0.82053920095E+03  0.11135018687E+03  0.91584400787E+03  0.12346876897E+04  0.50400001928E-02 0.  1.
       -1    1    3    3    0  502 -0.82053920095E+03 -0.11135018687E+03 -0.58031595054E+03  0.10111627203E+04  0.50400001928E-02 0. -1.
</event>
<event>
 5   0  0.1733962E-04  0.2158602E+04  0.7818609E-02  0.8535859E-01
        2   -1    0    0  501    0  0.00000000000E+00  0.00000000000E+00  0.22458494962E+04  0.22458494962E+04  0.25500000920E-02 0. -1.
       -2   -1    0    0    0  501  0.00000000000E+00  0.00000000000E+00 -0.51868587758E+03  0.51868587758E+03  0.25500000920E-02 0.  1.
    10030    2    1    2    0    0  0.00000000000E+00  0.00000000000E+00  0.17271636186E+04  0.27645353738E+04  0.21586017853E+04 0.  0.
        3    1    3    3  502    0 -0.80454099073E+03  0.49003953523E+03  0.18896978247E+03  0.96079890755E+03  0.10100000352E+00 0.  1.
       -3    1    3    3    0  502  0.80454099073E+03 -0.49003953523E+03  0.15381938361E+04  0.18037364662E+04  0.10100000352E+00 0. -1.
</event>
<event>
 5   0  0.1754356E-04  0.2209962E+04  0.7818609E-02  0.8514293E-01
        2   -1    0    0  501    0  0.00000000000E+00  0.00000000000E+00  0.13212202082E+04  0.13212202082E+04  0.25500000920E-02 0.  1.
       -2   -1    0    0    0  501  0.00000000000E+00  0.00000000000E+00 -0.92413260769E+03  0.92413260769E+03  0.25500000920E-02 0. -1.
    10030    2    1    2    0    0  0.00000000000E+00  0.00000000000E+00  0.39708760047E+03  0.22453528158E+04  0.22099616977E+04 0.  0.
        1    1    3    3  502    0  0.19217515663E+03 -0.88877582194E+03  0.83639444534E+03  0.12354794295E+04  0.50400001928E-02 0.  1.
       -1    1    3    3    0  502 -0.19217515663E+03  0.88877582194E+03 -0.43930684487E+03  0.10098733864E+04  0.50400001928E-02 0. -1.
</event>
<event>
 5   0  0.1805501E-04  0.1823116E+04  0.7818609E-02  0.8694102E-01
        2   -1    0    0  501    0  0.00000000000E+00  0.00000000000E+00  0.64235016930E+03  0.64235016931E+03  0.25500000920E-02 0.  1.
       -2   -1    0    0    0  501  0.00000000000E+00  0.00000000000E+00 -0.12935901635E+04  0.12935901635E+04  0.25500000920E-02 0. -1.
    10030    2    1    2    0    0  0.00000000000E+00  0.00000000000E+00 -0.65123999419E+03  0.19359403328E+04  0.18231158609E+04 0.  0.
        2    1    3    3  502    0  0.75369722932E+03 -0.38120105981E+03  0.38475290908E+02  0.84549045500E+03  0.25500000920E-02 0.  1.
       -2    1    3    3    0  502 -0.75369722932E+03  0.38120105981E+03 -0.68971528510E+03  0.10904498778E+04  0.25500000920E-02 0. -1.
</event>
<event>
 5   0  0.8470971E-05  0.2151826E+04  0.7818609E-02  0.8538751E-01
       -1   -1    0    0    0  501  0.00000000000E+00  0.00000000000E+00  0.57833212213E+03  0.57833212215E+03  0.50400001928E-02 0.  1.
        1   -1    0    0  501    0  0.00000000000E+00  0.00000000000E+00 -0.20015988773E+04  0.20015988773E+04  0.50400001928E-02 0. -1.
    10030    2    1    2    0    0  0.00000000000E+00  0.00000000000E+00 -0.14232667551E+04  0.25799309994E+04  0.21518261327E+04 0.  0.
        2    1    3    3  502    0  0.51027168724E+02  0.71332295086E+03 -0.16753945896E+04  0.18216422358E+04  0.25500000920E-02 0. -1.
       -2    1    3    3    0  502 -0.51027168724E+02 -0.71332295086E+03  0.25212783448E+03  0.75828876366E+03  0.25500000920E-02 0.  1.
</event>
<event>
 5   0  0.8784659E-05  0.2042914E+04  0.7818609E-02  0.8586816E-01
       -1   -1    0    0    0  501  0.00000000000E+00  0.00000000000E+00  0.16966164724E+04  0.16966164724E+04  0.50400001928E-02 0.  1.
        1   -1    0    0  501    0  0.00000000000E+00  0.00000000000E+00 -0.61497381912E+03  0.61497381914E+03  0.50400001928E-02 0. -1.
    10030    2    1    2    0    0  0.00000000000E+00  0.00000000000E+00  0.10816426533E+04  0.23115902916E+04  0.20429143023E+04 0.  0.
        4    1    3    3  502    0  0.21594386840E+03  0.81988305466E+03 -0.10377856202E+03  0.85417303894E+03  0.12699999809E+01 0. -1.
       -4    1    3    3    0  502 -0.21594386840E+03 -0.81988305466E+03  0.11854212153E+04  0.14574172526E+04  0.12699999809E+01 0.  1.
</event>
<event>
 5   0  0.1680258E-04  0.2238118E+04  0.7818609E-02  0.8502728E-01
        2   -1    0    0  501    0  0.00000000000E+00  0.00000000000E+00  0.97713321513E+03  0.97713321513E+03  0.25500000920E-02 0.  1.
       -2   -1    0    0    0  501  0.00000000000E+00  0.00000000000E+00 -0.12815993307E+04  0.12815993307E+04  0.25500000920E-02 0. -1.
    10030    2    1    2    0    0  0.00000000000E+00  0.00000000000E+00 -0.30446611555E+03  0.22587325458E+04  0.22381182047E+04 0.  0.
        5    1    3    3  502    0  0.13206202366E+03  0.12222862987E+03  0.96242663745E+03  0.97911558997E+03  0.46999998093E+01 0.  1.
       -5    1    3    3    0  502 -0.13206202366E+03 -0.12222862987E+03 -0.12668927530E+04  0.12796169558E+04  0.46999998093E+01 0. -1.
</event>
<event>
 5   0  0.6250625E-05  0.2072185E+04  0.7818609E-02  0.8573596E-01
        4   -1    0    0  501    0  0.00000000000E+00  0.00000000000E+00  0.51531023770E+03  0.51531180268E+03  0.12699999809E+01 0.  1.
       -4   -1    0    0    0  501  0.00000000000E+00  0.00000000000E+00 -0.20831830445E+04  0.20831834316E+04  0.12699999809E+01 0. -1.
    10030    2    1    2    0    0  0.00000000000E+00  0.00000000000E+00 -0.15678728068E+04  0.25984952343E+04  0.20721854030E+04 0.  0.
        4    1    3    3  502    0 -0.70838122663E+03 -0.15400597764E+03  0.14432350492E+03  0.73915674276E+03  0.12699999809E+01 0.  1.
       -4    1    3    3    0  502  0.70838122663E+03  0.15400597764E+03 -0.17121963117E+04  0.18593384915E+04  0.12699999809E+01 0. -1.
</event>
<event>
 5   0  0.7954459E-05  0.1460484E+04  0.7818609E-02  0.8911164E-01
        1   -1    0    0  501    0  0.00000000000E+00  0.00000000000E+00  0.18601784300E+04  0.18601784300E+04  0.50400001928E-02 0.  1.
       -1   -1    0    0    0  501  0.00000000000E+00  0.00000000000E+00 -0.28666803723E+03  0.28666803728E+03  0.50400001928E-02 0. -1.
    10030    2    1    2    0    0  0.00000000000E+00  0.00000000000E+00  0.15735103928E+04  0.21468464673E+04  0.14604844395E+04 0.  0.
        5    1    3    3  502    0  0.29996098718E+03  0.29118424731E+03 -0.93337651364E+02  0.42836767721E+03  0.46999998093E+01 0. -1.
       -5    1    3    3    0  502 -0.29996098718E+03 -0.29118424731E+03  0.16668480442E+04  0.17184787901E+04  0.46999998093E+01 0.  1.
</event>
<event>
 5   0  0.8784659E-05  0.2163136E+04  0.7818609E-02  0.8533930E-01
       -1   -1    0    0    0  501  0.00000000000E+00  0.00000000000E+00  0.93710479398E+03  0.93710479399E+03  0.50400001928E-02 0. -1.
        1   -1    0    0  501    0  0.00000000000E+00  0.00000000000E+00 -0.12483015140E+04  0.12483015140E+04  0.50400001928E-02 0.  1.
    10030    2    1    2    0    0  0.00000000000E+00  0.00000000000E+00 -0.31119672002E+03  0.21854063080E+04  0.21631359949E+04 0.  0.
        4    1    3    3  502    0 -0.94252369681E+03  0.50886483963E+03 -0.40763610378E+01  0.10711267776E+04  0.12699999809E+01 0. -1.
       -4    1    3    3    0  502  0.94252369681E+03 -0.50886483963E+03 -0.30712035898E+03  0.11142795304E+04  0.12699999809E+01 0.  1.
</event>
<event>
 5   0  0.8602414E-05  0.2257782E+04  0.7818609E-02  0.8494756E-01
        1   -1    0    0  501    0  0.00000000000E+00  0.00000000000E+00  0.83103200901E+03  0.83103200902E+03  0.50400001928E-02 0. -1.
       -1   -1    0    0    0  501  0.00000000000E+00  0.00000000000E+00 -0.15335081983E+04  0.15335081983E+04  0.50400001928E-02 0.  1.
    10030    2    1    2    0    0  0.00000000000E+00  0.00000000000E+00 -0.70247618930E+03  0.23645402073E+04  0.22577815651E+04 0.  0.
        3    1    3    3  502    0  0.14751158054E+03 -0.63948915056E+03  0.61071923116E+03  0.89648426065E+03  0.10100000352E+00 0. -1.
       -3    1    3    3    0  502 -0.14751158054E+03  0.63948915056E+03 -0.13131954205E+04  0.14680559467E+04  0.10100000352E+00 0.  1.
</event>
<event>
 5   0  0.7954459E-05  0.1287499E+04  0.7818609E-02  0.9039538E-01
        1   -1    0    0  501    0  0.00000000000E+00  0.00000000000E+00  0.15202963974E+04  0.15202963975E+04  0.50400001928E-02 0. -1.
       -1   -1    0    0    0  501  0.00000000000E+00  0.00000000000E+00 -0.27258735658E+03  0.27258735663E+03  0.50400001928E-02 0.  1.
    10030    2    1    2    0    0  0.00000000000E+00  0.00000000000E+00  0.12477090409E+04  0.17928837541E+04  0.12874992447E+04 0.  0.
        5    1    3    3  502    0 -0.57670126560E+03  0.22085768026E+03  0.37077733062E+03  0.72031963986E+03  0.46999998093E+01 0. -1.
       -5    1    3    3    0  502  0.57670126560E+03 -0.22085768026E+03  0.87693171025E+03  0.10725641142E+04  0.46999998093E+01 0.  1.
</event>
<event>
 5   0  0.8306787E-05  0.2169150E+04  0.7818609E-02  0.8531379E-01
        1   -1    0    0  501    0  0.00000000000E+00  0.00000000000E+00  0.10718126810E+04  0.10718126810E+04  0.50400001928E-02 0.  1.
       -1   -1    0    0    0  501  0.00000000000E+00  0.00000000000E+00 -0.10974894669E+04  0.10974894669E+04  0.50400001928E-02 0. -1.
    10030    2    1    2    0    0  0.00000000000E+00  0.00000000000E+00 -0.25676785887E+02  0.21693021478E+04  0.21691501818E+04 0.  0.
        1    1    3    3  502    0 -0.88378936384E+03 -0.47125912504E+02 -0.63977834522E+03  0.10920718027E+04  0.50400001928E-02 0.  1.
       -1    1    3    3    0  502  0.88378936384E+03  0.47125912504E+02  0.61410155933E+03  0.10772303451E+04  0.50400001928E-02 0. -1.
</event>
<event>
 5   0  0.1754356E-04  0.2202028E+04  0.7818609E-02  0.8517585E-01
        2   -1    0    0  501    0  0.00000000000E+00  0.00000000000E+00  0.20579993264E+04  0.20579993264E+04  0.25500000920E-02 0.  1.
       -2   -1    0    0    0  501  0.00000000000E+00  0.00000000000E+00 -0.58903404313E+03  0.58903404314E+03  0.25500000920E-02 0. -1.
    10030    2    1    2    0    0  0.00000000000E+00  0.00000000000E+00  0.14689652833E+04  0.26470333695E+04  0.22020278509E+04 0.  0.
        1    1    3    3  502    0 -0.43656019558E+03  0.32338852055E+02 -0.47992534807E+03  0.64958367088E+03  0.50400001928E-02 0. -1.
       -1    1    3    3    0  502  0.43656019558E+03 -0.32338852055E+02  0.19488906313E+04  0.19974496986E+04  0.50400001928E-02 0.  1.
</event>
<event>
 5   0  0.8306787E-05  0.2185269E+04  0.7818609E-02  0.8524585E-01
       -1   -1    0    0    0  501  0.00000000000E+00  0.00000000000E+00  0.10121897498E+04  0.10121897498E+04  0.50400001928E-02 0.  1.
        1   -1    0    0  501    0  0.00000000000E+00  0.00000000000E+00 -0.11794725995E+04  0.11794725995E+04  0.50400001928E-02 0. -1.
    10030    2    1    2    0    0  0.00000000000E+00  0.00000000000E+00 -0.16728284972E+03  0.21916623493E+04  0.21852689312E+04 0.  0.
        1    1    3    3  502    0  0.30107413235E+03  0.27830526245E+03  0.93211516933E+03  0.10183015964E+04  0.50400001928E-02 0.  1.
       -1    1    3    3    0  502 -0.30107413235E+03 -0.27830526245E+03 -0.10993980190E+04  0.11733607530E+04  0.50400001928E-02 0. -1.
</event>
<event>
 5   0  0.1754356E-04  0.2159092E+04  0.7818609E-02  0.8535650E-01
        2   -1    0    0  501    0  0.00000000000E+00  0.00000000000E+00  0.84435701160E+03  0.84435701161E+03  0.25500000920E-02 0. -1.
       -2   -1    0    0    0  501  0.00000000000E+00  0.00000000000E+00 -0.13802455654E+04  0.13802455654E+04  0.25500000920E-02 0.  1.
    10030    2    1    2    0    0  0.00000000000E+00  0.00000000000E+00 -0.53588855375E+03  0.22246025770E+04  0.21590924212E+04 0.  0.
        1    1    3    3  502    0  0.69831455367E+03  0.33994051028E+03  0.50461762580E+03  0.92619744908E+03  0.50400001928E-02 0. -1.
       -1    1    3    3    0  502 -0.69831455367E+03 -0.33994051028E+03 -0.10405061795E+04  0.12984051279E+04  0.50400001928E-02 0.  1.
</event>
<event>
 5   0  0.1680258E-04  0.2252091E+04  0.7818609E-02  0.8497054E-01
       -2   -1    0    0    0  501  0.00000000000E+00  0.00000000000E+00  0.44875491368E+03  0.44875491369E+03  0.25500000920E-02 0. -1.
        2   -1    0    0  501    0  0.00000000000E+00  0.00000000000E+00 -0.28255480415E+04  0.28255480415E+04  0.25500000920E-02 0.  1.
    10030    2    1    2    0    0  0.00000000000E+00  0.00000000000E+00 -0.23767931278E+04  0.32743029552E+04  0.22520910883E+04 0.  0.
        5    1    3    3  502    0 -0.35569211929E+03  0.55613722767E+03  0.13787962276E+03  0.67441706688E+03  0.46999998093E+01 0. -1.
       -5    1    3    3    0  502  0.35569211929E+03 -0.55613722767E+03 -0.25146727506E+04  0.25998858883E+04  0.46999998093E+01 0.  1.
</event>
<event>
 5   0  0.8470971E-05  0.2210635E+04  0.7818609E-02  0.8514014E-01
       -1   -1    0    0    0  501  0.00000000000E+00  0.00000000000E+00  0.57914784403E+03  0.57914784405E+03  0.50400001928E-02 0. -1.
        1   -1    0    0  501    0  0.00000000000E+00  0.00000000000E+00 -0.21095257016E+04  0.21095257016E+04  0.50400001928E-02 0.  1.
    10030    2    1    2    0    0  0.00000000000E+00  0.00000000000E+00 -0.15303778575E+04  0.26886735456E+04  0.22106354399E+04 0.  0.
        2    1    3    3  502    0 -0.78039766804E+03 -0.75470432693E+03 -0.10177702396E+04  0.14881046341E+04  0.25500000920E-02 0.  1.
       -2    1    3    3    0  502  0.78039766804E+03  0.75470432693E+03 -0.51260761794E+03  0.12005689115E+04  0.25500000920E-02 0. -1.
</event>
<event>
 5   0  0.8306787E-05  0.2257776E+04  0.7818609E-02  0.8494758E-01
       -1   -1    0    0    0  501  0.00000000000E+00  0.00000000000E+00  0.11382888823E+04  0.11382888823E+04  0.50400001928E-02 0. -1.
        1   -1    0    0  501    0  0.00000000000E+00  0.00000000000E+00 -0.11195645829E+04  0.11195645829E+04  0.50400001928E-02 0.  1.
    10030    2    1    2    0    0  0.00000000000E+00  0.00000000000E+00  0.18724299336E+02  0.22578534652E+04  0.22577758239E+04 0.  0.
        1    1    3    3  502    0  0.56431880310E+03  0.93112057776E+03 -0.28888739923E+03  0.11264533596E+04  0.50400001928E-02 0.  1.
       -1    1    3    3    0  502 -0.56431880310E+03 -0.93112057776E+03  0.30761169856E+03  0.11314001056E+04  0.50400001928E-02 0. -1.
</event>
<event>
 5   0  0.1805501E-04  0.2353444E+04  0.7818609E-02  0.8457142E-01
       -2   -1    0    0    0  501  0.00000000000E+00  0.00000000000E+00  0.86312096291E+03  0.86312096292E+03  0.25500000920E-02 0. -1.
        2   -1    0    0  501    0  0.00000000000E+00  0.00000000000E+00 -0.16042642369E+04  0.16042642369E+04  0.25500000920E-02 0.  1.
    10030    2    1    2    0    0  0.00000000000E+00  0.00000000000E+00 -0.74114327397E+03  0.24673851998E+04  0.23534435136E+04 0.  0.
        2    1    3    3  502    0  0.86418509521E+03  0.55491825378E+03 -0.97277072733E+03  0.14145787483E+04  0.25500000920E-02 0.  1.
       -2    1    3    3    0  502 -0.86418509521E+03 -0.55491825378E+03  0.23162745337E+03  0.10528064515E+04  0.25500000920E-02 0. -1.
</event>
<event>
 5   0  0.8602414E-05  0.2208234E+04  0.7818609E-02  0.8515009E-01
       -1   -1    0    0    0  501  0.00000000000E+00  0.00000000000E+00  0.84286954418E+03  0.84286954419E+03  0.50400001928E-02 0. -1.
        1   -1    0    0  501    0  0.00000000000E+00  0.00000000000E+00 -0.14463378305E+04  0.14463378305E+04  0.50400001928E-02 0.  1.
    10030    2    1    2    0    0  0.00000000000E+00  0.00000000000E+00 -0.60346828628E+03  0.22892073747E+04  0.22082337810E+04 0.  0.
        3    1    3    3  502    0 -0.10692573006E+04 -0.23327434878E+02 -0.17416929921E+02  0.10696535437E+04  0.10100000352E+00 0.  1.
       -3    1    3    3    0  502  0.10692573006E+04  0.23327434878E+02 -0.58605135636E+03  0.12195538309E+04  0.10100000352E+00 0. -1.
</event>
<event>
 5   0  0.8602414E-05  0.2148760E+04  0.7818609E-02  0.8540063E-01
       -1   -1    0    0    0  501  0.00000000000E+00  0.00000000000E+00  0.11626823273E+04  0.11626823273E+04  0.50400001928E-02 0.  1.
        1   -1    0    0  501    0  0.00000000000E+00  0.00000000000E+00 -0.99278365092E+03  0.99278365093E+03  0.50400001928E-02 0. -1.
    10030    2    1    2    0    0  0.00000000000E+00  0.00000000000E+00  0.16989867639E+03  0.21554659783E+04  0.21487596476E+04 0.  0.
        3    1    3    3  502    0  0.23145902256E+03  0.67652670034E+03 -0.71944511119E+03  0.10143288094E+04  0.10100000352E+00 0.  1.
       -3    1    3    3    0  502 -0.23145902256E+03 -0.67652670034E+03  0.88934378758E+03  0.11411371688E+04  0.10100000352E+00 0. -1.
</event>
<event>
 5   0  0.1805501E-04  0.2175926E+04  0.7818609E-02  0.8528516E-01
       -2   -1    0    0    0  501  0.00000000000E+00  0.00000000000E+00  0.90389428736E+03  0.90389428737E+03  0.25500000920E-02 0.  1.
        2   -1    0    0  501    0  0.00000000000E+00  0.00000000000E+00 -0.13095155118E+04  0.13095155118E+04  0.25500000920E-02 0. -1.
    10030    2    1    2    0    0  0.00000000000E+00  0.00000000000E+00 -0.40562122444E+03  0.22134097992E+04  0.21759260928E+04 0.  0.
        2    1    3    3  502    0  0.40687783365E+03  0.54416746471E+03  0.66153020134E+03  0.94830902582E+03  0.25500000920E-02 0.  1.
       -2    1    3    3    0  502 -0.40687783365E+03 -0.54416746471E+03 -0.10671514258E+04  0.12651007733E+04  0.25500000920E-02 0. -1.
</event>
<event>
 5   0  0.7954459E-05  0.2224898E+04  0.7818609E-02  0.8508136E-01
        1   -1    0    0  501    0  0.00000000000E+00  0.00000000000E+00  0.18335814531E+04  0.18335814531E+04  0.50400001928E-02 0.  1.
       -1   -1    0    0    0  501  0.00000000000E+00  0.00000000000E+00 -0.67493202385E+03  0.67493202387E+03  0.50400001928E-02 0. -1.
    10030    2    1    2    0    0  0.00000000000E+00  0.00000000000E+00  0.11586494292E+04  0.25085134770E+04  0.22248980571E+04 0.  0.
        5    1    3    3  502    0  0.42642549889E+03  0.10155887187E+04  0.75494150497E+03  0.13353718275E+04  0.46999998093E+01 0.  1.
       -5    1    3    3    0  502 -0.42642549889E+03 -0.10155887187E+04  0.40370792427E+03  0.11731416495E+04  0.46999998093E+01 0. -1.
</event>
<event>
 5   0  0.1733962E-04  0.2083104E+04  0.7818609E-02  0.8568723E-01
       -2   -1    0    0    0  501  0.00000000000E+00  0.00000000000E+00  0.91075398805E+03  0.91075398805E+03  0.25500000920E-02 0.  1.
        2   -1    0    0  501    0  0.00000000000E+00  0.00000000000E+00 -0.11911344387E+04  0.11911344387E+04  0.25500000920E-02 0. -1.
    10030    2    1    2    0    0  0.00000000000E+00  0.00000000000E+00 -0.28038045069E+03  0.21018884268E+04  0.20831038768E+04 0.  0.
        3    1    3    3  502    0 -0.51651655127E+02  0.39646719607E+03 -0.11106198238E+04  0.11803942283E+04  0.10100000352E+00 0. -1.
       -3    1    3    3    0  502  0.51651655127E+02 -0.39646719607E+03  0.83023937309E+03  0.92149419849E+03  0.10100000352E+00 0.  1.
</event>
<event>
 5   0  0.1733962E-04  0.2184659E+04  0.7818609E-02  0.8524841E-01
        2   -1    0    0  501    0  0.00000000000E+00  0.00000000000E+00  0.10102913464E+04  0.10102913464E+04  0.25500000920E-02 0. -1.
       -2   -1    0    0    0  501  0.00000000000E+00  0.00000000000E+00 -0.11810290510E+04  0.11810290510E+04  0.25500000920E-02 0.  1.
    10030    2    1    2    0    0  0.00000000000E+00  0.00000000000E+00 -0.17073770464E+03  0.21913203974E+04  0.21846587194E+04 0.  0.
        3    1    3    3  502    0  0.54354485133E+03 -0.49327783807E+03 -0.89679753978E+03  0.11588830262E+04  0.10100000352E+00 0.  1.
       -3    1    3    3    0  502 -0.54354485133E+03  0.49327783807E+03  0.72605983514E+03  0.10324373712E+04  0.10100000352E+00 0. -1.
</event>
<event>
 5   0  0.1805501E-04  0.2460492E+04  0.7818609E-02  0.8417197E-01
       -2   -1    0    0    0  501  0.00000000000E+00  0.00000000000E+00  0.13083796241E+04  0.13083796241E+04  0.25500000920E-02 0. -1.
        2   -1    0    0  501    0  0.00000000000E+00  0.00000000000E+00 -0.11567786817E+04  0.11567786817E+04  0.25500000920E-02 0.  1.
    10030    2    1    2    0    0  0.00000000000E+00  0.00000000000E+00  0.15160094239E+03  0.24651583058E+04  0.24604923546E+04 0.  0.
        2    1    3    3  502    0 -0.60135382709E+03  0.39719127438E+03 -0.92314511678E+03  0.11711465495E+04  0.25500000920E-02 0.  1.
       -2    1    3    3    0  502  0.60135382709E+03 -0.39719127438E+03  0.10747460592E+04  0.12940117563E+04  0.25500000920E-02 0. -1.
</event>
<event>
 5   0  0.8784659E-05  0.1841231E+04  0.7818609E-02  0.8684676E-01
       -1   -1    0    0    0  501  0.00000000000E+00  0.00000000000E+00  0.86620384988E+03  0.86620384990E+03  0.50400001928E-02 0. -1.
        1   -1    0    0  501    0  0.00000000000E+00  0.00000000000E+00 -0.97844495630E+03  0.97844495631E+03  0.50400001928E-02 0.  1.
    10030    2    1    2    0    0  0.00000000000E+00  0.00000000000E+00 -0.11224110642E+03  0.18446488062E+04  0.18412308797E+04 0.  0.
        4    1    3    3  502    0 -0.62862602201E+03 -0.26156610895E+03 -0.67690267546E+03  0.96009705230E+03  0.12699999809E+01 0.  1.
       -4    1    3    3    0  502  0.62862602201E+03  0.26156610895E+03  0.56466156904E+03  0.88455175391E+03  0.12699999809E+01 0. -1.
</event>
<event>
 5   0  0.1754356E-04  0.2211183E+04  0.7818609E-02  0.8513788E-01
        2   -1    0    0  501    0  0.00000000000E+00  0.00000000000E+00  0.10348432437E+04  0.10348432437E+04  0.25500000920E-02 0. -1.
       -2   -1    0    0    0  501  0.00000000000E+00  0.00000000000E+00 -0.11811767446E+04  0.11811767446E+04  0.25500000920E-02 0.  1.
    10030    2    1    2    0    0  0.00000000000E+00  0.00000000000E+00 -0.14633350093E+03  0.22160199883E+04  0.22111831890E+04 0.  0.
        1    1    3    3  502    0 -0.15582078248E+03  0.37350576376E+03  0.95794049383E+03  0.10399214689E+04  0.50400001928E-02 0. -1.
       -1    1    3    3    0  502  0.15582078248E+03 -0.37350576376E+03 -0.11042739948E+04  0.11760985194E+04  0.50400001928E-02 0.  1.
</event>
<event>
 5   0  0.1805501E-04  0.2165009E+04  0.7818609E-02  0.8533135E-01
       -2   -1    0    0    0  501  0.00000000000E+00  0.00000000000E+00  0.54476624159E+03  0.54476624160E+03  0.25500000920E-02 0. -1.
        2   -1    0    0  501    0  0.00000000000E+00  0.00000000000E+00 -0.21510431157E+04  0.21510431157E+04  0.25500000920E-02 0.  1.
    10030    2    1    2    0    0  0.00000000000E+00  0.00000000000E+00 -0.16062768741E+04  0.26958093573E+04  0.21650087054E+04 0.  0.
        2    1    3    3  502    0  0.64961717914E+03  0.39276146608E+03  0.15778599662E+03  0.77534538717E+03  0.25500000920E-02 0. -1.
       -2    1    3    3    0  502 -0.64961717914E+03 -0.39276146608E+03 -0.17640628707E+04  0.19204639701E+04  0.25500000920E-02 0.  1.
</event>
<event>
 5   0  0.1754356E-04  0.1090389E+04  0.7818609E-02  0.9214610E-01
        2   -1    0    0  501    0  0.00000000000E+00  0.00000000000E+00  0.14547756148E+04  0.14547756148E+04  0.25500000920E-02 0.  1.
       -2   -1    0    0    0  501  0.00000000000E+00  0.00000000000E+00 -0.20431811082E+03  0.20431811083E+03  0.25500000920E-02 0. -1.
    10030    2    1    2    0    0  0.00000000000E+00  0.00000000000E+00  0.12504575040E+04  0.16590937256E+04  0.10903889312E+04 0.  0.
        1    1    3    3  502    0  0.35294162464E+03  0.76570302407E+02  0.37939290458E+01  0.36117197502E+03  0.50400001928E-02 0. -1.
       -1    1    3    3    0  502 -0.35294162464E+03 -0.76570302407E+02  0.12466635749E+04  0.12979217506E+04  0.50400001928E-02 0.  1.
</event>
<event>
 5   0  0.1733962E-04  0.2193463E+04  0.7818609E-02  0.8521154E-01
       -2   -1    0    0    0  501  0.00000000000E+00  0.00000000000E+00  0.69668091095E+03  0.69668091095E+03  0.25500000920E-02 0. -1.
        2   -1    0    0  501    0  0.00000000000E+00  0.00000000000E+00 -0.17265000728E+04  0.17265000728E+04  0.25500000920E-02 0.  1.
    10030    2    1    2    0    0  0.00000000000E+00  0.00000000000E+00 -0.10298191619E+04  0.24231809838E+04  0.21934626903E+04 0.  0.
        3    1    3    3  502    0 -0.59768196597E+03 -0.90502800672E+03 -0.69481492435E+03  0.12880478309E+04  0.10100000352E+00 0.  1.
       -3    1    3    3    0  502  0.59768196597E+03  0.90502800672E+03 -0.33500423751E+03  0.11351331529E+04  0.10100000352E+00 0. -1.
</event>
<event>
 5   0  0.8470971E-05  0.2237428E+04  0.7818609E-02  0.8503009E-01
       -1   -1    0    0    0  501  0.00000000000E+00  0.00000000000E+00  0.89691386801E+03  0.89691386802E+03  0.50400001928E-02 0. -1.
        1   -1    0    0  501    0  0.00000000000E+00  0.00000000000E+00 -0.13953636669E+04  0.13953636670E+04  0.50400001928E-02 0.  1.
    10030    2    1    2    0    0  0.00000000000E+00  0.00000000000E+00 -0.49844979894E+03  0.22922775350E+04  0.22374280090E+04 0.  0.
        2    1    3    3  502    0 -0.20673449821E+01 -0.46739913137E+03  0.79208454684E+03  0.91970873176E+03  0.25500000920E-02 0. -1.
       -2    1    3    3    0  502  0.20673449821E+01  0.46739913137E+03 -0.12905343458E+04  0.13725688032E+04  0.25500000920E-02 0.  1.
</event>
<event>
 5   0  0.1733962E-04  0.2216164E+04  0.7818609E-02  0.8511730E-01
        2   -1    0    0  501    0  0.00000000000E+00  0.00000000000E+00  0.10758205627E+04  0.10758205627E+04  0.25500000920E-02 0.  1.
       -2   -1    0    0    0  501  0.00000000000E+00  0.00000000000E+00 -0.11413104871E+04  0.11413104871E+04  0.25500000920E-02 0. -1.
    10030    2    1    2    0    0  0.00000000000E+00  0.00000000000E+00 -0.65489924421E+02  0.22171310499E+04  0.22161636136E+04 0.  0.
        3    1    3    3  502    0  0.56708808815E+03 -0.73761888599E+03 -0.63481724495E+03  0.11263496195E+04  0.10100000352E+00 0. -1.
       -3    1    3    3    0  502 -0.56708808815E+03  0.73761888599E+03  0.56932732053E+03  0.10907814303E+04  0.10100000352E+00 0.  1.
</event>
<event>
 5   0  0.1798917E-04  0.2166821E+04  0.7818609E-02  0.8532366E-01
        2   -1    0    0  501    0  0.00000000000E+00  0.00000000000E+00  0.16374327822E+04  0.16374327822E+04  0.25500000920E-02 0.  1.
       -2   -1    0    0    0  501  0.00000000000E+00  0.00000000000E+00 -0.71684083535E+03  0.71684083535E+03  0.25500000920E-02 0. -1.
    10030    2    1    2    0    0  0.00000000000E+00  0.00000000000E+00  0.92059194688E+03  0.23542736176E+04  0.21668213433E+04 0.  0.
        4    1    3    3  502    0  0.91643109727E+03  0.22303608815E+03 -0.11891287038E+03  0.95064869237E+03  0.12699999809E+01 0. -1.
       -4    1    3    3    0  502 -0.91643109727E+03 -0.22303608815E+03  0.10395048173E+04  0.14036249252E+04  0.12699999809E+01 0.  1.
</event>
<event>
 5   0  0.8306787E-05  0.2280349E+04  0.7818609E-02  0.8485710E-01
        1   -1    0    0  501    0  0.00000000000E+00  0.00000000000E+00  0.20175363097E+04  0.20175363097E+04  0.50400001928E-02 0.  1.
       -1   -1    0    0    0  501  0.00000000000E+00  0.00000000000E+00 -0.64434898238E+03  0.64434898240E+03  0.50400001928E-02 0. -1.
    10030    2    1    2    0    0  0.00000000000E+00  0.00000000000E+00  0.13731873273E+04  0.26618852921E+04  0.22803486296E+04 0.  0.
        1    1    3    3  502    0 -0.89387076191E+03  0.51364155654E+03  0.11811616772E+03  0.10376820403E+04  0.50400001928E-02 0. -1.
       -1    1    3    3    0  502  0.89387076191E+03 -0.51364155654E+03  0.12550711596E+04  0.16242032519E+04  0.50400001928E-02 0.  1.
</event>
<event>
 5   0  0.8470971E-05  0.2387826E+04  0.7818609E-02  0.8444075E-01
        1   -1    0    0  501    0  0.00000000000E+00  0.00000000000E+00  0.17153097243E+04  0.17153097243E+04  0.50400001928E-02 0.  1.
       -1   -1    0    0    0  501  0.00000000000E+00  0.00000000000E+00 -0.83100358029E+03  0.83100358030E+03  0.50400001928E-02 0. -1.
    10030    2    1    2    0    0  0.00000000000E+00  0.00000000000E+00  0.88430614401E+03  0.25463133046E+04  0.23878262267E+04 0.  0.
        2    1    3    3  502    0 -0.25324372270E+03  0.97679860305E+03 -0.23829033302E+03  0.10368462648E+04  0.25500000920E-02 0. -1.
       -2    1    3    3    0  502  0.25324372270E+03 -0.97679860305E+03  0.11225964770E+04  0.15094670398E+04  0.25500000920E-02 0.  1.
</event>
<event>
 5   0  0.7954459E-05  0.2111512E+04  0.7818609E-02  0.8556189E-01
        1   -1    0    0  501    0  0.00000000000E+00  0.00000000000E+00  0.93701529082E+03  0.93701529083E+03  0.50400001928E-02 0.  1.
       -1   -1    0    0    0  501  0.00000000000E+00  0.00000000000E+00 -0.11895442121E+04  0.11895442121E+04  0.50400001928E-02 0. -1.
    10030    2    1    2    0    0  0.00000000000E+00  0.00000000000E+00 -0.25252892130E+03  0.21265595030E+04  0.21115123640E+04 0.  0.
        5    1    3    3  502    0 -0.84115489450E+03 -0.64361850176E+02 -0.76554375745E+03  0.11391941621E+04  0.46999998093E+01 0. -1.
       -5    1    3    3    0  502  0.84115489450E+03  0.64361850176E+02  0.51301483615E+03  0.98736534090E+03  0.46999998093E+01 0.  1.
</event>
<event>
 5   0  0.8602414E-05  0.2179306E+04  0.7818609E-02  0.8527091E-01
        1   -1    0    0  501    0  0.00000000000E+00  0.00000000000E+00  0.21371542677E+04  0.21371542677E+04  0.50400001928E-02 0.  1.
       -1   -1    0    0    0  501  0.00000000000E+00  0.00000000000E+00 -0.55557211917E+03  0.55557211919E+03  0.50400001928E-02 0. -1.
    10030    2    1    2    0    0  0.00000000000E+00  0.00000000000E+00  0.15815821485E+04  0.26927263869E+04  0.21793056927E+04 0.  0.
        3    1    3    3  502    0 -0.55161071121E+03 -0.44448324906E+03 -0.23221670547E+03  0.74549603884E+03  0.10100000352E+00 0. -1.
       -3    1    3    3    0  502  0.55161071121E+03  0.44448324906E+03  0.18137988540E+04  0.19472303480E+04  0.10100000352E+00 0.  1.
</event>
<event>
 5   0  0.1798917E-04  0.2243836E+04  0.7818609E-02  0.8500401E-01
        2   -1    0    0  501    0  0.00000000000E+00  0.00000000000E+00  0.16363108393E+04  0.16363108393E+04  0.25500000920E-02 0. -1.
       -2   -1    0    0    0  501  0.00000000000E+00  0.00000000000E+00 -0.76923051123E+03  0.76923051124E+03  0.25500000920E-02 0.  1.
    10030    2    1    2    0    0  0.00000000000E+00  0.00000000000E+00  0.86708032804E+03  0.24055413505E+04  0.22438362003E+04 0.  0.
        4    1    3    3  502    0  0.95582849707E+03 -0.49119640218E+03  0.77896618873E+03  0.13272799092E+04  0.12699999809E+01 0. -1.
       -4    1    3    3    0  502 -0.95582849707E+03  0.49119640218E+03  0.88114139308E+02  0.10782614413E+04  0.12699999809E+01 0.  1.
</event>
<event>
 5   0  0.8306787E-05  0.2186061E+04  0.7818609E-02  0.8524252E-01
        1   -1    0    0  501    0  0.00000000000E+00  0.00000000000E+00  0.17058909932E+04  0.17058909932E+04  0.50400001928E-02 0. -1.
       -1   -1    0    0    0  501  0.00000000000E+00  0.00000000000E+00 -0.70034707323E+03  0.70034707325E+03  0.50400001928E-02 0.  1.
    10030    2    1    2    0    0  0.00000000000E+00  0.00000000000E+00  0.10055439200E+04  0.24062380664E+04  0.21860610827E+04 0.  0.
        1    1    3    3  502    0  0.42108842208E+03  0.28771568723E+03  0.15668998666E+04  0.16478079281E+04  0.50400001928E-02 0. -1.
       -1    1    3    3    0  502 -0.42108842208E+03 -0.28771568723E+03 -0.56135594666E+03  0.75843013835E+03  0.50400001928E-02 0.  1.
</event>
<event>
 5   0  0.1680258E-04  0.1118195E+04  0.7818609E-02  0.9187637E-01
        2   -1    0    0  501    0  0.00000000000E+00  0.00000000000E+00  0.11165255649E+04  0.11165255649E+04  0.25500000920E-02 0.  1.
       -2   -1    0    0    0  501  0.00000000000E+00  0.00000000000E+00 -0.27996658399E+03  0.27996658400E+03  0.25500000920E-02 0. -1.
    10030    2    1    2    0    0  0.00000000000E+00  0.00000000000E+00  0.83655898094E+03  0.13964921489E+04  0.11181947028E+04 0.  0.
        5    1    3    3  502    0  0.49323436752E+03  0.20459875901E+03  0.62510778127E+03  0.82214513420E+03  0.46999998093E+01 0. -1.
       -5    1    3    3    0  502 -0.49323436752E+03 -0.20459875901E+03  0.21145119967E+03  0.57434701473E+03  0.46999998093E+01 0.  1.
</event>
<event>
 5   0  0.1680258E-04  0.2147966E+04  0.7818609E-02  0.8540403E-01
        2   -1    0    0  501    0  0.00000000000E+00  0.00000000000E+00  0.18795916129E+04  0.18795916129E+04  0.25500000920E-02 0. -1.
       -2   -1    0    0    0  501  0.00000000000E+00  0.00000000000E+00 -0.61366521488E+03  0.61366521488E+03  0.25500000920E-02 0.  1.
    10030    2    1    2    0    0  0.00000000000E+00  0.00000000000E+00  0.12659263980E+04  0.24932568278E+04  0.21479664718E+04 0.  0.
        5    1    3    3  502    0  0.96626996482E+03 -0.19285507256E+03  0.13702554913E+03  0.99482099648E+03  0.46999998093E+01 0.  1.
       -5    1    3    3    0  502 -0.96626996482E+03  0.19285507256E+03  0.11289008489E+04  0.14984358313E+04  0.46999998093E+01 0. -1.
</event>
<event>
 5   0  0.1680258E-04  0.2246935E+04  0.7818609E-02  0.8499143E-01
       -2   -1    0    0    0  501  0.00000000000E+00  0.00000000000E+00  0.56892821454E+03  0.56892821454E+03  0.25500000920E-02 0. -1.
        2   -1    0    0  501    0  0.00000000000E+00  0.00000000000E+00 -0.22185206960E+04  0.22185206961E+04  0.25500000920E-02 0.  1.
    10030    2    1    2    0    0  0.00000000000E+00  0.00000000000E+00 -0.16495924815E+04  0.27874489106E+04  0.22469348175E+04 0.  0.
        5    1    3    3  502    0 -0.44623264818E+03  0.15020427669E+02  0.45412498827E+03  0.63686794904E+03  0.46999998093E+01 0. -1.
       -5    1    3    3    0  502  0.44623264818E+03 -0.15020427669E+02 -0.21037174698E+04  0.21505809616E+04  0.46999998093E+01 0.  1.
</event>
<event>
 5   0  0.1805501E-04  0.2019382E+04  0.7818609E-02  0.8597612E-01
        2   -1    0    0  501    0  0.00000000000E+00  0.00000000000E+00  0.13694515510E+04  0.13694515510E+04  0.25500000920E-02 0. -1.
       -2   -1    0    0    0  501  0.00000000000E+00  0.00000000000E+00 -0.74444070891E+03  0.74444070892E+03  0.25500000920E-02 0.  1.
    10030    2    1    2    0    0  0.00000000000E+00  0.00000000000E+00  0.62501084213E+03  0.21138922600E+04  0.20193815721E+04 0.  0.
        2    1    3    3  502    0  0.50584538535E+03  0.79490940307E+03  0.69241656183E+03  0.11692737952E+04  0.25500000920E-02 0. -1.
       -2    1    3    3    0  502 -0.50584538535E+03 -0.79490940307E+03 -0.67405719695E+02  0.94461846479E+03  0.25500000920E-02 0.  1.
</event>
<event>
 5   0  0.8784659E-05  0.2186094E+04  0.7818609E-02  0.8524239E-01
       -1   -1    0    0    0  501  0.00000000000E+00  0.00000000000E+00  0.76311603609E+03  0.76311603610E+03  0.50400001928E-02 0.  1.
        1   -1    0    0  501    0  0.00000000000E+00  0.00000000000E+00 -0.15656222439E+04  0.15656222439E+04  0.50400001928E-02 0. -1.
    10030    2    1    2    0    0  0.00000000000E+00  0.00000000000E+00 -0.80250620780E+03  0.23287382800E+04  0.21860937224E+04 0.  0.
        4    1    3    3  502    0  0.32674998746E+03  0.10381035827E+04 -0.50949656523E+03  0.12016709057E+04  0.12699999809E+01 0.  1.
       -4    1    3    3    0  502 -0.32674998746E+03 -0.10381035827E+04 -0.29300964257E+03  0.11270673743E+04  0.12699999809E+01 0. -1.
</event>
<event>
 5   0  0.1754356E-04  0.2213164E+04  0.7818609E-02  0.8512969E-01
       -2   -1    0    0    0  501  0.00000000000E+00  0.00000000000E+00  0.74050246156E+03  0.74050246157E+03  0.25500000920E-02 0. -1.
        2   -1    0    0  501    0  0.00000000000E+00  0.00000000000E+00 -0.16536388932E+04  0.16536388932E+04  0.25500000920E-02 0.  1.
    10030    2    1    2    0    0  0.00000000000E+00  0.00000000000E+00 -0.91313643162E+03  0.23941413548E+04  0.22131639532E+04 0.  0.
        1    1    3    3  502    0 -0.48252573283E+03  0.59059341884E+03 -0.13239398430E+04  0.15278901718E+04  0.50400001928E-02 0.  1.
       -1    1    3    3    0  502  0.48252573283E+03 -0.59059341884E+03  0.41080341133E+03  0.86625118298E+03  0.50400001928E-02 0. -1.
</event>
<event>
 5   0  0.1680258E-04  0.2042114E+04  0.7818609E-02  0.8587180E-01
        2   -1    0    0  501    0  0.00000000000E+00  0.00000000000E+00  0.16936077516E+04  0.16936077516E+04  0.25500000920E-02 0.  1.
       -2   -1    0    0    0  501  0.00000000000E+00  0.00000000000E+00 -0.61558392761E+03  0.61558392761E+03  0.25500000920E-02 0. -1.
    10030    2    1    2    0    0  0.00000000000E+00  0.00000000000E+00  0.10780238240E+04  0.23091916792E+04  0.20421143078E+04 0.  0.
        5    1    3    3  502    0 -0.30882200962E+03 -0.59023432514E+02 -0.55946896387E+03  0.64178065625E+03  0.46999998093E+01 0. -1.
       -5    1    3    3    0  502  0.30882200962E+03  0.59023432514E+02  0.16374927879E+04  0.16674110230E+04  0.46999998093E+01 0.  1.
</event>
<event>
 5   0  0.1798917E-04  0.2063991E+04  0.7818609E-02  0.8577274E-01
        2   -1    0    0  501    0  0.00000000000E+00  0.00000000000E+00  0.17800782881E+04  0.17800782881E+04  0.25500000920E-02 0.  1.
       -2   -1    0    0    0  501  0.00000000000E+00  0.00000000000E+00 -0.59829626922E+03  0.59829626922E+03  0.25500000920E-02 0. -1.
    10030    2    1    2    0    0  0.00000000000E+00  0.00000000000E+00  0.11817820188E+04  0.23783745573E+04  0.20639905026E+04 0.  0.
        4    1    3    3  502    0 -0.71512926481E+03 -0.22581306387E+03  0.14078281264E+04  0.15951122380E+04  0.12699999809E+01 0.  1.
       -4    1    3    3    0  502  0.71512926481E+03  0.22581306387E+03 -0.22604610761E+03  0.78326231932E+03  0.12699999809E+01 0. -1.
</event>
<event>
 5   0  0.1733962E-04  0.2211648E+04  0.7818609E-02  0.8513596E-01
       -2   -1    0    0    0  501  0.00000000000E+00  0.00000000000E+00  0.83599913885E+03  0.83599913885E+03  0.25500000920E-02 0.  1.
        2   -1    0    0  501    0  0.00000000000E+00  0.00000000000E+00 -0.14627363286E+04  0.14627363286E+04  0.25500000920E-02 0. -1.
    10030    2    1    2    0    0  0.00000000000E+00  0.00000000000E+00 -0.62673718979E+03  0.22987354675E+04  0.22116476312E+04 0.  0.
        3    1    3    3  502    0  0.74270913075E+02  0.25650680958E+03  0.80198229511E+03  0.84527363840E+03  0.10100000352E+00 0.  1.
       -3    1    3    3    0  502 -0.74270913075E+02 -0.25650680958E+03 -0.14287194849E+04  0.14534618291E+04  0.10100000352E+00 0. -1.
</event>
<event>
 5   0  0.1680258E-04  0.2082400E+04  0.7818609E-02  0.8569036E-01
       -2   -1    0    0    0  501  0.00000000000E+00  0.00000000000E+00  0.63245379561E+03  0.63245379562E+03  0.25500000920E-02 0. -1.
        2   -1    0    0  501    0  0.00000000000E+00  0.00000000000E+00 -0.17141132930E+04  0.17141132931E+04  0.25500000920E-02 0.  1.
    10030    2    1    2    0    0  0.00000000000E+00  0.00000000000E+00 -0.10816594974E+04  0.23465670887E+04  0.20824000176E+04 0.  0.
        5    1    3    3  502    0  0.61010075020E+02 -0.91491774296E+03  0.14973174233E+02  0.91708396103E+03  0.46999998093E+01 0. -1.
       -5    1    3    3    0  502 -0.61010075020E+02  0.91491774296E+03 -0.10966326717E+04  0.14294831276E+04  0.46999998093E+01 0.  1.
</event>
<event>
 5   0  0.8784659E-05  0.1817758E+04  0.7818609E-02  0.8696913E-01
       -1   -1    0    0    0  501  0.00000000000E+00  0.00000000000E+00  0.78978748982E+03  0.78978748984E+03  0.50400001928E-02 0. -1.
        1   -1    0    0  501    0  0.00000000000E+00  0.00000000000E+00 -0.10459277589E+04  0.10459277589E+04  0.50400001928E-02 0.  1.
    10030    2    1    2    0    0  0.00000000000E+00  0.00000000000E+00 -0.25614026907E+03  0.18357152487E+04  0.18177575848E+04 0.  0.
        4    1    3    3  502    0 -0.69104016647E+02  0.58454022985E+03  0.57130036260E+03  0.82027334629E+03  0.12699999809E+01 0. -1.
       -4    1    3    3    0  502  0.69104016647E+02 -0.58454022985E+03 -0.82744063167E+03  0.10154419025E+04  0.12699999809E+01 0.  1.
</event>
<event>
 5   0  0.8602414E-05  0.2233885E+04  0.7818609E-02  0.8504455E-01
       -1   -1    0    0    0  501  0.00000000000E+00  0.00000000000E+00  0.90599955830E+03  0.90599955832E+03  0.50400001928E-02 0. -1.
        1   -1    0    0  501    0  0.00000000000E+00  0.00000000000E+00 -0.13769990510E+04  0.13769990510E+04  0.50400001928E-02 0.  1.
    10030    2    1    2    0    0  0.00000000000E+00  0.00000000000E+00 -0.47099949271E+03  0.22829986093E+04  0.22338849854E+04 0.  0.
        3    1    3    3  502    0 -0.17566225857E+03 -0.77282166681E+03 -0.10398550947E+04  0.13074437601E+04  0.10100000352E+00 0.  1.
       -3    1    3    3    0  502  0.17566225857E+03  0.77282166681E+03  0.56885560195E+03  0.97555484923E+03  0.10100000352E+00 0. -1.
</event>
<event>
 5   0  0.7954459E-05  0.2253636E+04  0.7818609E-02  0.8496429E-01
        1   -1    0    0  501    0  0.00000000000E+00  0.00000000000E+00  0.14148709036E+04  0.14148709036E+04  0.50400001928E-02 0.  1.
       -1   -1    0    0    0  501  0.00000000000E+00  0.00000000000E+00 -0.89740986566E+03  0.89740986567E+03  0.50400001928E-02 0. -1.
    10030    2    1    2    0    0  0.00000000000E+00  0.00000000000E+00  0.51746103789E+03  0.23122807692E+04  0.22536362684E+04 0.  0.
        5    1    3    3  502    0  0.41433964839E+02  0.49445626981E+03 -0.77927397457E+03  0.92384727830E+03  0.46999998093E+01 0. -1.
       -5    1    3    3    0  502 -0.41433964839E+02 -0.49445626981E+03  0.12967350125E+04  0.13884334909E+04  0.46999998093E+01 0.  1.
</event>
<event>
 5   0  0.1754356E-04  0.2249072E+04  0.7818609E-02  0.8498277E-01
        2   -1    0    0  501    0  0.00000000000E+00  0.00000000000E+00  0.12906543879E+04  0.12906543879E+04  0.25500000920E-02 0. -1.
       -2   -1    0    0    0  501  0.00000000000E+00  0.00000000000E+00 -0.97979819485E+03  0.97979819485E+03  0.25500000920E-02 0.  1.
    10030    2    1    2    0    0  0.00000000000E+00  0.00000000000E+00  0.31085619307E+03  0.22704525828E+04  0.22490716658E+04 0.  0.
        1    1    3    3  502    0 -0.48215312320E+03  0.93443623233E+03 -0.24703234148E+03  0.10801239208E+04  0.50400001928E-02 0.  1.
       -1    1    3    3    0  502  0.48215312320E+03 -0.93443623233E+03  0.55788853455E+03  0.11903286620E+04  0.50400001928E-02 0. -1.
</event>
<event>
 5   0  0.1680258E-04  0.2226562E+04  0.7818609E-02  0.8507453E-01
        2   -1    0    0  501    0  0.00000000000E+00  0.00000000000E+00  0.12926880282E+04  0.12926880282E+04  0.25500000920E-02 0.  1.
       -2   -1    0    0    0  501  0.00000000000E+00  0.00000000000E+00 -0.95877346708E+03  0.95877346708E+03  0.25500000920E-02 0. -1.
    10030    2    1    2    0    0  0.00000000000E+00  0.00000000000E+00  0.33391456114E+03  0.22514614953E+04  0.22265623572E+04 0.  0.
        5    1    3    3  502    0  0.33041243518E+03 -0.21838471309E+03 -0.88511443668E+03  0.96969784791E+03  0.46999998093E+01 0. -1.
       -5    1    3    3    0  502 -0.33041243518E+03  0.21838471309E+03  0.12190289978E+04  0.12817636474E+04  0.46999998093E+01 0.  1.
</event>
<event>
 5   0  0.7954459E-05  0.2123023E+04  0.7818609E-02  0.8551169E-01
       -1   -1    0    0    0  501  0.00000000000E+00  0.00000000000E+00  0.47405705572E+03  0.47405705575E+03  0.50400001928E-02 0. -1.
        1   -1    0    0  501    0  0.00000000000E+00  0.00000000000E+00 -0.23769431058E+04  0.23769431058E+04  0.50400001928E-02 0.  1.
    10030    2    1    2    0    0  0.00000000000E+00  0.00000000000E+00 -0.19028860501E+04  0.28510001615E+04  0.21230229866E+04 0.  0.
        5    1    3    3  502    0 -0.87999528409E+03 -0.13187221444E+03 -0.17287035668E+04  0.19442788105E+04  0.46999998093E+01 0.  1.
       -5    1    3    3    0  502  0.87999528409E+03  0.13187221444E+03 -0.17418248321E+03  0.90672135103E+03  0.46999998093E+01 0. -1.
</event>
<event>
 5   0  0.8306787E-05  0.2170518E+04  0.7818609E-02  0.8530800E-01
       -1   -1    0    0    0  501  0.00000000000E+00  0.00000000000E+00  0.11034288842E+04  0.11034288842E+04  0.50400001928E-02 0. -1.
        1   -1    0    0  501    0  0.00000000000E+00  0.00000000000E+00 -0.10673885354E+04  0.10673885354E+04  0.50400001928E-02 0.  1.
    10030    2    1    2    0    0  0.00000000000E+00  0.00000000000E+00  0.36040348848E+02  0.21708174196E+04  0.21705182244E+04 0.  0.
        1    1    3    3  502    0  0.25684811894E+02  0.21044602334E+03 -0.10464761556E+04  0.10677357269E+04  0.50400001928E-02 0.  1.
       -1    1    3    3    0  502 -0.25684811894E+02 -0.21044602334E+03  0.10825165045E+04  0.11030816927E+04  0.50400001928E-02 0. -1.
</event>
<event>
 5   0  0.1798917E-04  0.1133979E+04  0.7818609E-02  0.9172692E-01
        2   -1    0    0  501    0  0.00000000000E+00  0.00000000000E+00  0.43175629767E+03  0.43175629768E+03  0.25500000920E-02 0. -1.
       -2   -1    0    0    0  501  0.00000000000E+00  0.00000000000E+00 -0.74457998466E+03  0.74457998466E+03  0.25500000920E-02 0.  1.
    10030    2    1    2    0    0  0.00000000000E+00  0.00000000000E+00 -0.31282368699E+03  0.11763362823E+04  0.11339790077E+04 0.  0.
        4    1    3    3  502    0 -0.18187014676E+03  0.10237458020E+03  0.39045923443E+03  0.44273844605E+03  0.12699999809E+01 0. -1.
       -4    1    3    3    0  502  0.18187014676E+03 -0.10237458020E+03 -0.70328292142E+03  0.73359783629E+03  0.12699999809E+01 0.  1.
</event>
<event>
 5   0  0.8306787E-05  0.2095044E+04  0.7818609E-02  0.8563430E-01
        1   -1    0    0  501    0  0.00000000000E+00  0.00000000000E+00  0.17076240269E+04  0.17076240269E+04  0.50400001928E-02 0. -1.
       -1   -1    0    0    0  501  0.00000000000E+00  0.00000000000E+00 -0.64259008061E+03  0.64259008063E+03  0.50400001928E-02 0.  1.
    10030    2    1    2    0    0  0.00000000000E+00  0.00000000000E+00  0.10650339463E+04  0.23502141076E+04  0.20950439243E+04 0.  0.
        1    1    3    3  502    0  0.33111984463E+03 -0.37197624626E+03  0.15663341140E+04  0.16435964334E+04  0.50400001928E-02 0. -1.
       -1    1    3    3    0  502 -0.33111984463E+03  0.37197624626E+03 -0.50130016766E+03  0.70661767414E+03  0.50400001928E-02 0.  1.
</event>
<event>
 5   0  0.1798917E-04  0.2101065E+04  0.7818609E-02  0.8560774E-01
        2   -1    0    0  501    0  0.00000000000E+00  0.00000000000E+00  0.18157807299E+04  0.18157807299E+04  0.25500000920E-02 0. -1.
       -2   -1    0    0    0  501  0.00000000000E+00  0.00000000000E+00 -0.60779312514E+03  0.60779312515E+03  0.25500000920E-02 0.  1.
    10030    2    1    2    0    0  0.00000000000E+00  0.00000000000E+00  0.12079876048E+04  0.24235738551E+04  0.21010654863E+04 0.  0.
        4    1    3    3  502    0 -0.41290127648E+03 -0.91259877295E+03  0.23869104618E+03  0.10297082174E+04  0.12699999809E+01 0.  1.
       -4    1    3    3    0  502  0.41290127648E+03  0.91259877295E+03  0.96929655862E+03  0.13938656377E+04  0.12699999809E+01 0. -1.
</event>
<event>
 5   0  0.1754356E-04  0.2180514E+04  0.7818609E-02  0.8526583E-01
        2   -1    0    0  501    0  0.00000000000E+00  0.00000000000E+00  0.11323684356E+04  0.11323684356E+04  0.25500000920E-02 0.  1.
       -2   -1    0    0    0  501  0.00000000000E+00  0.00000000000E+00 -0.10497112431E+04  0.10497112431E+04  0.25500000920E-02 0. -1.
    10030    2    1    2    0    0  0.00000000000E+00  0.00000000000E+00  0.82657192527E+02  0.21820796788E+04  0.21805135893E+04 0.  0.
        1    1    3    3  502    0  0.11573485721E+03 -0.26330004946E+03 -0.10110627714E+04  0.10511752475E+04  0.50400001928E-02 0. -1.
       -1    1    3    3    0  502 -0.11573485721E+03  0.26330004946E+03  0.10937199639E+04  0.11309044313E+04  0.50400001928E-02 0.  1.
</event>
<event>
 5   0  0.6250625E-05  0.1197386E+04  0.7818609E-02  0.9115148E-01
        4   -1    0    0  501    0  0.00000000000E+00  0.00000000000E+00  0.51656645068E+03  0.51656801186E+03  0.12699999809E+01 0. -1.
       -4   -1    0    0    0  501  0.00000000000E+00  0.00000000000E+00 -0.69387307491E+03  0.69387423716E+03  0.12699999809E+01 0.  1.
    10030    2    1    2    0    0  0.00000000000E+00  0.00000000000E+00 -0.17730662423E+03  0.12104422490E+04  0.11973858189E+04 0.  0.
        2    1    3    3  502    0  0.54905116630E+03 -0.18324935943E+03 -0.24327766029E+03  0.62787063234E+03  0.25500000920E-02 0.  1.
       -2    1    3    3    0  502 -0.54905116630E+03  0.18324935943E+03  0.65971036058E+02  0.58257161667E+03  0.25500000920E-02 0. -1.
</event>
<event>
 5   0  0.8306787E-05  0.2154595E+04  0.7818609E-02  0.8537568E-01
       -1   -1    0    0    0  501  0.00000000000E+00  0.00000000000E+00  0.78284784360E+03  0.78284784362E+03  0.50400001928E-02 0.  1.
        1   -1    0    0  501    0  0.00000000000E+00  0.00000000000E+00 -0.14824979007E+04  0.14824979007E+04  0.50400001928E-02 0. -1.
    10030    2    1    2    0    0  0.00000000000E+00  0.00000000000E+00 -0.69965005706E+03  0.22653457443E+04  0.21545953538E+04 0.  0.
        1    1    3    3  502    0  0.22112147522E+03  0.10355396173E+04 -0.14130448329E+03  0.10682714836E+04  0.50400001928E-02 0.  1.
       -1    1    3    3    0  502 -0.22112147522E+03 -0.10355396173E+04 -0.55834557377E+03  0.11970742606E+04  0.50400001928E-02 0. -1.
</event>
<event>
 5   0  0.6250625E-05  0.2211628E+04  0.7818609E-02  0.8513604E-01
       -3   -1    0    0    0  501  0.00000000000E+00  0.00000000000E+00  0.29404348797E+04  0.29404348814E+04  0.10100000352E+00 0.  1.
        3   -1    0    0  501    0  0.00000000000E+00  0.00000000000E+00 -0.41586521401E+03  0.41586522627E+03  0.10100000352E+00 0. -1.
    10030    2    1    2    0    0  0.00000000000E+00  0.00000000000E+00  0.25245696657E+04  0.33563001077E+04  0.22116280013E+04 0.  0.
        3    1    3    3  502    0  0.36502195318E+03 -0.45704022041E+03 -0.16188625148E+03  0.60690522983E+03  0.10100000352E+00 0. -1.
       -3    1    3    3    0  502 -0.36502195318E+03  0.45704022041E+03  0.26864559172E+04  0.27493948779E+04  0.10100000352E+00 0.  1.
</event>
<event>
 5   0  0.1798917E-04  0.2212061E+04  0.7818609E-02  0.8513425E-01
       -2   -1    0    0    0  501  0.00000000000E+00  0.00000000000E+00  0.84929963281E+03  0.84929963282E+03  0.25500000920E-02 0.  1.
        2   -1    0    0  501    0  0.00000000000E+00  0.00000000000E+00 -0.14403674817E+04  0.14403674817E+04  0.25500000920E-02 0. -1.
    10030    2    1    2    0    0  0.00000000000E+00  0.00000000000E+00 -0.59106784887E+03  0.22896671145E+04  0.22120610962E+04 0.  0.
        4    1    3    3  502    0  0.11470306391E+03  0.78193848587E+03 -0.10964484284E+04  0.13515862376E+04  0.12699999809E+01 0. -1.
       -4    1    3    3    0  502 -0.11470306391E+03 -0.78193848587E+03  0.50538057954E+03  0.93808087692E+03  0.12699999809E+01 0.  1.
</event>
<event>
 5   0  0.8784659E-05  0.1126118E+04  0.7818609E-02  0.9180103E-01
        1   -1    0    0  501    0  0.00000000000E+00  0.00000000000E+00  0.96951459858E+03  0.96951459859E+03  0.50400001928E-02 0.  1.
       -1   -1    0    0    0  501  0.00000000000E+00  0.00000000000E+00 -0.32700442819E+03  0.32700442823E+03  0.50400001928E-02 0. -1.
    10030    2    1    2    0    0  0.00000000000E+00  0.00000000000E+00  0.64251017038E+03  0.12965190268E+04  0.11261182300E+04 0.  0.
        4    1    3    3  502    0 -0.47890556970E+03  0.80380220696E+02 -0.68650587854E+01  0.48565447233E+03  0.12699999809E+01 0. -1.
       -4    1    3    3    0  502  0.47890556970E+03 -0.80380220696E+02  0.64937522917E+03  0.81086455449E+03  0.12699999809E+01 0.  1.
</event>
<event>
 5   0  0.1798917E-04  0.2172168E+04  0.7818609E-02  0.8530102E-01
       -2   -1    0    0    0  501  0.00000000000E+00  0.00000000000E+00  0.64441109108E+03  0.64441109109E+03  0.25500000920E-02 0. -1.
        2   -1    0    0  501    0  0.00000000000E+00  0.00000000000E+00 -0.18304752391E+04  0.18304752391E+04  0.25500000920E-02 0.  1.
    10030    2    1    2    0    0  0.00000000000E+00  0.00000000000E+00 -0.11860641480E+04  0.24748863302E+04  0.21721680838E+04 0.  0.
        4    1    3    3  502    0  0.86483333578E+03  0.61428815985E+03 -0.85850663667E+03  0.13646691541E+04  0.12699999809E+01 0.  1.
       -4    1    3    3    0  502 -0.86483333578E+03 -0.61428815985E+03 -0.32755751137E+03  0.11102171761E+04  0.12699999809E+01 0. -1.
</event>
<event>
 5   0  0.8470971E-05  0.2106612E+04  0.7818609E-02  0.8558336E-01
        1   -1    0    0  501    0  0.00000000000E+00  0.00000000000E+00  0.13764983815E+04  0.13764983815E+04  0.50400001928E-02 0.  1.
       -1   -1    0    0    0  501  0.00000000000E+00  0.00000000000E+00 -0.80599674173E+03  0.80599674175E+03  0.50400001928E-02 0. -1.
    10030    2    1    2    0    0  0.00000000000E+00  0.00000000000E+00  0.57050163974E+03  0.21824951232E+04  0.21066116970E+04 0.  0.
        2    1    3    3  502    0  0.25058380693E+03  0.27289782091E+03  0.13067637351E+04  0.13582698275E+04  0.25500000920E-02 0.  1.
       -2    1    3    3    0  502 -0.25058380693E+03 -0.27289782091E+03 -0.73626209538E+03  0.82422529569E+03  0.25500000920E-02 0. -1.
</event>
<event>
 5   0  0.1754356E-04  0.2200378E+04  0.7818609E-02  0.8518271E-01
       -2   -1    0    0    0  501  0.00000000000E+00  0.00000000000E+00  0.89728313063E+03  0.89728313064E+03  0.25500000920E-02 0. -1.
        2   -1    0    0  501    0  0.00000000000E+00  0.00000000000E+00 -0.13489784982E+04  0.13489784982E+04  0.25500000920E-02 0.  1.
    10030    2    1    2    0    0  0.00000000000E+00  0.00000000000E+00 -0.45169536759E+03  0.22462616289E+04  0.22003778312E+04 0.  0.
        1    1    3    3  502    0  0.51049279677E+03 -0.27288589498E+03  0.72926137471E+03  0.93107022286E+03  0.50400001928E-02 0. -1.
       -1    1    3    3    0  502 -0.51049279677E+03  0.27288589498E+03 -0.11809567423E+04  0.13151914060E+04  0.50400001928E-02 0.  1.
</event>
<event>
 5   0  0.8602414E-05  0.2212209E+04  0.7818609E-02  0.8513364E-01
        1   -1    0    0  501    0  0.00000000000E+00  0.00000000000E+00  0.16860167770E+04  0.16860167770E+04  0.50400001928E-02 0. -1.
       -1   -1    0    0    0  501  0.00000000000E+00  0.00000000000E+00 -0.72565551837E+03  0.72565551839E+03  0.50400001928E-02 0.  1.
    10030    2    1    2    0    0  0.00000000000E+00  0.00000000000E+00  0.96036125864E+03  0.24116722954E+04  0.22122091929E+04 0.  0.
        3    1    3    3  502    0 -0.21739551370E+03 -0.28522941247E+03  0.16208756872E+04  0.16600766942E+04  0.10100000352E+00 0. -1.
       -3    1    3    3    0  502  0.21739551370E+03  0.28522941247E+03 -0.66051442859E+03  0.75159560116E+03  0.10100000352E+00 0.  1.
</event>
<event>
 5   0  0.8306787E-05  0.2261705E+04  0.7818609E-02  0.8493175E-01
       -1   -1    0    0    0  501  0.00000000000E+00  0.00000000000E+00  0.80522692169E+03  0.80522692171E+03  0.50400001928E-02 0.  1.
        1   -1    0    0  501    0  0.00000000000E+00  0.00000000000E+00 -0.15881573176E+04  0.15881573176E+04  0.50400001928E-02 0. -1.
    10030    2    1    2    0    0  0.00000000000E+00  0.00000000000E+00 -0.78293039586E+03  0.23933842393E+04  0.22617046916E+04 0.  0.
        1    1    3    3  502    0 -0.52010808933E+03 -0.19405102546E+03 -0.14340462473E+04  0.15377440829E+04  0.50400001928E-02 0. -1.
       -1    1    3    3    0  502  0.52010808933E+03  0.19405102546E+03  0.65111585148E+03  0.85564015634E+03  0.50400001928E-02 0.  1.
</event>
<event>
 5   0  0.8602414E-05  0.2220108E+04  0.7818609E-02  0.8510105E-01
       -1   -1    0    0    0  501  0.00000000000E+00  0.00000000000E+00  0.12004091100E+04  0.12004091100E+04  0.50400001928E-02 0.  1.
        1   -1    0    0  501    0  0.00000000000E+00  0.00000000000E+00 -0.10265001317E+04  0.10265001317E+04  0.50400001928E-02 0. -1.
    10030    2    1    2    0    0  0.00000000000E+00  0.00000000000E+00  0.17390897832E+03  0.22269092418E+04  0.22201082042E+04 0.  0.
        3    1    3    3  502    0 -0.55217500603E+03  0.21154318268E+03 -0.85537662951E+03  0.10398639065E+04  0.10100000352E+00 0. -1.
       -3    1    3    3    0  502  0.55217500603E+03 -0.21154318268E+03  0.10292856078E+04  0.11870453353E+04  0.10100000352E+00 0.  1.
</event>
<event>
 5   0  0.1733962E-04  0.2236133E+04  0.7818609E-02  0.8503537E-01
        2   -1    0    0  501    0  0.00000000000E+00  0.00000000000E+00  0.21823709075E+04  0.21823709075E+04  0.25500000920E-02 0. -1.
       -2   -1    0    0    0  501  0.00000000000E+00  0.00000000000E+00 -0.57280500970E+03  0.57280500971E+03  0.25500000920E-02 0.  1.
    10030    2    1    2    0    0  0.00000000000E+00  0.00000000000E+00  0.16095658978E+04  0.27551759172E+04  0.22361332598E+04 0.  0.
        3    1    3    3  502    0 -0.11860801711E+03  0.10473995353E+04  0.12640819582E+04  0.16459091274E+04  0.10100000352E+00 0. -1.
       -3    1    3    3    0  502  0.11860801711E+03 -0.10473995353E+04  0.34548393963E+03  0.11092667899E+04  0.10100000352E+00 0.  1.
</event>
<event>
 5   0  0.1805501E-04  0.2192807E+04  0.7818609E-02  0.8521428E-01
       -2   -1    0    0    0  501  0.00000000000E+00  0.00000000000E+00  0.86035214177E+03  0.86035214178E+03  0.25500000920E-02 0. -1.
        2   -1    0    0  501    0  0.00000000000E+00  0.00000000000E+00 -0.13972197722E+04  0.13972197722E+04  0.25500000920E-02 0.  1.
    10030    2    1    2    0    0  0.00000000000E+00  0.00000000000E+00 -0.53686763046E+03  0.22575719140E+04  0.21928073546E+04 0.  0.
        2    1    3    3  502    0 -0.29303671570E+03  0.62670342468E+03  0.60726018793E+03  0.92053931753E+03  0.25500000920E-02 0. -1.
       -2    1    3    3    0  502  0.29303671570E+03 -0.62670342468E+03 -0.11441278184E+04  0.13370325965E+04  0.25500000920E-02 0.  1.
</event>
<event>
 5   0  0.8784659E-05  0.2065844E+04  0.7818609E-02  0.8576440E-01
        1   -1    0    0  501    0  0.00000000000E+00  0.00000000000E+00  0.13522917527E+04  0.13522917527E+04  0.50400001928E-02 0.  1.
       -1   -1    0    0    0  501  0.00000000000E+00  0.00000000000E+00 -0.78897771113E+03  0.78897771114E+03  0.50400001928E-02 0. -1.
    10030    2    1    2    0    0  0.00000000000E+00  0.00000000000E+00  0.56331404158E+03  0.21412694639E+04  0.20658441876E+04 0.  0.
        4    1    3    3  502    0 -0.43540946880E+03 -0.24914670896E+03  0.12175468878E+04  0.13168437740E+04  0.12699999809E+01 0.  1.
       -4    1    3    3    0  502  0.43540946880E+03  0.24914670896E+03 -0.65423284626E+03  0.82442568988E+03  0.12699999809E+01 0. -1.
</event>
<event>
 5   0  0.1754356E-04  0.2161708E+04  0.7818609E-02  0.8534537E-01
        2   -1    0    0  501    0  0.00000000000E+00  0.00000000000E+00  0.12445852045E+04  0.12445852045E+04  0.25500000920E-02 0.  1.
       -2   -1    0    0    0  501  0.00000000000E+00  0.00000000000E+00 -0.93866270723E+03  0.93866270724E+03  0.25500000920E-02 0. -1.
    10030    2    1    2    0    0  0.00000000000E+00  0.00000000000E+00  0.30592249729E+03  0.21832479118E+04  0.21617083221E+04 0.  0.
        1    1    3    3  502    0  0.11171062841E+03  0.10450717429E+04  0.40764750563E+03  0.11273112708E+04  0.50400001928E-02 0.  1.
       -1    1    3    3    0  502 -0.11171062841E+03 -0.10450717429E+04 -0.10172500834E+03  0.10559366410E+04  0.50400001928E-02 0. -1.
</event>
<event>
 5   0  0.1680258E-04  0.2217817E+04  0.7818609E-02  0.8511049E-01
       -2   -1    0    0    0  501  0.00000000000E+00  0.00000000000E+00  0.97238397376E+03  0.97238397376E+03  0.25500000920E-02 0. -1.
        2   -1    0    0  501    0  0.00000000000E+00  0.00000000000E+00 -0.12646009441E+04  0.12646009441E+04  0.25500000920E-02 0.  1.
    10030    2    1    2    0    0  0.00000000000E+00  0.00000000000E+00 -0.29221697036E+03  0.22369849179E+04  0.22178166662E+04 0.  0.
        5    1    3    3  502    0  0.97604661684E+03  0.51686839649E+03 -0.46076416652E+02  0.11054252864E+04  0.46999998093E+01 0. -1.
       -5    1    3    3    0  502 -0.97604661684E+03 -0.51686839649E+03 -0.24614055371E+03  0.11315596315E+04  0.46999998093E+01 0.  1.
</event>
<event>
 5   0  0.8784659E-05  0.2205076E+04  0.7818609E-02  0.8516318E-01
       -1   -1    0    0    0  501  0.00000000000E+00  0.00000000000E+00  0.10581611822E+04  0.10581611822E+04  0.50400001928E-02 0. -1.
        1   -1    0    0  501    0  0.00000000000E+00  0.00000000000E+00 -0.11487762717E+04  0.11487762717E+04  0.50400001928E-02 0.  1.
    10030    2    1    2    0    0  0.00000000000E+00  0.00000000000E+00 -0.90615089471E+02  0.22069374539E+04  0.22050763776E+04 0.  0.
        4    1    3    3  502    0 -0.51245417343E+03 -0.72231104542E+03 -0.70255526549E+03  0.11304547935E+04  0.12699999809E+01 0.  1.
       -4    1    3    3    0  502  0.51245417343E+03  0.72231104542E+03  0.61194017602E+03  0.10764826604E+04  0.12699999809E+01 0. -1.
</event>
<event>
 5   0  0.1754356E-04  0.1998909E+04  0.7818609E-02  0.8607131E-01
        2   -1    0    0  501    0  0.00000000000E+00  0.00000000000E+00  0.22890944768E+04  0.22890944768E+04  0.25500000920E-02 0.  1.
       -2   -1    0    0    0  501  0.00000000000E+00  0.00000000000E+00 -0.43637757768E+03  0.43637757769E+03  0.25500000920E-02 0. -1.
    10030    2    1    2    0    0  0.00000000000E+00  0.00000000000E+00  0.18527168992E+04  0.27254720545E+04  0.19989092054E+04 0.  0.
        1    1    3    3  502    0 -0.88597975231E+03  0.26915314104E+03  0.41345449960E+03  0.10140750259E+04  0.50400001928E-02 0. -1.
       -1    1    3    3    0  502  0.88597975231E+03 -0.26915314104E+03  0.14392623996E+04  0.17113970286E+04  0.50400001928E-02 0.  1.
</event>
<event>
 5   0  0.8306787E-05  0.2265264E+04  0.7818609E-02  0.8491744E-01
       -1   -1    0    0    0  501  0.00000000000E+00  0.00000000000E+00  0.89983766569E+03  0.89983766571E+03  0.50400001928E-02 0. -1.
        1   -1    0    0  501    0  0.00000000000E+00  0.00000000000E+00 -0.14256516173E+04  0.14256516173E+04  0.50400001928E-02 0.  1.
    10030    2    1    2    0    0  0.00000000000E+00  0.00000000000E+00 -0.52581395158E+03  0.23254892830E+04  0.22652638022E+04 0.  0.
        1    1    3    3  502    0  0.60053388416E+03 -0.30927831104E+03 -0.11962322210E+04  0.13737778374E+04  0.50400001928E-02 0.  1.
       -1    1    3    3    0  502 -0.60053388416E+03  0.30927831104E+03  0.67041826947E+03  0.95171144564E+03  0.50400001928E-02 0. -1.
</event>
<event>
 5   0  0.1754356E-04  0.2261293E+04  0.7818609E-02  0.8493341E-01
        2   -1    0    0  501    0  0.00000000000E+00  0.00000000000E+00  0.11845871454E+04  0.11845871454E+04  0.25500000920E-02 0.  1.
       -2   -1    0    0    0  501  0.00000000000E+00  0.00000000000E+00 -0.10791617710E+04  0.10791617710E+04  0.25500000920E-02 0. -1.
    10030    2    1    2    0    0  0.00000000000E+00  0.00000000000E+00  0.10542537445E+03  0.22637489164E+04  0.22612926938E+04 0.  0.
        1    1    3    3  502    0 -0.22457098227E+03 -0.20792603036E+03  0.11423322719E+04  0.11826192877E+04  0.50400001928E-02 0.  1.
       -1    1    3    3    0  502  0.22457098227E+03  0.20792603036E+03 -0.10369068974E+04  0.10811296287E+04  0.50400001928E-02 0. -1.
</event>
<event>
 5   0  0.8784659E-05  0.2126669E+04  0.7818609E-02  0.8549586E-01
       -1   -1    0    0    0  501  0.00000000000E+00  0.00000000000E+00  0.59455830613E+03  0.59455830615E+03  0.50400001928E-02 0.  1.
        1   -1    0    0  501    0  0.00000000000E+00  0.00000000000E+00 -0.19017142844E+04  0.19017142844E+04  0.50400001928E-02 0. -1.
    10030    2    1    2    0    0  0.00000000000E+00  0.00000000000E+00 -0.13071559783E+04  0.24962725905E+04  0.21266687788E+04 0.  0.
        4    1    3    3  502    0 -0.47449645991E+03 -0.71885669314E+03  0.78305917469E+02  0.86489031984E+03  0.12699999809E+01 0. -1.
       -4    1    3    3    0  502  0.47449645991E+03  0.71885669314E+03 -0.13854618957E+04  0.16313822707E+04  0.12699999809E+01 0.  1.
</event>
<event>
 5   0  0.1805501E-04  0.2105353E+04  0.7818609E-02  0.8558889E-01
        2   -1    0    0  501    0  0.00000000000E+00  0.00000000000E+00  0.11508119036E+04  0.11508119036E+04  0.25500000920E-02 0.  1.
       -2   -1    0    0    0  501  0.00000000000E+00  0.00000000000E+00 -0.96290998051E+03  0.96290998051E+03  0.25500000920E-02 0. -1.
    10030    2    1    2    0    0  0.00000000000E+00  0.00000000000E+00  0.18790192306E+03  0.21137218841E+04  0.21053534313E+04 0.  0.
        2    1    3    3  502    0 -0.46948821600E+03  0.30680561032E+03  0.98832261128E+03  0.11363672168E+04  0.25500000920E-02 0.  1.
       -2    1    3    3    0  502  0.46948821600E+03 -0.30680561032E+03 -0.80042068822E+03  0.97735466726E+03  0.25500000920E-02 0. -1.
</event>
<event>
 5   0  0.1805501E-04  0.2144498E+04  0.7818609E-02  0.8541891E-01
        2   -1    0    0  501    0  0.00000000000E+00  0.00000000000E+00  0.99684355104E+03  0.99684355104E+03  0.25500000920E-02 0. -1.
       -2   -1    0    0    0  501  0.00000000000E+00  0.00000000000E+00 -0.11533585852E+04  0.11533585852E+04  0.25500000920E-02 0.  1.
    10030    2    1    2    0    0  0.00000000000E+00  0.00000000000E+00 -0.15651503414E+03  0.21502021362E+04  0.21444981396E+04 0.  0.
        2    1    3    3  502    0  0.12131842859E+03  0.72180355539E+03  0.70740789797E+03  0.10179118173E+04  0.25500000920E-02 0. -1.
       -2    1    3    3    0  502 -0.12131842859E+03 -0.72180355539E+03 -0.86392293211E+03  0.11322903189E+04  0.25500000920E-02 0.  1.
</event>
<event>
 5   0  0.8784659E-05  0.2230611E+04  0.7818609E-02  0.8505794E-01
        1   -1    0    0  501    0  0.00000000000E+00  0.00000000000E+00  0.66421722398E+03  0.66421722400E+03  0.50400001928E-02 0.  1.
       -1   -1    0    0    0  501  0.00000000000E+00  0.00000000000E+00 -0.18727398590E+04  0.18727398590E+04  0.50400001928E-02 0. -1.
    10030    2    1    2    0    0  0.00000000000E+00  0.00000000000E+00 -0.12085226350E+04  0.25369570830E+04  0.22306107419E+04 0.  0.
        4    1    3    3  502    0 -0.62431513769E+03  0.69517422744E+03  0.88364905839E+02  0.93853426529E+03  0.12699999809E+01 0.  1.
       -4    1    3    3    0  502  0.62431513769E+03 -0.69517422744E+03 -0.12968875409E+04  0.15984228177E+04  0.12699999809E+01 0. -1.
</event>
<event>
 5   0  0.7954459E-05  0.2351120E+04  0.7818609E-02  0.8458034E-01
       -1   -1    0    0    0  501  0.00000000000E+00  0.00000000000E+00  0.11573788714E+04  0.11573788714E+04  0.50400001928E-02 0.  1.
        1   -1    0    0  501    0  0.00000000000E+00  0.00000000000E+00 -0.11940267910E+04  0.11940267910E+04  0.50400001928E-02 0. -1.
    10030    2    1    2    0    0  0.00000000000E+00  0.00000000000E+00 -0.36647919634E+02  0.23514056624E+04  0.23511200564E+04 0.  0.
        5    1    3    3  502    0 -0.53005821738E+03  0.37689049132E+03  0.96103507460E+03  0.11604389949E+04  0.46999998093E+01 0.  1.
       -5    1    3    3    0  502  0.53005821738E+03 -0.37689049132E+03 -0.99768299423E+03  0.11909666676E+04  0.46999998093E+01 0. -1.
</event>
<event>
 5   0  0.8470971E-05  0.2231661E+04  0.7818609E-02  0.8505364E-01
       -1   -1    0    0    0  501  0.00000000000E+00  0.00000000000E+00  0.94086761813E+03  0.94086761815E+03  0.50400001928E-02 0.  1.
        1   -1    0    0  501    0  0.00000000000E+00  0.00000000000E+00 -0.13233297428E+04  0.13233297429E+04  0.50400001928E-02 0. -1.
    10030    2    1    2    0    0  0.00000000000E+00  0.00000000000E+00 -0.38246212472E+03  0.22641973610E+04  0.22316613571E+04 0.  0.
        2    1    3    3  502    0  0.12885660801E+03 -0.17806575787E+03 -0.13011486370E+04  0.13195829702E+04  0.25500000920E-02 0. -1.
       -2    1    3    3    0  502 -0.12885660801E+03  0.17806575787E+03  0.91868651228E+03  0.94461439085E+03  0.25500000920E-02 0.  1.
</event>
<event>
 5   0  0.1733962E-04  0.2150563E+04  0.7818609E-02  0.8539291E-01
        2   -1    0    0  501    0  0.00000000000E+00  0.00000000000E+00  0.59215823609E+03  0.59215823610E+03  0.25500000920E-02 0.  1.
       -2   -1    0    0    0  501  0.00000000000E+00  0.00000000000E+00 -0.19525698427E+04  0.19525698428E+04  0.25500000920E-02 0. -1.
    10030    2    1    2    0    0  0.00000000000E+00  0.00000000000E+00 -0.13604116067E+04  0.25447280789E+04  0.21505630090E+04 0.  0.
        3    1    3    3  502    0 -0.24317135497E+02 -0.17665390792E+03  0.57454037529E+03  0.60157674432E+03  0.10100000352E+00 0.  1.
       -3    1    3    3    0  502  0.24317135497E+02  0.17665390792E+03 -0.19349519819E+04  0.19431513345E+04  0.10100000352E+00 0. -1.
</event>
<event>
 5   0  0.8470971E-05  0.1865860E+04  0.7818609E-02  0.8672039E-01
       -1   -1    0    0    0  501  0.00000000000E+00  0.00000000000E+00  0.49070218751E+03  0.49070218754E+03  0.50400001928E-02 0.  1.
        1   -1    0    0  501    0  0.00000000000E+00  0.00000000000E+00 -0.17736998883E+04  0.17736998883E+04  0.50400001928E-02 0. -1.
    10030    2    1    2    0    0  0.00000000000E+00  0.00000000000E+00 -0.12829977008E+04  0.22644020758E+04  0.18658600325E+04 0.  0.
        2    1    3    3  502    0 -0.40271657172E+03  0.20082451001E+03  0.35027594641E+03  0.57026691961E+03  0.25500000920E-02 0.  1.
       -2    1    3    3    0  502  0.40271657172E+03 -0.20082451001E+03 -0.16332736472E+04  0.16941351562E+04  0.25500000920E-02 0. -1.
</event>
<event>
 5   0  0.8306787E-05  0.2234036E+04  0.7818609E-02  0.8504394E-01
        1   -1    0    0  501    0  0.00000000000E+00  0.00000000000E+00  0.61459013332E+03  0.61459013334E+03  0.50400001928E-02 0.  1.
       -1   -1    0    0    0  501  0.00000000000E+00  0.00000000000E+00 -0.20301810877E+04  0.20301810878E+04  0.50400001928E-02 0. -1.
    10030    2    1    2    0    0  0.00000000000E+00  0.00000000000E+00 -0.14155909544E+04  0.26447712211E+04  0.22340360475E+04 0.  0.
        1    1    3    3  502    0 -0.10682701290E+04  0.31874352867E+03 -0.79092491786E+03  0.13668799257E+04  0.50400001928E-02 0.  1.
       -1    1    3    3    0  502  0.10682701290E+04 -0.31874352867E+03 -0.62466603657E+03  0.12778912954E+04  0.50400001928E-02 0. -1.
</event>
<event>
 5   0  0.1754356E-04  0.2196279E+04  0.7818609E-02  0.8519978E-01
       -2   -1    0    0    0  501  0.00000000000E+00  0.00000000000E+00  0.10156074358E+04  0.10156074358E+04  0.25500000920E-02 0.  1.
        2   -1    0    0  501    0  0.00000000000E+00  0.00000000000E+00 -0.11873787411E+04  0.11873787411E+04  0.25500000920E-02 0. -1.
    10030    2    1    2    0    0  0.00000000000E+00  0.00000000000E+00 -0.17177130533E+03  0.22029861769E+04  0.21962792887E+04 0.  0.
        1    1    3    3  502    0 -0.24545019849E+03  0.99713826307E+03  0.30437852576E+03  0.10710633980E+04  0.50400001928E-02 0.  1.
       -1    1    3    3    0  502  0.24545019849E+03 -0.99713826307E+03 -0.47614983109E+03  0.11319227789E+04  0.50400001928E-02 0. -1.
</event>
<event>
 5   0  0.6250625E-05  0.2218513E+04  0.7818609E-02  0.8510762E-01
       -3   -1    0    0    0  501  0.00000000000E+00  0.00000000000E+00  0.21218646426E+04  0.21218646450E+04  0.10100000352E+00 0.  1.
        3   -1    0    0  501    0  0.00000000000E+00  0.00000000000E+00 -0.57989106651E+03  0.57989107531E+03  0.10100000352E+00 0. -1.
    10030    2    1    2    0    0  0.00000000000E+00  0.00000000000E+00  0.15419735760E+04  0.27017557203E+04  0.22185133452E+04 0.  0.
        4    1    3    3  502    0 -0.43533573160E+03 -0.10056360397E+04  0.56136661704E+03  0.12312412985E+04  0.12699999809E+01 0. -1.
       -4    1    3    3    0  502  0.43533573160E+03  0.10056360397E+04  0.98060695901E+03  0.14705144217E+04  0.12699999809E+01 0.  1.
</event>
<event>
 5   0  0.7954459E-05  0.1832130E+04  0.7818609E-02  0.8689397E-01
        1   -1    0    0  501    0  0.00000000000E+00  0.00000000000E+00  0.75832684990E+03  0.75832684991E+03  0.50400001928E-02 0. -1.
       -1   -1    0    0    0  501  0.00000000000E+00  0.00000000000E+00 -0.11066145684E+04  0.11066145684E+04  0.50400001928E-02 0.  1.
    10030    2    1    2    0    0  0.00000000000E+00  0.00000000000E+00 -0.34828771849E+03  0.18649414183E+04  0.18321304972E+04 0.  0.
        5    1    3    3  502    0  0.43548575578E+03  0.46659521654E+03  0.49473481328E+03  0.80755406324E+03  0.46999998093E+01 0. -1.
       -5    1    3    3    0  502 -0.43548575578E+03 -0.46659521654E+03 -0.84302253177E+03  0.10573873551E+04  0.46999998093E+01 0.  1.
</event>
<event>
 5   0  0.1805501E-04  0.2168867E+04  0.7818609E-02  0.8531499E-01
        2   -1    0    0  501    0  0.00000000000E+00  0.00000000000E+00  0.11469738400E+04  0.11469738400E+04  0.25500000920E-02 0. -1.
       -2   -1    0    0    0  501  0.00000000000E+00  0.00000000000E+00 -0.10253036973E+04  0.10253036973E+04  0.25500000920E-02 0.  1.
    10030    2    1    2    0    0  0.00000000000E+00  0.00000000000E+00  0.12167014267E+03  0.21722775373E+04  0.21688674638E+04 0.  0.
        2    1    3    3  502    0  0.12140155220E+03  0.48379886201E+03 -0.90358950682E+03  0.10321209583E+04  0.25500000920E-02 0.  1.
       -2    1    3    3    0  502 -0.12140155220E+03 -0.48379886201E+03  0.10252596495E+04  0.11401565790E+04  0.25500000920E-02 0. -1.
</event>
<event>
 5   0  0.1805501E-04  0.2183993E+04  0.7818609E-02  0.8525120E-01
       -2   -1    0    0    0  501  0.00000000000E+00  0.00000000000E+00  0.73245546205E+03  0.73245546205E+03  0.25500000920E-02 0.  1.
        2   -1    0    0  501    0  0.00000000000E+00  0.00000000000E+00 -0.16280250877E+04  0.16280250877E+04  0.25500000920E-02 0. -1.
    10030    2    1    2    0    0  0.00000000000E+00  0.00000000000E+00 -0.89556962569E+03  0.23604805498E+04  0.21839925530E+04 0.  0.
        2    1    3    3  502    0  0.74450747454E+03  0.48025895656E+03 -0.11377409961E+04  0.14420106169E+04  0.25500000920E-02 0. -1.
       -2    1    3    3    0  502 -0.74450747454E+03 -0.48025895656E+03  0.24217137041E+03  0.91846993290E+03  0.25500000920E-02 0.  1.
</event>
<event>
 5   0  0.8602414E-05  0.2233577E+04  0.7818609E-02  0.8504581E-01
        1   -1    0    0  501    0  0.00000000000E+00  0.00000000000E+00  0.15960878497E+04  0.15960878497E+04  0.50400001928E-02 0. -1.
       -1   -1    0    0    0  501  0.00000000000E+00  0.00000000000E+00 -0.78142094777E+03  0.78142094779E+03  0.50400001928E-02 0.  1.
    10030    2    1    2    0    0  0.00000000000E+00  0.00000000000E+00  0.81466690194E+03  0.23775087975E+04  0.22335769342E+04 0.  0.
        3    1    3    3  502    0 -0.79732658012E+03  0.78188491202E+03  0.39461443540E+03  0.11843961558E+04  0.10100000352E+00 0.  1.
       -3    1    3    3    0  502  0.79732658012E+03 -0.78188491202E+03  0.42005246654E+03  0.11931126417E+04  0.10100000352E+00 0. -1.
</event>
<event>
 5   0  0.1680258E-04  0.2316886E+04  0.7818609E-02  0.8471293E-01
        2   -1    0    0  501    0  0.00000000000E+00  0.00000000000E+00  0.12936190821E+04  0.12936190821E+04  0.25500000920E-02 0. -1.
       -2   -1    0    0    0  501  0.00000000000E+00  0.00000000000E+00 -0.10373924158E+04  0.10373924158E+04  0.25500000920E-02 0.  1.
    10030    2    1    2    0    0  0.00000000000E+00  0.00000000000E+00  0.25622666626E+03  0.23310114979E+04  0.23168863802E+04 0.  0.
        5    1    3    3  502    0  0.19458673488E+03 -0.53087426893E+03 -0.88912796686E+03  0.10536897638E+04  0.46999998093E+01 0.  1.
       -5    1    3    3    0  502 -0.19458673488E+03  0.53087426893E+03  0.11453546331E+04  0.12773217341E+04  0.46999998093E+01 0. -1.
</event>
<event>
 5   0  0.8784659E-05  0.2216754E+04  0.7818609E-02  0.8511487E-01
       -1   -1    0    0    0  501  0.00000000000E+00  0.00000000000E+00  0.65154918251E+03  0.65154918253E+03  0.50400001928E-02 0. -1.
        1   -1    0    0  501    0  0.00000000000E+00  0.00000000000E+00 -0.18855046792E+04  0.18855046792E+04  0.50400001928E-02 0.  1.
    10030    2    1    2    0    0  0.00000000000E+00  0.00000000000E+00 -0.12339554967E+04  0.25370538617E+04  0.22167535112E+04 0.  0.
        4    1    3    3  502    0  0.10225876067E+04  0.24811527342E+03 -0.10155018756E+04  0.14623584631E+04  0.12699999809E+01 0.  1.
       -4    1    3    3    0  502 -0.10225876067E+04 -0.24811527342E+03 -0.21845362106E+03  0.10746953986E+04  0.12699999809E+01 0. -1.
</event>
<event>
 5   0  0.1805501E-04  0.2145442E+04  0.7818609E-02  0.8541486E-01
        2   -1    0    0  501    0  0.00000000000E+00  0.00000000000E+00  0.76188914417E+03  0.76188914417E+03  0.25500000920E-02 0. -1.
       -2   -1    0    0    0  501  0.00000000000E+00  0.00000000000E+00 -0.15103644720E+04  0.15103644720E+04  0.25500000920E-02 0.  1.
    10030    2    1    2    0    0  0.00000000000E+00  0.00000000000E+00 -0.74847532781E+03  0.22722536161E+04  0.21454419544E+04 0.  0.
        2    1    3    3  502    0 -0.91293254970E+03  0.31026383319E+03 -0.87215427575E+03  0.13001394414E+04  0.25500000920E-02 0.  1.
       -2    1    3    3    0  502  0.91293254970E+03 -0.31026383319E+03  0.12367894794E+03  0.97211417470E+03  0.25500000920E-02 0. -1.
</event>
<event>
 5   0  0.7954459E-05  0.2072851E+04  0.7818609E-02  0.8573298E-01
        1   -1    0    0  501    0  0.00000000000E+00  0.00000000000E+00  0.15926507663E+04  0.15926507663E+04  0.50400001928E-02 0. -1.
       -1   -1    0    0    0  501  0.00000000000E+00  0.00000000000E+00 -0.67445917349E+03  0.67445917351E+03  0.50400001928E-02 0.  1.
    10030    2    1    2    0    0  0.00000000000E+00  0.00000000000E+00  0.91819159284E+03  0.22671099398E+04  0.20728510989E+04 0.  0.
        5    1    3    3  502    0  0.79178767105E+03 -0.94906634471E+02  0.11831165090E+04  0.14267872123E+04  0.46999998093E+01 0. -1.
       -5    1    3    3    0  502 -0.79178767105E+03  0.94906634471E+02 -0.26492491614E+03  0.84032272758E+03  0.46999998093E+01 0.  1.
</event>
<event>
 5   0  0.6250625E-05  0.2113430E+04  0.7818609E-02  0.8555350E-01
        3   -1    0    0  501    0  0.00000000000E+00  0.00000000000E+00  0.54829997423E+03  0.54829998353E+03  0.10100000352E+00 0. -1.
       -3   -1    0    0    0  501  0.00000000000E+00  0.00000000000E+00 -0.20365610678E+04  0.20365610703E+04  0.10100000352E+00 0.  1.
    10030    2    1    2    0    0  0.00000000000E+00  0.00000000000E+00 -0.14882610936E+04  0.25848610539E+04  0.21134298155E+04 0.  0.
        4    1    3    3  502    0  0.92623462167E+03  0.11079416640E+02 -0.12215508337E+03  0.93432157480E+03  0.12699999809E+01 0. -1.
       -4    1    3    3    0  502 -0.92623462167E+03 -0.11079416640E+02 -0.13661060102E+04  0.16505394791E+04  0.12699999809E+01 0.  1.
</event>
<event>
 5   0  0.8470971E-05  0.2239033E+04  0.7818609E-02  0.8502355E-01
       -1   -1    0    0    0  501  0.00000000000E+00  0.00000000000E+00  0.73402931028E+03  0.73402931029E+03  0.50400001928E-02 0.  1.
        1   -1    0    0  501    0  0.00000000000E+00  0.00000000000E+00 -0.17074483474E+04  0.17074483474E+04  0.50400001928E-02 0. -1.
    10030    2    1    2    0    0  0.00000000000E+00  0.00000000000E+00 -0.97341903710E+03  0.24414776577E+04  0.22390329455E+04 0.  0.
        2    1    3    3  502    0  0.54058771623E+03 -0.71136496255E+02 -0.15528787247E+04  0.16458213188E+04  0.25500000920E-02 0. -1.
       -2    1    3    3    0  502 -0.54058771623E+03  0.71136496255E+02  0.57945968755E+03  0.79565633885E+03  0.25500000920E-02 0.  1.
</event>
<event>
 5   0  0.7954459E-05  0.2158508E+04  0.7818609E-02  0.8535899E-01
        1   -1    0    0  501    0  0.00000000000E+00  0.00000000000E+00  0.10216305817E+04  0.10216305818E+04  0.50400001928E-02 0.  1.
       -1   -1    0    0    0  501  0.00000000000E+00  0.00000000000E+00 -0.11401275036E+04  0.11401275036E+04  0.50400001928E-02 0. -1.
    10030    2    1    2    0    0  0.00000000000E+00  0.00000000000E+00 -0.11849692184E+03  0.21617580854E+04  0.21585079335E+04 0.  0.
        5    1    3    3  502    0 -0.16964189105E+02 -0.76799663137E+03 -0.81845351004E+03  0.11224949210E+04  0.46999998093E+01 0. -1.
       -5    1    3    3    0  502  0.16964189105E+02  0.76799663137E+03  0.69995658819E+03  0.10392631644E+04  0.46999998093E+01 0.  1.
</event>
<event>
 5   0  0.1805501E-04  0.2094209E+04  0.7818609E-02  0.8563799E-01
        2   -1    0    0  501    0  0.00000000000E+00  0.00000000000E+00  0.21289815657E+04  0.21289815657E+04  0.25500000920E-02 0. -1.
       -2   -1    0    0    0  501  0.00000000000E+00  0.00000000000E+00 -0.51500113642E+03  0.51500113643E+03  0.25500000920E-02 0.  1.
    10030    2    1    2    0    0  0.00000000000E+00  0.00000000000E+00  0.16139804292E+04  0.26439827021E+04  0.20942090877E+04 0.  0.
        2    1    3    3  502    0 -0.80641158161E+03  0.57006022402E+03  0.12464483765E+04  0.15902521351E+04  0.25500000920E-02 0. -1.
       -2    1    3    3    0  502  0.80641158161E+03 -0.57006022402E+03  0.36753205270E+03  0.10537305670E+04  0.25500000920E-02 0.  1.
</event>
<event>
 5   0  0.1805501E-04  0.2159488E+04  0.7818609E-02  0.8535482E-01
        2   -1    0    0  501    0  0.00000000000E+00  0.00000000000E+00  0.19887325736E+04  0.19887325736E+04  0.25500000920E-02 0.  1.
       -2   -1    0    0    0  501  0.00000000000E+00  0.00000000000E+00 -0.58622594845E+03  0.58622594845E+03  0.25500000920E-02 0. -1.
    10030    2    1    2    0    0  0.00000000000E+00  0.00000000000E+00  0.14025066251E+04  0.25749585220E+04  0.21594875681E+04 0.  0.
        2    1    3    3  502    0 -0.79069795750E+03  0.56293468962E+03  0.12652791869E+04  0.15946881029E+04  0.25500000920E-02 0.  1.
       -2    1    3    3    0  502  0.79069795750E+03 -0.56293468962E+03  0.13722743822E+03  0.98027041911E+03  0.25500000920E-02 0. -1.
</event>
<event>
 5   0  0.8784659E-05  0.2230217E+04  0.7818609E-02  0.8505955E-01
        1   -1    0    0  501    0  0.00000000000E+00  0.00000000000E+00  0.16346023317E+04  0.16346023317E+04  0.50400001928E-02 0.  1.
       -1   -1    0    0    0  501  0.00000000000E+00  0.00000000000E+00 -0.76071545338E+03  0.76071545340E+03  0.50400001928E-02 0. -1.
    10030    2    1    2    0    0  0.00000000000E+00  0.00000000000E+00  0.87388687835E+03  0.23953177851E+04  0.22302172575E+04 0.  0.
        4    1    3    3  502    0  0.56064466582E+03  0.58188074334E+01  0.14722033106E+04  0.15753540873E+04  0.12699999809E+01 0.  1.
       -4    1    3    3    0  502 -0.56064466582E+03 -0.58188074334E+01 -0.59831643221E+03  0.81996369784E+03  0.12699999809E+01 0. -1.
</event>
<event>
 5   0  0.1798917E-04  0.2213619E+04  0.7818609E-02  0.8512781E-01
       -2   -1    0    0    0  501  0.00000000000E+00  0.00000000000E+00  0.90124595805E+03  0.90124595805E+03  0.25500000920E-02 0. -1.
        2   -1    0    0  501    0  0.00000000000E+00  0.00000000000E+00 -0.13592602389E+04  0.13592602389E+04  0.25500000920E-02 0.  1.
    10030    2    1    2    0    0  0.00000000000E+00  0.00000000000E+00 -0.45801428082E+03  0.22605061969E+04  0.22136194761E+04 0.  0.
        4    1    3    3  502    0  0.99283468894E+02 -0.78676174575E+03  0.55947087736E+03  0.97049499086E+03  0.12699999809E+01 0. -1.
       -4    1    3    3    0  502 -0.99283468894E+02  0.78676174575E+03 -0.10174851582E+04  0.12900112061E+04  0.12699999809E+01 0.  1.
</event>
<event>
 5   0  0.6250625E-05  0.2206845E+04  0.7818609E-02  0.8515584E-01
       -3   -1    0    0    0  501  0.00000000000E+00  0.00000000000E+00  0.89874487119E+03  0.89874487686E+03  0.10100000352E+00 0. -1.
        3   -1    0    0  501    0  0.00000000000E+00  0.00000000000E+00 -0.13547128634E+04  0.13547128671E+04  0.10100000352E+00 0.  1.
    10030    2    1    2    0    0  0.00000000000E+00  0.00000000000E+00 -0.45596799218E+03  0.22534577440E+04  0.22068450317E+04 0.  0.
        5    1    3    3  502    0 -0.92284219370E+03 -0.36801137334E+03 -0.71817469247E+03  0.12259147867E+04  0.46999998093E+01 0.  1.
       -5    1    3    3    0  502  0.92284219370E+03  0.36801137334E+03  0.26220670029E+03  0.10275429573E+04  0.46999998093E+01 0. -1.
</event>
<event>
 5   0  0.6250625E-05  0.2187952E+04  0.7818609E-02  0.8523460E-01
       -3   -1    0    0    0  501  0.00000000000E+00  0.00000000000E+00  0.11083041189E+04  0.11083041235E+04  0.10100000352E+00 0.  1.
        3   -1    0    0  501    0  0.00000000000E+00  0.00000000000E+00 -0.10798330079E+04  0.10798330126E+04  0.10100000352E+00 0. -1.
    10030    2    1    2    0    0  0.00000000000E+00  0.00000000000E+00  0.28471111026E+02  0.21881371361E+04  0.21879519013E+04 0.  0.
        4    1    3    3  502    0  0.16203328477E+03  0.10438527286E+04  0.29868618715E+03  0.10977697189E+04  0.12699999809E+01 0.  1.
       -4    1    3    3    0  502 -0.16203328477E+03 -0.10438527286E+04 -0.27021507613E+03  0.10903674173E+04  0.12699999809E+01 0. -1.
</event>
<event>
 5   0  0.7954459E-05  0.1936144E+04  0.7818609E-02  0.8637071E-01
        1   -1    0    0  501    0  0.00000000000E+00  0.00000000000E+00  0.77904027101E+03  0.77904027102E+03  0.50400001928E-02 0. -1.
       -1   -1    0    0    0  501  0.00000000000E+00  0.00000000000E+00 -0.12029721771E+04  0.12029721771E+04  0.50400001928E-02 0.  1.
    10030    2    1    2    0    0  0.00000000000E+00  0.00000000000E+00 -0.42393190607E+03  0.19820124481E+04  0.19361443860E+04 0.  0.
        5    1    3    3  502    0  0.28838345416E+03  0.74823964995E+03  0.34320476572E+03  0.87226096531E+03  0.46999998093E+01 0. -1.
       -5    1    3    3    0  502 -0.28838345416E+03 -0.74823964995E+03 -0.76713667178E+03  0.11097514828E+04  0.46999998093E+01 0.  1.
</event>
<event>
 5   0  0.1805501E-04  0.2215900E+04  0.7818609E-02  0.8511839E-01
        2   -1    0    0  501    0  0.00000000000E+00  0.00000000000E+00  0.68335367098E+03  0.68335367099E+03  0.25500000920E-02 0. -1.
       -2   -1    0    0    0  501  0.00000000000E+00  0.00000000000E+00 -0.17963666302E+04  0.17963666302E+04  0.25500000920E-02 0.  1.
    10030    2    1    2    0    0  0.00000000000E+00  0.00000000000E+00 -0.11130129592E+04  0.24797203012E+04  0.22159004772E+04 0.  0.
        2    1    3    3  502    0 -0.10879518846E+04 -0.20207418750E+03 -0.61861620084E+03  0.12677378611E+04  0.25500000920E-02 0. -1.
       -2    1    3    3    0  502  0.10879518846E+04  0.20207418750E+03 -0.49439675840E+03  0.12119824401E+04  0.25500000920E-02 0.  1.
</event>
<event>
 5   0  0.8306787E-05  0.2032221E+04  0.7818609E-02  0.8591703E-01
       -1   -1    0    0    0  501  0.00000000000E+00  0.00000000000E+00  0.83376521655E+03  0.83376521657E+03  0.50400001928E-02 0.  1.
        1   -1    0    0  501    0  0.00000000000E+00  0.00000000000E+00 -0.12383347106E+04  0.12383347106E+04  0.50400001928E-02 0. -1.
    10030    2    1    2    0    0  0.00000000000E+00  0.00000000000E+00 -0.40456949406E+03  0.20720999272E+04  0.20322208622E+04 0.  0.
        1    1    3    3  502    0  0.15970669080E+03  0.99787581490E+03 -0.94291085817E+02  0.10149646191E+04  0.50400001928E-02 0.  1.
       -1    1    3    3    0  502 -0.15970669080E+03 -0.99787581490E+03 -0.31027840824E+03  0.10571353081E+04  0.50400001928E-02 0. -1.
</event>
<event>
 5   0  0.1805501E-04  0.2322075E+04  0.7818609E-02  0.8469268E-01
        2   -1    0    0  501    0  0.00000000000E+00  0.00000000000E+00  0.14506689025E+04  0.14506689026E+04  0.25500000920E-02 0. -1.
       -2   -1    0    0    0  501  0.00000000000E+00  0.00000000000E+00 -0.92923211052E+03  0.92923211052E+03  0.25500000920E-02 0.  1.
    10030    2    1    2    0    0  0.00000000000E+00  0.00000000000E+00  0.52143679203E+03  0.23799010131E+04  0.23220750427E+04 0.  0.
        2    1    3    3  502    0  0.64802574612E+03  0.26604070994E+03  0.12096770857E+04  0.13978675469E+04  0.25500000920E-02 0. -1.
       -2    1    3    3    0  502 -0.64802574612E+03 -0.26604070994E+03 -0.68824029363E+03  0.98203346622E+03  0.25500000920E-02 0.  1.
</event>
<event>
 5   0  0.1805501E-04  0.1456831E+04  0.7818609E-02  0.8913679E-01
       -2   -1    0    0    0  501  0.00000000000E+00  0.00000000000E+00  0.49748807562E+03  0.49748807563E+03  0.25500000920E-02 0. -1.
        2   -1    0    0  501    0  0.00000000000E+00  0.00000000000E+00 -0.10665361050E+04  0.10665361050E+04  0.25500000920E-02 0.  1.
    10030    2    1    2    0    0  0.00000000000E+00  0.00000000000E+00 -0.56904802936E+03  0.15640241806E+04  0.14568307993E+04 0.  0.
        2    1    3    3  502    0  0.36639924749E+02  0.30650334909E+03 -0.99284446943E+03  0.10397244479E+04  0.25500000920E-02 0.  1.
       -2    1    3    3    0  502 -0.36639924749E+02 -0.30650334909E+03  0.42379644007E+03  0.52429973270E+03  0.25500000920E-02 0. -1.
</event>
<event>
 5   0  0.8602414E-05  0.2207151E+04  0.7818609E-02  0.8515457E-01
       -1   -1    0    0    0  501  0.00000000000E+00  0.00000000000E+00  0.59253221104E+03  0.59253221106E+03  0.50400001928E-02 0. -1.
        1   -1    0    0  501    0  0.00000000000E+00  0.00000000000E+00 -0.20553808473E+04  0.20553808473E+04  0.50400001928E-02 0.  1.
    10030    2    1    2    0    0  0.00000000000E+00  0.00000000000E+00 -0.14628486362E+04  0.26479130584E+04  0.22071514293E+04 0.  0.
        3    1    3    3  502    0 -0.17067047650E+03  0.30683713497E+03 -0.19865860550E+04  0.20173749287E+04  0.10100000352E+00 0.  1.
       -3    1    3    3    0  502  0.17067047650E+03 -0.30683713497E+03  0.52373741874E+03  0.63053812964E+03  0.10100000352E+00 0. -1.
</event>
<event>
 5   0  0.8306787E-05  0.2184905E+04  0.7818609E-02  0.8524737E-01
       -1   -1    0    0    0  501  0.00000000000E+00  0.00000000000E+00  0.11164556759E+04  0.11164556759E+04  0.50400001928E-02 0.  1.
        1   -1    0    0  501    0  0.00000000000E+00  0.00000000000E+00 -0.10689658476E+04  0.10689658476E+04  0.50400001928E-02 0. -1.
    10030    2    1    2    0    0  0.00000000000E+00  0.00000000000E+00  0.47489828280E+02  0.21854215235E+04  0.21849054789E+04 0.  0.
        1    1    3    3  502    0 -0.91403984493E+02  0.25806769621E+03 -0.10340961772E+04  0.10697235754E+04  0.50400001928E-02 0. -1.
       -1    1    3    3    0  502  0.91403984493E+02 -0.25806769621E+03  0.10815860054E+04  0.11156979481E+04  0.50400001928E-02 0.  1.
</event>
<event>
 5   0  0.8602414E-05  0.2123181E+04  0.7818609E-02  0.8551100E-01
        1   -1    0    0  501    0  0.00000000000E+00  0.00000000000E+00  0.12717299923E+04  0.12717299923E+04  0.50400001928E-02 0.  1.
       -1   -1    0    0    0  501  0.00000000000E+00  0.00000000000E+00 -0.88617454494E+03  0.88617454495E+03  0.50400001928E-02 0. -1.
    10030    2    1    2    0    0  0.00000000000E+00  0.00000000000E+00  0.38555544739E+03  0.21579045373E+04  0.21231813368E+04 0.  0.
        3    1    3    3  502    0 -0.48242786076E+03  0.23211023339E+03 -0.73892761707E+03  0.91248333395E+03  0.10100000352E+00 0. -1.
       -3    1    3    3    0  502  0.48242786076E+03 -0.23211023339E+03  0.11244830645E+04  0.12454212033E+04  0.10100000352E+00 0.  1.
</event>
<event>
 5   0  0.6250625E-05  0.2171876E+04  0.7818609E-02  0.8530226E-01
        3   -1    0    0  501    0  0.00000000000E+00  0.00000000000E+00  0.12605174114E+04  0.12605174154E+04  0.10100000352E+00 0. -1.
       -3   -1    0    0    0  501  0.00000000000E+00  0.00000000000E+00 -0.93553786521E+03  0.93553787066E+03  0.10100000352E+00 0.  1.
    10030    2    1    2    0    0  0.00000000000E+00  0.00000000000E+00  0.32497954615E+03  0.21960552861E+04  0.21718764040E+04 0.  0.
        3    1    3    3  502    0 -0.92060741170E+03 -0.37942429252E+03 -0.27567145905E+03  0.10331870904E+04  0.10100000352E+00 0.  1.
       -3    1    3    3    0  502  0.92060741170E+03  0.37942429252E+03  0.60065100520E+03  0.11628681957E+04  0.10100000352E+00 0. -1.
</event>
<event>
 5   0  0.8784659E-05  0.2118474E+04  0.7818609E-02  0.8553149E-01
       -1   -1    0    0    0  501  0.00000000000E+00  0.00000000000E+00  0.83017618670E+03  0.83017618672E+03  0.50400001928E-02 0. -1.
        1   -1    0    0  501    0  0.00000000000E+00  0.00000000000E+00 -0.13515000038E+04  0.13515000038E+04  0.50400001928E-02 0.  1.
    10030    2    1    2    0    0  0.00000000000E+00  0.00000000000E+00 -0.52132381712E+03  0.21816761906E+04  0.21184740919E+04 0.  0.
        4    1    3    3  502    0  0.47882324368E+03  0.47448468265E+03  0.58076592201E+03  0.88977417462E+03  0.12699999809E+01 0. -1.
       -4    1    3    3    0  502 -0.47882324368E+03 -0.47448468265E+03 -0.11020897391E+04  0.12919020159E+04  0.12699999809E+01 0.  1.
</event>
<event>
 5   0  0.8784659E-05  0.2161859E+04  0.7818609E-02  0.8534473E-01
        1   -1    0    0  501    0  0.00000000000E+00  0.00000000000E+00  0.32683324097E+04  0.32683324097E+04  0.50400001928E-02 0.  1.
       -1   -1    0    0    0  501  0.00000000000E+00  0.00000000000E+00 -0.35749385060E+03  0.35749385063E+03  0.50400001928E-02 0. -1.
    10030    2    1    2    0    0  0.00000000000E+00  0.00000000000E+00  0.29108385591E+04  0.36258262603E+04  0.21618591427E+04 0.  0.
        4    1    3    3  502    0  0.58651517508E+02  0.93716457557E+03  0.23534384928E+04  0.25338492051E+04  0.12699999809E+01 0.  1.
       -4    1    3    3    0  502 -0.58651517508E+02 -0.93716457557E+03  0.55740006630E+03  0.10919770552E+04  0.12699999809E+01 0. -1.
</event>
<event>
 5   0  0.1754356E-04  0.1934723E+04  0.7818609E-02  0.8637763E-01
       -2   -1    0    0    0  501  0.00000000000E+00  0.00000000000E+00  0.50355873321E+03  0.50355873322E+03  0.25500000920E-02 0.  1.
        2   -1    0    0  501    0  0.00000000000E+00  0.00000000000E+00 -0.18583502696E+04  0.18583502696E+04  0.25500000920E-02 0. -1.
    10030    2    1    2    0    0  0.00000000000E+00  0.00000000000E+00 -0.13547915364E+04  0.23619090028E+04  0.19347232439E+04 0.  0.
        1    1    3    3  502    0 -0.32636406255E+03 -0.49930682958E+03 -0.16071030112E+04  0.17142347855E+04  0.50400001928E-02 0. -1.
       -1    1    3    3    0  502  0.32636406255E+03  0.49930682958E+03  0.25231147479E+03  0.64767421728E+03  0.50400001928E-02 0.  1.
</event>
<event>
 5   0  0.1733962E-04  0.2450902E+04  0.7818609E-02  0.8420689E-01
        2   -1    0    0  501    0  0.00000000000E+00  0.00000000000E+00  0.15216163269E+04  0.15216163269E+04  0.25500000920E-02 0.  1.
       -2   -1    0    0    0  501  0.00000000000E+00  0.00000000000E+00 -0.98693086733E+03  0.98693086733E+03  0.25500000920E-02 0. -1.
    10030    2    1    2    0    0  0.00000000000E+00  0.00000000000E+00  0.53468545960E+03  0.25085471943E+04  0.24509019738E+04 0.  0.
        3    1    3    3  502    0 -0.24759236232E+03 -0.31064767524E+03 -0.91920178906E+03  0.10013670133E+04  0.10100000352E+00 0. -1.
       -3    1    3    3    0  502  0.24759236232E+03  0.31064767524E+03  0.14538872487E+04  0.15071801810E+04  0.10100000352E+00 0.  1.
</event>
<event>
 5   0  0.6250625E-05  0.2250582E+04  0.7818609E-02  0.8497665E-01
        3   -1    0    0  501    0  0.00000000000E+00  0.00000000000E+00  0.63041384560E+03  0.63041385369E+03  0.10100000352E+00 0.  1.
       -3   -1    0    0    0  501  0.00000000000E+00  0.00000000000E+00 -0.20086477121E+04  0.20086477146E+04  0.10100000352E+00 0. -1.
    10030    2    1    2    0    0  0.00000000000E+00  0.00000000000E+00 -0.13782338665E+04  0.26390615683E+04  0.22505815628E+04 0.  0.
        4    1    3    3  502    0  0.53134399274E+03  0.74469730156E+03  0.79259905779E+02  0.91825064941E+03  0.12699999809E+01 0. -1.
       -4    1    3    3    0  502 -0.53134399274E+03 -0.74469730156E+03 -0.14574937723E+04  0.17208109189E+04  0.12699999809E+01 0.  1.
</event>
<event>
 5   0  0.1805501E-04  0.2051097E+04  0.7818609E-02  0.8583097E-01
        2   -1    0    0  501    0  0.00000000000E+00  0.00000000000E+00  0.17671034858E+04  0.17671034858E+04  0.25500000920E-02 0.  1.
       -2   -1    0    0    0  501  0.00000000000E+00  0.00000000000E+00 -0.59518291667E+03  0.59518291668E+03  0.25500000920E-02 0. -1.
    10030    2    1    2    0    0  0.00000000000E+00  0.00000000000E+00  0.11719205691E+04  0.23622864024E+04  0.20510970789E+04 0.  0.
        2    1    3    3  502    0  0.60469231497E+03 -0.82158005024E+03  0.46460154950E+03  0.11209376319E+04  0.25500000920E-02 0. -1.
       -2    1    3    3    0  502 -0.60469231497E+03  0.82158005024E+03  0.70731901959E+03  0.12413487706E+04  0.25500000920E-02 0.  1.
</event>
<event>
 5   0  0.1798917E-04  0.2155547E+04  0.7818609E-02  0.8537162E-01
        2   -1    0    0  501    0  0.00000000000E+00  0.00000000000E+00  0.18155638015E+04  0.18155638015E+04  0.25500000920E-02 0.  1.
       -2   -1    0    0    0  501  0.00000000000E+00  0.00000000000E+00 -0.63979864725E+03  0.63979864726E+03  0.25500000920E-02 0. -1.
    10030    2    1    2    0    0  0.00000000000E+00  0.00000000000E+00  0.11757651542E+04  0.24553624487E+04  0.21555465796E+04 0.  0.
        4    1    3    3  502    0 -0.43354871545E+03 -0.86287635174E+03  0.42695335230E+02  0.96661501727E+03  0.12699999809E+01 0. -1.
       -4    1    3    3    0  502  0.43354871545E+03  0.86287635174E+03  0.11330698190E+04  0.14887474314E+04  0.12699999809E+01 0.  1.
</event>
<event>
 5   0  0.8784659E-05  0.2497834E+04  0.7818609E-02  0.8403757E-01
       -1   -1    0    0    0  501  0.00000000000E+00  0.00000000000E+00  0.98875238496E+03  0.98875238498E+03  0.50400001928E-02 0. -1.
        1   -1    0    0  501    0  0.00000000000E+00  0.00000000000E+00 -0.15775375299E+04  0.15775375299E+04  0.50400001928E-02 0.  1.
    10030    2    1    2    0    0  0.00000000000E+00  0.00000000000E+00 -0.58878514489E+03  0.25662899148E+04  0.24978342579E+04 0.  0.
        4    1    3    3  502    0 -0.43327778337E+03  0.11698439952E+04 -0.23336974477E+03  0.12691444603E+04  0.12699999809E+01 0.  1.
       -4    1    3    3    0  502  0.43327778337E+03 -0.11698439952E+04 -0.35541540013E+03  0.12971454545E+04  0.12699999809E+01 0. -1.
</event>
<event>
 5   0  0.1680258E-04  0.2092855E+04  0.7818609E-02  0.8564397E-01
        2   -1    0    0  501    0  0.00000000000E+00  0.00000000000E+00  0.16618367069E+04  0.16618367069E+04  0.25500000920E-02 0. -1.
       -2   -1    0    0    0  501  0.00000000000E+00  0.00000000000E+00 -0.65891607660E+03  0.65891607660E+03  0.25500000920E-02 0.  1.
    10030    2    1    2    0    0  0.00000000000E+00  0.00000000000E+00  0.10029206303E+04  0.23207527835E+04  0.20928553919E+04 0.  0.
        5    1    3    3  502    0  0.86705330905E+03  0.57304881444E+03  0.36645538383E+03  0.11020335851E+04  0.46999998093E+01 0.  1.
       -5    1    3    3    0  502 -0.86705330905E+03 -0.57304881444E+03  0.63646524646E+03  0.12187191983E+04  0.46999998093E+01 0. -1.
</event>
<event>
 5   0  0.1733962E-04  0.2184007E+04  0.7818609E-02  0.8525114E-01
       -2   -1    0    0    0  501  0.00000000000E+00  0.00000000000E+00  0.82654842933E+03  0.82654842934E+03  0.25500000920E-02 0.  1.
        2   -1    0    0  501    0  0.00000000000E+00  0.00000000000E+00 -0.14427126910E+04  0.14427126910E+04  0.25500000920E-02 0. -1.
    10030    2    1    2    0    0  0.00000000000E+00  0.00000000000E+00 -0.61616426164E+03  0.22692611203E+04  0.21840072424E+04 0.  0.
        3    1    3    3  502    0  0.56494628735E+03 -0.58249364742E+02 -0.12771823876E+04  0.13977668466E+04  0.10100000352E+00 0. -1.
       -3    1    3    3    0  502 -0.56494628735E+03  0.58249364742E+02  0.66101812595E+03  0.87149427372E+03  0.10100000352E+00 0.  1.
</event>
<event>
 5   0  0.8784659E-05  0.2273974E+04  0.7818609E-02  0.8488254E-01
        1   -1    0    0  501    0  0.00000000000E+00  0.00000000000E+00  0.15942650727E+04  0.15942650727E+04  0.50400001928E-02 0.  1.
       -1   -1    0    0    0  501  0.00000000000E+00  0.00000000000E+00 -0.81086828097E+03  0.81086828098E+03  0.50400001928E-02 0. -1.
    10030    2    1    2    0    0  0.00000000000E+00  0.00000000000E+00  0.78339679175E+03  0.24051333537E+04  0.22739735961E+04 0.  0.
        4    1    3    3  502    0 -0.51355113049E+03  0.98887108633E+02 -0.67609824885E+03  0.85476539406E+03  0.12699999809E+01 0. -1.
       -4    1    3    3    0  502  0.51355113049E+03 -0.98887108633E+02  0.14594950406E+04  0.15503679597E+04  0.12699999809E+01 0.  1.
</event>
<event>
 5   0  0.8602414E-05  0.2162044E+04  0.7818609E-02  0.8534394E-01
       -1   -1    0    0    0  501  0.00000000000E+00  0.00000000000E+00  0.64991733930E+03  0.64991733932E+03  0.50400001928E-02 0.  1.
        1   -1    0    0  501    0  0.00000000000E+00  0.00000000000E+00 -0.17980878921E+04  0.17980878921E+04  0.50400001928E-02 0. -1.
    10030    2    1    2    0    0  0.00000000000E+00  0.00000000000E+00 -0.11481705528E+04  0.24480052314E+04  0.21620439391E+04 0.  0.
        3    1    3    3  502    0 -0.65204565822E+03 -0.80307262578E+03 -0.21869258102E+03  0.10573152973E+04  0.10100000352E+00 0. -1.
       -3    1    3    3    0  502  0.65204565822E+03  0.80307262578E+03 -0.92947797178E+03  0.13906899341E+04  0.10100000352E+00 0.  1.
</event>
<event>
 5   0  0.1798917E-04  0.2133376E+04  0.7818609E-02  0.8546682E-01
        2   -1    0    0  501    0  0.00000000000E+00  0.00000000000E+00  0.11305466248E+04  0.11305466248E+04  0.25500000920E-02 0. -1.
       -2   -1    0    0    0  501  0.00000000000E+00  0.00000000000E+00 -0.10064362161E+04  0.10064362161E+04  0.25500000920E-02 0.  1.
    10030    2    1    2    0    0  0.00000000000E+00  0.00000000000E+00  0.12411040869E+03  0.21369828410E+04  0.21333757918E+04 0.  0.
        4    1    3    3  502    0 -0.89873344032E+03 -0.54082918851E+03 -0.13218874432E+03  0.10572102369E+04  0.12699999809E+01 0.  1.
       -4    1    3    3    0  502  0.89873344032E+03  0.54082918851E+03  0.25629915301E+03  0.10797726041E+04  0.12699999809E+01 0. -1.
</event>
<event>
 5   0  0.1733962E-04  0.2068180E+04  0.7818609E-02  0.8575391E-01
       -2   -1    0    0    0  501  0.00000000000E+00  0.00000000000E+00  0.83683426572E+03  0.83683426572E+03  0.25500000920E-02 0. -1.
        2   -1    0    0  501    0  0.00000000000E+00  0.00000000000E+00 -0.12778422551E+04  0.12778422551E+04  0.25500000920E-02 0.  1.
    10030    2    1    2    0    0  0.00000000000E+00  0.00000000000E+00 -0.44100798937E+03  0.21146765208E+04  0.20681800553E+04 0.  0.
        3    1    3    3  502    0 -0.62414969053E+03 -0.68048660770E+03  0.25549101981E+03  0.95807125563E+03  0.10100000352E+00 0.  1.
       -3    1    3    3    0  502  0.62414969053E+03  0.68048660770E+03 -0.69649900918E+03  0.11566052652E+04  0.10100000352E+00 0. -1.
</event>
<event>
 5   0  0.1805501E-04  0.1976207E+04  0.7818609E-02  0.8617826E-01
       -2   -1    0    0    0  501  0.00000000000E+00  0.00000000000E+00  0.75583785466E+03  0.75583785466E+03  0.25500000920E-02 0.  1.
        2   -1    0    0  501    0  0.00000000000E+00  0.00000000000E+00 -0.12917435918E+04  0.12917435918E+04  0.25500000920E-02 0. -1.
    10030    2    1    2    0    0  0.00000000000E+00  0.00000000000E+00 -0.53590573711E+03  0.20475814464E+04  0.19762071806E+04 0.  0.
        2    1    3    3  502    0 -0.58684077538E+03 -0.52732591266E+03  0.34842254532E+03  0.86246912056E+03  0.25500000920E-02 0.  1.
       -2    1    3    3    0  502  0.58684077538E+03  0.52732591266E+03 -0.88432828243E+03  0.11851123259E+04  0.25500000920E-02 0. -1.
</event>
<event>
 5   0  0.1805501E-04  0.2178998E+04  0.7818609E-02  0.8527221E-01
        2   -1    0    0  501    0  0.00000000000E+00  0.00000000000E+00  0.20573549149E+04  0.20573549149E+04  0.25500000920E-02 0. -1.
       -2   -1    0    0    0  501  0.00000000000E+00  0.00000000000E+00 -0.57695808195E+03  0.57695808195E+03  0.25500000920E-02 0.  1.
    10030    2    1    2    0    0  0.00000000000E+00  0.00000000000E+00  0.14803968330E+04  0.26343129969E+04  0.21789975178E+04 0.  0.
        2    1    3    3  502    0  0.24911386617E+03  0.15221119185E+03  0.20091889806E+04  0.20302872519E+04  0.25500000920E-02 0. -1.
       -2    1    3    3    0  502 -0.24911386617E+03 -0.15221119185E+03 -0.52879214763E+03  0.60402574502E+03  0.25500000920E-02 0.  1.
</event>
<event>
 5   0  0.1798917E-04  0.2080933E+04  0.7818609E-02  0.8569689E-01
        2   -1    0    0  501    0  0.00000000000E+00  0.00000000000E+00  0.71111979648E+03  0.71111979648E+03  0.25500000920E-02 0.  1.
       -2   -1    0    0    0  501  0.00000000000E+00  0.00000000000E+00 -0.15223459329E+04  0.15223459329E+04  0.25500000920E-02 0. -1.
    10030    2    1    2    0    0  0.00000000000E+00  0.00000000000E+00 -0.81122613647E+03  0.22334657294E+04  0.20809328005E+04 0.  0.
        4    1    3    3  502    0  0.97704021152E+03  0.11797897764E+03 -0.76806786026E+03  0.12483815382E+04  0.12699999809E+01 0. -1.
       -4    1    3    3    0  502 -0.97704021152E+03 -0.11797897764E+03 -0.43158276214E+02  0.98508419122E+03  0.12699999809E+01 0.  1.
</event>
<event>
 5   0  0.1680258E-04  0.2164670E+04  0.7818609E-02  0.8533279E-01
       -2   -1    0    0    0  501  0.00000000000E+00  0.00000000000E+00  0.50466461702E+03  0.50466461703E+03  0.25500000920E-02 0. -1.
        2   -1    0    0  501    0  0.00000000000E+00  0.00000000000E+00 -0.23212435911E+04  0.23212435911E+04  0.25500000920E-02 0.  1.
    10030    2    1    2    0    0  0.00000000000E+00  0.00000000000E+00 -0.18165789741E+04  0.28259082081E+04  0.21646704210E+04 0.  0.
        5    1    3    3  502    0  0.39674787960E+03 -0.82663614711E+03 -0.16590088181E+04  0.18955391181E+04  0.46999998093E+01 0.  1.
       -5    1    3    3    0  502 -0.39674787960E+03  0.82663614711E+03 -0.15757015599E+03  0.93036909005E+03  0.46999998093E+01 0. -1.
</event>
<event>
 5   0  0.1680258E-04  0.2202786E+04  0.7818609E-02  0.8517269E-01
        2   -1    0    0  501    0  0.00000000000E+00  0.00000000000E+00  0.17145496208E+04  0.17145496208E+04  0.25500000920E-02 0. -1.
       -2   -1    0    0    0  501  0.00000000000E+00  0.00000000000E+00 -0.70751330879E+03  0.70751330879E+03  0.25500000920E-02 0.  1.
    10030    2    1    2    0    0  0.00000000000E+00  0.00000000000E+00  0.10070363120E+04  0.24220629296E+04  0.22027861224E+04 0.  0.
        5    1    3    3  502    0  0.10166051426E+04 -0.10742640567E+03  0.95422190739E+03  0.13984233934E+04  0.46999998093E+01 0. -1.
       -5    1    3    3    0  502 -0.10166051426E+04  0.10742640567E+03  0.52814404595E+02  0.10236395362E+04  0.46999998093E+01 0.  1.
</event>
<event>
 5   0  0.1733962E-04  0.2213412E+04  0.7818609E-02  0.8512866E-01
       -2   -1    0    0    0  501  0.00000000000E+00  0.00000000000E+00  0.78166269876E+03  0.78166269876E+03  0.25500000920E-02 0. -1.
        2   -1    0    0  501    0  0.00000000000E+00  0.00000000000E+00 -0.15669144601E+04  0.15669144601E+04  0.25500000920E-02 0.  1.
    10030    2    1    2    0    0  0.00000000000E+00  0.00000000000E+00 -0.78525176134E+03  0.23485771589E+04  0.22134123751E+04 0.  0.
        3    1    3    3  502    0 -0.67765385449E+03  0.60819121540E+03 -0.10600755784E+04  0.13974518035E+04  0.10100000352E+00 0.  1.
       -3    1    3    3    0  502  0.67765385449E+03 -0.60819121540E+03  0.27482381705E+03  0.95112535536E+03  0.10100000352E+00 0. -1.
</event>
<event>
 5   0  0.8306787E-05  0.2151209E+04  0.7818609E-02  0.8539015E-01
       -1   -1    0    0    0  501  0.00000000000E+00  0.00000000000E+00  0.95101836967E+03  0.95101836969E+03  0.50400001928E-02 0. -1.
        1   -1    0    0  501    0  0.00000000000E+00  0.00000000000E+00 -0.12165118555E+04  0.12165118555E+04  0.50400001928E-02 0.  1.
    10030    2    1    2    0    0  0.00000000000E+00  0.00000000000E+00 -0.26549348578E+03  0.21675302251E+04  0.21512090754E+04 0.  0.
        1    1    3    3  502    0  0.53629497861E+03 -0.32817884469E+03  0.74657796591E+03  0.97605958701E+03  0.50400001928E-02 0. -1.
       -1    1    3    3    0  502 -0.53629497861E+03  0.32817884469E+03 -0.10120714517E+04  0.11914706381E+04  0.50400001928E-02 0.  1.
</event>
<event>
 5   0  0.8306787E-05  0.2205173E+04  0.7818609E-02  0.8516278E-01
       -1   -1    0    0    0  501  0.00000000000E+00  0.00000000000E+00  0.96669265685E+03  0.96669265686E+03  0.50400001928E-02 0.  1.
        1   -1    0    0  501    0  0.00000000000E+00  0.00000000000E+00 -0.12575841245E+04  0.12575841245E+04  0.50400001928E-02 0. -1.
    10030    2    1    2    0    0  0.00000000000E+00  0.00000000000E+00 -0.29089146766E+03  0.22242767814E+04  0.22051733162E+04 0.  0.
        1    1    3    3  502    0  0.28103116642E+03  0.39929030250E+03 -0.11425876101E+04  0.12425448519E+04  0.50400001928E-02 0. -1.
       -1    1    3    3    0  502 -0.28103116642E+03 -0.39929030250E+03  0.85169614248E+03  0.98173192946E+03  0.50400001928E-02 0.  1.
</event>
<event>
 5   0  0.1805501E-04  0.1974591E+04  0.7818609E-02  0.8618593E-01
        2   -1    0    0  501    0  0.00000000000E+00  0.00000000000E+00  0.20945698048E+04  0.20945698048E+04  0.25500000920E-02 0. -1.
       -2   -1    0    0    0  501  0.00000000000E+00  0.00000000000E+00 -0.46537098074E+03  0.46537098075E+03  0.25500000920E-02 0.  1.
    10030    2    1    2    0    0  0.00000000000E+00  0.00000000000E+00  0.16291988241E+04  0.25599407856E+04  0.19745905949E+04 0.  0.
        2    1    3    3  502    0 -0.66334194656E+03  0.31722655597E+03  0.16687729972E+04  0.18235839828E+04  0.25500000920E-02 0. -1.
       -2    1    3    3    0  502  0.66334194656E+03 -0.31722655597E+03 -0.39574173136E+02  0.73635680282E+03  0.25500000920E-02 0.  1.
</event>
<event>
 5   0  0.1798917E-04  0.2373694E+04  0.7818609E-02  0.8449418E-01
       -2   -1    0    0    0  501  0.00000000000E+00  0.00000000000E+00  0.62268318331E+03  0.62268318331E+03  0.25500000920E-02 0.  1.
        2   -1    0    0  501    0  0.00000000000E+00  0.00000000000E+00 -0.22621539731E+04  0.22621539731E+04  0.25500000920E-02 0. -1.
    10030    2    1    2    0    0  0.00000000000E+00  0.00000000000E+00 -0.16394707898E+04  0.28848371565E+04  0.23736935246E+04 0.  0.
        4    1    3    3  502    0  0.67705041750E+03 -0.97441916060E+03 -0.78726847645E+03  0.14239674278E+04  0.12699999809E+01 0. -1.
       -4    1    3    3    0  502 -0.67705041750E+03  0.97441916060E+03 -0.85220231338E+03  0.14608697287E+04  0.12699999809E+01 0.  1.
</event>
<event>
 5   0  0.7954459E-05  0.2140198E+04  0.7818609E-02  0.8543740E-01
       -1   -1    0    0    0  501  0.00000000000E+00  0.00000000000E+00  0.68681190117E+03  0.68681190119E+03  0.50400001928E-02 0. -1.
        1   -1    0    0  501    0  0.00000000000E+00  0.00000000000E+00 -0.16672854516E+04  0.16672854517E+04  0.50400001928E-02 0.  1.
    10030    2    1    2    0    0  0.00000000000E+00  0.00000000000E+00 -0.98047355048E+03  0.23540973528E+04  0.21401976459E+04 0.  0.
        5    1    3    3  502    0  0.32042919172E+02  0.63433248219E+03  0.45704737637E+03  0.78250804525E+03  0.46999998093E+01 0. -1.
       -5    1    3    3    0  502 -0.32042919172E+02 -0.63433248219E+03 -0.14375209268E+04  0.15715893076E+04  0.46999998093E+01 0.  1.
</event>
<event>
 5   0  0.1754356E-04  0.1955928E+04  0.7818609E-02  0.8627508E-01
        2   -1    0    0  501    0  0.00000000000E+00  0.00000000000E+00  0.75352501343E+03  0.75352501343E+03  0.25500000920E-02 0.  1.
       -2   -1    0    0    0  501  0.00000000000E+00  0.00000000000E+00 -0.12692521326E+04  0.12692521326E+04  0.25500000920E-02 0. -1.
    10030    2    1    2    0    0  0.00000000000E+00  0.00000000000E+00 -0.51572711914E+03  0.20227771460E+04  0.19559276369E+04 0.  0.
        1    1    3    3  502    0 -0.27762507612E+03 -0.89738598581E+03  0.23531554069E+02  0.93964409458E+03  0.50400001928E-02 0.  1.
       -1    1    3    3    0  502  0.27762507612E+03  0.89738598581E+03 -0.53925867321E+03  0.10831330514E+04  0.50400001928E-02 0. -1.
</event>
<event>
 5   0  0.7954459E-05  0.2232200E+04  0.7818609E-02  0.8505144E-01
       -1   -1    0    0    0  501  0.00000000000E+00  0.00000000000E+00  0.71181382716E+03  0.71181382718E+03  0.50400001928E-02 0. -1.
        1   -1    0    0  501    0  0.00000000000E+00  0.00000000000E+00 -0.17500076046E+04  0.17500076046E+04  0.50400001928E-02 0.  1.
    10030    2    1    2    0    0  0.00000000000E+00  0.00000000000E+00 -0.10381937774E+04  0.24618214318E+04  0.22322003589E+04 0.  0.
        5    1    3    3  502    0 -0.33938532717E+03 -0.64513637315E+03  0.41298882243E+03  0.83783363367E+03  0.46999998093E+01 0. -1.
       -5    1    3    3    0  502  0.33938532717E+03  0.64513637315E+03 -0.14511825998E+04  0.16239877981E+04  0.46999998093E+01 0.  1.
</event>
<event>
 5   0  0.8784659E-05  0.2202792E+04  0.7818609E-02  0.8517267E-01
       -1   -1    0    0    0  501  0.00000000000E+00  0.00000000000E+00  0.50043831147E+03  0.50043831150E+03  0.50400001928E-02 0.  1.
        1   -1    0    0  501    0  0.00000000000E+00  0.00000000000E+00 -0.24240207760E+04  0.24240207760E+04  0.50400001928E-02 0. -1.
    10030    2    1    2    0    0  0.00000000000E+00  0.00000000000E+00 -0.19235824645E+04  0.29244590875E+04  0.22027917416E+04 0.  0.
        4    1    3    3  502    0 -0.47256317210E+03 -0.98991593766E+03 -0.83021839533E+03  0.13756866330E+04  0.12699999809E+01 0. -1.
       -4    1    3    3    0  502  0.47256317210E+03  0.98991593766E+03 -0.10933640692E+04  0.15487724545E+04  0.12699999809E+01 0.  1.
</event>
<event>
 5   0  0.8306787E-05  0.2056882E+04  0.7818609E-02  0.8580479E-01
       -1   -1    0    0    0  501  0.00000000000E+00  0.00000000000E+00  0.20246012806E+04  0.20246012807E+04  0.50400001928E-02 0. -1.
        1   -1    0    0  501    0  0.00000000000E+00  0.00000000000E+00 -0.52241954702E+03  0.52241954705E+03  0.50400001928E-02 0.  1.
    10030    2    1    2    0    0  0.00000000000E+00  0.00000000000E+00  0.15021817336E+04  0.25470208277E+04  0.20568823826E+04 0.  0.
        1    1    3    3  502    0  0.31210642872E+02  0.90768695359E+03  0.13485863800E+04  0.16259012683E+04  0.50400001928E-02 0. -1.
       -1    1    3    3    0  502 -0.31210642872E+02 -0.90768695359E+03  0.15359535358E+03  0.92111955935E+03  0.50400001928E-02 0.  1.
</event>
<event>
 5   0  0.8306787E-05  0.1265982E+04  0.7818609E-02  0.9056985E-01
       -1   -1    0    0    0  501  0.00000000000E+00  0.00000000000E+00  0.68123740593E+03  0.68123740595E+03  0.50400001928E-02 0. -1.
        1   -1    0    0  501    0  0.00000000000E+00  0.00000000000E+00 -0.58816171413E+03  0.58816171415E+03  0.50400001928E-02 0.  1.
    10030    2    1    2    0    0  0.00000000000E+00  0.00000000000E+00  0.93075691802E+02  0.12693991201E+04  0.12659822438E+04 0.  0.
        1    1    3    3  502    0  0.55022778581E+03 -0.18923407297E+03 -0.20336888101E+03  0.61637573965E+03  0.50400001928E-02 0.  1.
       -1    1    3    3    0  502 -0.55022778581E+03  0.18923407297E+03  0.29644457281E+03  0.65302338045E+03  0.50400001928E-02 0. -1.
</event>
<event>
 5   0  0.8306787E-05  0.2272163E+04  0.7818609E-02  0.8488978E-01
       -1   -1    0    0    0  501  0.00000000000E+00  0.00000000000E+00  0.97204698743E+03  0.97204698744E+03  0.50400001928E-02 0. -1.
        1   -1    0    0  501    0  0.00000000000E+00  0.00000000000E+00 -0.13277971811E+04  0.13277971811E+04  0.50400001928E-02 0.  1.
    10030    2    1    2    0    0  0.00000000000E+00  0.00000000000E+00 -0.35575019365E+03  0.22998441685E+04  0.22721630662E+04 0.  0.
        1    1    3    3  502    0  0.78040248803E+03  0.46370477061E+03 -0.86930116722E+03  0.12568749647E+04  0.50400001928E-02 0.  1.
       -1    1    3    3    0  502 -0.78040248803E+03 -0.46370477061E+03  0.51355097357E+03  0.10429692038E+04  0.50400001928E-02 0. -1.
</event>
<event>
 5   0  0.8470971E-05  0.2259187E+04  0.7818609E-02  0.8494189E-01
        1   -1    0    0  501    0  0.00000000000E+00  0.00000000000E+00  0.17775719347E+04  0.17775719347E+04  0.50400001928E-02 0.  1.
       -1   -1    0    0    0  501  0.00000000000E+00  0.00000000000E+00 -0.71782244908E+03  0.71782244909E+03  0.50400001928E-02 0. -1.
    10030    2    1    2    0    0  0.00000000000E+00  0.00000000000E+00  0.10597494856E+04  0.24953943838E+04  0.22591866143E+04 0.  0.
        2    1    3    3  502    0  0.91452416317E+03 -0.13570234305E+03 -0.18698993345E+03  0.94325755027E+03  0.25500000920E-02 0. -1.
       -2    1    3    3    0  502 -0.91452416317E+03  0.13570234305E+03  0.12467394191E+04  0.15521368335E+04  0.25500000920E-02 0.  1.
</event>
<event>
 5   0  0.7954459E-05  0.2101074E+04  0.7818609E-02  0.8560770E-01
       -1   -1    0    0    0  501  0.00000000000E+00  0.00000000000E+00  0.28798476393E+04  0.28798476393E+04  0.50400001928E-02 0. -1.
        1   -1    0    0  501    0  0.00000000000E+00  0.00000000000E+00 -0.38322445211E+03  0.38322445214E+03  0.50400001928E-02 0.  1.
    10030    2    1    2    0    0  0.00000000000E+00  0.00000000000E+00  0.24966231872E+04  0.32630720914E+04  0.21010740432E+04 0.  0.
        5    1    3    3  502    0  0.81373223745E+03 -0.97047641057E+02  0.22691124597E+04  0.24125654072E+04  0.46999998093E+01 0. -1.
       -5    1    3    3    0  502 -0.81373223745E+03  0.97047641057E+02  0.22751072745E+03  0.85050668428E+03  0.46999998093E+01 0.  1.
</event>
<event>
 5   0  0.1733962E-04  0.2247228E+04  0.7818609E-02  0.8499024E-01
        2   -1    0    0  501    0  0.00000000000E+00  0.00000000000E+00  0.20612394765E+04  0.20612394765E+04  0.25500000920E-02 0. -1.
       -2   -1    0    0    0  501  0.00000000000E+00  0.00000000000E+00 -0.61249988811E+03  0.61249988812E+03  0.25500000920E-02 0.  1.
    10030    2    1    2    0    0  0.00000000000E+00  0.00000000000E+00  0.14487395884E+04  0.26737393646E+04  0.22472284697E+04 0.  0.
        3    1    3    3  502    0 -0.39193408805E+03  0.67585898054E+03  0.16851691149E+04  0.18574694202E+04  0.10100000352E+00 0. -1.
       -3    1    3    3    0  502  0.39193408805E+03 -0.67585898054E+03 -0.23642952652E+03  0.81626994442E+03  0.10100000352E+00 0.  1.
</event>
<event>
 5   0  0.8602414E-05  0.2163997E+04  0.7818609E-02  0.8533564E-01
        1   -1    0    0  501    0  0.00000000000E+00  0.00000000000E+00  0.14780360217E+04  0.14780360217E+04  0.50400001928E-02 0. -1.
       -1   -1    0    0    0  501  0.00000000000E+00  0.00000000000E+00 -0.79207899570E+03  0.79207899572E+03  0.50400001928E-02 0.  1.
    10030    2    1    2    0    0  0.00000000000E+00  0.00000000000E+00  0.68595702595E+03  0.22701150174E+04  0.21639974932E+04 0.  0.
        3    1    3    3  502    0  0.37722702085E+03  0.67950499725E+03 -0.44672745438E+03  0.89643331890E+03  0.10100000352E+00 0.  1.
       -3    1    3    3    0  502 -0.37722702085E+03 -0.67950499725E+03  0.11326844803E+04  0.13736816985E+04  0.10100000352E+00 0. -1.
</event>
<event>
 5   0  0.8470971E-05  0.2366617E+04  0.7818609E-02  0.8452108E-01
        1   -1    0    0  501    0  0.00000000000E+00  0.00000000000E+00  0.13021798125E+04  0.13021798126E+04  0.50400001928E-02 0. -1.
       -1   -1    0    0    0  501  0.00000000000E+00  0.00000000000E+00 -0.10752884634E+04  0.10752884634E+04  0.50400001928E-02 0.  1.
    10030    2    1    2    0    0  0.00000000000E+00  0.00000000000E+00  0.22689134918E+03  0.23774682759E+04  0.23666169354E+04 0.  0.
        2    1    3    3  502    0  0.10918280650E+04  0.26192216576E+03  0.48869176772E+03  0.12245453802E+04  0.25500000920E-02 0. -1.
       -2    1    3    3    0  502 -0.10918280650E+04 -0.26192216576E+03 -0.26180041854E+03  0.11529228957E+04  0.25500000920E-02 0.  1.
</event>
<event>
 5   0  0.1680258E-04  0.2189639E+04  0.7818609E-02  0.8522753E-01
        2   -1    0    0  501    0  0.00000000000E+00  0.00000000000E+00  0.10177531680E+04  0.10177531680E+04  0.25500000920E-02 0. -1.
       -2   -1    0    0    0  501  0.00000000000E+00  0.00000000000E+00 -0.11777214104E+04  0.11777214104E+04  0.25500000920E-02 0.  1.
    10030    2    1    2    0    0  0.00000000000E+00  0.00000000000E+00 -0.15996824235E+03  0.21954745784E+04  0.21896389624E+04 0.  0.
        5    1    3    3  502    0 -0.93364612103E+03  0.23492360895E+03 -0.60264433349E+03  0.11358197322E+04  0.46999998093E+01 0.  1.
       -5    1    3    3    0  502  0.93364612103E+03 -0.23492360895E+03  0.44267609114E+03  0.10596548462E+04  0.46999998093E+01 0. -1.
</event>
<event>
 5   0  0.1733962E-04  0.2018120E+04  0.7818609E-02  0.8598196E-01
       -2   -1    0    0    0  501  0.00000000000E+00  0.00000000000E+00  0.95218701887E+03  0.95218701887E+03  0.25500000920E-02 0. -1.
        2   -1    0    0  501    0  0.00000000000E+00  0.00000000000E+00 -0.10693294235E+04  0.10693294235E+04  0.25500000920E-02 0.  1.
    10030    2    1    2    0    0  0.00000000000E+00  0.00000000000E+00 -0.11714240463E+03  0.20215164424E+04  0.20181195167E+04 0.  0.
        3    1    3    3  502    0 -0.78048440162E+03 -0.26041167168E+03 -0.64370464285E+03  0.10446654093E+04  0.10100000352E+00 0.  1.
       -3    1    3    3    0  502  0.78048440162E+03  0.26041167168E+03  0.52656223822E+03  0.97685103309E+03  0.10100000352E+00 0. -1.
</event>
<event>
 5   0  0.8306787E-05  0.2014395E+04  0.7818609E-02  0.8599920E-01
        1   -1    0    0  501    0  0.00000000000E+00  0.00000000000E+00  0.12545196659E+04  0.12545196659E+04  0.50400001928E-02 0.  1.
       -1   -1    0    0    0  501  0.00000000000E+00  0.00000000000E+00 -0.80863350643E+03  0.80863350645E+03  0.50400001928E-02 0. -1.
    10030    2    1    2    0    0  0.00000000000E+00  0.00000000000E+00  0.44588615947E+03  0.20631531724E+04  0.20143948335E+04 0.  0.
        1    1    3    3  502    0 -0.70950472328E+02  0.98315252120E+03  0.10995038387E+02  0.98577063274E+03  0.50400001928E-02 0.  1.
       -1    1    3    3    0  502  0.70950472328E+02 -0.98315252120E+03  0.43489112108E+03  0.10773825396E+04  0.50400001928E-02 0. -1.
</event>
<event>
 5   0  0.1798917E-04  0.2197344E+04  0.7818609E-02  0.8519535E-01
       -2   -1    0    0    0  501  0.00000000000E+00  0.00000000000E+00  0.60888218034E+03  0.60888218034E+03  0.25500000920E-02 0. -1.
        2   -1    0    0  501    0  0.00000000000E+00  0.00000000000E+00 -0.19824519006E+04  0.19824519006E+04  0.25500000920E-02 0.  1.
    10030    2    1    2    0    0  0.00000000000E+00  0.00000000000E+00 -0.13735697203E+04  0.25913340809E+04  0.21973435195E+04 0.  0.
        4    1    3    3  502    0 -0.19930330580E+03  0.94526055830E+03 -0.69660264746E+02  0.96855226817E+03  0.12699999809E+01 0. -1.
       -4    1    3    3    0  502  0.19930330580E+03 -0.94526055830E+03 -0.13039094555E+04  0.16227818128E+04  0.12699999809E+01 0.  1.
</event>
<event>
 5   0  0.1754356E-04  0.1888665E+04  0.7818609E-02  0.8660519E-01
       -2   -1    0    0    0  501  0.00000000000E+00  0.00000000000E+00  0.16147378757E+04  0.16147378757E+04  0.25500000920E-02 0. -1.
        2   -1    0    0  501    0  0.00000000000E+00  0.00000000000E+00 -0.55226512728E+03  0.55226512728E+03  0.25500000920E-02 0.  1.
    10030    2    1    2    0    0  0.00000000000E+00  0.00000000000E+00  0.10624727485E+04  0.21670030030E+04  0.18886645213E+04 0.  0.
        1    1    3    3  502    0 -0.83102208256E+03 -0.38672621191E+03  0.27058168912E+03  0.95570357077E+03  0.50400001928E-02 0.  1.
       -1    1    3    3    0  502  0.83102208256E+03  0.38672621191E+03  0.79189105934E+03  0.12112994322E+04  0.50400001928E-02 0. -1.
</event>
<event>
 5   0  0.1733962E-04  0.1820205E+04  0.7818609E-02  0.8695628E-01
        2   -1    0    0  501    0  0.00000000000E+00  0.00000000000E+00  0.18373422047E+04  0.18373422047E+04  0.25500000920E-02 0.  1.
       -2   -1    0    0    0  501  0.00000000000E+00  0.00000000000E+00 -0.45080693506E+03  0.45080693507E+03  0.25500000920E-02 0. -1.
    10030    2    1    2    0    0  0.00000000000E+00  0.00000000000E+00  0.13865352696E+04  0.22881491398E+04  0.18202050522E+04 0.  0.
        3    1    3    3  502    0 -0.37179033131E+03 -0.66050610544E+03  0.59979335675E+02  0.76032486260E+03  0.10100000352E+00 0. -1.
       -3    1    3    3    0  502  0.37179033131E+03  0.66050610544E+03  0.13265559340E+04  0.15278242772E+04  0.10100000352E+00 0.  1.
</event>
<event>
 5   0  0.7954459E-05  0.2187241E+04  0.7818609E-02  0.8523757E-01
       -1   -1    0    0    0  501  0.00000000000E+00  0.00000000000E+00  0.70455253364E+03  0.70455253366E+03  0.50400001928E-02 0. -1.
        1   -1    0    0  501    0  0.00000000000E+00  0.00000000000E+00 -0.16975399975E+04  0.16975399975E+04  0.50400001928E-02 0.  1.
    10030    2    1    2    0    0  0.00000000000E+00  0.00000000000E+00 -0.99298746382E+03  0.24020925311E+04  0.21872412818E+04 0.  0.
        5    1    3    3  502    0  0.68921835400E+03  0.76223565871E+03 -0.85634297700E+02  0.10312034047E+04  0.46999998093E+01 0. -1.
       -5    1    3    3    0  502 -0.68921835400E+03 -0.76223565871E+03 -0.90735316612E+03  0.13708891264E+04  0.46999998093E+01 0.  1.
</event>
<event>
 5   0  0.8470971E-05  0.2186151E+04  0.7818609E-02  0.8524214E-01
       -1   -1    0    0    0  501  0.00000000000E+00  0.00000000000E+00  0.20658624596E+04  0.20658624596E+04  0.50400001928E-02 0.  1.
        1   -1    0    0  501    0  0.00000000000E+00  0.00000000000E+00 -0.57836111902E+03  0.57836111904E+03  0.50400001928E-02 0. -1.
    10030    2    1    2    0    0  0.00000000000E+00  0.00000000000E+00  0.14875013406E+04  0.26442235787E+04  0.21861514348E+04 0.  0.
        2    1    3    3  502    0 -0.27973585035E+03 -0.10553064995E+04  0.67872127920E+03  0.12855296685E+04  0.25500000920E-02 0.  1.
       -2    1    3    3    0  502  0.27973585035E+03  0.10553064995E+04  0.80878006141E+03  0.13586939102E+04  0.25500000920E-02 0. -1.
</event>
<event>
 5   0  0.8602414E-05  0.1325101E+04  0.7818609E-02  0.9009893E-01
       -1   -1    0    0    0  501  0.00000000000E+00  0.00000000000E+00  0.20909849553E+03  0.20909849559E+03  0.50400001928E-02 0. -1.
        1   -1    0    0  501    0  0.00000000000E+00  0.00000000000E+00 -0.20993611804E+04  0.20993611804E+04  0.50400001928E-02 0.  1.
    10030    2    1    2    0    0  0.00000000000E+00  0.00000000000E+00 -0.18902626848E+04  0.23084596760E+04  0.13251011501E+04 0.  0.
        3    1    3    3  502    0  0.30713790292E+03  0.26268130016E+03 -0.30506730878E+02  0.40529720909E+03  0.10100000352E+00 0. -1.
       -3    1    3    3    0  502 -0.30713790292E+03 -0.26268130016E+03 -0.18597559540E+04  0.19031624669E+04  0.10100000352E+00 0.  1.
</event>
<event>
 5   0  0.1805501E-04  0.2235267E+04  0.7818609E-02  0.8503891E-01
        2   -1    0    0  501    0  0.00000000000E+00  0.00000000000E+00  0.22444578627E+04  0.22444578627E+04  0.25500000920E-02 0. -1.
       -2   -1    0    0    0  501  0.00000000000E+00  0.00000000000E+00 -0.55652844983E+03  0.55652844984E+03  0.25500000920E-02 0.  1.
    10030    2    1    2    0    0  0.00000000000E+00  0.00000000000E+00  0.16879294129E+04  0.28009863126E+04  0.22352670132E+04 0.  0.
        2    1    3    3  502    0 -0.55458794918E+02 -0.10776748345E+04  0.47939161310E+03  0.11807942436E+04  0.25500000920E-02 0.  1.
       -2    1    3    3    0  502  0.55458794918E+02  0.10776748345E+04  0.12085377998E+04  0.16201920690E+04  0.25500000920E-02 0. -1.
</event>
<event>
 5   0  0.1798917E-04  0.2286273E+04  0.7818609E-02  0.8483353E-01
       -2   -1    0    0    0  501  0.00000000000E+00  0.00000000000E+00  0.54113238255E+03  0.54113238256E+03  0.25500000920E-02 0. -1.
        2   -1    0    0  501    0  0.00000000000E+00  0.00000000000E+00 -0.24148635461E+04  0.24148635461E+04  0.25500000920E-02 0.  1.
    10030    2    1    2    0    0  0.00000000000E+00  0.00000000000E+00 -0.18737311635E+04  0.29559959286E+04  0.22862728308E+04 0.  0.
        4    1    3    3  502    0 -0.76914431887E+03 -0.77697484156E+03 -0.13685701570E+04  0.17516445916E+04  0.12699999809E+01 0.  1.
       -4    1    3    3    0  502  0.76914431887E+03  0.77697484156E+03 -0.50516100655E+03  0.12043513371E+04  0.12699999809E+01 0. -1.
</event>
<event>
 5   0  0.8470971E-05  0.2189311E+04  0.7818609E-02  0.8522890E-01
        1   -1    0    0  501    0  0.00000000000E+00  0.00000000000E+00  0.10799112920E+04  0.10799112920E+04  0.50400001928E-02 0. -1.
       -1   -1    0    0    0  501  0.00000000000E+00  0.00000000000E+00 -0.11096014626E+04  0.11096014626E+04  0.50400001928E-02 0.  1.
    10030    2    1    2    0    0  0.00000000000E+00  0.00000000000E+00 -0.29690170638E+02  0.21895127546E+04  0.21893114434E+04 0.  0.
        2    1    3    3  502    0 -0.41741095698E+03 -0.25659377316E+03  0.96412125834E+03  0.10814814248E+04  0.25500000920E-02 0. -1.
       -2    1    3    3    0  502  0.41741095698E+03  0.25659377316E+03 -0.99381142898E+03  0.11080313298E+04  0.25500000920E-02 0.  1.
</event>
<event>
 5   0  0.7954459E-05  0.2113059E+04  0.7818609E-02  0.8555512E-01
        1   -1    0    0  501    0  0.00000000000E+00  0.00000000000E+00  0.73205577950E+03  0.73205577952E+03  0.50400001928E-02 0. -1.
       -1   -1    0    0    0  501  0.00000000000E+00  0.00000000000E+00 -0.15248222169E+04  0.15248222170E+04  0.50400001928E-02 0.  1.
    10030    2    1    2    0    0  0.00000000000E+00  0.00000000000E+00 -0.79276643744E+03  0.22568779965E+04  0.21130593145E+04 0.  0.
        5    1    3    3  502    0 -0.22642479013E+03  0.10319682116E+04 -0.39905367674E+03  0.11293770416E+04  0.46999998093E+01 0.  1.
       -5    1    3    3    0  502  0.22642479013E+03 -0.10319682116E+04 -0.39371276071E+03  0.11275009548E+04  0.46999998093E+01 0. -1.
</event>
<event>
 5   0  0.8470971E-05  0.2169793E+04  0.7818609E-02  0.8531107E-01
       -1   -1    0    0    0  501  0.00000000000E+00  0.00000000000E+00  0.76995961069E+03  0.76995961070E+03  0.50400001928E-02 0. -1.
        1   -1    0    0  501    0  0.00000000000E+00  0.00000000000E+00 -0.15286518223E+04  0.15286518223E+04  0.50400001928E-02 0.  1.
    10030    2    1    2    0    0  0.00000000000E+00  0.00000000000E+00 -0.75869221159E+03  0.22986114330E+04  0.21697927661E+04 0.  0.
        2    1    3    3  502    0 -0.61413526259E+03 -0.32663147475E+03  0.50263827568E+03  0.85819314681E+03  0.25500000920E-02 0. -1.
       -2    1    3    3    0  502  0.61413526259E+03  0.32663147475E+03 -0.12613304873E+04  0.14404182862E+04  0.25500000920E-02 0.  1.
</event>
<event>
 5   0  0.1805501E-04  0.2179572E+04  0.7818609E-02  0.8526979E-01
        2   -1    0    0  501    0  0.00000000000E+00  0.00000000000E+00  0.18393225442E+04  0.18393225442E+04  0.25500000920E-02 0.  1.
       -2   -1    0    0    0  501  0.00000000000E+00  0.00000000000E+00 -0.64569078900E+03  0.64569078901E+03  0.25500000920E-02 0. -1.
    10030    2    1    2    0    0  0.00000000000E+00  0.00000000000E+00  0.11936317552E+04  0.24850133332E+04  0.21795720908E+04 0.  0.
        2    1    3    3  502    0  0.46975921659E+03  0.88371074459E+03  0.10885515658E+04  0.14787031186E+04  0.25500000920E-02 0.  1.
       -2    1    3    3    0  502 -0.46975921659E+03 -0.88371074459E+03  0.10508018938E+03  0.10063102145E+04  0.25500000920E-02 0. -1.
</event>
<event>
 5   0  0.1733962E-04  0.2237240E+04  0.7818609E-02  0.8503086E-01
       -2   -1    0    0    0  501  0.00000000000E+00  0.00000000000E+00  0.70701268825E+03  0.70701268825E+03  0.25500000920E-02 0. -1.
        2   -1    0    0  501    0  0.00000000000E+00  0.00000000000E+00 -0.17698554883E+04  0.17698554883E+04  0.25500000920E-02 0.  1.
    10030    2    1    2    0    0  0.00000000000E+00  0.00000000000E+00 -0.10628428000E+04  0.24768681765E+04  0.22372396265E+04 0.  0.
        3    1    3    3  502    0  0.44277770015E+03 -0.56490899735E+03  0.41846008264E+03  0.83083278582E+03  0.10100000352E+00 0. -1.
       -3    1    3    3    0  502 -0.44277770015E+03  0.56490899735E+03 -0.14813028827E+04  0.16460353907E+04  0.10100000352E+00 0.  1.
</event>
<event>
 5   0  0.1805501E-04  0.2220797E+04  0.7818609E-02  0.8509822E-01
       -2   -1    0    0    0  501  0.00000000000E+00  0.00000000000E+00  0.15499616066E+04  0.15499616066E+04  0.25500000920E-02 0. -1.
        2   -1    0    0  501    0  0.00000000000E+00  0.00000000000E+00 -0.79549365282E+03  0.79549365283E+03  0.25500000920E-02 0.  1.
    10030    2    1    2    0    0  0.00000000000E+00  0.00000000000E+00  0.75446795373E+03  0.23454552594E+04  0.22207968121E+04 0.  0.
        2    1    3    3  502    0 -0.40489052018E+03  0.62559090965E+02 -0.71275117911E+03  0.82210961345E+03  0.25500000920E-02 0.  1.
       -2    1    3    3    0  502  0.40489052018E+03 -0.62559090965E+02  0.14672191328E+04  0.15233456459E+04  0.25500000920E-02 0. -1.
</event>
<event>
 5   0  0.8602414E-05  0.2218674E+04  0.7818609E-02  0.8510695E-01
       -1   -1    0    0    0  501  0.00000000000E+00  0.00000000000E+00  0.62214661315E+03  0.62214661317E+03  0.50400001928E-02 0.  1.
        1   -1    0    0  501    0  0.00000000000E+00  0.00000000000E+00 -0.19780368402E+04  0.19780368402E+04  0.50400001928E-02 0. -1.
    10030    2    1    2    0    0  0.00000000000E+00  0.00000000000E+00 -0.13558902271E+04  0.26001834534E+04  0.22186743077E+04 0.  0.
        3    1    3    3  502    0 -0.82922377398E+03 -0.62855983958E+03 -0.22719313476E+03  0.10650428489E+04  0.10100000352E+00 0.  1.
       -3    1    3    3    0  502  0.82922377398E+03  0.62855983958E+03 -0.11286970923E+04  0.15351406045E+04  0.10100000352E+00 0. -1.
</event>
<event>
 5   0  0.7954459E-05  0.2176257E+04  0.7818609E-02  0.8528376E-01
       -1   -1    0    0    0  501  0.00000000000E+00  0.00000000000E+00  0.57736192138E+03  0.57736192140E+03  0.50400001928E-02 0.  1.
        1   -1    0    0  501    0  0.00000000000E+00  0.00000000000E+00 -0.20507474719E+04  0.20507474719E+04  0.50400001928E-02 0. -1.
    10030    2    1    2    0    0  0.00000000000E+00  0.00000000000E+00 -0.14733855505E+04  0.26281093933E+04  0.21762568788E+04 0.  0.
        5    1    3    3  502    0  0.25099722894E+03  0.38424664320E+03 -0.19281246313E+04  0.19820019616E+04  0.46999998093E+01 0. -1.
       -5    1    3    3    0  502 -0.25099722894E+03 -0.38424664320E+03  0.45473908080E+03  0.64610743174E+03  0.46999998093E+01 0.  1.
</event>
<event>
 5   0  0.1680258E-04  0.1392493E+04  0.7818609E-02  0.8959271E-01
       -2   -1    0    0    0  501  0.00000000000E+00  0.00000000000E+00  0.50147157091E+03  0.50147157091E+03  0.25500000920E-02 0.  1.
        2   -1    0    0  501    0  0.00000000000E+00  0.00000000000E+00 -0.96667284010E+03  0.96667284010E+03  0.25500000920E-02 0. -1.
    10030    2    1    2    0    0  0.00000000000E+00  0.00000000000E+00 -0.46520126919E+03  0.14681444110E+04  0.13924926537E+04 0.  0.
        5    1    3    3  502    0  0.26636015015E+03 -0.36536563876E+03 -0.79079461507E+03  0.91094346301E+03  0.46999998093E+01 0. -1.
       -5    1    3    3    0  502 -0.26636015015E+03  0.36536563876E+03  0.32559334588E+03  0.55720094800E+03  0.46999998093E+01 0.  1.
</event>
<event>
 5   0  0.7954459E-05  0.2122180E+04  0.7818609E-02  0.8551535E-01
        1   -1    0    0  501    0  0.00000000000E+00  0.00000000000E+00  0.91801505354E+03  0.91801505356E+03  0.50400001928E-02 0.  1.
       -1   -1    0    0    0  501  0.00000000000E+00  0.00000000000E+00 -0.12264633428E+04  0.12264633428E+04  0.50400001928E-02 0. -1.
    10030    2    1    2    0    0  0.00000000000E+00  0.00000000000E+00 -0.30844828928E+03  0.21444783964E+04  0.21221798334E+04 0.  0.
        5    1    3    3  502    0 -0.30041501229E+03  0.49595927569E+03 -0.10521922680E+04  0.12013972871E+04  0.46999998093E+01 0. -1.
       -5    1    3    3    0  502  0.30041501229E+03 -0.49595927569E+03  0.74374397870E+03  0.94308110924E+03  0.46999998093E+01 0.  1.
</event>
<event>
 5   0  0.8470971E-05  0.2112596E+04  0.7818609E-02  0.8555715E-01
        1   -1    0    0  501    0  0.00000000000E+00  0.00000000000E+00  0.16935830352E+04  0.16935830352E+04  0.50400001928E-02 0.  1.
       -1   -1    0    0    0  501  0.00000000000E+00  0.00000000000E+00 -0.65881926301E+03  0.65881926303E+03  0.50400001928E-02 0. -1.
    10030    2    1    2    0    0  0.00000000000E+00  0.00000000000E+00  0.10347637722E+04  0.23524022983E+04  0.21125956803E+04 0.  0.
        2    1    3    3  502    0 -0.38732690539E+02 -0.20661631848E+03  0.16700556640E+04  0.16832339247E+04  0.25500000920E-02 0.  1.
       -2    1    3    3    0  502  0.38732690539E+02  0.20661631848E+03 -0.63529189179E+03  0.66916837356E+03  0.25500000920E-02 0. -1.
</event>
<event>
 5   0  0.1680258E-04  0.2188294E+04  0.7818609E-02  0.8523316E-01
       -2   -1    0    0    0  501  0.00000000000E+00  0.00000000000E+00  0.63827470404E+03  0.63827470404E+03  0.25500000920E-02 0.  1.
        2   -1    0    0  501    0  0.00000000000E+00  0.00000000000E+00 -0.18756143892E+04  0.18756143892E+04  0.25500000920E-02 0. -1.
    10030    2    1    2    0    0  0.00000000000E+00  0.00000000000E+00 -0.12373396851E+04  0.25138890932E+04  0.21882935993E+04 0.  0.
        5    1    3    3  502    0 -0.50260551449E+03 -0.31857194950E+03 -0.16734531766E+04  0.17761103610E+04  0.46999998093E+01 0. -1.
       -5    1    3    3    0  502  0.50260551449E+03  0.31857194950E+03  0.43611349149E+03  0.73777873218E+03  0.46999998093E+01 0.  1.
</event>
<event>
 5   0  0.8306787E-05  0.1454898E+04  0.7818609E-02  0.8915012E-01
        1   -1    0    0  501    0  0.00000000000E+00  0.00000000000E+00  0.77781483207E+03  0.77781483208E+03  0.50400001928E-02 0.  1.
       -1   -1    0    0    0  501  0.00000000000E+00  0.00000000000E+00 -0.68034475372E+03  0.68034475374E+03  0.50400001928E-02 0. -1.
    10030    2    1    2    0    0  0.00000000000E+00  0.00000000000E+00  0.97470078346E+02  0.14581595858E+04  0.14548982650E+04 0.  0.
        1    1    3    3  502    0  0.27253829669E+03  0.67202366916E+02  0.72134965313E+03  0.77404044040E+03  0.50400001928E-02 0.  1.
       -1    1    3    3    0  502 -0.27253829669E+03 -0.67202366916E+02 -0.62387957478E+03  0.68411914542E+03  0.50400001928E-02 0. -1.
</event>
<event>
 5   0  0.1733962E-04  0.2231768E+04  0.7818609E-02  0.8505321E-01
        2   -1    0    0  501    0  0.00000000000E+00  0.00000000000E+00  0.14328261226E+04  0.14328261226E+04  0.25500000920E-02 0. -1.
       -2   -1    0    0    0  501  0.00000000000E+00  0.00000000000E+00 -0.86904971617E+03  0.86904971617E+03  0.25500000920E-02 0.  1.
    10030    2    1    2    0    0  0.00000000000E+00  0.00000000000E+00  0.56377640639E+03  0.23018758387E+04  0.22317680302E+04 0.  0.
        3    1    3    3  502    0 -0.25390097837E+03  0.92471245358E+03 -0.30668512718E+03  0.10067842897E+04  0.10100000352E+00 0.  1.
       -3    1    3    3    0  502  0.25390097837E+03 -0.92471245358E+03  0.87046153357E+03  0.12950915490E+04  0.10100000352E+00 0. -1.
</event>
<event>
 5   0  0.1754356E-04  0.2200764E+04  0.7818609E-02  0.8518110E-01
        2   -1    0    0  501    0  0.00000000000E+00  0.00000000000E+00  0.12131710564E+04  0.12131710564E+04  0.25500000920E-02 0.  1.
       -2   -1    0    0    0  501  0.00000000000E+00  0.00000000000E+00 -0.99807940617E+03  0.99807940617E+03  0.25500000920E-02 0. -1.
    10030    2    1    2    0    0  0.00000000000E+00  0.00000000000E+00  0.21509165025E+03  0.22112504626E+04  0.22007644559E+04 0.  0.
        1    1    3    3  502    0 -0.37626344836E+03  0.68298776174E+03 -0.67255195799E+03  0.10297439495E+04  0.50400001928E-02 0. -1.
       -1    1    3    3    0  502  0.37626344836E+03 -0.68298776174E+03  0.88764360823E+03  0.11815065131E+04  0.50400001928E-02 0.  1.
</event>
<event>
 5   0  0.1733962E-04  0.1926484E+04  0.7818609E-02  0.8641785E-01
        2   -1    0    0  501    0  0.00000000000E+00  0.00000000000E+00  0.15274144065E+04  0.15274144065E+04  0.25500000920E-02 0.  1.
       -2   -1    0    0    0  501  0.00000000000E+00  0.00000000000E+00 -0.60745453003E+03  0.60745453003E+03  0.25500000920E-02 0. -1.
    10030    2    1    2    0    0  0.00000000000E+00  0.00000000000E+00  0.91995987650E+03  0.21348689366E+04  0.19264836366E+04 0.  0.
        3    1    3    3  502    0  0.15888951059E+02  0.32682026041E+03  0.14639409677E+04  0.15000623682E+04  0.10100000352E+00 0.  1.
       -3    1    3    3    0  502 -0.15888951059E+02 -0.32682026041E+03 -0.54398109123E+03  0.63480656833E+03  0.10100000352E+00 0. -1.
</event>
<event>
 5   0  0.8470971E-05  0.2271550E+04  0.7818609E-02  0.8489224E-01
        1   -1    0    0  501    0  0.00000000000E+00  0.00000000000E+00  0.12473081359E+04  0.12473081359E+04  0.50400001928E-02 0. -1.
       -1   -1    0    0    0  501  0.00000000000E+00  0.00000000000E+00 -0.10342153863E+04  0.10342153864E+04  0.50400001928E-02 0.  1.
    10030    2    1    2    0    0  0.00000000000E+00  0.00000000000E+00  0.21309274958E+03  0.22815235223E+04  0.22715503655E+04 0.  0.
        2    1    3    3  502    0 -0.30189555635E+03 -0.71244673564E+03 -0.72852682551E+03  0.10627664906E+04  0.25500000920E-02 0.  1.
       -2    1    3    3    0  502  0.30189555635E+03  0.71244673564E+03  0.94161957509E+03  0.12187570317E+04  0.25500000920E-02 0. -1.
</event>
<event>
 5   0  0.1798917E-04  0.2240964E+04  0.7818609E-02  0.8501569E-01
       -2   -1    0    0    0  501  0.00000000000E+00  0.00000000000E+00  0.13733128885E+04  0.13733128885E+04  0.25500000920E-02 0.  1.
        2   -1    0    0  501    0  0.00000000000E+00  0.00000000000E+00 -0.91419800954E+03  0.91419800954E+03  0.25500000920E-02 0. -1.
    10030    2    1    2    0    0  0.00000000000E+00  0.00000000000E+00  0.45911487893E+03  0.22875108980E+04  0.22409639971E+04 0.  0.
        4    1    3    3  502    0 -0.56598746647E+03  0.68539898734E+03  0.92590332952E+03  0.12835155521E+04  0.12699999809E+01 0.  1.
       -4    1    3    3    0  502  0.56598746647E+03 -0.68539898734E+03 -0.46678845059E+03  0.10039953459E+04  0.12699999809E+01 0. -1.
</event>
<event>
 5   0  0.7954459E-05  0.2209416E+04  0.7818609E-02  0.8514519E-01
        1   -1    0    0  501    0  0.00000000000E+00  0.00000000000E+00  0.10872352664E+04  0.10872352664E+04  0.50400001928E-02 0. -1.
       -1   -1    0    0    0  501  0.00000000000E+00  0.00000000000E+00 -0.11224615683E+04  0.11224615683E+04  0.50400001928E-02 0.  1.
    10030    2    1    2    0    0  0.00000000000E+00  0.00000000000E+00 -0.35226301863E+02  0.22096968347E+04  0.22094160335E+04 0.  0.
        5    1    3    3  502    0  0.81422251320E+03  0.43646681385E+03  0.58818334741E+03  0.10951909974E+04  0.46999998093E+01 0. -1.
       -5    1    3    3    0  502 -0.81422251320E+03 -0.43646681385E+03 -0.62340964928E+03  0.11145058373E+04  0.46999998093E+01 0.  1.
</event>
<event>
 5   0  0.6250625E-05  0.2342696E+04  0.7818609E-02  0.8461274E-01
        4   -1    0    0  501    0  0.00000000000E+00  0.00000000000E+00  0.70893808259E+03  0.70893922014E+03  0.12699999809E+01 0.  1.
       -4   -1    0    0    0  501  0.00000000000E+00  0.00000000000E+00 -0.19353659331E+04  0.19353663498E+04  0.12699999809E+01 0. -1.
    10030    2    1    2    0    0  0.00000000000E+00  0.00000000000E+00 -0.12264278505E+04  0.26443055699E+04  0.23426964538E+04 0.  0.
        1    1    3    3  502    0  0.20637898001E+03 -0.12472597133E+03 -0.19070464606E+04  0.19222317900E+04  0.50400001928E-02 0. -1.
       -1    1    3    3    0  502 -0.20637898001E+03  0.12472597133E+03  0.68061861010E+03  0.72207377999E+03  0.50400001928E-02 0.  1.
</event>
<event>
 5   0  0.8470971E-05  0.1694061E+04  0.7818609E-02  0.8764759E-01
       -1   -1    0    0    0  501  0.00000000000E+00  0.00000000000E+00  0.49170881267E+03  0.49170881269E+03  0.50400001928E-02 0. -1.
        1   -1    0    0  501    0  0.00000000000E+00  0.00000000000E+00 -0.14591165369E+04  0.14591165369E+04  0.50400001928E-02 0.  1.
    10030    2    1    2    0    0  0.00000000000E+00  0.00000000000E+00 -0.96740772420E+03  0.19508253496E+04  0.16940607544E+04 0.  0.
        2    1    3    3  502    0 -0.34422764500E+02 -0.10500146832E+03 -0.14507807973E+04  0.14549828717E+04  0.25500000920E-02 0.  1.
       -2    1    3    3    0  502  0.34422764500E+02  0.10500146832E+03  0.48337307310E+03  0.49584247789E+03  0.25500000920E-02 0. -1.
</event>
<event>
 5   0  0.8602414E-05  0.2432075E+04  0.7818609E-02  0.8427592E-01
       -1   -1    0    0    0  501  0.00000000000E+00  0.00000000000E+00  0.10858982307E+04  0.10858982307E+04  0.50400001928E-02 0.  1.
        1   -1    0    0  501    0  0.00000000000E+00  0.00000000000E+00 -0.13617730569E+04  0.13617730569E+04  0.50400001928E-02 0. -1.
    10030    2    1    2    0    0  0.00000000000E+00  0.00000000000E+00 -0.27587482619E+03  0.24476712876E+04  0.24320747959E+04 0.  0.
        3    1    3    3  502    0 -0.55368803519E+03  0.94566407227E+02 -0.12233869898E+04  0.13461756879E+04  0.10100000352E+00 0. -1.
       -3    1    3    3    0  502  0.55368803519E+03 -0.94566407227E+02  0.94751216366E+03  0.11014955997E+04  0.10100000352E+00 0.  1.
</event>
<event>
 5   0  0.7954459E-05  0.2307027E+04  0.7818609E-02  0.8475156E-01
        1   -1    0    0  501    0  0.00000000000E+00  0.00000000000E+00  0.18270674996E+04  0.18270674996E+04  0.50400001928E-02 0. -1.
       -1   -1    0    0    0  501  0.00000000000E+00  0.00000000000E+00 -0.72826726943E+03  0.72826726944E+03  0.50400001928E-02 0.  1.
    10030    2    1    2    0    0  0.00000000000E+00  0.00000000000E+00  0.10988002302E+04  0.25553347691E+04  0.23070270558E+04 0.  0.
        5    1    3    3  502    0  0.54963080664E+02  0.43546800831E+03 -0.63214581403E+03  0.76959973147E+03  0.46999998093E+01 0.  1.
       -5    1    3    3    0  502 -0.54963080664E+02 -0.43546800831E+03  0.17309460442E+04  0.17857350376E+04  0.46999998093E+01 0. -1.
</event>
<event>
 5   0  0.1680258E-04  0.2156933E+04  0.7818609E-02  0.8536570E-01
        2   -1    0    0  501    0  0.00000000000E+00  0.00000000000E+00  0.14182894282E+04  0.14182894282E+04  0.25500000920E-02 0.  1.
       -2   -1    0    0    0  501  0.00000000000E+00  0.00000000000E+00 -0.82006521565E+03  0.82006521566E+03  0.25500000920E-02 0. -1.
    10030    2    1    2    0    0  0.00000000000E+00  0.00000000000E+00  0.59822421250E+03  0.22383546438E+04  0.21569328462E+04 0.  0.
        5    1    3    3  502    0  0.88902843008E+02 -0.67469064669E+03  0.11673281651E+04  0.13512173472E+04  0.46999998093E+01 0.  1.
       -5    1    3    3    0  502 -0.88902843008E+02  0.67469064669E+03 -0.56910395261E+03  0.88713729665E+03  0.46999998093E+01 0. -1.
</event>
<event>
 5   0  0.8602414E-05  0.2213951E+04  0.7818609E-02  0.8512644E-01
        1   -1    0    0  501    0  0.00000000000E+00  0.00000000000E+00  0.10352038924E+04  0.10352038924E+04  0.50400001928E-02 0. -1.
       -1   -1    0    0    0  501  0.00000000000E+00  0.00000000000E+00 -0.11837229495E+04  0.11837229495E+04  0.50400001928E-02 0.  1.
    10030    2    1    2    0    0  0.00000000000E+00  0.00000000000E+00 -0.14851905714E+03  0.22189268419E+04  0.22139508620E+04 0.  0.
        3    1    3    3  502    0 -0.69388994209E+03  0.65698798076E+03  0.48581496571E+03  0.10719760490E+04  0.10100000352E+00 0. -1.
       -3    1    3    3    0  502  0.69388994209E+03 -0.65698798076E+03 -0.63433402285E+03  0.11469507929E+04  0.10100000352E+00 0.  1.
</event>
<event>
 5   0  0.7954459E-05  0.2177070E+04  0.7818609E-02  0.8528033E-01
       -1   -1    0    0    0  501  0.00000000000E+00  0.00000000000E+00  0.64569971903E+03  0.64569971905E+03  0.50400001928E-02 0. -1.
        1   -1    0    0  501    0  0.00000000000E+00  0.00000000000E+00 -0.18350769113E+04  0.18350769113E+04  0.50400001928E-02 0.  1.
    10030    2    1    2    0    0  0.00000000000E+00  0.00000000000E+00 -0.11893771923E+04  0.24807766304E+04  0.21770701836E+04 0.  0.
        5    1    3    3  502    0 -0.72281173068E+03  0.82606784061E+02 -0.15173378849E+04  0.16827409265E+04  0.46999998093E+01 0.  1.
       -5    1    3    3    0  502  0.72281173068E+03 -0.82606784061E+02  0.32796069260E+03  0.79803570388E+03  0.46999998093E+01 0. -1.
</event>
<event>
 5   0  0.8784659E-05  0.2212501E+04  0.7818609E-02  0.8513243E-01
        1   -1    0    0  501    0  0.00000000000E+00  0.00000000000E+00  0.13656267995E+04  0.13656267995E+04  0.50400001928E-02 0. -1.
       -1   -1    0    0    0  501  0.00000000000E+00  0.00000000000E+00 -0.89613834112E+03  0.89613834113E+03  0.50400001928E-02 0.  1.
    10030    2    1    2    0    0  0.00000000000E+00  0.00000000000E+00  0.46948845837E+03  0.22617651406E+04  0.22125013308E+04 0.  0.
        4    1    3    3  502    0  0.76242685566E+03  0.79310555849E+03  0.11606540841E+03  0.11062476798E+04  0.12699999809E+01 0. -1.
       -4    1    3    3    0  502 -0.76242685566E+03 -0.79310555849E+03  0.35342304996E+03  0.11555174608E+04  0.12699999809E+01 0.  1.
</event>
<event>
 5   0  0.8470971E-05  0.2156869E+04  0.7818609E-02  0.8536598E-01
        1   -1    0    0  501    0  0.00000000000E+00  0.00000000000E+00  0.44391213872E+03  0.44391213875E+03  0.50400001928E-02 0. -1.
       -1   -1    0    0    0  501  0.00000000000E+00  0.00000000000E+00 -0.26199356511E+04  0.26199356511E+04  0.50400001928E-02 0.  1.
    10030    2    1    2    0    0  0.00000000000E+00  0.00000000000E+00 -0.21760235124E+04  0.30638477899E+04  0.21568692480E+04 0.  0.
        2    1    3    3  502    0 -0.76957976626E+03  0.75273956797E+03 -0.99648695437E+03  0.14669206264E+04  0.25500000920E-02 0. -1.
       -2    1    3    3    0  502  0.76957976626E+03 -0.75273956797E+03 -0.11795365580E+04  0.15969271635E+04  0.25500000920E-02 0.  1.
</event>
<event>
 5   0  0.1805501E-04  0.2213891E+04  0.7818609E-02  0.8512668E-01
        2   -1    0    0  501    0  0.00000000000E+00  0.00000000000E+00  0.15627966003E+04  0.15627966003E+04  0.25500000920E-02 0.  1.
       -2   -1    0    0    0  501  0.00000000000E+00  0.00000000000E+00 -0.78406141484E+03  0.78406141485E+03  0.25500000920E-02 0. -1.
    10030    2    1    2    0    0  0.00000000000E+00  0.00000000000E+00  0.77873518550E+03  0.23468580152E+04  0.22138911568E+04 0.  0.
        2    1    3    3  502    0 -0.79088275441E+03  0.38991087720E+03 -0.32000401528E+03  0.93804509123E+03  0.25500000920E-02 0. -1.
       -2    1    3    3    0  502  0.79088275441E+03 -0.38991087720E+03  0.10987392008E+04  0.14088129240E+04  0.25500000920E-02 0.  1.
</event>
<event>
 5   0  0.1733962E-04  0.2156360E+04  0.7818609E-02  0.8536815E-01
       -2   -1    0    0    0  501  0.00000000000E+00  0.00000000000E+00  0.10191839289E+04  0.10191839289E+04  0.25500000920E-02 0. -1.
        2   -1    0    0  501    0  0.00000000000E+00  0.00000000000E+00 -0.11405910139E+04  0.11405910139E+04  0.25500000920E-02 0.  1.
    10030    2    1    2    0    0  0.00000000000E+00  0.00000000000E+00 -0.12140708504E+03  0.21597749428E+04  0.21563599243E+04 0.  0.
        3    1    3    3  502    0 -0.45007598643E+02  0.91097176294E+03 -0.63657217263E+03  0.11122586830E+04  0.10100000352E+00 0.  1.
       -3    1    3    3    0  502  0.45007598643E+02 -0.91097176294E+03  0.51516508759E+03  0.10475162598E+04  0.10100000352E+00 0. -1.
</event>
<event>
 5   0  0.1798917E-04  0.2233286E+04  0.7818609E-02  0.8504700E-01
       -2   -1    0    0    0  501  0.00000000000E+00  0.00000000000E+00  0.44886913828E+03  0.44886913829E+03  0.25500000920E-02 0.  1.
        2   -1    0    0  501    0  0.00000000000E+00  0.00000000000E+00 -0.27778500937E+04  0.27778500937E+04  0.25500000920E-02 0. -1.
    10030    2    1    2    0    0  0.00000000000E+00  0.00000000000E+00 -0.23289809554E+04  0.32267192320E+04  0.22332856314E+04 0.  0.
        4    1    3    3  502    0 -0.21476264447E+03  0.69111524287E+02  0.41559546968E+03  0.47288540215E+03  0.12699999809E+01 0.  1.
       -4    1    3    3    0  502  0.21476264447E+03 -0.69111524287E+02 -0.27445764251E+04  0.27538338298E+04  0.12699999809E+01 0. -1.
</event>
<event>
 5   0  0.7954459E-05  0.2064014E+04  0.7818609E-02  0.8577263E-01
       -1   -1    0    0    0  501  0.00000000000E+00  0.00000000000E+00  0.38644196024E+03  0.38644196027E+03  0.50400001928E-02 0. -1.
        1   -1    0    0  501    0  0.00000000000E+00  0.00000000000E+00 -0.27560106822E+04  0.27560106822E+04  0.50400001928E-02 0.  1.
    10030    2    1    2    0    0  0.00000000000E+00  0.00000000000E+00 -0.23695687219E+04  0.31424526424E+04  0.20640137311E+04 0.  0.
        5    1    3    3  502    0  0.53319573562E+03 -0.71044692796E+03 -0.38495423475E+03  0.96811382739E+03  0.46999998093E+01 0. -1.
       -5    1    3    3    0  502 -0.53319573562E+03  0.71044692796E+03 -0.19846144872E+04  0.21743388150E+04  0.46999998093E+01 0.  1.
</event>
<event>
 5   0  0.1754356E-04  0.1168931E+04  0.7818609E-02  0.9140495E-01
       -2   -1    0    0    0  501  0.00000000000E+00  0.00000000000E+00  0.24408267850E+03  0.24408267851E+03  0.25500000920E-02 0. -1.
        2   -1    0    0  501    0  0.00000000000E+00  0.00000000000E+00 -0.13995250269E+04  0.13995250269E+04  0.25500000920E-02 0.  1.
    10030    2    1    2    0    0  0.00000000000E+00  0.00000000000E+00 -0.11554423484E+04  0.16436077054E+04  0.11689308229E+04 0.  0.
        1    1    3    3  502    0 -0.94563045640E+02  0.17715374328E+03 -0.13494955021E+04  0.13643546931E+04  0.50400001928E-02 0.  1.
       -1    1    3    3    0  502  0.94563045640E+02 -0.17715374328E+03  0.19405315374E+03  0.27925301227E+03  0.50400001928E-02 0. -1.
</event>
<event>
 5   0  0.1680258E-04  0.2195803E+04  0.7818609E-02  0.8520177E-01
       -2   -1    0    0    0  501  0.00000000000E+00  0.00000000000E+00  0.86068114919E+03  0.86068114920E+03  0.25500000920E-02 0.  1.
        2   -1    0    0  501    0  0.00000000000E+00  0.00000000000E+00 -0.14005039561E+04  0.14005039561E+04  0.25500000920E-02 0. -1.
    10030    2    1    2    0    0  0.00000000000E+00  0.00000000000E+00 -0.53982280688E+03  0.22611851053E+04  0.21958026818E+04 0.  0.
        5    1    3    3  502    0  0.23639910061E+03 -0.10509572882E+04 -0.51536929212E+02  0.10784590403E+04  0.46999998093E+01 0.  1.
       -5    1    3    3    0  502 -0.23639910061E+03  0.10509572882E+04 -0.48828587767E+03  0.11827260650E+04  0.46999998093E+01 0. -1.
</event>
<event>
 5   0  0.8784659E-05  0.2227249E+04  0.7818609E-02  0.8507171E-01
       -1   -1    0    0    0  501  0.00000000000E+00  0.00000000000E+00  0.96700654648E+03  0.96700654650E+03  0.50400001928E-02 0.  1.
        1   -1    0    0  501    0  0.00000000000E+00  0.00000000000E+00 -0.12824729737E+04  0.12824729737E+04  0.50400001928E-02 0. -1.
    10030    2    1    2    0    0  0.00000000000E+00  0.00000000000E+00 -0.31546642724E+03  0.22494795202E+04  0.22272492104E+04 0.  0.
        4    1    3    3  502    0 -0.75772290803E+02 -0.84335995843E+03  0.57278455090E+03  0.10222921374E+04  0.12699999809E+01 0.  1.
       -4    1    3    3    0  502  0.75772290803E+02  0.84335995843E+03 -0.88825097814E+03  0.12271873828E+04  0.12699999809E+01 0. -1.
</event>
<event>
 5   0  0.8470971E-05  0.2214556E+04  0.7818609E-02  0.8512394E-01
       -1   -1    0    0    0  501  0.00000000000E+00  0.00000000000E+00  0.70380103186E+03  0.70380103187E+03  0.50400001928E-02 0. -1.
        1   -1    0    0  501    0  0.00000000000E+00  0.00000000000E+00 -0.17420609814E+04  0.17420609814E+04  0.50400001928E-02 0.  1.
    10030    2    1    2    0    0  0.00000000000E+00  0.00000000000E+00 -0.10382599496E+04  0.24458620133E+04  0.22145557715E+04 0.  0.
        2    1    3    3  502    0 -0.84767285826E+03  0.11630096796E+03  0.25712433565E+03  0.89341374165E+03  0.25500000920E-02 0. -1.
       -2    1    3    3    0  502  0.84767285826E+03 -0.11630096796E+03 -0.12953842852E+04  0.15524482717E+04  0.25500000920E-02 0.  1.
</event>
<event>
 5   0  0.8470971E-05  0.2304692E+04  0.7818609E-02  0.8476073E-01
        1   -1    0    0  501    0  0.00000000000E+00  0.00000000000E+00  0.12711658365E+04  0.12711658365E+04  0.50400001928E-02 0. -1.
       -1   -1    0    0    0  501  0.00000000000E+00  0.00000000000E+00 -0.10446327539E+04  0.10446327539E+04  0.50400001928E-02 0.  1.
    10030    2    1    2    0    0  0.00000000000E+00  0.00000000000E+00  0.22653308260E+03  0.23157985903E+04  0.23046921429E+04 0.  0.
        2    1    3    3  502    0  0.44569528718E+02 -0.59919362238E+03  0.11013067256E+04  0.12545500962E+04  0.25500000920E-02 0. -1.
       -2    1    3    3    0  502 -0.44569528718E+02  0.59919362238E+03 -0.87477364296E+03  0.10612484942E+04  0.25500000920E-02 0.  1.
</event>
<event>
 5   0  0.7954459E-05  0.2195366E+04  0.7818609E-02  0.8520359E-01
       -1   -1    0    0    0  501  0.00000000000E+00  0.00000000000E+00  0.80935939253E+03  0.80935939255E+03  0.50400001928E-02 0. -1.
        1   -1    0    0  501    0  0.00000000000E+00  0.00000000000E+00 -0.14887182044E+04  0.14887182045E+04  0.50400001928E-02 0.  1.
    10030    2    1    2    0    0  0.00000000000E+00  0.00000000000E+00 -0.67935881191E+03  0.22980775970E+04  0.21953660849E+04 0.  0.
        5    1    3    3  502    0  0.91328197678E+03 -0.92423020012E+02  0.29036030332E+03  0.96278615459E+03  0.46999998093E+01 0. -1.
       -5    1    3    3    0  502 -0.91328197678E+03  0.92423020012E+02 -0.96971911523E+03  0.13352914424E+04  0.46999998093E+01 0.  1.
</event>
<event>
 5   0  0.8470971E-05  0.2166331E+04  0.7818609E-02  0.8532574E-01
       -1   -1    0    0    0  501  0.00000000000E+00  0.00000000000E+00  0.96862064698E+03  0.96862064699E+03  0.50400001928E-02 0. -1.
        1   -1    0    0  501    0  0.00000000000E+00  0.00000000000E+00 -0.12112561510E+04  0.12112561510E+04  0.50400001928E-02 0.  1.
    10030    2    1    2    0    0  0.00000000000E+00  0.00000000000E+00 -0.24263550401E+03  0.21798767980E+04  0.21663311997E+04 0.  0.
        2    1    3    3  502    0 -0.49615482288E+03 -0.77597948024E+02 -0.10870356260E+04  0.11974295395E+04  0.25500000920E-02 0.  1.
       -2    1    3    3    0  502  0.49615482288E+03  0.77597948024E+02  0.84440012197E+03  0.98244725853E+03  0.25500000920E-02 0. -1.
</event>
<event>
 5   0  0.1805501E-04  0.1104177E+04  0.7818609E-02  0.9201131E-01
       -2   -1    0    0    0  501  0.00000000000E+00  0.00000000000E+00  0.17973890424E+03  0.17973890425E+03  0.25500000920E-02 0.  1.
        2   -1    0    0  501    0  0.00000000000E+00  0.00000000000E+00 -0.16958014433E+04  0.16958014433E+04  0.25500000920E-02 0. -1.
    10030    2    1    2    0    0  0.00000000000E+00  0.00000000000E+00 -0.15160625390E+04  0.18755403475E+04  0.11041766040E+04 0.  0.
        2    1    3    3  502    0 -0.20984914649E+03  0.42490342649E+03 -0.12391301670E+04  0.13266586437E+04  0.25500000920E-02 0. -1.
       -2    1    3    3    0  502  0.20984914649E+03 -0.42490342649E+03 -0.27693237207E+03  0.54888170386E+03  0.25500000920E-02 0.  1.
</event>
<event>
 5   0  0.1805501E-04  0.2263885E+04  0.7818609E-02  0.8492299E-01
        2   -1    0    0  501    0  0.00000000000E+00  0.00000000000E+00  0.18134640408E+04  0.18134640408E+04  0.25500000920E-02 0.  1.
       -2   -1    0    0    0  501  0.00000000000E+00  0.00000000000E+00 -0.70654475485E+03  0.70654475486E+03  0.25500000920E-02 0. -1.
    10030    2    1    2    0    0  0.00000000000E+00  0.00000000000E+00  0.11069192859E+04  0.25200087956E+04  0.22638847198E+04 0.  0.
        2    1    3    3  502    0 -0.86983546576E+03 -0.33708743445E+03  0.12671273431E+04  0.15734844708E+04  0.25500000920E-02 0.  1.
       -2    1    3    3    0  502  0.86983546576E+03  0.33708743445E+03 -0.16020805723E+03  0.94652432487E+03  0.25500000920E-02 0. -1.
</event>
<event>
 5   0  0.1733962E-04  0.2165330E+04  0.7818609E-02  0.8532999E-01
        2   -1    0    0  501    0  0.00000000000E+00  0.00000000000E+00  0.28021128919E+04  0.28021128919E+04  0.25500000920E-02 0. -1.
       -2   -1    0    0    0  501  0.00000000000E+00  0.00000000000E+00 -0.41831397633E+03  0.41831397634E+03  0.25500000920E-02 0.  1.
    10030    2    1    2    0    0  0.00000000000E+00  0.00000000000E+00  0.23837989155E+04  0.32204268682E+04  0.21653295231E+04 0.  0.
        3    1    3    3  502    0  0.19226264661E+03 -0.96403618194E+03  0.18666545913E+04  0.21096753444E+04  0.10100000352E+00 0. -1.
       -3    1    3    3    0  502 -0.19226264661E+03  0.96403618194E+03  0.51714432425E+03  0.11107515238E+04  0.10100000352E+00 0.  1.
</event>
<event>
 5   0  0.8306787E-05  0.2190959E+04  0.7818609E-02  0.8522200E-01
       -1   -1    0    0    0  501  0.00000000000E+00  0.00000000000E+00  0.98886599557E+03  0.98886599558E+03  0.50400001928E-02 0.  1.
        1   -1    0    0  501    0  0.00000000000E+00  0.00000000000E+00 -0.12135879395E+04  0.12135879395E+04  0.50400001928E-02 0. -1.
    10030    2    1    2    0    0  0.00000000000E+00  0.00000000000E+00 -0.22472194392E+03  0.22024539351E+04  0.21909594665E+04 0.  0.
        1    1    3    3  502    0  0.24820037927E+03 -0.31555009007E+03 -0.11369730726E+04  0.12057707309E+04  0.50400001928E-02 0. -1.
       -1    1    3    3    0  502 -0.24820037927E+03  0.31555009007E+03  0.91225112871E+03  0.99668320416E+03  0.50400001928E-02 0.  1.
</event>
<event>
 5   0  0.8470971E-05  0.2349509E+04  0.7818609E-02  0.8458652E-01
        1   -1    0    0  501    0  0.00000000000E+00  0.00000000000E+00  0.13825360392E+04  0.13825360392E+04  0.50400001928E-02 0. -1.
       -1   -1    0    0    0  501  0.00000000000E+00  0.00000000000E+00 -0.99820088099E+03  0.99820088101E+03  0.50400001928E-02 0.  1.
    10030    2    1    2    0    0  0.00000000000E+00  0.00000000000E+00  0.38433515816E+03  0.23807369202E+04  0.23495094742E+04 0.  0.
        2    1    3    3  502    0  0.28320637831E+03  0.10503787477E+04  0.64139657061E+03  0.12628899109E+04  0.25500000920E-02 0. -1.
       -2    1    3    3    0  502 -0.28320637831E+03 -0.10503787477E+04 -0.25706141245E+03  0.11178470092E+04  0.25500000920E-02 0.  1.
</event>
<event>
 5   0  0.8470971E-05  0.2161739E+04  0.7818609E-02  0.8534524E-01
       -1   -1    0    0    0  501  0.00000000000E+00  0.00000000000E+00  0.62443158328E+03  0.62443158330E+03  0.50400001928E-02 0.  1.
        1   -1    0    0  501    0  0.00000000000E+00  0.00000000000E+00 -0.18709485299E+04  0.18709485299E+04  0.50400001928E-02 0. -1.
    10030    2    1    2    0    0  0.00000000000E+00  0.00000000000E+00 -0.12465169466E+04  0.24953801132E+04  0.21617394411E+04 0.  0.
        2    1    3    3  502    0  0.95288289451E+03 -0.17493053853E+03 -0.11764902285E+04  0.15240458529E+04  0.25500000920E-02 0. -1.
       -2    1    3    3    0  502 -0.95288289451E+03  0.17493053853E+03 -0.70026718092E+02  0.97133426029E+03  0.25500000920E-02 0.  1.
</event>
<event>
 5   0  0.1733962E-04  0.2207242E+04  0.7818609E-02  0.8515420E-01
       -2   -1    0    0    0  501  0.00000000000E+00  0.00000000000E+00  0.12675642515E+04  0.12675642515E+04  0.25500000920E-02 0.  1.
        2   -1    0    0  501    0  0.00000000000E+00  0.00000000000E+00 -0.96088176881E+03  0.96088176881E+03  0.25500000920E-02 0. -1.
    10030    2    1    2    0    0  0.00000000000E+00  0.00000000000E+00  0.30668248265E+03  0.22284460203E+04  0.22072420620E+04 0.  0.
        3    1    3    3  502    0  0.63131597066E+03 -0.17621813877E+03  0.10497710428E+04  0.12375911844E+04  0.10100000352E+00 0.  1.
       -3    1    3    3    0  502 -0.63131597066E+03  0.17621813877E+03 -0.74308856017E+03  0.99085483583E+03  0.10100000352E+00 0. -1.
</event>
<event>
 5   0  0.1805501E-04  0.1245421E+04  0.7818609E-02  0.9074003E-01
        2   -1    0    0  501    0  0.00000000000E+00  0.00000000000E+00  0.11607595972E+04  0.11607595972E+04  0.25500000920E-02 0.  1.
       -2   -1    0    0    0  501  0.00000000000E+00  0.00000000000E+00 -0.33406434158E+03  0.33406434159E+03  0.25500000920E-02 0. -1.
    10030    2    1    2    0    0  0.00000000000E+00  0.00000000000E+00  0.82669525565E+03  0.14948239388E+04  0.12454210382E+04 0.  0.
        2    1    3    3  502    0  0.44394468623E+03 -0.32253798322E+03  0.60034297544E+02  0.55201607942E+03  0.25500000920E-02 0. -1.
       -2    1    3    3    0  502 -0.44394468623E+03  0.32253798322E+03  0.76666095811E+03  0.94280785940E+03  0.25500000920E-02 0.  1.
</event>
<event>
 5   0  0.1805501E-04  0.2184921E+04  0.7818609E-02  0.8524731E-01
       -2   -1    0    0    0  501  0.00000000000E+00  0.00000000000E+00  0.91223547468E+03  0.91223547468E+03  0.25500000920E-02 0. -1.
        2   -1    0    0  501    0  0.00000000000E+00  0.00000000000E+00 -0.13082913259E+04  0.13082913259E+04  0.25500000920E-02 0.  1.
    10030    2    1    2    0    0  0.00000000000E+00  0.00000000000E+00 -0.39605585120E+03  0.22205268006E+04  0.21849208303E+04 0.  0.
        2    1    3    3  502    0 -0.89302922333E+03 -0.58977063051E+03 -0.42100982248E+03  0.11500347216E+04  0.25500000920E-02 0.  1.
       -2    1    3    3    0  502  0.89302922333E+03  0.58977063051E+03  0.24953971285E+02  0.10704920789E+04  0.25500000920E-02 0. -1.
</event>
<event>
 5   0  0.8784659E-05  0.2221003E+04  0.7818609E-02  0.8509737E-01
        1   -1    0    0  501    0  0.00000000000E+00  0.00000000000E+00  0.17214714833E+04  0.17214714833E+04  0.50400001928E-02 0. -1.
       -1   -1    0    0    0  501  0.00000000000E+00  0.00000000000E+00 -0.71637180912E+03  0.71637180913E+03  0.50400001928E-02 0.  1.
    10030    2    1    2    0    0  0.00000000000E+00  0.00000000000E+00  0.10050996742E+04  0.24378432924E+04  0.22210030534E+04 0.  0.
        4    1    3    3  502    0 -0.28833784633E+02  0.10013841675E+04 -0.23409776477E+02  0.10020734846E+04  0.12699999809E+01 0.  1.
       -4    1    3    3    0  502  0.28833784633E+02 -0.10013841675E+04  0.10285094507E+04  0.14357698078E+04  0.12699999809E+01 0. -1.
</event>
<event>
 5   0  0.6250625E-05  0.2183093E+04  0.7818609E-02  0.8525498E-01
        3   -1    0    0  501    0  0.00000000000E+00  0.00000000000E+00  0.12457600355E+04  0.12457600396E+04  0.10100000352E+00 0.  1.
       -3   -1    0    0    0  501  0.00000000000E+00  0.00000000000E+00 -0.95642336599E+03  0.95642337132E+03  0.10100000352E+00 0. -1.
    10030    2    1    2    0    0  0.00000000000E+00  0.00000000000E+00  0.28933666950E+03  0.22021834109E+04  0.21830932337E+04 0.  0.
        3    1    3    3  502    0 -0.75270966530E+03  0.17652957475E+03 -0.63261465829E+03  0.99896739040E+03  0.10100000352E+00 0.  1.
       -3    1    3    3    0  502  0.75270966530E+03 -0.17652957475E+03  0.92195132779E+03  0.12032160205E+04  0.10100000352E+00 0. -1.
</event>
<event>
 5   0  0.1754356E-04  0.2189858E+04  0.7818609E-02  0.8522661E-01
       -2   -1    0    0    0  501  0.00000000000E+00  0.00000000000E+00  0.18526394355E+04  0.18526394355E+04  0.25500000920E-02 0.  1.
        2   -1    0    0  501    0  0.00000000000E+00  0.00000000000E+00 -0.64711422415E+03  0.64711422415E+03  0.25500000920E-02 0. -1.
    10030    2    1    2    0    0  0.00000000000E+00  0.00000000000E+00  0.12055252113E+04  0.24997536596E+04  0.21898578318E+04 0.  0.
        1    1    3    3  502    0  0.17349883364E+03  0.56748869012E+03 -0.44763142603E+03  0.74331632048E+03  0.50400001928E-02 0. -1.
       -1    1    3    3    0  502 -0.17349883364E+03 -0.56748869012E+03  0.16531566374E+04  0.17564373391E+04  0.50400001928E-02 0.  1.
</event>
<event>
 5   0  0.1733962E-04  0.1092663E+04  0.7818609E-02  0.9212373E-01
        2   -1    0    0  501    0  0.00000000000E+00  0.00000000000E+00  0.79650062684E+03  0.79650062684E+03  0.25500000920E-02 0. -1.
       -2   -1    0    0    0  501  0.00000000000E+00  0.00000000000E+00 -0.37473680260E+03  0.37473680261E+03  0.25500000920E-02 0.  1.
    10030    2    1    2    0    0  0.00000000000E+00  0.00000000000E+00  0.42176382423E+03  0.11712374295E+04  0.10926629822E+04 0.  0.
        3    1    3    3  502    0  0.37535059473E+03  0.38872526329E+03  0.29718697952E+03  0.61669725983E+03  0.10100000352E+00 0. -1.
       -3    1    3    3    0  502 -0.37535059473E+03 -0.38872526329E+03  0.12457684471E+03  0.55454016962E+03  0.10100000352E+00 0.  1.
</event>
<event>
 5   0  0.8470971E-05  0.2193240E+04  0.7818609E-02  0.8521247E-01
       -1   -1    0    0    0  501  0.00000000000E+00  0.00000000000E+00  0.87050485650E+03  0.87050485651E+03  0.50400001928E-02 0. -1.
        1   -1    0    0  501    0  0.00000000000E+00  0.00000000000E+00 -0.13814688993E+04  0.13814688993E+04  0.50400001928E-02 0.  1.
    10030    2    1    2    0    0  0.00000000000E+00  0.00000000000E+00 -0.51096404280E+03  0.22519737558E+04  0.21932399650E+04 0.  0.
        2    1    3    3  502    0 -0.86300587541E+03  0.64983308480E+03 -0.61985964339E+02  0.10820833789E+04  0.25500000920E-02 0. -1.
       -2    1    3    3    0  502  0.86300587541E+03 -0.64983308480E+03 -0.44897807846E+03  0.11698903769E+04  0.25500000920E-02 0.  1.
</event>
<event>
 5   0  0.1733962E-04  0.2183544E+04  0.7818609E-02  0.8525309E-01
        2   -1    0    0  501    0  0.00000000000E+00  0.00000000000E+00  0.77034090585E+03  0.77034090586E+03  0.25500000920E-02 0.  1.
       -2   -1    0    0    0  501  0.00000000000E+00  0.00000000000E+00 -0.15473222750E+04  0.15473222750E+04  0.25500000920E-02 0. -1.
    10030    2    1    2    0    0  0.00000000000E+00  0.00000000000E+00 -0.77698136912E+03  0.23176631808E+04  0.21835435814E+04 0.  0.
        3    1    3    3  502    0 -0.20467337707E+03 -0.70355484956E+03  0.47059659721E+03  0.87082821792E+03  0.10100000352E+00 0.  1.
       -3    1    3    3    0  502  0.20467337707E+03  0.70355484956E+03 -0.12475779663E+04  0.14468349629E+04  0.10100000352E+00 0. -1.
</event>
<event>
 5   0  0.1805501E-04  0.1740809E+04  0.7818609E-02  0.8738426E-01
        2   -1    0    0  501    0  0.00000000000E+00  0.00000000000E+00  0.12451671019E+04  0.12451671019E+04  0.25500000920E-02 0. -1.
       -2   -1    0    0    0  501  0.00000000000E+00  0.00000000000E+00 -0.60843532486E+03  0.60843532486E+03  0.25500000920E-02 0.  1.
    10030    2    1    2    0    0  0.00000000000E+00  0.00000000000E+00  0.63673177700E+03  0.18536024267E+04  0.17408086054E+04 0.  0.
        2    1    3    3  502    0  0.60127565036E+03 -0.43307383354E+03  0.80459129632E+03  0.10938247150E+04  0.25500000920E-02 0. -1.
       -2    1    3    3    0  502 -0.60127565036E+03  0.43307383354E+03 -0.16785951931E+03  0.75977771173E+03  0.25500000920E-02 0.  1.
</event>
<event>
 5   0  0.1680258E-04  0.2154571E+04  0.7818609E-02  0.8537578E-01
       -2   -1    0    0    0  501  0.00000000000E+00  0.00000000000E+00  0.52593102826E+03  0.52593102826E+03  0.25500000920E-02 0. -1.
        2   -1    0    0  501    0  0.00000000000E+00  0.00000000000E+00 -0.22066473585E+04  0.22066473585E+04  0.25500000920E-02 0.  1.
    10030    2    1    2    0    0  0.00000000000E+00  0.00000000000E+00 -0.16807163302E+04  0.27325783867E+04  0.21545712467E+04 0.  0.
        5    1    3    3  502    0 -0.22289775973E+03  0.18320966357E+03  0.47600179321E+03  0.55664080812E+03  0.46999998093E+01 0. -1.
       -5    1    3    3    0  502  0.22289775973E+03 -0.18320966357E+03 -0.21567181234E+04  0.21759375786E+04  0.46999998093E+01 0.  1.
</event>
<event>
 5   0  0.7954459E-05  0.1858190E+04  0.7818609E-02  0.8675953E-01
        1   -1    0    0  501    0  0.00000000000E+00  0.00000000000E+00  0.83076511372E+03  0.83076511374E+03  0.50400001928E-02 0. -1.
       -1   -1    0    0    0  501  0.00000000000E+00  0.00000000000E+00 -0.10390629138E+04  0.10390629138E+04  0.50400001928E-02 0.  1.
    10030    2    1    2    0    0  0.00000000000E+00  0.00000000000E+00 -0.20829780011E+03  0.18698280276E+04  0.18581896779E+04 0.  0.
        5    1    3    3  502    0  0.81208031491E+03  0.45116422612E+03 -0.90969808197E+02  0.93344587030E+03  0.46999998093E+01 0. -1.
       -5    1    3    3    0  502 -0.81208031491E+03 -0.45116422612E+03 -0.11732799192E+03  0.93638215728E+03  0.46999998093E+01 0.  1.
</event>
<event>
 5   0  0.7954459E-05  0.2153185E+04  0.7818609E-02  0.8538170E-01
        1   -1    0    0  501    0  0.00000000000E+00  0.00000000000E+00  0.65206087849E+03  0.65206087851E+03  0.50400001928E-02 0.  1.
       -1   -1    0    0    0  501  0.00000000000E+00  0.00000000000E+00 -0.17775203772E+04  0.17775203772E+04  0.50400001928E-02 0. -1.
    10030    2    1    2    0    0  0.00000000000E+00  0.00000000000E+00 -0.11254594987E+04  0.24295812557E+04  0.21531850814E+04 0.  0.
        5    1    3    3  502    0 -0.95481700518E+03 -0.31874940535E+02 -0.26941052212E+01  0.95536426217E+03  0.46999998093E+01 0.  1.
       -5    1    3    3    0  502  0.95481700518E+03  0.31874940535E+02 -0.11227653935E+04  0.14742169935E+04  0.46999998093E+01 0. -1.
</event>
<event>
 5   0  0.1754356E-04  0.2046327E+04  0.7818609E-02  0.8585262E-01
        2   -1    0    0  501    0  0.00000000000E+00  0.00000000000E+00  0.65853234235E+03  0.65853234235E+03  0.25500000920E-02 0.  1.
       -2   -1    0    0    0  501  0.00000000000E+00  0.00000000000E+00 -0.15896920241E+04  0.15896920241E+04  0.25500000920E-02 0. -1.
    10030    2    1    2    0    0  0.00000000000E+00  0.00000000000E+00 -0.93115968172E+03  0.22482243664E+04  0.20463270630E+04 0.  0.
        1    1    3    3  502    0  0.36522758644E+03  0.17743793519E+03 -0.14973809497E+04  0.15514590292E+04  0.50400001928E-02 0. -1.
       -1    1    3    3    0  502 -0.36522758644E+03 -0.17743793519E+03  0.56622126801E+03  0.69676533719E+03  0.50400001928E-02 0.  1.
</event>
<event>
 5   0  0.8470971E-05  0.2184603E+04  0.7818609E-02  0.8524864E-01
       -1   -1    0    0    0  501  0.00000000000E+00  0.00000000000E+00  0.66839172723E+03  0.66839172725E+03  0.50400001928E-02 0. -1.
        1   -1    0    0  501    0  0.00000000000E+00  0.00000000000E+00 -0.17850647909E+04  0.17850647909E+04  0.50400001928E-02 0.  1.
    10030    2    1    2    0    0  0.00000000000E+00  0.00000000000E+00 -0.11166730637E+04  0.24534565182E+04  0.21846029743E+04 0.  0.
        2    1    3    3  502    0 -0.22066374168E+03  0.38078380495E+03  0.56441291447E+03  0.71571693499E+03  0.25500000920E-02 0. -1.
       -2    1    3    3    0  502  0.22066374168E+03 -0.38078380495E+03 -0.16810859782E+04  0.17377395832E+04  0.25500000920E-02 0.  1.
</event>
<event>
 5   0  0.1805501E-04  0.2207566E+04  0.7818609E-02  0.8515285E-01
        2   -1    0    0  501    0  0.00000000000E+00  0.00000000000E+00  0.93726137985E+03  0.93726137985E+03  0.25500000920E-02 0. -1.
       -2   -1    0    0    0  501  0.00000000000E+00  0.00000000000E+00 -0.12998907814E+04  0.12998907814E+04  0.25500000920E-02 0.  1.
    10030    2    1    2    0    0  0.00000000000E+00  0.00000000000E+00 -0.36262940151E+03  0.22371521612E+04  0.22075664678E+04 0.  0.
        2    1    3    3  502    0  0.23986249707E+03  0.56508491580E+03  0.74830274650E+03  0.96789047934E+03  0.25500000920E-02 0. -1.
       -2    1    3    3    0  502 -0.23986249707E+03 -0.56508491580E+03 -0.11109321480E+04  0.12692616819E+04  0.25500000920E-02 0.  1.
</event>
<event>
 5   0  0.8306787E-05  0.2236825E+04  0.7818609E-02  0.8503255E-01
        1   -1    0    0  501    0  0.00000000000E+00  0.00000000000E+00  0.10892313234E+04  0.10892313234E+04  0.50400001928E-02 0. -1.
       -1   -1    0    0    0  501  0.00000000000E+00  0.00000000000E+00 -0.11483755108E+04  0.11483755108E+04  0.50400001928E-02 0.  1.
    10030    2    1    2    0    0  0.00000000000E+00  0.00000000000E+00 -0.59144187373E+02  0.22376068342E+04  0.22368250512E+04 0.  0.
        1    1    3    3  502    0 -0.82978216090E+03 -0.71553929365E+03  0.19480891403E+03  0.11128726020E+04  0.50400001928E-02 0.  1.
       -1    1    3    3    0  502  0.82978216090E+03  0.71553929365E+03 -0.25395310140E+03  0.11247342322E+04  0.50400001928E-02 0. -1.
</event>
<event>
 5   0  0.1798917E-04  0.2266357E+04  0.7818609E-02  0.8491306E-01
       -2   -1    0    0    0  501  0.00000000000E+00  0.00000000000E+00  0.16316425505E+04  0.16316425505E+04  0.25500000920E-02 0.  1.
        2   -1    0    0  501    0  0.00000000000E+00  0.00000000000E+00 -0.78699420887E+03  0.78699420888E+03  0.25500000920E-02 0. -1.
    10030    2    1    2    0    0  0.00000000000E+00  0.00000000000E+00  0.84464834162E+03  0.24186367594E+04  0.22663567576E+04 0.  0.
        4    1    3    3  502    0  0.29749492808E+03 -0.29541010224E+03 -0.70118133972E+03  0.81696220525E+03  0.12699999809E+01 0. -1.
       -4    1    3    3    0  502 -0.29749492808E+03  0.29541010224E+03  0.15458296813E+04  0.16016745541E+04  0.12699999809E+01 0.  1.
</event>
<event>
 5   0  0.8784659E-05  0.2233817E+04  0.7818609E-02  0.8504483E-01
       -1   -1    0    0    0  501  0.00000000000E+00  0.00000000000E+00  0.12111919504E+04  0.12111919504E+04  0.50400001928E-02 0.  1.
        1   -1    0    0  501    0  0.00000000000E+00  0.00000000000E+00 -0.10299646822E+04  0.10299646822E+04  0.50400001928E-02 0. -1.
    10030    2    1    2    0    0  0.00000000000E+00  0.00000000000E+00  0.18122726815E+03  0.22411566326E+04  0.22338172999E+04 0.  0.
        4    1    3    3  502    0  0.48222565159E+03 -0.24457529107E+03  0.10711294217E+04  0.11998660354E+04  0.12699999809E+01 0.  1.
       -4    1    3    3    0  502 -0.48222565159E+03  0.24457529107E+03 -0.88990215353E+03  0.10412905972E+04  0.12699999809E+01 0. -1.
</event>
<event>
 5   0  0.1680258E-04  0.2164955E+04  0.7818609E-02  0.8533158E-01
       -2   -1    0    0    0  501  0.00000000000E+00  0.00000000000E+00  0.10309296778E+04  0.10309296778E+04  0.25500000920E-02 0.  1.
        2   -1    0    0  501    0  0.00000000000E+00  0.00000000000E+00 -0.11366028230E+04  0.11366028230E+04  0.25500000920E-02 0. -1.
    10030    2    1    2    0    0  0.00000000000E+00  0.00000000000E+00 -0.10567314517E+03  0.21675325009E+04  0.21649550408E+04 0.  0.
        5    1    3    3  502    0 -0.34774611684E+03 -0.10007954682E+04  0.16927560457E+03  0.10729376735E+04  0.46999998093E+01 0.  1.
       -5    1    3    3    0  502  0.34774611684E+03  0.10007954682E+04 -0.27494874974E+03  0.10945948273E+04  0.46999998093E+01 0. -1.
</event>
<event>
 5   0  0.8784659E-05  0.2154989E+04  0.7818609E-02  0.8537400E-01
        1   -1    0    0  501    0  0.00000000000E+00  0.00000000000E+00  0.15520426253E+04  0.15520426253E+04  0.50400001928E-02 0. -1.
       -1   -1    0    0    0  501  0.00000000000E+00  0.00000000000E+00 -0.74804254162E+03  0.74804254163E+03  0.50400001928E-02 0.  1.
    10030    2    1    2    0    0  0.00000000000E+00  0.00000000000E+00  0.80400008363E+03  0.23000851669E+04  0.21549885476E+04 0.  0.
        4    1    3    3  502    0  0.10190258174E+04  0.32092037395E+03  0.55138360128E+03  0.12022599518E+04  0.12699999809E+01 0. -1.
       -4    1    3    3    0  502 -0.10190258174E+04 -0.32092037395E+03  0.25261648236E+03  0.10978252151E+04  0.12699999809E+01 0.  1.
</event>
<event>
 5   0  0.7954459E-05  0.2234547E+04  0.7818609E-02  0.8504185E-01
       -1   -1    0    0    0  501  0.00000000000E+00  0.00000000000E+00  0.56614347300E+03  0.56614347303E+03  0.50400001928E-02 0.  1.
        1   -1    0    0  501    0  0.00000000000E+00  0.00000000000E+00 -0.22049188111E+04  0.22049188111E+04  0.50400001928E-02 0. -1.
    10030    2    1    2    0    0  0.00000000000E+00  0.00000000000E+00 -0.16387753381E+04  0.27710622842E+04  0.22345472861E+04 0.  0.
        5    1    3    3  502    0 -0.57134419554E+03  0.63604541229E+03 -0.17113036084E+04  0.19130002839E+04  0.46999998093E+01 0. -1.
       -5    1    3    3    0  502  0.57134419554E+03 -0.63604541229E+03  0.72528270241E+02  0.85806200024E+03  0.46999998093E+01 0.  1.
</event>
<event>
 5   0  0.1754356E-04  0.1378096E+04  0.7818609E-02  0.8969828E-01
       -2   -1    0    0    0  501  0.00000000000E+00  0.00000000000E+00  0.26272266654E+03  0.26272266656E+03  0.25500000920E-02 0.  1.
        2   -1    0    0  501    0  0.00000000000E+00  0.00000000000E+00 -0.18071789970E+04  0.18071789970E+04  0.25500000920E-02 0. -1.
    10030    2    1    2    0    0  0.00000000000E+00  0.00000000000E+00 -0.15444563304E+04  0.20699016635E+04  0.13780956208E+04 0.  0.
        1    1    3    3  502    0  0.46538099924E+02 -0.52764744512E+03 -0.14341479038E+04  0.15288419902E+04  0.50400001928E-02 0. -1.
       -1    1    3    3    0  502 -0.46538099924E+02  0.52764744512E+03 -0.11030842665E+03  0.54105967332E+03  0.50400001928E-02 0.  1.
</event>
<event>
 5   0  0.7954459E-05  0.1217672E+04  0.7818609E-02  0.9097527E-01
        1   -1    0    0  501    0  0.00000000000E+00  0.00000000000E+00  0.29052512441E+03  0.29052512445E+03  0.50400001928E-02 0. -1.
       -1   -1    0    0    0  501  0.00000000000E+00  0.00000000000E+00 -0.12759016933E+04  0.12759016933E+04  0.50400001928E-02 0.  1.
    10030    2    1    2    0    0  0.00000000000E+00  0.00000000000E+00 -0.98537656892E+03  0.15664268178E+04  0.12176723668E+04 0.  0.
        5    1    3    3  502    0 -0.15858547026E+03  0.70500636292E+02  0.25800675271E+03  0.31098113374E+03  0.46999998093E+01 0. -1.
       -5    1    3    3    0  502  0.15858547026E+03 -0.70500636292E+02 -0.12433833216E+04  0.12554456841E+04  0.46999998093E+01 0.  1.
</event>
<event>
 5   0  0.1754356E-04  0.1977909E+04  0.7818609E-02  0.8617019E-01
       -2   -1    0    0    0  501  0.00000000000E+00  0.00000000000E+00  0.61135104040E+03  0.61135104041E+03  0.25500000920E-02 0.  1.
        2   -1    0    0  501    0  0.00000000000E+00  0.00000000000E+00 -0.15997870276E+04  0.15997870276E+04  0.25500000920E-02 0. -1.
    10030    2    1    2    0    0  0.00000000000E+00  0.00000000000E+00 -0.98843598715E+03  0.22111380680E+04  0.19779094658E+04 0.  0.
        1    1    3    3  502    0 -0.23103100708E+03 -0.24747249846E+03  0.54455074255E+03  0.64121250375E+03  0.50400001928E-02 0.  1.
       -1    1    3    3    0  502  0.23103100708E+03  0.24747249846E+03 -0.15329867297E+04  0.15699255642E+04  0.50400001928E-02 0. -1.
</event>
<event>
 5   0  0.8602414E-05  0.2266231E+04  0.7818609E-02  0.8491356E-01
       -1   -1    0    0    0  501  0.00000000000E+00  0.00000000000E+00  0.19594337099E+04  0.19594337099E+04  0.50400001928E-02 0. -1.
        1   -1    0    0  501    0  0.00000000000E+00  0.00000000000E+00 -0.65526612902E+03  0.65526612904E+03  0.50400001928E-02 0.  1.
    10030    2    1    2    0    0  0.00000000000E+00  0.00000000000E+00  0.13041675808E+04  0.26146998389E+04  0.22662308286E+04 0.  0.
        3    1    3    3  502    0 -0.57184791111E+00 -0.62145609923E+03 -0.44110103603E+03  0.76208801623E+03  0.10100000352E+00 0.  1.
       -3    1    3    3    0  502  0.57184791111E+00  0.62145609923E+03  0.17452686169E+04  0.18526118227E+04  0.10100000352E+00 0. -1.
</event>
<event>
 5   0  0.7954459E-05  0.2217113E+04  0.7818609E-02  0.8511339E-01
       -1   -1    0    0    0  501  0.00000000000E+00  0.00000000000E+00  0.78501362074E+03  0.78501362075E+03  0.50400001928E-02 0.  1.
        1   -1    0    0  501    0  0.00000000000E+00  0.00000000000E+00 -0.15654470999E+04  0.15654470999E+04  0.50400001928E-02 0. -1.
    10030    2    1    2    0    0  0.00000000000E+00  0.00000000000E+00 -0.78043347917E+03  0.23504607207E+04  0.22171128036E+04 0.  0.
        5    1    3    3  502    0  0.25119023197E+03 -0.15328091071E+03 -0.15232748546E+04  0.15514444698E+04  0.46999998093E+01 0. -1.
       -5    1    3    3    0  502 -0.25119023197E+03  0.15328091071E+03  0.74284137539E+03  0.79901625091E+03  0.46999998093E+01 0.  1.
</event>
<event>
 5   0  0.1798917E-04  0.2207032E+04  0.7818609E-02  0.8515507E-01
        2   -1    0    0  501    0  0.00000000000E+00  0.00000000000E+00  0.26801350196E+04  0.26801350196E+04  0.25500000920E-02 0. -1.
       -2   -1    0    0    0  501  0.00000000000E+00  0.00000000000E+00 -0.45436069575E+03  0.45436069576E+03  0.25500000920E-02 0.  1.
    10030    2    1    2    0    0  0.00000000000E+00  0.00000000000E+00  0.22257743239E+04  0.31344957154E+04  0.22070324078E+04 0.  0.
        4    1    3    3  502    0 -0.14025742249E+03 -0.24412720856E+03  0.26282650322E+04  0.26433026559E+04  0.12699999809E+01 0. -1.
       -4    1    3    3    0  502  0.14025742249E+03  0.24412720856E+03 -0.40249070829E+03  0.49119305948E+03  0.12699999809E+01 0.  1.
</event>
<event>
 5   0  0.1805501E-04  0.1994747E+04  0.7818609E-02  0.8609080E-01
       -2   -1    0    0    0  501  0.00000000000E+00  0.00000000000E+00  0.12626911954E+04  0.12626911954E+04  0.25500000920E-02 0. -1.
        2   -1    0    0  501    0  0.00000000000E+00  0.00000000000E+00 -0.78780483627E+03  0.78780483627E+03  0.25500000920E-02 0.  1.
    10030    2    1    2    0    0  0.00000000000E+00  0.00000000000E+00  0.47488635914E+03  0.20504960317E+04  0.19947473328E+04 0.  0.
        2    1    3    3  502    0  0.65788760103E+03 -0.34513824565E+01  0.10080106828E+04  0.12037082471E+04  0.25500000920E-02 0. -1.
       -2    1    3    3    0  502 -0.65788760103E+03  0.34513824565E+01 -0.53312432362E+03  0.84678778456E+03  0.25500000920E-02 0.  1.
</event>
<event>
 5   0  0.8784659E-05  0.2260698E+04  0.7818609E-02  0.8493581E-01
        1   -1    0    0  501    0  0.00000000000E+00  0.00000000000E+00  0.15791356281E+04  0.15791356281E+04  0.50400001928E-02 0. -1.
       -1   -1    0    0    0  501  0.00000000000E+00  0.00000000000E+00 -0.80910628020E+03  0.80910628021E+03  0.50400001928E-02 0.  1.
    10030    2    1    2    0    0  0.00000000000E+00  0.00000000000E+00  0.77002934792E+03  0.23882419083E+04  0.22606977277E+04 0.  0.
        4    1    3    3  502    0  0.55602344100E+02 -0.30947039665E+03 -0.76197680140E+03  0.82430201131E+03  0.12699999809E+01 0.  1.
       -4    1    3    3    0  502 -0.55602344100E+02  0.30947039665E+03  0.15320061493E+04  0.15639398970E+04  0.12699999809E+01 0. -1.
</event>
<event>
 5   0  0.1680258E-04  0.2363052E+04  0.7818609E-02  0.8453467E-01
       -2   -1    0    0    0  501  0.00000000000E+00  0.00000000000E+00  0.13228779016E+04  0.13228779016E+04  0.25500000920E-02 0. -1.
        2   -1    0    0  501    0  0.00000000000E+00  0.00000000000E+00 -0.10552778468E+04  0.10552778468E+04  0.25500000920E-02 0.  1.
    10030    2    1    2    0    0  0.00000000000E+00  0.00000000000E+00  0.26760005477E+03  0.23781557484E+04  0.23630520464E+04 0.  0.
        5    1    3    3  502    0  0.91982770253E+03 -0.25667765195E+03 -0.56635872503E+03  0.11102930761E+04  0.46999998093E+01 0.  1.
       -5    1    3    3    0  502 -0.91982770253E+03  0.25667765195E+03  0.83395877980E+03  0.12678626723E+04  0.46999998093E+01 0. -1.
</event>
<event>
 5   0  0.8306787E-05  0.1930809E+04  0.7818609E-02  0.8639671E-01
       -1   -1    0    0    0  501  0.00000000000E+00  0.00000000000E+00  0.46292188048E+03  0.46292188051E+03  0.50400001928E-02 0.  1.
        1   -1    0    0  501    0  0.00000000000E+00  0.00000000000E+00 -0.20133114996E+04  0.20133114996E+04  0.50400001928E-02 0. -1.
    10030    2    1    2    0    0  0.00000000000E+00  0.00000000000E+00 -0.15503896191E+04  0.24762333801E+04  0.19308091003E+04 0.  0.
        1    1    3    3  502    0 -0.68893801958E+03 -0.26072958614E+03  0.25090556334E+02  0.73705159111E+03  0.50400001928E-02 0.  1.
       -1    1    3    3    0  502  0.68893801958E+03  0.26072958614E+03 -0.15754801754E+04  0.17391817890E+04  0.50400001928E-02 0. -1.
</event>
<event>
 5   0  0.1798917E-04  0.2175082E+04  0.7818609E-02  0.8528872E-01
        2   -1    0    0  501    0  0.00000000000E+00  0.00000000000E+00  0.15505079684E+04  0.15505079684E+04  0.25500000920E-02 0. -1.
       -2   -1    0    0    0  501  0.00000000000E+00  0.00000000000E+00 -0.76281144812E+03  0.76281144813E+03  0.25500000920E-02 0.  1.
    10030    2    1    2    0    0  0.00000000000E+00  0.00000000000E+00  0.78769652025E+03  0.23133194165E+04  0.21750818179E+04 0.  0.
        4    1    3    3  502    0 -0.41268319345E+02  0.55100756180E+03 -0.60239763203E+03  0.81743313324E+03  0.12699999809E+01 0.  1.
       -4    1    3    3    0  502  0.41268319345E+02 -0.55100756180E+03  0.13900941523E+04  0.14958862833E+04  0.12699999809E+01 0. -1.
</event>
<event>
 5   0  0.8470971E-05  0.2193385E+04  0.7818609E-02  0.8521187E-01
        1   -1    0    0  501    0  0.00000000000E+00  0.00000000000E+00  0.11606892918E+04  0.11606892918E+04  0.50400001928E-02 0.  1.
       -1   -1    0    0    0  501  0.00000000000E+00  0.00000000000E+00 -0.10362241001E+04  0.10362241001E+04  0.50400001928E-02 0. -1.
    10030    2    1    2    0    0  0.00000000000E+00  0.00000000000E+00  0.12446519177E+03  0.21969133919E+04  0.21933847970E+04 0.  0.
        2    1    3    3  502    0  0.10090584572E+04 -0.17237168250E+03 -0.33187626303E+03  0.10761286265E+04  0.25500000920E-02 0. -1.
       -2    1    3    3    0  502 -0.10090584572E+04  0.17237168250E+03  0.45634145480E+03  0.11207847654E+04  0.25500000920E-02 0.  1.
</event>
<event>
 5   0  0.8470971E-05  0.2101341E+04  0.7818609E-02  0.8560653E-01
       -1   -1    0    0    0  501  0.00000000000E+00  0.00000000000E+00  0.62505075604E+03  0.62505075606E+03  0.50400001928E-02 0. -1.
        1   -1    0    0  501    0  0.00000000000E+00  0.00000000000E+00 -0.17661109363E+04  0.17661109363E+04  0.50400001928E-02 0.  1.
    10030    2    1    2    0    0  0.00000000000E+00  0.00000000000E+00 -0.11410601803E+04  0.23911616924E+04  0.21013414535E+04 0.  0.
        2    1    3    3  502    0 -0.83638347520E+03 -0.49919651106E+03 -0.10187823589E+04  0.14094864203E+04  0.25500000920E-02 0.  1.
       -2    1    3    3    0  502  0.83638347520E+03  0.49919651106E+03 -0.12227782141E+03  0.98167527210E+03  0.25500000920E-02 0. -1.
</event>
<event>
 5   0  0.1805501E-04  0.2182396E+04  0.7818609E-02  0.8525791E-01
       -2   -1    0    0    0  501  0.00000000000E+00  0.00000000000E+00  0.41805625303E+03  0.41805625304E+03  0.25500000920E-02 0.  1.
        2   -1    0    0  501    0  0.00000000000E+00  0.00000000000E+00 -0.28482127231E+04  0.28482127231E+04  0.25500000920E-02 0. -1.
    10030    2    1    2    0    0  0.00000000000E+00  0.00000000000E+00 -0.24301564701E+04  0.32662689761E+04  0.21823960583E+04 0.  0.
        2    1    3    3  502    0  0.76843160746E+03  0.38426426979E+03 -0.20823975206E+03  0.88403051912E+03  0.25500000920E-02 0.  1.
       -2    1    3    3    0  502 -0.76843160746E+03 -0.38426426979E+03 -0.22219167180E+04  0.23822384570E+04  0.25500000920E-02 0. -1.
</event>
<event>
 5   0  0.7954459E-05  0.2215284E+04  0.7818609E-02  0.8512093E-01
        1   -1    0    0  501    0  0.00000000000E+00  0.00000000000E+00  0.10684086429E+04  0.10684086429E+04  0.50400001928E-02 0. -1.
       -1   -1    0    0    0  501  0.00000000000E+00  0.00000000000E+00 -0.11483161229E+04  0.11483161229E+04  0.50400001928E-02 0.  1.
    10030    2    1    2    0    0  0.00000000000E+00  0.00000000000E+00 -0.79907480054E+02  0.22167247658E+04  0.22152840635E+04 0.  0.
        5    1    3    3  502    0 -0.88867927441E+03  0.53752387197E+03  0.34521998181E+03  0.10944778168E+04  0.46999998093E+01 0. -1.
       -5    1    3    3    0  502  0.88867927441E+03 -0.53752387197E+03 -0.42512746187E+03  0.11222469490E+04  0.46999998093E+01 0.  1.
</event>
<event>
 5   0  0.8306787E-05  0.2149026E+04  0.7818609E-02  0.8539949E-01
       -1   -1    0    0    0  501  0.00000000000E+00  0.00000000000E+00  0.58355260933E+03  0.58355260936E+03  0.50400001928E-02 0. -1.
        1   -1    0    0  501    0  0.00000000000E+00  0.00000000000E+00 -0.19785330873E+04  0.19785330873E+04  0.50400001928E-02 0.  1.
    10030    2    1    2    0    0  0.00000000000E+00  0.00000000000E+00 -0.13949804780E+04  0.25620856967E+04  0.21490259615E+04 0.  0.
        1    1    3    3  502    0  0.62618467159E+03  0.34277566680E+03 -0.16549569453E+04  0.18023553733E+04  0.50400001928E-02 0.  1.
       -1    1    3    3    0  502 -0.62618467159E+03 -0.34277566680E+03  0.25997646735E+03  0.75973032340E+03  0.50400001928E-02 0. -1.
</event>
<event>
 5   0  0.7954459E-05  0.2175923E+04  0.7818609E-02  0.8528517E-01
        1   -1    0    0  501    0  0.00000000000E+00  0.00000000000E+00  0.95282068479E+03  0.95282068481E+03  0.50400001928E-02 0.  1.
       -1   -1    0    0    0  501  0.00000000000E+00  0.00000000000E+00 -0.12422696897E+04  0.12422696897E+04  0.50400001928E-02 0. -1.
    10030    2    1    2    0    0  0.00000000000E+00  0.00000000000E+00 -0.28944900488E+03  0.21950903745E+04  0.21759230285E+04 0.  0.
        5    1    3    3  502    0 -0.50164472606E+03  0.82345591424E+03 -0.65305915261E+03  0.11645752104E+04  0.46999998093E+01 0.  1.
       -5    1    3    3    0  502  0.50164472606E+03 -0.82345591424E+03  0.36361014772E+03  0.10305151641E+04  0.46999998093E+01 0. -1.
</event>
<event>
 5   0  0.1805501E-04  0.2117123E+04  0.7818609E-02  0.8553738E-01
       -2   -1    0    0    0  501  0.00000000000E+00  0.00000000000E+00  0.13163937609E+04  0.13163937609E+04  0.25500000920E-02 0.  1.
        2   -1    0    0  501    0  0.00000000000E+00  0.00000000000E+00 -0.85122917352E+03  0.85122917352E+03  0.25500000920E-02 0. -1.
    10030    2    1    2    0    0  0.00000000000E+00  0.00000000000E+00  0.46516458736E+03  0.21676229344E+04  0.21171233059E+04 0.  0.
        2    1    3    3  502    0  0.80986909265E+03 -0.16626213298E+03  0.90942709855E+03  0.12290600846E+04  0.25500000920E-02 0.  1.
       -2    1    3    3    0  502 -0.80986909265E+03  0.16626213298E+03 -0.44426251119E+03  0.93856284975E+03  0.25500000920E-02 0. -1.
</event>
<event>
 5   0  0.1805501E-04  0.2111443E+04  0.7818609E-02  0.8556219E-01
       -2   -1    0    0    0  501  0.00000000000E+00  0.00000000000E+00  0.54820746102E+03  0.54820746103E+03  0.25500000920E-02 0.  1.
        2   -1    0    0  501    0  0.00000000000E+00  0.00000000000E+00 -0.20330765327E+04  0.20330765327E+04  0.25500000920E-02 0. -1.
    10030    2    1    2    0    0  0.00000000000E+00  0.00000000000E+00 -0.14848690717E+04  0.25812839938E+04  0.21114428470E+04 0.  0.
        2    1    3    3  502    0 -0.40618348892E+02  0.32080184207E+03 -0.19710436031E+04  0.19973924395E+04  0.25500000920E-02 0. -1.
       -2    1    3    3    0  502  0.40618348892E+02 -0.32080184207E+03  0.48617453138E+03  0.58389155424E+03  0.25500000920E-02 0.  1.
</event>
<event>
 5   0  0.8306787E-05  0.2310817E+04  0.7818609E-02  0.8473668E-01
       -1   -1    0    0    0  501  0.00000000000E+00  0.00000000000E+00  0.12032917750E+04  0.12032917750E+04  0.50400001928E-02 0. -1.
        1   -1    0    0  501    0  0.00000000000E+00  0.00000000000E+00 -0.11094302502E+04  0.11094302502E+04  0.50400001928E-02 0.  1.
    10030    2    1    2    0    0  0.00000000000E+00  0.00000000000E+00  0.93861524795E+02  0.23127220253E+04  0.23108165614E+04 0.  0.
        1    1    3    3  502    0  0.51833551811E+03 -0.10071481949E+04  0.27504215494E+03  0.11656188841E+04  0.50400001928E-02 0. -1.
       -1    1    3    3    0  502 -0.51833551811E+03  0.10071481949E+04 -0.18118063014E+03  0.11471031412E+04  0.50400001928E-02 0.  1.
</event>
<event>
 5   0  0.1733962E-04  0.2234495E+04  0.7818609E-02  0.8504206E-01
        2   -1    0    0  501    0  0.00000000000E+00  0.00000000000E+00  0.10690515414E+04  0.10690515414E+04  0.25500000920E-02 0. -1.
       -2   -1    0    0    0  501  0.00000000000E+00  0.00000000000E+00 -0.11676165703E+04  0.11676165703E+04  0.25500000920E-02 0.  1.
    10030    2    1    2    0    0  0.00000000000E+00  0.00000000000E+00 -0.98565028881E+02  0.22366681117E+04  0.22344952846E+04 0.  0.
        3    1    3    3  502    0 -0.52030400674E+03  0.95350282492E+03  0.21242609403E+03  0.11068011349E+04  0.10100000352E+00 0. -1.
       -3    1    3    3    0  502  0.52030400674E+03 -0.95350282492E+03 -0.31099112291E+03  0.11298669768E+04  0.10100000352E+00 0.  1.
</event>
<event>
 5   0  0.1733962E-04  0.2252817E+04  0.7818609E-02  0.8496760E-01
        2   -1    0    0  501    0  0.00000000000E+00  0.00000000000E+00  0.72780411974E+03  0.72780411975E+03  0.25500000920E-02 0. -1.
       -2   -1    0    0    0  501  0.00000000000E+00  0.00000000000E+00 -0.17433214654E+04  0.17433214654E+04  0.25500000920E-02 0.  1.
    10030    2    1    2    0    0  0.00000000000E+00  0.00000000000E+00 -0.10155173457E+04  0.24711255852E+04  0.22528173868E+04 0.  0.
        3    1    3    3  502    0 -0.65042347234E+03  0.86130715939E+03 -0.86132252888E+03  0.13808610448E+04  0.10100000352E+00 0. -1.
       -3    1    3    3    0  502  0.65042347234E+03 -0.86130715939E+03 -0.15419481681E+03  0.10902645403E+04  0.10100000352E+00 0.  1.
</event>
<event>
 5   0  0.1798917E-04  0.2239002E+04  0.7818609E-02  0.8502368E-01
       -2   -1    0    0    0  501  0.00000000000E+00  0.00000000000E+00  0.10953498478E+04  0.10953498478E+04  0.25500000920E-02 0.  1.
        2   -1    0    0  501    0  0.00000000000E+00  0.00000000000E+00 -0.11441851448E+04  0.11441851448E+04  0.25500000920E-02 0. -1.
    10030    2    1    2    0    0  0.00000000000E+00  0.00000000000E+00 -0.48835297066E+02  0.22395349926E+04  0.22390024781E+04 0.  0.
        4    1    3    3  502    0  0.45787916493E+03 -0.54116017159E+02  0.99597180064E+03  0.10975168853E+04  0.12699999809E+01 0.  1.
       -4    1    3    3    0  502 -0.45787916493E+03  0.54116017159E+02 -0.10448070977E+04  0.11420181073E+04  0.12699999809E+01 0. -1.
</event>
<event>
 5   0  0.8784659E-05  0.2296634E+04  0.7818609E-02  0.8479249E-01
        1   -1    0    0  501    0  0.00000000000E+00  0.00000000000E+00  0.77685842533E+03  0.77685842535E+03  0.50400001928E-02 0. -1.
       -1   -1    0    0    0  501  0.00000000000E+00  0.00000000000E+00 -0.16973904389E+04  0.16973904389E+04  0.50400001928E-02 0.  1.
    10030    2    1    2    0    0  0.00000000000E+00  0.00000000000E+00 -0.92053201360E+03  0.24742488643E+04  0.22966341142E+04 0.  0.
        4    1    3    3  502    0  0.88388757657E+02 -0.14663284114E+03  0.76302947030E+03  0.78200341945E+03  0.12699999809E+01 0. -1.
       -4    1    3    3    0  502 -0.88388757657E+02  0.14663284114E+03 -0.16835614839E+04  0.16922454448E+04  0.12699999809E+01 0.  1.
</event>
<event>
 5   0  0.8784659E-05  0.2260302E+04  0.7818609E-02  0.8493740E-01
        1   -1    0    0  501    0  0.00000000000E+00  0.00000000000E+00  0.19581051389E+04  0.19581051389E+04  0.50400001928E-02 0. -1.
       -1   -1    0    0    0  501  0.00000000000E+00  0.00000000000E+00 -0.65228429218E+03  0.65228429220E+03  0.50400001928E-02 0.  1.
    10030    2    1    2    0    0  0.00000000000E+00  0.00000000000E+00  0.13058208467E+04  0.26103894311E+04  0.22603019485E+04 0.  0.
        4    1    3    3  502    0 -0.10298958939E+04  0.60107480369E+02  0.11998229792E+03  0.10386028241E+04  0.12699999809E+01 0.  1.
       -4    1    3    3    0  502  0.10298958939E+04 -0.60107480369E+02  0.11858385488E+04  0.15717866071E+04  0.12699999809E+01 0. -1.
</event>
<event>
 5   0  0.1680258E-04  0.2056000E+04  0.7818609E-02  0.8580877E-01
        2   -1    0    0  501    0  0.00000000000E+00  0.00000000000E+00  0.20198631883E+04  0.20198631883E+04  0.25500000920E-02 0. -1.
       -2   -1    0    0    0  501  0.00000000000E+00  0.00000000000E+00 -0.52319598945E+03  0.52319598945E+03  0.25500000920E-02 0.  1.
    10030    2    1    2    0    0  0.00000000000E+00  0.00000000000E+00  0.14966671988E+04  0.25430591777E+04  0.20560003106E+04 0.  0.
        5    1    3    3  502    0  0.85416873433E+03 -0.95938941207E+02  0.50880116673E+02  0.86105713133E+03  0.46999998093E+01 0.  1.
       -5    1    3    3    0  502 -0.85416873433E+03  0.95938941207E+02  0.14457870822E+04  0.16820020464E+04  0.46999998093E+01 0. -1.
</event>
<event>
 5   0  0.8784659E-05  0.2171194E+04  0.7818609E-02  0.8530514E-01
       -1   -1    0    0    0  501  0.00000000000E+00  0.00000000000E+00  0.14894646045E+04  0.14894646045E+04  0.50400001928E-02 0. -1.
        1   -1    0    0  501    0  0.00000000000E+00  0.00000000000E+00 -0.79123822489E+03  0.79123822490E+03  0.50400001928E-02 0.  1.
    10030    2    1    2    0    0  0.00000000000E+00  0.00000000000E+00  0.69822637958E+03  0.22807028294E+04  0.21711944452E+04 0.  0.
        4    1    3    3  502    0 -0.78886122807E+03 -0.56812581488E+03 -0.15842369281E+03  0.98497139960E+03  0.12699999809E+01 0.  1.
       -4    1    3    3    0  502  0.78886122807E+03  0.56812581488E+03  0.85665007239E+03  0.12957314298E+04  0.12699999809E+01 0. -1.
</event>
<event>
 5   0  0.1733962E-04  0.2185107E+04  0.7818609E-02  0.8524653E-01
       -2   -1    0    0    0  501  0.00000000000E+00  0.00000000000E+00  0.10356726827E+04  0.10356726827E+04  0.25500000920E-02 0. -1.
        2   -1    0    0  501    0  0.00000000000E+00  0.00000000000E+00 -0.11525582452E+04  0.11525582452E+04  0.25500000920E-02 0.  1.
    10030    2    1    2    0    0  0.00000000000E+00  0.00000000000E+00 -0.11688556249E+03  0.21882309278E+04  0.21851069445E+04 0.  0.
        3    1    3    3  502    0  0.10105065091E+04 -0.40750175522E+03  0.22245323664E+02  0.10898054643E+04  0.10100000352E+00 0. -1.
       -3    1    3    3    0  502 -0.10105065091E+04  0.40750175522E+03 -0.13913088615E+03  0.10984254636E+04  0.10100000352E+00 0.  1.
</event>
<event>
 5   0  0.1733962E-04  0.2067223E+04  0.7818609E-02  0.8575821E-01
       -2   -1    0    0    0  501  0.00000000000E+00  0.00000000000E+00  0.53249400154E+03  0.53249400154E+03  0.25500000920E-02 0.  1.
        2   -1    0    0  501    0  0.00000000000E+00  0.00000000000E+00 -0.20063186619E+04  0.20063186619E+04  0.25500000920E-02 0. -1.
    10030    2    1    2    0    0  0.00000000000E+00  0.00000000000E+00 -0.14738246603E+04  0.25388126634E+04  0.20672229223E+04 0.  0.
        3    1    3    3  502    0  0.44565577729E+03  0.36286144341E+03 -0.17920123561E+04  0.18819101449E+04  0.10100000352E+00 0. -1.
       -3    1    3    3    0  502 -0.44565577729E+03 -0.36286144341E+03  0.31818769573E+03  0.65690251853E+03  0.10100000352E+00 0.  1.
</event>
<event>
 5   0  0.8784659E-05  0.2218663E+04  0.7818609E-02  0.8510700E-01
        1   -1    0    0  501    0  0.00000000000E+00  0.00000000000E+00  0.18477805080E+04  0.18477805080E+04  0.50400001928E-02 0.  1.
       -1   -1    0    0    0  501  0.00000000000E+00  0.00000000000E+00 -0.66599702563E+03  0.66599702565E+03  0.50400001928E-02 0. -1.
    10030    2    1    2    0    0  0.00000000000E+00  0.00000000000E+00  0.11817834824E+04  0.25137775337E+04  0.22186629509E+04 0.  0.
        4    1    3    3  502    0  0.45137015934E+03 -0.10384207598E+03 -0.55120525569E+03  0.71996322426E+03  0.12699999809E+01 0. -1.
       -4    1    3    3    0  502 -0.45137015934E+03  0.10384207598E+03  0.17329887381E+04  0.17938143094E+04  0.12699999809E+01 0.  1.
</event>
<event>
 5   0  0.8602414E-05  0.2233844E+04  0.7818609E-02  0.8504472E-01
       -1   -1    0    0    0  501  0.00000000000E+00  0.00000000000E+00  0.10595493897E+04  0.10595493897E+04  0.50400001928E-02 0.  1.
        1   -1    0    0  501    0  0.00000000000E+00  0.00000000000E+00 -0.11774014435E+04  0.11774014435E+04  0.50400001928E-02 0. -1.
    10030    2    1    2    0    0  0.00000000000E+00  0.00000000000E+00 -0.11785205387E+03  0.22369508332E+04  0.22338442031E+04 0.  0.
        3    1    3    3  502    0  0.57518455683E+03  0.81755456169E+03  0.44004620921E+03  0.10921874437E+04  0.10100000352E+00 0.  1.
       -3    1    3    3    0  502 -0.57518455683E+03 -0.81755456169E+03 -0.55789826308E+03  0.11447633895E+04  0.10100000352E+00 0. -1.
</event>
<event>
 5   0  0.8784659E-05  0.2231622E+04  0.7818609E-02  0.8505381E-01
       -1   -1    0    0    0  501  0.00000000000E+00  0.00000000000E+00  0.86987588926E+03  0.86987588927E+03  0.50400001928E-02 0. -1.
        1   -1    0    0  501    0  0.00000000000E+00  0.00000000000E+00 -0.14312774693E+04  0.14312774693E+04  0.50400001928E-02 0.  1.
    10030    2    1    2    0    0  0.00000000000E+00  0.00000000000E+00 -0.56140158003E+03  0.23011533586E+04  0.22316216179E+04 0.  0.
        4    1    3    3  502    0  0.37080965478E+01  0.48258853541E+03  0.75669013562E+03  0.89748928614E+03  0.12699999809E+01 0. -1.
       -4    1    3    3    0  502 -0.37080965478E+01 -0.48258853541E+03 -0.13180917156E+04  0.14036640724E+04  0.12699999809E+01 0.  1.
</event>
<event>
 5   0  0.1680258E-04  0.2172246E+04  0.7818609E-02  0.8530069E-01
        2   -1    0    0  501    0  0.00000000000E+00  0.00000000000E+00  0.12969045606E+04  0.12969045606E+04  0.25500000920E-02 0. -1.
       -2   -1    0    0    0  501  0.00000000000E+00  0.00000000000E+00 -0.90959942607E+03  0.90959942607E+03  0.25500000920E-02 0.  1.
    10030    2    1    2    0    0  0.00000000000E+00  0.00000000000E+00  0.38730513453E+03  0.22065039867E+04  0.21722464354E+04 0.  0.
        5    1    3    3  502    0 -0.10744124954E+04  0.10633794421E+03  0.31371813209E+03  0.11243269653E+04  0.46999998093E+01 0.  1.
       -5    1    3    3    0  502  0.10744124954E+04 -0.10633794421E+03  0.73587002441E+02  0.10821770213E+04  0.46999998093E+01 0. -1.
</event>
<event>
 5   0  0.8784659E-05  0.2197365E+04  0.7818609E-02  0.8519525E-01
        1   -1    0    0  501    0  0.00000000000E+00  0.00000000000E+00  0.10948716627E+04  0.10948716628E+04  0.50400001928E-02 0.  1.
       -1   -1    0    0    0  501  0.00000000000E+00  0.00000000000E+00 -0.11025069966E+04  0.11025069966E+04  0.50400001928E-02 0. -1.
    10030    2    1    2    0    0  0.00000000000E+00  0.00000000000E+00 -0.76353338523E+01  0.21973786594E+04  0.21973653939E+04 0.  0.
        4    1    3    3  502    0 -0.78353718352E+03  0.70916324234E+03 -0.30425089281E+03  0.10997332590E+04  0.12699999809E+01 0. -1.
       -4    1    3    3    0  502  0.78353718352E+03 -0.70916324234E+03  0.29661555896E+03  0.10976454004E+04  0.12699999809E+01 0.  1.
</event>
<event>
 5   0  0.8470971E-05  0.2162430E+04  0.7818609E-02  0.8534230E-01
       -1   -1    0    0    0  501  0.00000000000E+00  0.00000000000E+00  0.85726042126E+03  0.85726042128E+03  0.50400001928E-02 0.  1.
        1   -1    0    0  501    0  0.00000000000E+00  0.00000000000E+00 -0.13636769365E+04  0.13636769365E+04  0.50400001928E-02 0. -1.
    10030    2    1    2    0    0  0.00000000000E+00  0.00000000000E+00 -0.50641651527E+03  0.22209373578E+04  0.21624303597E+04 0.  0.
        2    1    3    3  502    0  0.49960909608E+03  0.22334949484E+03 -0.12109247555E+04  0.13288464957E+04  0.25500000920E-02 0. -1.
       -2    1    3    3    0  502 -0.49960909608E+03 -0.22334949484E+03  0.70450824021E+03  0.89209086211E+03  0.25500000920E-02 0.  1.
</event>
<event>
 5   0  0.7954459E-05  0.2199612E+04  0.7818609E-02  0.8518590E-01
        1   -1    0    0  501    0  0.00000000000E+00  0.00000000000E+00  0.23646281002E+04  0.23646281002E+04  0.50400001928E-02 0.  1.
       -1   -1    0    0    0  501  0.00000000000E+00  0.00000000000E+00 -0.51152790726E+03  0.51152790728E+03  0.50400001928E-02 0. -1.
    10030    2    1    2    0    0  0.00000000000E+00  0.00000000000E+00  0.18531001929E+04  0.28761560075E+04  0.21996120236E+04 0.  0.
        5    1    3    3  502    0 -0.17752969637E+03  0.64768943695E+03  0.20653660152E+04  0.21718142800E+04  0.46999998093E+01 0.  1.
       -5    1    3    3    0  502  0.17752969637E+03 -0.64768943695E+03 -0.21226582228E+03  0.70434172752E+03  0.46999998093E+01 0. -1.
</event>
<event>
 5   0  0.1805501E-04  0.2157119E+04  0.7818609E-02  0.8536491E-01
       -2   -1    0    0    0  501  0.00000000000E+00  0.00000000000E+00  0.11564328282E+04  0.11564328282E+04  0.25500000920E-02 0.  1.
        2   -1    0    0  501    0  0.00000000000E+00  0.00000000000E+00 -0.10059305337E+04  0.10059305337E+04  0.25500000920E-02 0. -1.
    10030    2    1    2    0    0  0.00000000000E+00  0.00000000000E+00  0.15050229448E+03  0.21623633619E+04  0.21571194608E+04 0.  0.
        2    1    3    3  502    0  0.60220970869E+03 -0.30566310870E+03  0.91825007607E+03  0.11398551099E+04  0.25500000920E-02 0.  1.
       -2    1    3    3    0  502 -0.60220970869E+03  0.30566310870E+03 -0.76774778160E+03  0.10225082520E+04  0.25500000920E-02 0. -1.
</event>
<event>
 5   0  0.1798917E-04  0.2181721E+04  0.7818609E-02  0.8526075E-01
       -2   -1    0    0    0  501  0.00000000000E+00  0.00000000000E+00  0.55681219708E+03  0.55681219709E+03  0.25500000920E-02 0. -1.
        2   -1    0    0  501    0  0.00000000000E+00  0.00000000000E+00 -0.21371230752E+04  0.21371230752E+04  0.25500000920E-02 0.  1.
    10030    2    1    2    0    0  0.00000000000E+00  0.00000000000E+00 -0.15803108781E+04  0.26939352723E+04  0.21817206007E+04 0.  0.
        4    1    3    3  502    0 -0.29712051779E+03  0.88412013314E+03 -0.91632996177E+02  0.93720180900E+03  0.12699999809E+01 0. -1.
       -4    1    3    3    0  502  0.29712051779E+03 -0.88412013314E+03 -0.14886778819E+04  0.17567334632E+04  0.12699999809E+01 0.  1.
</event>
<event>
 5   0  0.1733962E-04  0.2421016E+04  0.7818609E-02  0.8431677E-01
       -2   -1    0    0    0  501  0.00000000000E+00  0.00000000000E+00  0.10156252795E+04  0.10156252795E+04  0.25500000920E-02 0.  1.
        2   -1    0    0  501    0  0.00000000000E+00  0.00000000000E+00 -0.14427856166E+04  0.14427856166E+04  0.25500000920E-02 0. -1.
    10030    2    1    2    0    0  0.00000000000E+00  0.00000000000E+00 -0.42716033708E+03  0.24584108961E+04  0.24210159398E+04 0.  0.
        3    1    3    3  502    0  0.11019312581E+03  0.62140609551E+03 -0.12625125035E+04  0.14114623240E+04  0.10100000352E+00 0. -1.
       -3    1    3    3    0  502 -0.11019312581E+03 -0.62140609551E+03  0.83535216639E+03  0.10469485721E+04  0.10100000352E+00 0.  1.
</event>
<event>
 5   0  0.8306787E-05  0.2218607E+04  0.7818609E-02  0.8510723E-01
        1   -1    0    0  501    0  0.00000000000E+00  0.00000000000E+00  0.13704636408E+04  0.13704636408E+04  0.50400001928E-02 0. -1.
       -1   -1    0    0    0  501  0.00000000000E+00  0.00000000000E+00 -0.89791123367E+03  0.89791123369E+03  0.50400001928E-02 0.  1.
    10030    2    1    2    0    0  0.00000000000E+00  0.00000000000E+00  0.47255240710E+03  0.22683748745E+04  0.22186073996E+04 0.  0.
        1    1    3    3  502    0 -0.83999238942E+03 -0.70932137151E+03  0.85209774444E+02  0.11027169755E+04  0.50400001928E-02 0. -1.
       -1    1    3    3    0  502  0.83999238942E+03  0.70932137151E+03  0.38734263266E+03  0.11656578990E+04  0.50400001928E-02 0.  1.
</event>
<event>
 5   0  0.8602414E-05  0.2205636E+04  0.7818609E-02  0.8516086E-01
       -1   -1    0    0    0  501  0.00000000000E+00  0.00000000000E+00  0.71392188815E+03  0.71392188817E+03  0.50400001928E-02 0.  1.
        1   -1    0    0  501    0  0.00000000000E+00  0.00000000000E+00 -0.17035585713E+04  0.17035585713E+04  0.50400001928E-02 0. -1.
    10030    2    1    2    0    0  0.00000000000E+00  0.00000000000E+00 -0.98963668311E+03  0.24174804594E+04  0.22056361910E+04 0.  0.
        3    1    3    3  502    0 -0.98260377782E+03  0.38878750373E+03 -0.84062385472E+03  0.13503015895E+04  0.10100000352E+00 0. -1.
       -3    1    3    3    0  502  0.98260377782E+03 -0.38878750373E+03 -0.14901282839E+03  0.10671788699E+04  0.10100000352E+00 0.  1.
</event>
<event>
 5   0  0.7954459E-05  0.2219467E+04  0.7818609E-02  0.8510369E-01
       -1   -1    0    0    0  501  0.00000000000E+00  0.00000000000E+00  0.39356471695E+03  0.39356471699E+03  0.50400001928E-02 0.  1.
        1   -1    0    0  501    0  0.00000000000E+00  0.00000000000E+00 -0.31291115636E+04  0.31291115636E+04  0.50400001928E-02 0. -1.
    10030    2    1    2    0    0  0.00000000000E+00  0.00000000000E+00 -0.27355468467E+04  0.35226762806E+04  0.22194665187E+04 0.  0.
        5    1    3    3  502    0  0.94669673667E+03  0.58064427477E+02 -0.22821275609E+04  0.24713831114E+04  0.46999998093E+01 0. -1.
       -5    1    3    3    0  502 -0.94669673667E+03 -0.58064427477E+02 -0.45341928575E+03  0.10512931692E+04  0.46999998093E+01 0.  1.
</event>
<event>
 5   0  0.7954459E-05  0.2188125E+04  0.7818609E-02  0.8523387E-01
       -1   -1    0    0    0  501  0.00000000000E+00  0.00000000000E+00  0.14598254479E+04  0.14598254480E+04  0.50400001928E-02 0.  1.
        1   -1    0    0  501    0  0.00000000000E+00  0.00000000000E+00 -0.81994274966E+03  0.81994274968E+03  0.50400001928E-02 0. -1.
    10030    2    1    2    0    0  0.00000000000E+00  0.00000000000E+00  0.63988269828E+03  0.22797681976E+04  0.21881254917E+04 0.  0.
        5    1    3    3  502    0  0.14841619792E+02  0.98573275820E+03 -0.17433452729E+03  0.10011513181E+04  0.46999998093E+01 0. -1.
       -5    1    3    3    0  502 -0.14841619792E+02 -0.98573275820E+03  0.81421722557E+03  0.12786168796E+04  0.46999998093E+01 0.  1.
</event>
<event>
 5   0  0.1805501E-04  0.2351980E+04  0.7818609E-02  0.8457704E-01
        2   -1    0    0  501    0  0.00000000000E+00  0.00000000000E+00  0.16382455717E+04  0.16382455717E+04  0.25500000920E-02 0. -1.
       -2   -1    0    0    0  501  0.00000000000E+00  0.00000000000E+00 -0.84416655929E+03  0.84416655929E+03  0.25500000920E-02 0.  1.
    10030    2    1    2    0    0  0.00000000000E+00  0.00000000000E+00  0.79407901238E+03  0.24824121310E+04  0.23519797002E+04 0.  0.
        2    1    3    3  502    0 -0.55408478789E+03 -0.10156293917E+04  0.17454309441E+03  0.11700334633E+04  0.25500000920E-02 0.  1.
       -2    1    3    3    0  502  0.55408478789E+03  0.10156293917E+04  0.61953591797E+03  0.13123786676E+04  0.25500000920E-02 0. -1.
</event>
<event>
 5   0  0.1805501E-04  0.2157280E+04  0.7818609E-02  0.8536423E-01
       -2   -1    0    0    0  501  0.00000000000E+00  0.00000000000E+00  0.72671406427E+03  0.72671406427E+03  0.25500000920E-02 0.  1.
        2   -1    0    0  501    0  0.00000000000E+00  0.00000000000E+00 -0.16009929228E+04  0.16009929228E+04  0.25500000920E-02 0. -1.
    10030    2    1    2    0    0  0.00000000000E+00  0.00000000000E+00 -0.87427885849E+03  0.23277069870E+04  0.21572798370E+04 0.  0.
        2    1    3    3  502    0  0.13423192554E+03  0.27355644473E+03  0.67930735841E+03  0.74451986238E+03  0.25500000920E-02 0.  1.
       -2    1    3    3    0  502 -0.13423192554E+03 -0.27355644473E+03 -0.15535862169E+04  0.15831871246E+04  0.25500000920E-02 0. -1.
</event>
<event>
 5   0  0.8602414E-05  0.2494103E+04  0.7818609E-02  0.8405090E-01
       -1   -1    0    0    0  501  0.00000000000E+00  0.00000000000E+00  0.75676066970E+03  0.75676066972E+03  0.50400001928E-02 0.  1.
        1   -1    0    0  501    0  0.00000000000E+00  0.00000000000E+00 -0.20549918137E+04  0.20549918137E+04  0.50400001928E-02 0. -1.
    10030    2    1    2    0    0  0.00000000000E+00  0.00000000000E+00 -0.12982311440E+04  0.28117524834E+04  0.24941026292E+04 0.  0.
        3    1    3    3  502    0  0.67217846825E+03 -0.32008013205E+03  0.47873047384E+03  0.88513166303E+03  0.10100000352E+00 0.  1.
       -3    1    3    3    0  502 -0.67217846825E+03  0.32008013205E+03 -0.17769616179E+04  0.19266208204E+04  0.10100000352E+00 0. -1.
</event>
<event>
 5   0  0.8306787E-05  0.2045573E+04  0.7818609E-02  0.8585605E-01
       -1   -1    0    0    0  501  0.00000000000E+00  0.00000000000E+00  0.82570483532E+03  0.82570483534E+03  0.50400001928E-02 0.  1.
        1   -1    0    0  501    0  0.00000000000E+00  0.00000000000E+00 -0.12669083603E+04  0.12669083603E+04  0.50400001928E-02 0. -1.
    10030    2    1    2    0    0  0.00000000000E+00  0.00000000000E+00 -0.44120352500E+03  0.20926131957E+04  0.20455731315E+04 0.  0.
        1    1    3    3  502    0 -0.37840866626E+03  0.47980434825E+03 -0.10596375308E+04  0.12232076799E+04  0.50400001928E-02 0. -1.
       -1    1    3    3    0  502  0.37840866626E+03 -0.47980434825E+03  0.61843400584E+03  0.86940551580E+03  0.50400001928E-02 0.  1.
</event>
<event>
 5   0  0.1754356E-04  0.2307346E+04  0.7818609E-02  0.8475030E-01
       -2   -1    0    0    0  501  0.00000000000E+00  0.00000000000E+00  0.11672505041E+04  0.11672505041E+04  0.25500000920E-02 0. -1.
        2   -1    0    0  501    0  0.00000000000E+00  0.00000000000E+00 -0.11402538925E+04  0.11402538925E+04  0.25500000920E-02 0.  1.
    10030    2    1    2    0    0  0.00000000000E+00  0.00000000000E+00  0.26996611573E+02  0.23075043966E+04  0.23073464680E+04 0.  0.
        1    1    3    3  502    0  0.22861072963E+03  0.31813715910E+03 -0.10716970717E+04  0.11410559720E+04  0.50400001928E-02 0.  1.
       -1    1    3    3    0  502 -0.22861072963E+03 -0.31813715910E+03  0.10986936833E+04  0.11664484247E+04  0.50400001928E-02 0. -1.
</event>
<event>
 5   0  0.1680258E-04  0.2209720E+04  0.7818609E-02  0.8514393E-01
        2   -1    0    0  501    0  0.00000000000E+00  0.00000000000E+00  0.74284821560E+03  0.74284821561E+03  0.25500000920E-02 0. -1.
       -2   -1    0    0    0  501  0.00000000000E+00  0.00000000000E+00 -0.16432903351E+04  0.16432903351E+04  0.25500000920E-02 0.  1.
    10030    2    1    2    0    0  0.00000000000E+00  0.00000000000E+00 -0.90044211945E+03  0.23861385507E+04  0.22097197045E+04 0.  0.
        5    1    3    3  502    0 -0.95253984489E+03  0.13257814650E+03 -0.10375019481E+04  0.14146877760E+04  0.46999998093E+01 0.  1.
       -5    1    3    3    0  502  0.95253984489E+03 -0.13257814650E+03  0.13705982869E+03  0.97145077471E+03  0.46999998093E+01 0. -1.
</event>
<event>
 5   0  0.8470971E-05  0.2152798E+04  0.7818609E-02  0.8538335E-01
        1   -1    0    0  501    0  0.00000000000E+00  0.00000000000E+00  0.10771348608E+04  0.10771348608E+04  0.50400001928E-02 0. -1.
       -1   -1    0    0    0  501  0.00000000000E+00  0.00000000000E+00 -0.10756640073E+04  0.10756640074E+04  0.50400001928E-02 0.  1.
    10030    2    1    2    0    0  0.00000000000E+00  0.00000000000E+00  0.14708534304E+01  0.21527988681E+04  0.21527983657E+04 0.  0.
        2    1    3    3  502    0 -0.96602846708E+03 -0.40949658558E+03  0.24102020554E+03  0.10765636035E+04  0.25500000920E-02 0. -1.
       -2    1    3    3    0  502  0.96602846708E+03  0.40949658558E+03 -0.23954935211E+03  0.10762352647E+04  0.25500000920E-02 0.  1.
</event>
<event>
 5   0  0.8470971E-05  0.2201836E+04  0.7818609E-02  0.8517664E-01
       -1   -1    0    0    0  501  0.00000000000E+00  0.00000000000E+00  0.91790688815E+03  0.91790688817E+03  0.50400001928E-02 0. -1.
        1   -1    0    0  501    0  0.00000000000E+00  0.00000000000E+00 -0.13204178034E+04  0.13204178034E+04  0.50400001928E-02 0.  1.
    10030    2    1    2    0    0  0.00000000000E+00  0.00000000000E+00 -0.40251091527E+03  0.22383246916E+04  0.22018361402E+04 0.  0.
        2    1    3    3  502    0 -0.57788803510E+03  0.17420483788E+02  0.75116038681E+03  0.94789238899E+03  0.25500000920E-02 0. -1.
       -2    1    3    3    0  502  0.57788803510E+03 -0.17420483788E+02 -0.11536713021E+04  0.12904323026E+04  0.25500000920E-02 0.  1.
</event>
<event>
 5   0  0.8602414E-05  0.2219061E+04  0.7818609E-02  0.8510536E-01
        1   -1    0    0  501    0  0.00000000000E+00  0.00000000000E+00  0.11129687747E+04  0.11129687747E+04  0.50400001928E-02 0.  1.
       -1   -1    0    0    0  501  0.00000000000E+00  0.00000000000E+00 -0.11061029020E+04  0.11061029020E+04  0.50400001928E-02 0. -1.
    10030    2    1    2    0    0  0.00000000000E+00  0.00000000000E+00  0.68658726943E+01  0.22190716767E+04  0.22190610550E+04 0.  0.
        3    1    3    3  502    0  0.33911307316E+03  0.79994485263E+03 -0.68660553785E+03  0.11074008391E+04  0.10100000352E+00 0. -1.
       -3    1    3    3    0  502 -0.33911307316E+03 -0.79994485263E+03  0.69347141055E+03  0.11116708376E+04  0.10100000352E+00 0.  1.
</event>
<event>
 5   0  0.1733962E-04  0.2221755E+04  0.7818609E-02  0.8509428E-01
        2   -1    0    0  501    0  0.00000000000E+00  0.00000000000E+00  0.25482575399E+04  0.25482575399E+04  0.25500000920E-02 0. -1.
       -2   -1    0    0    0  501  0.00000000000E+00  0.00000000000E+00 -0.48427147869E+03  0.48427147870E+03  0.25500000920E-02 0.  1.
    10030    2    1    2    0    0  0.00000000000E+00  0.00000000000E+00  0.20639860612E+04  0.30325290186E+04  0.22217546642E+04 0.  0.
        3    1    3    3  502    0  0.23192247972E+03 -0.82611564360E+03  0.68977242317E+02  0.86082109835E+03  0.10100000352E+00 0.  1.
       -3    1    3    3    0  502 -0.23192247972E+03  0.82611564360E+03  0.19950088189E+04  0.21717079202E+04  0.10100000352E+00 0. -1.
</event>
<event>
 5   0  0.7954459E-05  0.2214737E+04  0.7818609E-02  0.8512319E-01
        1   -1    0    0  501    0  0.00000000000E+00  0.00000000000E+00  0.23023537484E+04  0.23023537484E+04  0.50400001928E-02 0.  1.
       -1   -1    0    0    0  501  0.00000000000E+00  0.00000000000E+00 -0.53261375757E+03  0.53261375759E+03  0.50400001928E-02 0. -1.
    10030    2    1    2    0    0  0.00000000000E+00  0.00000000000E+00  0.17697399908E+04  0.28349675060E+04  0.22147372587E+04 0.  0.
        5    1    3    3  502    0 -0.84143950530E+03  0.30484442383E+03  0.17196456996E+04  0.19385958800E+04  0.46999998093E+01 0.  1.
       -5    1    3    3    0  502  0.84143950530E+03 -0.30484442383E+03  0.50094291194E+02  0.89637162596E+03  0.46999998093E+01 0. -1.
</event>
<event>
 5   0  0.8470971E-05  0.2187536E+04  0.7818609E-02  0.8523634E-01
        1   -1    0    0  501    0  0.00000000000E+00  0.00000000000E+00  0.15489437972E+04  0.15489437972E+04  0.50400001928E-02 0.  1.
       -1   -1    0    0    0  501  0.00000000000E+00  0.00000000000E+00 -0.77235124770E+03  0.77235124772E+03  0.50400001928E-02 0. -1.
    10030    2    1    2    0    0  0.00000000000E+00  0.00000000000E+00  0.77659254945E+03  0.23212950449E+04  0.21875362163E+04 0.  0.
        2    1    3    3  502    0  0.42016207413E+03 -0.10046873137E+04  0.28010149737E+03  0.11244508062E+04  0.25500000920E-02 0. -1.
       -2    1    3    3    0  502 -0.42016207413E+03  0.10046873137E+04  0.49649105208E+03  0.11968442387E+04  0.25500000920E-02 0.  1.
</event>
<event>
 5   0  0.1733962E-04  0.2207609E+04  0.7818609E-02  0.8515268E-01
       -2   -1    0    0    0  501  0.00000000000E+00  0.00000000000E+00  0.70521015531E+03  0.70521015531E+03  0.25500000920E-02 0. -1.
        2   -1    0    0  501    0  0.00000000000E+00  0.00000000000E+00 -0.17276899842E+04  0.17276899842E+04  0.25500000920E-02 0.  1.
    10030    2    1    2    0    0  0.00000000000E+00  0.00000000000E+00 -0.10224798288E+04  0.24329001395E+04  0.22076091339E+04 0.  0.
        3    1    3    3  502    0 -0.10332930336E+04 -0.24349736386E+03 -0.17806449936E+03  0.10764257688E+04  0.10100000352E+00 0. -1.
       -3    1    3    3    0  502  0.10332930336E+04  0.24349736386E+03 -0.84441532949E+03  0.13564743707E+04  0.10100000352E+00 0.  1.
</event>
<event>
 5   0  0.1680258E-04  0.1908995E+04  0.7818609E-02  0.8650392E-01
       -2   -1    0    0    0  501  0.00000000000E+00  0.00000000000E+00  0.11448084368E+04  0.11448084368E+04  0.25500000920E-02 0. -1.
        2   -1    0    0  501    0  0.00000000000E+00  0.00000000000E+00 -0.79582370896E+03  0.79582370896E+03  0.25500000920E-02 0.  1.
    10030    2    1    2    0    0  0.00000000000E+00  0.00000000000E+00  0.34898472785E+03  0.19406321458E+04  0.19089952292E+04 0.  0.
        5    1    3    3  502    0  0.96499577144E+02 -0.94493934118E+03  0.79015258886E+02  0.95314638332E+03  0.46999998093E+01 0.  1.
       -5    1    3    3    0  502 -0.96499577144E+02  0.94493934118E+03  0.26996946897E+03  0.98748576246E+03  0.46999998093E+01 0. -1.
</event>
<event>
 5   0  0.1680258E-04  0.2387443E+04  0.7818609E-02  0.8444220E-01
        2   -1    0    0  501    0  0.00000000000E+00  0.00000000000E+00  0.11908323708E+04  0.11908323708E+04  0.25500000920E-02 0.  1.
       -2   -1    0    0    0  501  0.00000000000E+00  0.00000000000E+00 -0.11966172583E+04  0.11966172583E+04  0.25500000920E-02 0. -1.
    10030    2    1    2    0    0  0.00000000000E+00  0.00000000000E+00 -0.57848875094E+01  0.23874496291E+04  0.23874426206E+04 0.  0.
        5    1    3    3  502    0 -0.23714869286E+03  0.97287732651E+03 -0.65267791650E+03  0.11952992712E+04  0.46999998093E+01 0. -1.
       -5    1    3    3    0  502  0.23714869286E+03 -0.97287732651E+03  0.64689302899E+03  0.11921503579E+04  0.46999998093E+01 0.  1.
</event>
<event>
 5   0  0.1680258E-04  0.1913051E+04  0.7818609E-02  0.8648387E-01
        2   -1    0    0  501    0  0.00000000000E+00  0.00000000000E+00  0.15918007170E+04  0.15918007170E+04  0.25500000920E-02 0.  1.
       -2   -1    0    0    0  501  0.00000000000E+00  0.00000000000E+00 -0.57478367513E+03  0.57478367513E+03  0.25500000920E-02 0. -1.
    10030    2    1    2    0    0  0.00000000000E+00  0.00000000000E+00  0.10170170419E+04  0.21665843922E+04  0.19130510356E+04 0.  0.
        5    1    3    3  502    0  0.15621450483E+03  0.32694761799E+03 -0.49403251710E+03  0.61268910091E+03  0.46999998093E+01 0. -1.
       -5    1    3    3    0  502 -0.15621450483E+03 -0.32694761799E+03  0.15110495590E+04  0.15538952913E+04  0.46999998093E+01 0.  1.
</event>
<event>
 5   0  0.1805501E-04  0.2226722E+04  0.7818609E-02  0.8507388E-01
       -2   -1    0    0    0  501  0.00000000000E+00  0.00000000000E+00  0.10564990934E+04  0.10564990934E+04  0.25500000920E-02 0.  1.
        2   -1    0    0  501    0  0.00000000000E+00  0.00000000000E+00 -0.11732830531E+04  0.11732830531E+04  0.25500000920E-02 0. -1.
    10030    2    1    2    0    0  0.00000000000E+00  0.00000000000E+00 -0.11678395978E+03  0.22297821465E+04  0.22267217894E+04 0.  0.
        2    1    3    3  502    0 -0.11985491942E+03 -0.95847985474E+03  0.49601471725E+03  0.10858542413E+04  0.25500000920E-02 0.  1.
       -2    1    3    3    0  502  0.11985491942E+03  0.95847985474E+03 -0.61279867704E+03  0.11439279052E+04  0.25500000920E-02 0. -1.
</event>
<event>
 5   0  0.1798917E-04  0.2218248E+04  0.7818609E-02  0.8510871E-01
        2   -1    0    0  501    0  0.00000000000E+00  0.00000000000E+00  0.61793589273E+03  0.61793589274E+03  0.25500000920E-02 0. -1.
       -2   -1    0    0    0  501  0.00000000000E+00  0.00000000000E+00 -0.19907509109E+04  0.19907509109E+04  0.25500000920E-02 0.  1.
    10030    2    1    2    0    0  0.00000000000E+00  0.00000000000E+00 -0.13728150181E+04  0.26086868036E+04  0.22182483552E+04 0.  0.
        4    1    3    3  502    0 -0.78023025292E+03 -0.35764777876E+03  0.13972203940E+03  0.86959475758E+03  0.12699999809E+01 0. -1.
       -4    1    3    3    0  502  0.78023025292E+03  0.35764777876E+03 -0.15125370575E+04  0.17390920460E+04  0.12699999809E+01 0.  1.
</event>
<event>
 5   0  0.1733962E-04  0.2214537E+04  0.7818609E-02  0.8512402E-01
        2   -1    0    0  501    0  0.00000000000E+00  0.00000000000E+00  0.79223523486E+03  0.79223523487E+03  0.25500000920E-02 0. -1.
       -2   -1    0    0    0  501  0.00000000000E+00  0.00000000000E+00 -0.15475745780E+04  0.15475745780E+04  0.25500000920E-02 0.  1.
    10030    2    1    2    0    0  0.00000000000E+00  0.00000000000E+00 -0.75533934314E+03  0.23398098129E+04  0.22145366191E+04 0.  0.
        3    1    3    3  502    0 -0.92897438526E+03  0.12158267562E+03 -0.10011949553E+04  0.13711918553E+04  0.10100000352E+00 0.  1.
       -3    1    3    3    0  502  0.92897438526E+03 -0.12158267562E+03  0.24585561212E+03  0.96861795755E+03  0.10100000352E+00 0. -1.
</event>
<event>
 5   0  0.1680258E-04  0.2202733E+04  0.7818609E-02  0.8517291E-01
        2   -1    0    0  501    0  0.00000000000E+00  0.00000000000E+00  0.16471665090E+04  0.16471665090E+04  0.25500000920E-02 0.  1.
       -2   -1    0    0    0  501  0.00000000000E+00  0.00000000000E+00 -0.73642126641E+03  0.73642126642E+03  0.25500000920E-02 0. -1.
    10030    2    1    2    0    0  0.00000000000E+00  0.00000000000E+00  0.91074524254E+03  0.23835877754E+04  0.22027332535E+04 0.  0.
        5    1    3    3  502    0  0.63834104132E+03 -0.86102079113E+03  0.72944702711E+03  0.12965149992E+04  0.46999998093E+01 0.  1.
       -5    1    3    3    0  502 -0.63834104132E+03  0.86102079113E+03  0.18129821543E+03  0.10870727762E+04  0.46999998093E+01 0. -1.
</event>
<event>
 5   0  0.1754356E-04  0.2189107E+04  0.7818609E-02  0.8522976E-01
        2   -1    0    0  501    0  0.00000000000E+00  0.00000000000E+00  0.21360803965E+04  0.21360803965E+04  0.25500000920E-02 0. -1.
       -2   -1    0    0    0  501  0.00000000000E+00  0.00000000000E+00 -0.56086228805E+03  0.56086228806E+03  0.25500000920E-02 0.  1.
    10030    2    1    2    0    0  0.00000000000E+00  0.00000000000E+00  0.15752181084E+04  0.26969426845E+04  0.21891066111E+04 0.  0.
        1    1    3    3  502    0  0.64095180121E+03 -0.88487423288E+03  0.86769098987E+03  0.13952452377E+04  0.50400001928E-02 0. -1.
       -1    1    3    3    0  502 -0.64095180121E+03  0.88487423288E+03  0.70752711854E+03  0.13016974468E+04  0.50400001928E-02 0.  1.
</event>
<event>
 5   0  0.1754356E-04  0.2216889E+04  0.7818609E-02  0.8511431E-01
       -2   -1    0    0    0  501  0.00000000000E+00  0.00000000000E+00  0.16226383297E+04  0.16226383297E+04  0.25500000920E-02 0.  1.
        2   -1    0    0  501    0  0.00000000000E+00  0.00000000000E+00 -0.75719216808E+03  0.75719216809E+03  0.25500000920E-02 0. -1.
    10030    2    1    2    0    0  0.00000000000E+00  0.00000000000E+00  0.86544616162E+03  0.23798304978E+04  0.22168888424E+04 0.  0.
        1    1    3    3  502    0 -0.42500075389E+03  0.60986494260E+03  0.13154040615E+04  0.15109099027E+04  0.50400001928E-02 0.  1.
       -1    1    3    3    0  502  0.42500075389E+03 -0.60986494260E+03 -0.44995789983E+03  0.86892059515E+03  0.50400001928E-02 0. -1.
</event>
<event>
 5   0  0.8470971E-05  0.1774615E+04  0.7818609E-02  0.8719916E-01
       -1   -1    0    0    0  501  0.00000000000E+00  0.00000000000E+00  0.35469287811E+03  0.35469287814E+03  0.50400001928E-02 0.  1.
        1   -1    0    0  501    0  0.00000000000E+00  0.00000000000E+00 -0.22197087771E+04  0.22197087771E+04  0.50400001928E-02 0. -1.
    10030    2    1    2    0    0  0.00000000000E+00  0.00000000000E+00 -0.18650158990E+04  0.25744016553E+04  0.17746153327E+04 0.  0.
        2    1    3    3  502    0  0.57343354668E+03 -0.60653512403E+03 -0.49584557139E+03  0.97086235884E+03  0.25500000920E-02 0.  1.
       -2    1    3    3    0  502 -0.57343354668E+03  0.60653512403E+03 -0.13691703276E+04  0.16035392964E+04  0.25500000920E-02 0. -1.
</event>
<event>
 5   0  0.1733962E-04  0.2243831E+04  0.7818609E-02  0.8500403E-01
       -2   -1    0    0    0  501  0.00000000000E+00  0.00000000000E+00  0.32874464866E+04  0.32874464866E+04  0.25500000920E-02 0.  1.
        2   -1    0    0  501    0  0.00000000000E+00  0.00000000000E+00 -0.38287893410E+03  0.38287893411E+03  0.25500000920E-02 0. -1.
    10030    2    1    2    0    0  0.00000000000E+00  0.00000000000E+00  0.29045675525E+04  0.36703254207E+04  0.22438306592E+04 0.  0.
        3    1    3    3  502    0 -0.26327160467E+03 -0.74665932531E+03  0.15201703191E+03  0.80617694962E+03  0.10100000352E+00 0. -1.
       -3    1    3    3    0  502  0.26327160467E+03  0.74665932531E+03  0.27525505206E+04  0.28641484711E+04  0.10100000352E+00 0.  1.
</event>
<event>
 5   0  0.8784659E-05  0.2195662E+04  0.7818609E-02  0.8520236E-01
        1   -1    0    0  501    0  0.00000000000E+00  0.00000000000E+00  0.76449591445E+03  0.76449591447E+03  0.50400001928E-02 0.  1.
       -1   -1    0    0    0  501  0.00000000000E+00  0.00000000000E+00 -0.15765062258E+04  0.15765062258E+04  0.50400001928E-02 0. -1.
    10030    2    1    2    0    0  0.00000000000E+00  0.00000000000E+00 -0.81201031138E+03  0.23410021403E+04  0.21956616942E+04 0.  0.
        4    1    3    3  502    0  0.33415001566E+03 -0.10204130448E+04 -0.16210065939E+03  0.10858992825E+04  0.12699999809E+01 0.  1.
       -4    1    3    3    0  502 -0.33415001566E+03  0.10204130448E+04 -0.64990965199E+03  0.12551028578E+04  0.12699999809E+01 0. -1.
</event>
<event>
 5   0  0.8306787E-05  0.2094559E+04  0.7818609E-02  0.8563644E-01
       -1   -1    0    0    0  501  0.00000000000E+00  0.00000000000E+00  0.80503991428E+03  0.80503991430E+03  0.50400001928E-02 0. -1.
        1   -1    0    0  501    0  0.00000000000E+00  0.00000000000E+00 -0.13624097843E+04  0.13624097843E+04  0.50400001928E-02 0.  1.
    10030    2    1    2    0    0  0.00000000000E+00  0.00000000000E+00 -0.55736987000E+03  0.21674496986E+04  0.20945589092E+04 0.  0.
        1    1    3    3  502    0 -0.29852522567E+03  0.12944108965E+03  0.75140743960E+03  0.81883175706E+03  0.50400001928E-02 0. -1.
       -1    1    3    3    0  502  0.29852522567E+03 -0.12944108965E+03 -0.13087773096E+04  0.13486179415E+04  0.50400001928E-02 0.  1.
</event>
<event>
 5   0  0.7954459E-05  0.2225751E+04  0.7818609E-02  0.8507786E-01
        1   -1    0    0  501    0  0.00000000000E+00  0.00000000000E+00  0.91057411481E+03  0.91057411483E+03  0.50400001928E-02 0. -1.
       -1   -1    0    0    0  501  0.00000000000E+00  0.00000000000E+00 -0.13601214734E+04  0.13601214734E+04  0.50400001928E-02 0.  1.
    10030    2    1    2    0    0  0.00000000000E+00  0.00000000000E+00 -0.44954735859E+03  0.22706955882E+04  0.22257505761E+04 0.  0.
        5    1    3    3  502    0 -0.65467060722E+03  0.78972913756E+03  0.21545310329E+03  0.10481926561E+04  0.46999998093E+01 0.  1.
       -5    1    3    3    0  502  0.65467060722E+03 -0.78972913756E+03 -0.66500046188E+03  0.12225029321E+04  0.46999998093E+01 0. -1.
</event>
<event>
 5   0  0.1798917E-04  0.1993982E+04  0.7818609E-02  0.8609439E-01
        2   -1    0    0  501    0  0.00000000000E+00  0.00000000000E+00  0.11871960587E+04  0.11871960587E+04  0.25500000920E-02 0. -1.
       -2   -1    0    0    0  501  0.00000000000E+00  0.00000000000E+00 -0.83725931907E+03  0.83725931907E+03  0.25500000920E-02 0.  1.
    10030    2    1    2    0    0  0.00000000000E+00  0.00000000000E+00  0.34993673967E+03  0.20244553778E+04  0.19939819094E+04 0.  0.
        4    1    3    3  502    0  0.34440181481E+03  0.12089291707E+02  0.11248035235E+04  0.11764112123E+04  0.12699999809E+01 0. -1.
       -4    1    3    3    0  502 -0.34440181481E+03 -0.12089291707E+02 -0.77486678385E+03  0.84804416550E+03  0.12699999809E+01 0.  1.
</event>
<event>
 5   0  0.8470971E-05  0.2276258E+04  0.7818609E-02  0.8487342E-01
       -1   -1    0    0    0  501  0.00000000000E+00  0.00000000000E+00  0.13049216058E+04  0.13049216058E+04  0.50400001928E-02 0. -1.
        1   -1    0    0  501    0  0.00000000000E+00  0.00000000000E+00 -0.99265529492E+03  0.99265529493E+03  0.50400001928E-02 0.  1.
    10030    2    1    2    0    0  0.00000000000E+00  0.00000000000E+00  0.31226631088E+03  0.22975769007E+04  0.22762577547E+04 0.  0.
        2    1    3    3  502    0 -0.10255345731E+04 -0.29436818559E+02 -0.34117768730E+03  0.10811983635E+04  0.25500000920E-02 0.  1.
       -2    1    3    3    0  502  0.10255345731E+04  0.29436818559E+02  0.65344399818E+03  0.12163785372E+04  0.25500000920E-02 0. -1.
</event>
<event>
 5   0  0.1805501E-04  0.2234836E+04  0.7818609E-02  0.8504067E-01
       -2   -1    0    0    0  501  0.00000000000E+00  0.00000000000E+00  0.52177923778E+03  0.52177923779E+03  0.25500000920E-02 0.  1.
        2   -1    0    0  501    0  0.00000000000E+00  0.00000000000E+00 -0.23930102134E+04  0.23930102134E+04  0.25500000920E-02 0. -1.
    10030    2    1    2    0    0  0.00000000000E+00  0.00000000000E+00 -0.18712309756E+04  0.29147894512E+04  0.22348360523E+04 0.  0.
        2    1    3    3  502    0 -0.65376083306E+03  0.38009515467E+03 -0.20085540335E+04  0.21461977679E+04  0.25500000920E-02 0. -1.
       -2    1    3    3    0  502  0.65376083306E+03 -0.38009515467E+03  0.13732305785E+03  0.76859168332E+03  0.25500000920E-02 0.  1.
</event>
<event>
 5   0  0.1754356E-04  0.2194482E+04  0.7818609E-02  0.8520729E-01
       -2   -1    0    0    0  501  0.00000000000E+00  0.00000000000E+00  0.85549804657E+03  0.85549804657E+03  0.25500000920E-02 0. -1.
        2   -1    0    0  501    0  0.00000000000E+00  0.00000000000E+00 -0.14072940532E+04  0.14072940532E+04  0.25500000920E-02 0.  1.
    10030    2    1    2    0    0  0.00000000000E+00  0.00000000000E+00 -0.55179600664E+03  0.22627920998E+04  0.21944815456E+04 0.  0.
        1    1    3    3  502    0  0.11029047458E+03 -0.28269666783E+03  0.81137092464E+03  0.86625872126E+03  0.50400001928E-02 0. -1.
       -1    1    3    3    0  502 -0.11029047458E+03  0.28269666783E+03 -0.13631669313E+04  0.13965333785E+04  0.50400001928E-02 0.  1.
</event>
<event>
 5   0  0.1680258E-04  0.2166550E+04  0.7818609E-02  0.8532481E-01
        2   -1    0    0  501    0  0.00000000000E+00  0.00000000000E+00  0.13254590146E+04  0.13254590146E+04  0.25500000920E-02 0.  1.
       -2   -1    0    0    0  501  0.00000000000E+00  0.00000000000E+00 -0.88534224965E+03  0.88534224966E+03  0.25500000920E-02 0. -1.
    10030    2    1    2    0    0  0.00000000000E+00  0.00000000000E+00  0.44011676497E+03  0.22108012643E+04  0.21665501294E+04 0.  0.
        5    1    3    3  502    0  0.10469241669E+03  0.60236417990E+03  0.11325598223E+04  0.12870574768E+04  0.46999998093E+01 0.  1.
       -5    1    3    3    0  502 -0.10469241669E+03 -0.60236417990E+03 -0.69244305734E+03  0.92374378753E+03  0.46999998093E+01 0. -1.
</event>
<event>
 5   0  0.8470971E-05  0.2009336E+04  0.7818609E-02  0.8602268E-01
       -1   -1    0    0    0  501  0.00000000000E+00  0.00000000000E+00  0.13677514739E+04  0.13677514740E+04  0.50400001928E-02 0. -1.
        1   -1    0    0  501    0  0.00000000000E+00  0.00000000000E+00 -0.73796835369E+03  0.73796835371E+03  0.50400001928E-02 0.  1.
    10030    2    1    2    0    0  0.00000000000E+00  0.00000000000E+00  0.62978312026E+03  0.21057198277E+04  0.20093355156E+04 0.  0.
        2    1    3    3  502    0 -0.32515223144E+03  0.61013517864E+03 -0.44902510639E+03  0.82438610857E+03  0.25500000920E-02 0.  1.
       -2    1    3    3    0  502  0.32515223144E+03 -0.61013517864E+03  0.10788082266E+04  0.12813337191E+04  0.25500000920E-02 0. -1.
</event>
<event>
 5   0  0.8784659E-05  0.2144183E+04  0.7818609E-02  0.8542026E-01
       -1   -1    0    0    0  501  0.00000000000E+00  0.00000000000E+00  0.59226782501E+03  0.59226782503E+03  0.50400001928E-02 0. -1.
        1   -1    0    0  501    0  0.00000000000E+00  0.00000000000E+00 -0.19406434920E+04  0.19406434920E+04  0.50400001928E-02 0.  1.
    10030    2    1    2    0    0  0.00000000000E+00  0.00000000000E+00 -0.13483756670E+04  0.25329113171E+04  0.21441834811E+04 0.  0.
        4    1    3    3  502    0  0.12236572796E+03  0.82552151596E+03  0.12081515341E+03  0.84324199307E+03  0.12699999809E+01 0. -1.
       -4    1    3    3    0  502 -0.12236572796E+03 -0.82552151596E+03 -0.14691908204E+04  0.16896693240E+04  0.12699999809E+01 0.  1.
</event>
<event>
 5   0  0.1798917E-04  0.2192668E+04  0.7818609E-02  0.8521486E-01
        2   -1    0    0  501    0  0.00000000000E+00  0.00000000000E+00  0.14127230657E+04  0.14127230657E+04  0.25500000920E-02 0. -1.
       -2   -1    0    0    0  501  0.00000000000E+00  0.00000000000E+00 -0.85080281749E+03  0.85080281749E+03  0.25500000920E-02 0.  1.
    10030    2    1    2    0    0  0.00000000000E+00  0.00000000000E+00  0.56192024824E+03  0.22635258832E+04  0.21926684790E+04 0.  0.
        4    1    3    3  502    0  0.99810129095E+03  0.16302300583E+02  0.74890230766E+03  0.12479295779E+04  0.12699999809E+01 0. -1.
       -4    1    3    3    0  502 -0.99810129095E+03 -0.16302300583E+02 -0.18698205942E+03  0.10155963054E+04  0.12699999809E+01 0.  1.
</event>
<event>
 5   0  0.1733962E-04  0.2202943E+04  0.7818609E-02  0.8517204E-01
        2   -1    0    0  501    0  0.00000000000E+00  0.00000000000E+00  0.95289593978E+03  0.95289593979E+03  0.25500000920E-02 0.  1.
       -2   -1    0    0    0  501  0.00000000000E+00  0.00000000000E+00 -0.12732134918E+04  0.12732134918E+04  0.25500000920E-02 0. -1.
    10030    2    1    2    0    0  0.00000000000E+00  0.00000000000E+00 -0.32031755199E+03  0.22261094316E+04  0.22029434553E+04 0.  0.
        3    1    3    3  502    0  0.86606653213E+03  0.64235735852E+03 -0.38734680820E+03  0.11457450738E+04  0.10100000352E+00 0. -1.
       -3    1    3    3    0  502 -0.86606653213E+03 -0.64235735852E+03  0.67029256211E+02  0.10803643578E+04  0.10100000352E+00 0.  1.
</event>
<event>
 5   0  0.8306787E-05  0.2247887E+04  0.7818609E-02  0.8498757E-01
        1   -1    0    0  501    0  0.00000000000E+00  0.00000000000E+00  0.10544795099E+04  0.10544795099E+04  0.50400001928E-02 0. -1.
       -1   -1    0    0    0  501  0.00000000000E+00  0.00000000000E+00 -0.11979839064E+04  0.11979839064E+04  0.50400001928E-02 0.  1.
    10030    2    1    2    0    0  0.00000000000E+00  0.00000000000E+00 -0.14350439654E+03  0.22524634163E+04  0.22478874371E+04 0.  0.
        1    1    3    3  502    0  0.92302358205E+03  0.61109581708E+03 -0.26667029435E+03  0.11386499359E+04  0.50400001928E-02 0.  1.
       -1    1    3    3    0  502 -0.92302358205E+03 -0.61109581708E+03  0.12316589781E+03  0.11138134804E+04  0.50400001928E-02 0. -1.
</event>
<event>
 5   0  0.8602414E-05  0.2164860E+04  0.7818609E-02  0.8533198E-01
       -1   -1    0    0    0  501  0.00000000000E+00  0.00000000000E+00  0.11028659142E+04  0.11028659142E+04  0.50400001928E-02 0. -1.
        1   -1    0    0  501    0  0.00000000000E+00  0.00000000000E+00 -0.10623724072E+04  0.10623724072E+04  0.50400001928E-02 0.  1.
    10030    2    1    2    0    0  0.00000000000E+00  0.00000000000E+00  0.40493506992E+02  0.21652383214E+04  0.21648596408E+04 0.  0.
        3    1    3    3  502    0  0.45971525792E+03  0.32616317061E+03  0.94449376737E+03  0.10999040954E+04  0.10100000352E+00 0. -1.
       -3    1    3    3    0  502 -0.45971525792E+03 -0.32616317061E+03 -0.90400026038E+03  0.10653342260E+04  0.10100000352E+00 0.  1.
</event>
<event>
 5   0  0.8470971E-05  0.2236283E+04  0.7818609E-02  0.8503476E-01
        1   -1    0    0  501    0  0.00000000000E+00  0.00000000000E+00  0.12055871970E+04  0.12055871970E+04  0.50400001928E-02 0. -1.
       -1   -1    0    0    0  501  0.00000000000E+00  0.00000000000E+00 -0.10370384256E+04  0.10370384256E+04  0.50400001928E-02 0.  1.
    10030    2    1    2    0    0  0.00000000000E+00  0.00000000000E+00  0.16854877142E+03  0.22426256226E+04  0.22362828521E+04 0.  0.
        2    1    3    3  502    0 -0.28788604646E+03 -0.62860877447E+03 -0.79697447214E+03  0.10550808862E+04  0.25500000920E-02 0.  1.
       -2    1    3    3    0  502  0.28788604646E+03  0.62860877447E+03  0.96552324356E+03  0.11875447364E+04  0.25500000920E-02 0. -1.
</event>
<event>
 5   0  0.8470971E-05  0.2202709E+04  0.7818609E-02  0.8517301E-01
        1   -1    0    0  501    0  0.00000000000E+00  0.00000000000E+00  0.15356119940E+04  0.15356119940E+04  0.50400001928E-02 0.  1.
       -1   -1    0    0    0  501  0.00000000000E+00  0.00000000000E+00 -0.78990125236E+03  0.78990125238E+03  0.50400001928E-02 0. -1.
    10030    2    1    2    0    0  0.00000000000E+00  0.00000000000E+00  0.74571074163E+03  0.23255132464E+04  0.22027090931E+04 0.  0.
        2    1    3    3  502    0 -0.48886805183E+03  0.37692478423E+03  0.13358011234E+04  0.14715396380E+04  0.25500000920E-02 0.  1.
       -2    1    3    3    0  502  0.48886805183E+03 -0.37692478423E+03 -0.59009038176E+03  0.85397360833E+03  0.25500000920E-02 0. -1.
</event>
<event>
 5   0  0.1680258E-04  0.1177790E+04  0.7818609E-02  0.9132523E-01
       -2   -1    0    0    0  501  0.00000000000E+00  0.00000000000E+00  0.16184505391E+03  0.16184505393E+03  0.25500000920E-02 0. -1.
        2   -1    0    0  501    0  0.00000000000E+00  0.00000000000E+00 -0.21427719750E+04  0.21427719750E+04  0.25500000920E-02 0.  1.
    10030    2    1    2    0    0  0.00000000000E+00  0.00000000000E+00 -0.19809269211E+04  0.23046170290E+04  0.11777895327E+04 0.  0.
        5    1    3    3  502    0  0.36282498313E+03 -0.32322258249E+02 -0.18958363828E+04  0.19305191989E+04  0.46999998093E+01 0.  1.
       -5    1    3    3    0  502 -0.36282498313E+03  0.32322258249E+02 -0.85090538278E+02  0.37409783007E+03  0.46999998093E+01 0. -1.
</event>
<event>
 5   0  0.7954459E-05  0.2208522E+04  0.7818609E-02  0.8514889E-01
       -1   -1    0    0    0  501  0.00000000000E+00  0.00000000000E+00  0.12717477428E+04  0.12717477428E+04  0.50400001928E-02 0. -1.
        1   -1    0    0  501    0  0.00000000000E+00  0.00000000000E+00 -0.95883215142E+03  0.95883215143E+03  0.50400001928E-02 0.  1.
    10030    2    1    2    0    0  0.00000000000E+00  0.00000000000E+00  0.31291559135E+03  0.22305798942E+04  0.22085222428E+04 0.  0.
        5    1    3    3  502    0 -0.77271381132E+03  0.38299640344E+03 -0.54006583965E+03  0.10175785377E+04  0.46999998093E+01 0.  1.
       -5    1    3    3    0  502  0.77271381132E+03 -0.38299640344E+03  0.85298143100E+03  0.12130013565E+04  0.46999998093E+01 0. -1.
</event>
<event>
 5   0  0.8602414E-05  0.2208534E+04  0.7818609E-02  0.8514885E-01
        1   -1    0    0  501    0  0.00000000000E+00  0.00000000000E+00  0.19112216734E+04  0.19112216734E+04  0.50400001928E-02 0.  1.
       -1   -1    0    0    0  501  0.00000000000E+00  0.00000000000E+00 -0.63802391276E+03  0.63802391278E+03  0.50400001928E-02 0. -1.
    10030    2    1    2    0    0  0.00000000000E+00  0.00000000000E+00  0.12731977607E+04  0.25492455862E+04  0.22085335680E+04 0.  0.
        3    1    3    3  502    0  0.48348906045E+03  0.86606470783E+03  0.11968369445E+04  0.15544286512E+04  0.10100000352E+00 0.  1.
       -3    1    3    3    0  502 -0.48348906045E+03 -0.86606470783E+03  0.76360816140E+02  0.99481693500E+03  0.10100000352E+00 0. -1.
</event>
<event>
 5   0  0.7954459E-05  0.2117787E+04  0.7818609E-02  0.8553448E-01
       -1   -1    0    0    0  501  0.00000000000E+00  0.00000000000E+00  0.69603714951E+03  0.69603714953E+03  0.50400001928E-02 0.  1.
        1   -1    0    0  501    0  0.00000000000E+00  0.00000000000E+00 -0.16109131212E+04  0.16109131212E+04  0.50400001928E-02 0. -1.
    10030    2    1    2    0    0  0.00000000000E+00  0.00000000000E+00 -0.91487597167E+03  0.23069502707E+04  0.21177869364E+04 0.  0.
        5    1    3    3  502    0 -0.97489720333E+02 -0.41916431122E+03  0.59646570767E+03  0.73552457185E+03  0.46999998093E+01 0.  1.
       -5    1    3    3    0  502  0.97489720333E+02  0.41916431122E+03 -0.15113416793E+04  0.15714256989E+04  0.46999998093E+01 0. -1.
</event>
<event>
 5   0  0.8306787E-05  0.2173052E+04  0.7818609E-02  0.8529729E-01
       -1   -1    0    0    0  501  0.00000000000E+00  0.00000000000E+00  0.14146435849E+04  0.14146435849E+04  0.50400001928E-02 0.  1.
        1   -1    0    0  501    0  0.00000000000E+00  0.00000000000E+00 -0.83451285872E+03  0.83451285873E+03  0.50400001928E-02 0. -1.
    10030    2    1    2    0    0  0.00000000000E+00  0.00000000000E+00  0.58013072620E+03  0.22491564437E+04  0.21730515522E+04 0.  0.
        1    1    3    3  502    0  0.46124361321E+03 -0.65727166476E+03  0.10476750845E+04  0.13199904525E+04  0.50400001928E-02 0.  1.
       -1    1    3    3    0  502 -0.46124361321E+03  0.65727166476E+03 -0.46754435834E+03  0.92916599112E+03  0.50400001928E-02 0. -1.
</event>
<event>
 5   0  0.1805501E-04  0.2186758E+04  0.7818609E-02  0.8523960E-01
        2   -1    0    0  501    0  0.00000000000E+00  0.00000000000E+00  0.22808959509E+04  0.22808959509E+04  0.25500000920E-02 0. -1.
       -2   -1    0    0    0  501  0.00000000000E+00  0.00000000000E+00 -0.52412635162E+03  0.52412635163E+03  0.25500000920E-02 0.  1.
    10030    2    1    2    0    0  0.00000000000E+00  0.00000000000E+00  0.17567695993E+04  0.28050223026E+04  0.21867580325E+04 0.  0.
        2    1    3    3  502    0 -0.71550145384E+03  0.41885676229E+03  0.17927249130E+04  0.19751571916E+04  0.25500000920E-02 0. -1.
       -2    1    3    3    0  502  0.71550145384E+03 -0.41885676229E+03 -0.35955313734E+02  0.82986511094E+03  0.25500000920E-02 0.  1.
</event>
<event>
 5   0  0.1754356E-04  0.2201397E+04  0.7818609E-02  0.8517847E-01
        2   -1    0    0  501    0  0.00000000000E+00  0.00000000000E+00  0.11330107280E+04  0.11330107280E+04  0.25500000920E-02 0. -1.
       -2   -1    0    0    0  501  0.00000000000E+00  0.00000000000E+00 -0.10693080331E+04  0.10693080331E+04  0.25500000920E-02 0.  1.
    10030    2    1    2    0    0  0.00000000000E+00  0.00000000000E+00  0.63702694902E+02  0.22023187611E+04  0.22013972591E+04 0.  0.
        1    1    3    3  502    0  0.44490231311E+03  0.35480775181E+03  0.97442983694E+03  0.11284237307E+04  0.50400001928E-02 0. -1.
       -1    1    3    3    0  502 -0.44490231311E+03 -0.35480775181E+03 -0.91072714204E+03  0.10738950304E+04  0.50400001928E-02 0.  1.
</event>
<event>
 5   0  0.6250625E-05  0.2143670E+04  0.7818609E-02  0.8542247E-01
        3   -1    0    0  501    0  0.00000000000E+00  0.00000000000E+00  0.16316193923E+04  0.16316193954E+04  0.10100000352E+00 0. -1.
       -3   -1    0    0    0  501  0.00000000000E+00  0.00000000000E+00 -0.70410437434E+03  0.70410438158E+03  0.10100000352E+00 0.  1.
    10030    2    1    2    0    0  0.00000000000E+00  0.00000000000E+00  0.92751501793E+03  0.23357237770E+04  0.21436700898E+04 0.  0.
        4    1    3    3  502    0 -0.59373047514E+03  0.29538420263E+03  0.13812559753E+04  0.15322001783E+04  0.12699999809E+01 0. -1.
       -4    1    3    3    0  502  0.59373047514E+03 -0.29538420263E+03 -0.45374095738E+03  0.80352359864E+03  0.12699999809E+01 0.  1.
</event>
<event>
 5   0  0.8470971E-05  0.2239377E+04  0.7818609E-02  0.8502215E-01
       -1   -1    0    0    0  501  0.00000000000E+00  0.00000000000E+00  0.72940878769E+03  0.72940878771E+03  0.50400001928E-02 0.  1.
        1   -1    0    0  501    0  0.00000000000E+00  0.00000000000E+00 -0.17187927909E+04  0.17187927909E+04  0.50400001928E-02 0. -1.
    10030    2    1    2    0    0  0.00000000000E+00  0.00000000000E+00 -0.98938400325E+03  0.24482015787E+04  0.22393772045E+04 0.  0.
        2    1    3    3  502    0 -0.10613031909E+04  0.31441377857E+03 -0.67919599163E+03  0.12986638065E+04  0.25500000920E-02 0. -1.
       -2    1    3    3    0  502  0.10613031909E+04 -0.31441377857E+03 -0.31018801162E+03  0.11495377722E+04  0.25500000920E-02 0.  1.
</event>
<event>
 5   0  0.8602414E-05  0.2229815E+04  0.7818609E-02  0.8506120E-01
       -1   -1    0    0    0  501  0.00000000000E+00  0.00000000000E+00  0.58780785581E+03  0.58780785583E+03  0.50400001928E-02 0. -1.
        1   -1    0    0  501    0  0.00000000000E+00  0.00000000000E+00 -0.21146681434E+04  0.21146681435E+04  0.50400001928E-02 0.  1.
    10030    2    1    2    0    0  0.00000000000E+00  0.00000000000E+00 -0.15268602876E+04  0.27024759993E+04  0.22298148328E+04 0.  0.
        3    1    3    3  502    0  0.99802325454E+03 -0.26757258066E+03 -0.25588526052E+03  0.10644823997E+04  0.10100000352E+00 0. -1.
       -3    1    3    3    0  502 -0.99802325454E+03  0.26757258066E+03 -0.12709750271E+04  0.16379935996E+04  0.10100000352E+00 0.  1.
</event>
<event>
 5   0  0.1805501E-04  0.2198391E+04  0.7818609E-02  0.8519098E-01
       -2   -1    0    0    0  501  0.00000000000E+00  0.00000000000E+00  0.10974346236E+04  0.10974346236E+04  0.25500000920E-02 0.  1.
        2   -1    0    0  501    0  0.00000000000E+00  0.00000000000E+00 -0.11009595987E+04  0.11009595987E+04  0.25500000920E-02 0. -1.
    10030    2    1    2    0    0  0.00000000000E+00  0.00000000000E+00 -0.35249751047E+01  0.21983942223E+04  0.21983913962E+04 0.  0.
        2    1    3    3  502    0  0.10545164863E+04 -0.93662801647E+02  0.29396317486E+03  0.10987229352E+04  0.25500000920E-02 0.  1.
       -2    1    3    3    0  502 -0.10545164863E+04  0.93662801647E+02 -0.29748814996E+03  0.10996712871E+04  0.25500000920E-02 0. -1.
</event>
<event>
 5   0  0.1754356E-04  0.2248360E+04  0.7818609E-02  0.8498565E-01
       -2   -1    0    0    0  501  0.00000000000E+00  0.00000000000E+00  0.53210352474E+03  0.53210352475E+03  0.25500000920E-02 0. -1.
        2   -1    0    0  501    0  0.00000000000E+00  0.00000000000E+00 -0.23750646490E+04  0.23750646490E+04  0.25500000920E-02 0.  1.
    10030    2    1    2    0    0  0.00000000000E+00  0.00000000000E+00 -0.18429611242E+04  0.29071681737E+04  0.22483596431E+04 0.  0.
        1    1    3    3  502    0 -0.30198266057E+03  0.90008477155E+03 -0.16999094222E+04  0.19470588504E+04  0.50400001928E-02 0.  1.
       -1    1    3    3    0  502  0.30198266057E+03 -0.90008477155E+03 -0.14305170204E+03  0.96010932333E+03  0.50400001928E-02 0. -1.
</event>
<event>
 5   0  0.8306787E-05  0.2144743E+04  0.7818609E-02  0.8541786E-01
        1   -1    0    0  501    0  0.00000000000E+00  0.00000000000E+00  0.98756689892E+03  0.98756689893E+03  0.50400001928E-02 0.  1.
       -1   -1    0    0    0  501  0.00000000000E+00  0.00000000000E+00 -0.11644580753E+04  0.11644580753E+04  0.50400001928E-02 0. -1.
    10030    2    1    2    0    0  0.00000000000E+00  0.00000000000E+00 -0.17689117635E+03  0.21520249742E+04  0.21447426422E+04 0.  0.
        1    1    3    3  502    0 -0.11505063258E+03 -0.10215397372E+04  0.21787801853E+03  0.10508334377E+04  0.50400001928E-02 0.  1.
       -1    1    3    3    0  502  0.11505063258E+03  0.10215397372E+04 -0.39476919488E+03  0.11011915365E+04  0.50400001928E-02 0. -1.
</event>
<event>
 5   0  0.1805501E-04  0.2174199E+04  0.7818609E-02  0.8529245E-01
       -2   -1    0    0    0  501  0.00000000000E+00  0.00000000000E+00  0.83423761505E+03  0.83423761506E+03  0.25500000920E-02 0. -1.
        2   -1    0    0  501    0  0.00000000000E+00  0.00000000000E+00 -0.14166048289E+04  0.14166048289E+04  0.25500000920E-02 0.  1.
    10030    2    1    2    0    0  0.00000000000E+00  0.00000000000E+00 -0.58236721385E+03  0.22508424440E+04  0.21741987342E+04 0.  0.
        2    1    3    3  502    0 -0.57934427081E+03 -0.74252800942E+02  0.65799678373E+03  0.87983693374E+03  0.25500000920E-02 0. -1.
       -2    1    3    3    0  502  0.57934427081E+03  0.74252800942E+02 -0.12403639976E+04  0.13710055102E+04  0.25500000920E-02 0.  1.
</event>
<event>
 5   0  0.8784659E-05  0.2209908E+04  0.7818609E-02  0.8514316E-01
        1   -1    0    0  501    0  0.00000000000E+00  0.00000000000E+00  0.13811287089E+04  0.13811287090E+04  0.50400001928E-02 0.  1.
       -1   -1    0    0    0  501  0.00000000000E+00  0.00000000000E+00 -0.88400365484E+03  0.88400365485E+03  0.50400001928E-02 0. -1.
    10030    2    1    2    0    0  0.00000000000E+00  0.00000000000E+00  0.49712505411E+03  0.22651323638E+04  0.22099075334E+04 0.  0.
        4    1    3    3  502    0 -0.30718573358E+03  0.85148894235E+03  0.89805724978E+03  0.12751097720E+04  0.12699999809E+01 0. -1.
       -4    1    3    3    0  502  0.30718573358E+03 -0.85148894235E+03 -0.40093219568E+03  0.99002259181E+03  0.12699999809E+01 0.  1.
</event>
<event>
 5   0  0.8602414E-05  0.2141412E+04  0.7818609E-02  0.8543217E-01
       -1   -1    0    0    0  501  0.00000000000E+00  0.00000000000E+00  0.10192403133E+04  0.10192403133E+04  0.50400001928E-02 0. -1.
        1   -1    0    0  501    0  0.00000000000E+00  0.00000000000E+00 -0.11247700362E+04  0.11247700363E+04  0.50400001928E-02 0.  1.
    10030    2    1    2    0    0  0.00000000000E+00  0.00000000000E+00 -0.10552972295E+03  0.21440103496E+04  0.21414116504E+04 0.  0.
        3    1    3    3  502    0 -0.40851190606E+03  0.79006093896E+03 -0.64958613868E+03  0.11013811449E+04  0.10100000352E+00 0.  1.
       -3    1    3    3    0  502  0.40851190606E+03 -0.79006093896E+03  0.54405641574E+03  0.10426292046E+04  0.10100000352E+00 0. -1.
</event>
<event>
 5   0  0.1680258E-04  0.2246271E+04  0.7818609E-02  0.8499412E-01
       -2   -1    0    0    0  501  0.00000000000E+00  0.00000000000E+00  0.12490357799E+04  0.12490357800E+04  0.25500000920E-02 0.  1.
        2   -1    0    0  501    0  0.00000000000E+00  0.00000000000E+00 -0.10099255959E+04  0.10099255959E+04  0.25500000920E-02 0. -1.
    10030    2    1    2    0    0  0.00000000000E+00  0.00000000000E+00  0.23911018408E+03  0.22589613758E+04  0.22462708691E+04 0.  0.
        5    1    3    3  502    0  0.32324942101E+03  0.80608509484E+03  0.83572147323E+03  0.12052866211E+04  0.46999998093E+01 0.  1.
       -5    1    3    3    0  502 -0.32324942101E+03 -0.80608509484E+03 -0.59661128915E+03  0.10536747547E+04  0.46999998093E+01 0. -1.
</event>
<event>
 5   0  0.1805501E-04  0.2208148E+04  0.7818609E-02  0.8515044E-01
        2   -1    0    0  501    0  0.00000000000E+00  0.00000000000E+00  0.20217710622E+04  0.20217710622E+04  0.25500000920E-02 0.  1.
       -2   -1    0    0    0  501  0.00000000000E+00  0.00000000000E+00 -0.60292665940E+03  0.60292665941E+03  0.25500000920E-02 0. -1.
    10030    2    1    2    0    0  0.00000000000E+00  0.00000000000E+00  0.14188444028E+04  0.26246977216E+04  0.22081482492E+04 0.  0.
        2    1    3    3  502    0 -0.73603097734E+03  0.49780093739E+03 -0.69507779762E+02  0.89127925160E+03  0.25500000920E-02 0. -1.
       -2    1    3    3    0  502  0.73603097734E+03 -0.49780093739E+03  0.14883521826E+04  0.17334184700E+04  0.25500000920E-02 0.  1.
</event>
<event>
 5   0  0.6250625E-05  0.2105371E+04  0.7818609E-02  0.8558881E-01
        3   -1    0    0  501    0  0.00000000000E+00  0.00000000000E+00  0.69835978209E+03  0.69835978939E+03  0.10100000352E+00 0. -1.
       -3   -1    0    0    0  501  0.00000000000E+00  0.00000000000E+00 -0.15867846957E+04  0.15867846989E+04  0.10100000352E+00 0.  1.
    10030    2    1    2    0    0  0.00000000000E+00  0.00000000000E+00 -0.88842491362E+03  0.22851444883E+04  0.21053708712E+04 0.  0.
        5    1    3    3  502    0  0.84223213652E+03 -0.40562047555E+03 -0.96952414405E+03  0.13468044022E+04  0.46999998093E+01 0.  1.
       -5    1    3    3    0  502 -0.84223213652E+03  0.40562047555E+03  0.81099230431E+02  0.93834008609E+03  0.46999998093E+01 0. -1.
</event>
<event>
 5   0  0.6250625E-05  0.2134767E+04  0.7818609E-02  0.8546081E-01
       -3   -1    0    0    0  501  0.00000000000E+00  0.00000000000E+00  0.65262191495E+03  0.65262192277E+03  0.10100000352E+00 0. -1.
        3   -1    0    0  501    0  0.00000000000E+00  0.00000000000E+00 -0.17457386869E+04  0.17457386898E+04  0.10100000352E+00 0.  1.
    10030    2    1    2    0    0  0.00000000000E+00  0.00000000000E+00 -0.10931167719E+04  0.23983606126E+04  0.21347668142E+04 0.  0.
        2    1    3    3  502    0 -0.80316683536E+03 -0.11957413070E+03  0.23175423898E+03  0.84444358334E+03  0.25500000920E-02 0. -1.
       -2    1    3    3    0  502  0.80316683536E+03  0.11957413070E+03 -0.13248710109E+04  0.15539170292E+04  0.25500000920E-02 0.  1.
</event>
<event>
 5   0  0.8470971E-05  0.2219824E+04  0.7818609E-02  0.8510222E-01
        1   -1    0    0  501    0  0.00000000000E+00  0.00000000000E+00  0.15476778372E+04  0.15476778372E+04  0.50400001928E-02 0. -1.
       -1   -1    0    0    0  501  0.00000000000E+00  0.00000000000E+00 -0.79596983153E+03  0.79596983154E+03  0.50400001928E-02 0.  1.
    10030    2    1    2    0    0  0.00000000000E+00  0.00000000000E+00  0.75170800567E+03  0.23436476687E+04  0.22198241979E+04 0.  0.
        2    1    3    3  502    0  0.58143637418E+03 -0.29612882907E+03 -0.57208445408E+03  0.86777944389E+03  0.25500000920E-02 0.  1.
       -2    1    3    3    0  502 -0.58143637418E+03  0.29612882907E+03  0.13237924598E+04  0.14758682249E+04  0.25500000920E-02 0. -1.
</event>
<event>
 5   0  0.8306787E-05  0.2272475E+04  0.7818609E-02  0.8488854E-01
        1   -1    0    0  501    0  0.00000000000E+00  0.00000000000E+00  0.19560295450E+04  0.19560295450E+04  0.50400001928E-02 0.  1.
       -1   -1    0    0    0  501  0.00000000000E+00  0.00000000000E+00 -0.66002843887E+03  0.66002843888E+03  0.50400001928E-02 0. -1.
    10030    2    1    2    0    0  0.00000000000E+00  0.00000000000E+00  0.12960011061E+04  0.26160579839E+04  0.22724745341E+04 0.  0.
        1    1    3    3  502    0  0.51130486094E+03  0.28705173742E+03  0.17683926809E+04  0.18630738136E+04  0.50400001928E-02 0.  1.
       -1    1    3    3    0  502 -0.51130486094E+03 -0.28705173742E+03 -0.47239157481E+03  0.75298417032E+03  0.50400001928E-02 0. -1.
</event>
<event>
 5   0  0.1805501E-04  0.2087027E+04  0.7818609E-02  0.8566980E-01
       -2   -1    0    0    0  501  0.00000000000E+00  0.00000000000E+00  0.49626704039E+03  0.49626704040E+03  0.25500000920E-02 0.  1.
        2   -1    0    0  501    0  0.00000000000E+00  0.00000000000E+00 -0.21942217011E+04  0.21942217011E+04  0.25500000920E-02 0. -1.
    10030    2    1    2    0    0  0.00000000000E+00  0.00000000000E+00 -0.16979546607E+04  0.26904887415E+04  0.20870265064E+04 0.  0.
        2    1    3    3  502    0  0.61343690484E+03 -0.22133502232E+03 -0.18991600593E+04  0.20080097010E+04  0.25500000920E-02 0. -1.
       -2    1    3    3    0  502 -0.61343690484E+03  0.22133502232E+03  0.20120539859E+03  0.68247904053E+03  0.25500000920E-02 0.  1.
</event>
<event>
 5   0  0.8306787E-05  0.2177713E+04  0.7818609E-02  0.8527762E-01
        1   -1    0    0  501    0  0.00000000000E+00  0.00000000000E+00  0.14114478043E+04  0.14114478044E+04  0.50400001928E-02 0.  1.
       -1   -1    0    0    0  501  0.00000000000E+00  0.00000000000E+00 -0.83999434365E+03  0.83999434367E+03  0.50400001928E-02 0. -1.
    10030    2    1    2    0    0  0.00000000000E+00  0.00000000000E+00  0.57145346069E+03  0.22514421480E+04  0.21777127194E+04 0.  0.
        1    1    3    3  502    0 -0.67984631333E+03  0.11861940644E+02  0.11649767134E+04  0.13488893424E+04  0.50400001928E-02 0.  1.
       -1    1    3    3    0  502  0.67984631333E+03 -0.11861940644E+02 -0.59352325268E+03  0.90255280560E+03  0.50400001928E-02 0. -1.
</event>
<event>
 5   0  0.1680258E-04  0.2207946E+04  0.7818609E-02  0.8515128E-01
       -2   -1    0    0    0  501  0.00000000000E+00  0.00000000000E+00  0.10103606566E+04  0.10103606566E+04  0.25500000920E-02 0. -1.
        2   -1    0    0  501    0  0.00000000000E+00  0.00000000000E+00 -0.12062588125E+04  0.12062588125E+04  0.25500000920E-02 0.  1.
    10030    2    1    2    0    0  0.00000000000E+00  0.00000000000E+00 -0.19589815585E+03  0.22166194691E+04  0.22079460554E+04 0.  0.
        5    1    3    3  502    0  0.42896955333E+03  0.46086388316E+03 -0.10083321150E+04  0.11887666468E+04  0.46999998093E+01 0.  1.
       -5    1    3    3    0  502 -0.42896955333E+03 -0.46086388316E+03  0.81243395911E+03  0.10278528223E+04  0.46999998093E+01 0. -1.
</event>
<event>
 5   0  0.8602414E-05  0.2169535E+04  0.7818609E-02  0.8531216E-01
        1   -1    0    0  501    0  0.00000000000E+00  0.00000000000E+00  0.20457085098E+04  0.20457085098E+04  0.50400001928E-02 0. -1.
       -1   -1    0    0    0  501  0.00000000000E+00  0.00000000000E+00 -0.57521419827E+03  0.57521419829E+03  0.50400001928E-02 0.  1.
    10030    2    1    2    0    0  0.00000000000E+00  0.00000000000E+00  0.14704943116E+04  0.26209227081E+04  0.21695350474E+04 0.  0.
        3    1    3    3  502    0  0.82806846374E+03 -0.23879642437E+03  0.15310988344E+04  0.17569817198E+04  0.10100000352E+00 0. -1.
       -3    1    3    3    0  502 -0.82806846374E+03  0.23879642437E+03 -0.60604522791E+02  0.86394098833E+03  0.10100000352E+00 0.  1.
</event>
<event>
 5   0  0.6250625E-05  0.2256413E+04  0.7818609E-02  0.8495308E-01
        3   -1    0    0  501    0  0.00000000000E+00  0.00000000000E+00  0.39412509782E+03  0.39412511076E+03  0.10100000352E+00 0. -1.
       -3   -1    0    0    0  501  0.00000000000E+00  0.00000000000E+00 -0.32295582256E+04  0.32295582271E+04  0.10100000352E+00 0.  1.
    10030    2    1    2    0    0  0.00000000000E+00  0.00000000000E+00 -0.28354331277E+04  0.36236833379E+04  0.22564130631E+04 0.  0.
        3    1    3    3  502    0  0.64717907632E+03 -0.48972383652E+03 -0.26762923995E+04  0.27966428465E+04  0.10100000352E+00 0.  1.
       -3    1    3    3    0  502 -0.64717907632E+03  0.48972383652E+03 -0.15914072823E+03  0.82704049143E+03  0.10100000352E+00 0. -1.
</event>
<event>
 5   0  0.7954459E-05  0.2216015E+04  0.7818609E-02  0.8511792E-01
       -1   -1    0    0    0  501  0.00000000000E+00  0.00000000000E+00  0.94799506732E+03  0.94799506733E+03  0.50400001928E-02 0. -1.
        1   -1    0    0  501    0  0.00000000000E+00  0.00000000000E+00 -0.12950286255E+04  0.12950286255E+04  0.50400001928E-02 0.  1.
    10030    2    1    2    0    0  0.00000000000E+00  0.00000000000E+00 -0.34703355818E+03  0.22430236928E+04  0.22160151164E+04 0.  0.
        5    1    3    3  502    0  0.26980101415E+03 -0.96524914275E+03  0.30463907651E+03  0.10475330791E+04  0.46999998093E+01 0.  1.
       -5    1    3    3    0  502 -0.26980101415E+03  0.96524914275E+03 -0.65167263469E+03  0.11954906138E+04  0.46999998093E+01 0. -1.
</event>
<event>
 5   0  0.1805501E-04  0.2205665E+04  0.7818609E-02  0.8516074E-01
       -2   -1    0    0    0  501  0.00000000000E+00  0.00000000000E+00  0.81476679108E+03  0.81476679108E+03  0.25500000920E-02 0.  1.
        2   -1    0    0  501    0  0.00000000000E+00  0.00000000000E+00 -0.14927461372E+04  0.14927461372E+04  0.25500000920E-02 0. -1.
    10030    2    1    2    0    0  0.00000000000E+00  0.00000000000E+00 -0.67797934613E+03  0.23075129283E+04  0.22056654144E+04 0.  0.
        2    1    3    3  502    0 -0.11119849461E+03  0.10169322503E+04  0.92008789323E+02  0.10271231300E+04  0.25500000920E-02 0.  1.
       -2    1    3    3    0  502  0.11119849461E+03 -0.10169322503E+04 -0.76998813545E+03  0.12803897983E+04  0.25500000920E-02 0. -1.
</event>
<event>
 5   0  0.6250625E-05  0.2158509E+04  0.7818609E-02  0.8535899E-01
        3   -1    0    0  501    0  0.00000000000E+00  0.00000000000E+00  0.10310081053E+04  0.10310081103E+04  0.10100000352E+00 0.  1.
       -3   -1    0    0    0  501  0.00000000000E+00  0.00000000000E+00 -0.11297587952E+04  0.11297587997E+04  0.10100000352E+00 0. -1.
    10030    2    1    2    0    0  0.00000000000E+00  0.00000000000E+00 -0.98750689882E+02  0.21607669100E+04  0.21585091940E+04 0.  0.
        5    1    3    3  502    0  0.42753545427E+02  0.91786129730E+03  0.51731850505E+03  0.10544845909E+04  0.46999998093E+01 0.  1.
       -5    1    3    3    0  502 -0.42753545427E+02 -0.91786129730E+03 -0.61606919493E+03  0.11062823192E+04  0.46999998093E+01 0. -1.
</event>
<event>
 5   0  0.8306787E-05  0.2193706E+04  0.7818609E-02  0.8521052E-01
        1   -1    0    0  501    0  0.00000000000E+00  0.00000000000E+00  0.51591390250E+03  0.51591390252E+03  0.50400001928E-02 0. -1.
       -1   -1    0    0    0  501  0.00000000000E+00  0.00000000000E+00 -0.23319531332E+04  0.23319531332E+04  0.50400001928E-02 0.  1.
    10030    2    1    2    0    0  0.00000000000E+00  0.00000000000E+00 -0.18160392307E+04  0.28478670357E+04  0.21937064903E+04 0.  0.
        1    1    3    3  502    0 -0.24810909070E+03  0.57680579676E+03 -0.20755500259E+04  0.21684489752E+04  0.50400001928E-02 0.  1.
       -1    1    3    3    0  502  0.24810909070E+03 -0.57680579676E+03  0.25951079522E+03  0.67941806049E+03  0.50400001928E-02 0. -1.
</event>
<event>
 5   0  0.1805501E-04  0.2181352E+04  0.7818609E-02  0.8526230E-01
       -2   -1    0    0    0  501  0.00000000000E+00  0.00000000000E+00  0.70316847769E+03  0.70316847770E+03  0.25500000920E-02 0.  1.
        2   -1    0    0  501    0  0.00000000000E+00  0.00000000000E+00 -0.16917346652E+04  0.16917346652E+04  0.25500000920E-02 0. -1.
    10030    2    1    2    0    0  0.00000000000E+00  0.00000000000E+00 -0.98856618754E+03  0.23949031429E+04  0.21813523230E+04 0.  0.
        2    1    3    3  502    0  0.75846509436E+03  0.26217922243E+03 -0.13052185351E+04  0.15321888488E+04  0.25500000920E-02 0. -1.
       -2    1    3    3    0  502 -0.75846509436E+03 -0.26217922243E+03  0.31665234758E+03  0.86271429411E+03  0.25500000920E-02 0.  1.
</event>
<event>
 5   0  0.8470971E-05  0.1535970E+04  0.7818609E-02  0.8860879E-01
        1   -1    0    0  501    0  0.00000000000E+00  0.00000000000E+00  0.72803998506E+03  0.72803998507E+03  0.50400001928E-02 0.  1.
       -1   -1    0    0    0  501  0.00000000000E+00  0.00000000000E+00 -0.81012193393E+03  0.81012193394E+03  0.50400001928E-02 0. -1.
    10030    2    1    2    0    0  0.00000000000E+00  0.00000000000E+00 -0.82081948873E+02  0.15381619190E+04  0.15359702610E+04 0.  0.
        2    1    3    3  502    0  0.45660620746E+03 -0.11361317883E+03 -0.64886995557E+03  0.80151693828E+03  0.25500000920E-02 0. -1.
       -2    1    3    3    0  502 -0.45660620746E+03  0.11361317883E+03  0.56678800670E+03  0.73664498074E+03  0.25500000920E-02 0.  1.
</event>
<event>
 5   0  0.8470971E-05  0.2201677E+04  0.7818609E-02  0.8517731E-01
        1   -1    0    0  501    0  0.00000000000E+00  0.00000000000E+00  0.72773566688E+03  0.72773566689E+03  0.50400001928E-02 0.  1.
       -1   -1    0    0    0  501  0.00000000000E+00  0.00000000000E+00 -0.16652267112E+04  0.16652267112E+04  0.50400001928E-02 0. -1.
    10030    2    1    2    0    0  0.00000000000E+00  0.00000000000E+00 -0.93749104431E+03  0.23929623781E+04  0.22016765168E+04 0.  0.
        2    1    3    3  502    0 -0.83331671387E+03 -0.21716170010E+01  0.31307199566E+03  0.89018848342E+03  0.25500000920E-02 0.  1.
       -2    1    3    3    0  502  0.83331671387E+03  0.21716170010E+01 -0.12505630400E+04  0.15027738947E+04  0.25500000920E-02 0. -1.
</event>
<event>
 5   0  0.8784659E-05  0.2165933E+04  0.7818609E-02  0.8532743E-01
        1   -1    0    0  501    0  0.00000000000E+00  0.00000000000E+00  0.10872345968E+04  0.10872345968E+04  0.50400001928E-02 0.  1.
       -1   -1    0    0    0  501  0.00000000000E+00  0.00000000000E+00 -0.10787153363E+04  0.10787153363E+04  0.50400001928E-02 0. -1.
    10030    2    1    2    0    0  0.00000000000E+00  0.00000000000E+00  0.85192604470E+01  0.21659499331E+04  0.21659331788E+04 0.  0.
        4    1    3    3  502    0 -0.46296087227E+02 -0.43732294095E+03 -0.98540470221E+03  0.10790823520E+04  0.12699999809E+01 0. -1.
       -4    1    3    3    0  502  0.46296087227E+02  0.43732294095E+03  0.99392396266E+03  0.10868675811E+04  0.12699999809E+01 0.  1.
</event>
<event>
 5   0  0.8784659E-05  0.2240400E+04  0.7818609E-02  0.8501798E-01
        1   -1    0    0  501    0  0.00000000000E+00  0.00000000000E+00  0.12921947808E+04  0.12921947808E+04  0.50400001928E-02 0. -1.
       -1   -1    0    0    0  501  0.00000000000E+00  0.00000000000E+00 -0.97109826468E+03  0.97109826469E+03  0.50400001928E-02 0.  1.
    10030    2    1    2    0    0  0.00000000000E+00  0.00000000000E+00  0.32109651609E+03  0.22632930455E+04  0.22404000618E+04 0.  0.
        4    1    3    3  502    0 -0.64962919525E+03  0.75664079817E+03 -0.35488397365E+03  0.10585214388E+04  0.12699999809E+01 0.  1.
       -4    1    3    3    0  502  0.64962919525E+03 -0.75664079817E+03  0.67598048974E+03  0.12047716067E+04  0.12699999809E+01 0. -1.
</event>
<event>
 5   0  0.7954459E-05  0.2198931E+04  0.7818609E-02  0.8518873E-01
        1   -1    0    0  501    0  0.00000000000E+00  0.00000000000E+00  0.18538440211E+04  0.18538440211E+04  0.50400001928E-02 0. -1.
       -1   -1    0    0    0  501  0.00000000000E+00  0.00000000000E+00 -0.65206351306E+03  0.65206351308E+03  0.50400001928E-02 0.  1.
    10030    2    1    2    0    0  0.00000000000E+00  0.00000000000E+00  0.12017805080E+04  0.25059075341E+04  0.21989306902E+04 0.  0.
        5    1    3    3  502    0 -0.67593475041E+03  0.74122790065E+03  0.11137056406E+04  0.14988892325E+04  0.46999998093E+01 0. -1.
       -5    1    3    3    0  502  0.67593475041E+03 -0.74122790065E+03  0.88074867415E+02  0.10070183016E+04  0.46999998093E+01 0.  1.
</event>
<event>
 5   0  0.8602414E-05  0.2255025E+04  0.7818609E-02  0.8495868E-01
        1   -1    0    0  501    0  0.00000000000E+00  0.00000000000E+00  0.15338199720E+04  0.15338199720E+04  0.50400001928E-02 0. -1.
       -1   -1    0    0    0  501  0.00000000000E+00  0.00000000000E+00 -0.82883558503E+03  0.82883558504E+03  0.50400001928E-02 0.  1.
    10030    2    1    2    0    0  0.00000000000E+00  0.00000000000E+00  0.70498438696E+03  0.23626555570E+04  0.22550251208E+04 0.  0.
        3    1    3    3  502    0 -0.90111545785E+02  0.89012463836E+03 -0.36643829717E+03  0.96680866687E+03  0.10100000352E+00 0.  1.
       -3    1    3    3    0  502  0.90111545785E+02 -0.89012463836E+03  0.10714226841E+04  0.13958468902E+04  0.10100000352E+00 0. -1.
</event>
<event>
 5   0  0.1680258E-04  0.2214615E+04  0.7818609E-02  0.8512369E-01
        2   -1    0    0  501    0  0.00000000000E+00  0.00000000000E+00  0.10540419636E+04  0.10540419636E+04  0.25500000920E-02 0. -1.
       -2   -1    0    0    0  501  0.00000000000E+00  0.00000000000E+00 -0.11632650756E+04  0.11632650756E+04  0.25500000920E-02 0.  1.
    10030    2    1    2    0    0  0.00000000000E+00  0.00000000000E+00 -0.10922311197E+03  0.22173070393E+04  0.22146152754E+04 0.  0.
        5    1    3    3  502    0  0.28409016264E+03 -0.43051368012E+03  0.92640531394E+03  0.10603292625E+04  0.46999998093E+01 0. -1.
       -5    1    3    3    0  502 -0.28409016264E+03  0.43051368012E+03 -0.10356284259E+04  0.11569777767E+04  0.46999998093E+01 0.  1.
</event>
<event>
 5   0  0.7954459E-05  0.2127510E+04  0.7818609E-02  0.8549221E-01
        1   -1    0    0  501    0  0.00000000000E+00  0.00000000000E+00  0.50515916406E+03  0.50515916409E+03  0.50400001928E-02 0. -1.
       -1   -1    0    0    0  501  0.00000000000E+00  0.00000000000E+00 -0.22400366917E+04  0.22400366917E+04  0.50400001928E-02 0.  1.
    10030    2    1    2    0    0  0.00000000000E+00  0.00000000000E+00 -0.17348775276E+04  0.27451958558E+04  0.21275103409E+04 0.  0.
        5    1    3    3  502    0  0.41347519235E+02 -0.90444414956E+03 -0.15879761479E+04  0.18279549156E+04  0.46999998093E+01 0.  1.
       -5    1    3    3    0  502 -0.41347519235E+02  0.90444414956E+03 -0.14690137970E+03  0.91724094020E+03  0.46999998093E+01 0. -1.
</event>
<event>
 5   0  0.1754356E-04  0.2148525E+04  0.7818609E-02  0.8540164E-01
       -2   -1    0    0    0  501  0.00000000000E+00  0.00000000000E+00  0.90369625033E+03  0.90369625034E+03  0.25500000920E-02 0.  1.
        2   -1    0    0  501    0  0.00000000000E+00  0.00000000000E+00 -0.12770216412E+04  0.12770216412E+04  0.25500000920E-02 0. -1.
    10030    2    1    2    0    0  0.00000000000E+00  0.00000000000E+00 -0.37332539088E+03  0.21807178916E+04  0.21485247672E+04 0.  0.
        1    1    3    3  502    0 -0.72781467536E+03  0.74722025070E+03 -0.44739179955E+03  0.11349941529E+04  0.50400001928E-02 0.  1.
       -1    1    3    3    0  502  0.72781467536E+03 -0.74722025070E+03  0.74066408669E+02  0.10457237387E+04  0.50400001928E-02 0. -1.
</event>
<event>
 5   0  0.8602414E-05  0.2065554E+04  0.7818609E-02  0.8576571E-01
        1   -1    0    0  501    0  0.00000000000E+00  0.00000000000E+00  0.16014158353E+04  0.16014158353E+04  0.50400001928E-02 0.  1.
       -1   -1    0    0    0  501  0.00000000000E+00  0.00000000000E+00 -0.66605355547E+03  0.66605355549E+03  0.50400001928E-02 0. -1.
    10030    2    1    2    0    0  0.00000000000E+00  0.00000000000E+00  0.93536227984E+03  0.22674693908E+04  0.20655543672E+04 0.  0.
        3    1    3    3  502    0  0.56185460991E+03 -0.73883732045E+03  0.96479198025E+03  0.13387997476E+04  0.10100000352E+00 0. -1.
       -3    1    3    3    0  502 -0.56185460991E+03  0.73883732045E+03 -0.29429700412E+02  0.92866964322E+03  0.10100000352E+00 0.  1.
</event>
<event>
 5   0  0.8784659E-05  0.1752655E+04  0.7818609E-02  0.8731890E-01
        1   -1    0    0  501    0  0.00000000000E+00  0.00000000000E+00  0.74276224429E+03  0.74276224431E+03  0.50400001928E-02 0.  1.
       -1   -1    0    0    0  501  0.00000000000E+00  0.00000000000E+00 -0.10339103147E+04  0.10339103147E+04  0.50400001928E-02 0. -1.
    10030    2    1    2    0    0  0.00000000000E+00  0.00000000000E+00 -0.29114807040E+03  0.17766725590E+04  0.17526546103E+04 0.  0.
        4    1    3    3  502    0  0.50059146880E+03 -0.29181544541E+03 -0.81200223520E+03  0.99754564592E+03  0.12699999809E+01 0. -1.
       -4    1    3    3    0  502 -0.50059146880E+03  0.29181544541E+03  0.52085416480E+03  0.77912691310E+03  0.12699999809E+01 0.  1.
</event>
<event>
 5   0  0.1754356E-04  0.2213936E+04  0.7818609E-02  0.8512650E-01
       -2   -1    0    0    0  501  0.00000000000E+00  0.00000000000E+00  0.20963218465E+04  0.20963218466E+04  0.25500000920E-02 0. -1.
        2   -1    0    0  501    0  0.00000000000E+00  0.00000000000E+00 -0.58453699349E+03  0.58453699349E+03  0.25500000920E-02 0.  1.
    10030    2    1    2    0    0  0.00000000000E+00  0.00000000000E+00  0.15117848531E+04  0.26808588400E+04  0.22139355633E+04 0.  0.
        1    1    3    3  502    0 -0.70475268664E+03  0.20523077007E+03 -0.24746360742E+03  0.77461878065E+03  0.50400001928E-02 0.  1.
       -1    1    3    3    0  502  0.70475268664E+03 -0.20523077007E+03  0.17592484605E+04  0.19062400594E+04  0.50400001928E-02 0. -1.
</event>
<event>
 5   0  0.1733962E-04  0.2236569E+04  0.7818609E-02  0.8503360E-01
       -2   -1    0    0    0  501  0.00000000000E+00  0.00000000000E+00  0.59134108393E+03  0.59134108393E+03  0.25500000920E-02 0.  1.
        2   -1    0    0  501    0  0.00000000000E+00  0.00000000000E+00 -0.21147859641E+04  0.21147859641E+04  0.25500000920E-02 0. -1.
    10030    2    1    2    0    0  0.00000000000E+00  0.00000000000E+00 -0.15234448802E+04  0.27061270480E+04  0.22365686435E+04 0.  0.
        3    1    3    3  502    0 -0.21648920666E+03 -0.88769868365E+03  0.18372086568E+02  0.91390047232E+03  0.10100000352E+00 0.  1.
       -3    1    3    3    0  502  0.21648920666E+03  0.88769868365E+03 -0.15418169667E+04  0.17922265757E+04  0.10100000352E+00 0. -1.
</event>
<event>
 5   0  0.1754356E-04  0.2217142E+04  0.7818609E-02  0.8511327E-01
       -2   -1    0    0    0  501  0.00000000000E+00  0.00000000000E+00  0.11755566735E+04  0.11755566735E+04  0.25500000920E-02 0. -1.
        2   -1    0    0  501    0  0.00000000000E+00  0.00000000000E+00 -0.10454027557E+04  0.10454027557E+04  0.25500000920E-02 0.  1.
    10030    2    1    2    0    0  0.00000000000E+00  0.00000000000E+00  0.13015391779E+03  0.22209594291E+04  0.22171424725E+04 0.  0.
        1    1    3    3  502    0 -0.61423387169E+03 -0.91549967854E+03  0.18149784476E+03  0.11173022770E+04  0.50400001928E-02 0. -1.
       -1    1    3    3    0  502  0.61423387169E+03  0.91549967854E+03 -0.51343926970E+02  0.11036571521E+04  0.50400001928E-02 0.  1.
</event>
<event>
 5   0  0.1733962E-04  0.2220718E+04  0.7818609E-02  0.8509854E-01
       -2   -1    0    0    0  501  0.00000000000E+00  0.00000000000E+00  0.10998152024E+04  0.10998152024E+04  0.25500000920E-02 0.  1.
        2   -1    0    0  501    0  0.00000000000E+00  0.00000000000E+00 -0.11210043655E+04  0.11210043655E+04  0.25500000920E-02 0. -1.
    10030    2    1    2    0    0  0.00000000000E+00  0.00000000000E+00 -0.21189163103E+02  0.22208195679E+04  0.22207184812E+04 0.  0.
        3    1    3    3  502    0 -0.18255076844E+03 -0.33231018787E+03  0.10330729644E+04  0.11004519998E+04  0.10100000352E+00 0.  1.
       -3    1    3    3    0  502  0.18255076844E+03  0.33231018787E+03 -0.10542621275E+04  0.11203675681E+04  0.10100000352E+00 0. -1.
</event>
<event>
 5   0  0.1805501E-04  0.2263300E+04  0.7818609E-02  0.8492534E-01
        2   -1    0    0  501    0  0.00000000000E+00  0.00000000000E+00  0.10147302142E+04  0.10147302142E+04  0.25500000920E-02 0. -1.
       -2   -1    0    0    0  501  0.00000000000E+00  0.00000000000E+00 -0.12620411863E+04  0.12620411863E+04  0.25500000920E-02 0.  1.
    10030    2    1    2    0    0  0.00000000000E+00  0.00000000000E+00 -0.24731097202E+03  0.22767714005E+04  0.22632996473E+04 0.  0.
        2    1    3    3  502    0 -0.10881577754E+04 -0.63387056619E+02 -0.42964701725E+03  0.11716235840E+04  0.25500000920E-02 0.  1.
       -2    1    3    3    0  502  0.10881577754E+04  0.63387056619E+02  0.18233604523E+03  0.11051478166E+04  0.25500000920E-02 0. -1.
</event>
<event>
 5   0  0.1754356E-04  0.2137745E+04  0.7818609E-02  0.8544796E-01
       -2   -1    0    0    0  501  0.00000000000E+00  0.00000000000E+00  0.63936766072E+03  0.63936766072E+03  0.25500000920E-02 0.  1.
        2   -1    0    0  501    0  0.00000000000E+00  0.00000000000E+00 -0.17869043141E+04  0.17869043141E+04  0.25500000920E-02 0. -1.
    10030    2    1    2    0    0  0.00000000000E+00  0.00000000000E+00 -0.11475366534E+04  0.24262719748E+04  0.21377453836E+04 0.  0.
        1    1    3    3  502    0 -0.27976298540E+03  0.68083284258E+03  0.30587788070E+03  0.79709595750E+03  0.50400001928E-02 0.  1.
       -1    1    3    3    0  502  0.27976298540E+03 -0.68083284258E+03 -0.14534145341E+04  0.16291760173E+04  0.50400001928E-02 0. -1.
</event>
<event>
 5   0  0.7954459E-05  0.2232963E+04  0.7818609E-02  0.8504832E-01
        1   -1    0    0  501    0  0.00000000000E+00  0.00000000000E+00  0.10312742140E+04  0.10312742140E+04  0.50400001928E-02 0.  1.
       -1   -1    0    0    0  501  0.00000000000E+00  0.00000000000E+00 -0.12087290416E+04  0.12087290417E+04  0.50400001928E-02 0. -1.
    10030    2    1    2    0    0  0.00000000000E+00  0.00000000000E+00 -0.17745482769E+03  0.22400032556E+04  0.22329631366E+04 0.  0.
        5    1    3    3  502    0  0.92483546378E+03  0.55092133468E+03 -0.38575899775E+03  0.11435327046E+04  0.46999998093E+01 0. -1.
       -5    1    3    3    0  502 -0.92483546378E+03 -0.55092133468E+03  0.20830417005E+03  0.10964705511E+04  0.46999998093E+01 0.  1.
</event>
<event>
 5   0  0.7954459E-05  0.2183536E+04  0.7818609E-02  0.8525312E-01
        1   -1    0    0  501    0  0.00000000000E+00  0.00000000000E+00  0.14974855403E+04  0.14974855403E+04  0.50400001928E-02 0.  1.
       -1   -1    0    0    0  501  0.00000000000E+00  0.00000000000E+00 -0.79597217931E+03  0.79597217932E+03  0.50400001928E-02 0. -1.
    10030    2    1    2    0    0  0.00000000000E+00  0.00000000000E+00  0.70151336098E+03  0.22934577196E+04  0.21835355083E+04 0.  0.
        5    1    3    3  502    0 -0.44210451090E+03 -0.56852475516E+02 -0.69603176854E+03  0.82654153879E+03  0.46999998093E+01 0. -1.
       -5    1    3    3    0  502  0.44210451090E+03  0.56852475516E+02  0.13975451295E+04  0.14669161808E+04  0.46999998093E+01 0.  1.
</event>
<event>
 5   0  0.1805501E-04  0.2229895E+04  0.7818609E-02  0.8506087E-01
       -2   -1    0    0    0  501  0.00000000000E+00  0.00000000000E+00  0.10343214674E+04  0.10343214674E+04  0.25500000920E-02 0.  1.
        2   -1    0    0  501    0  0.00000000000E+00  0.00000000000E+00 -0.12018587527E+04  0.12018587527E+04  0.25500000920E-02 0. -1.
    10030    2    1    2    0    0  0.00000000000E+00  0.00000000000E+00 -0.16753728529E+03  0.22361802201E+04  0.22298953417E+04 0.  0.
        2    1    3    3  502    0 -0.10359499070E+04 -0.17095048002E+02 -0.49678360963E+03  0.11490336833E+04  0.25500000920E-02 0.  1.
       -2    1    3    3    0  502  0.10359499070E+04  0.17095048002E+02  0.32924632433E+03  0.10871465368E+04  0.25500000920E-02 0. -1.
</event>
<event>
 5   0  0.8602414E-05  0.2292703E+04  0.7818609E-02  0.8480804E-01
       -1   -1    0    0    0  501  0.00000000000E+00  0.00000000000E+00  0.10086092818E+04  0.10086092818E+04  0.50400001928E-02 0.  1.
        1   -1    0    0  501    0  0.00000000000E+00  0.00000000000E+00 -0.13029050459E+04  0.13029050459E+04  0.50400001928E-02 0. -1.
    10030    2    1    2    0    0  0.00000000000E+00  0.00000000000E+00 -0.29429576410E+03  0.23115143277E+04  0.22927033149E+04 0.  0.
        3    1    3    3  502    0  0.78732650032E+03 -0.10772287672E+03 -0.98014398034E+03  0.12618119783E+04  0.10100000352E+00 0. -1.
       -3    1    3    3    0  502 -0.78732650032E+03  0.10772287672E+03  0.68584821624E+03  0.10497023493E+04  0.10100000352E+00 0.  1.
</event>
<event>
 5   0  0.7954459E-05  0.2260021E+04  0.7818609E-02  0.8493853E-01
        1   -1    0    0  501    0  0.00000000000E+00  0.00000000000E+00  0.17942267145E+04  0.17942267145E+04  0.50400001928E-02 0.  1.
       -1   -1    0    0    0  501  0.00000000000E+00  0.00000000000E+00 -0.71168455484E+03  0.71168455485E+03  0.50400001928E-02 0. -1.
    10030    2    1    2    0    0  0.00000000000E+00  0.00000000000E+00  0.10825421597E+04  0.25059112694E+04  0.22600207438E+04 0.  0.
        5    1    3    3  502    0 -0.10759998698E+04 -0.18809450693E+03  0.86214581737E+03  0.13915720476E+04  0.46999998093E+01 0.  1.
       -5    1    3    3    0  502  0.10759998698E+04  0.18809450693E+03  0.22039634231E+03  0.11143392217E+04  0.46999998093E+01 0. -1.
</event>
<event>
 5   0  0.1680258E-04  0.2087449E+04  0.7818609E-02  0.8566792E-01
        2   -1    0    0  501    0  0.00000000000E+00  0.00000000000E+00  0.72381925043E+03  0.72381925044E+03  0.25500000920E-02 0. -1.
       -2   -1    0    0    0  501  0.00000000000E+00  0.00000000000E+00 -0.15050176175E+04  0.15050176175E+04  0.25500000920E-02 0.  1.
    10030    2    1    2    0    0  0.00000000000E+00  0.00000000000E+00 -0.78119836706E+03  0.22288368679E+04  0.20874488964E+04 0.  0.
        5    1    3    3  502    0 -0.88963906208E+03 -0.37608798828E+03 -0.81291239320E+03  0.12624375172E+04  0.46999998093E+01 0.  1.
       -5    1    3    3    0  502  0.88963906208E+03  0.37608798828E+03  0.31714026146E+02  0.96639935077E+03  0.46999998093E+01 0. -1.
</event>
<event>
 5   0  0.1733962E-04  0.2239409E+04  0.7818609E-02  0.8502202E-01
        2   -1    0    0  501    0  0.00000000000E+00  0.00000000000E+00  0.81847942732E+03  0.81847942733E+03  0.25500000920E-02 0.  1.
       -2   -1    0    0    0  501  0.00000000000E+00  0.00000000000E+00 -0.15317888906E+04  0.15317888906E+04  0.25500000920E-02 0. -1.
    10030    2    1    2    0    0  0.00000000000E+00  0.00000000000E+00 -0.71330946329E+03  0.23502683179E+04  0.22394085773E+04 0.  0.
        3    1    3    3  502    0  0.10409374704E+04  0.11679997816E+03  0.58589108307E+02  0.10491071184E+04  0.10100000352E+00 0.  1.
       -3    1    3    3    0  502 -0.10409374704E+04 -0.11679997816E+03 -0.77189857160E+03  0.13011611995E+04  0.10100000352E+00 0. -1.
</event>
<event>
 5   0  0.6250625E-05  0.2082033E+04  0.7818609E-02  0.8569200E-01
       -3   -1    0    0    0  501  0.00000000000E+00  0.00000000000E+00  0.60924454476E+03  0.60924455313E+03  0.10100000352E+00 0. -1.
        3   -1    0    0  501    0  0.00000000000E+00  0.00000000000E+00 -0.17787852726E+04  0.17787852754E+04  0.10100000352E+00 0.  1.
    10030    2    1    2    0    0  0.00000000000E+00  0.00000000000E+00 -0.11695407278E+04  0.23880298286E+04  0.20820328883E+04 0.  0.
        2    1    3    3  502    0  0.27023912135E+03  0.39430373665E+03 -0.16454609241E+04  0.17134895016E+04  0.25500000920E-02 0.  1.
       -2    1    3    3    0  502 -0.27023912135E+03 -0.39430373665E+03  0.47592019628E+03  0.67454032695E+03  0.25500000920E-02 0. -1.
</event>
<event>
 5   0  0.1805501E-04  0.2223904E+04  0.7818609E-02  0.8508544E-01
       -2   -1    0    0    0  501  0.00000000000E+00  0.00000000000E+00  0.66900800512E+03  0.66900800513E+03  0.25500000920E-02 0. -1.
        2   -1    0    0  501    0  0.00000000000E+00  0.00000000000E+00 -0.18481646691E+04  0.18481646691E+04  0.25500000920E-02 0.  1.
    10030    2    1    2    0    0  0.00000000000E+00  0.00000000000E+00 -0.11791566640E+04  0.25171726742E+04  0.22239037375E+04 0.  0.
        2    1    3    3  502    0 -0.10446263171E+04 -0.37162743936E+03 -0.68485649592E+03  0.13032189057E+04  0.25500000920E-02 0.  1.
       -2    1    3    3    0  502  0.10446263171E+04  0.37162743936E+03 -0.49430016807E+03  0.12139537686E+04  0.25500000920E-02 0. -1.
</event>
<event>
 5   0  0.8306787E-05  0.2229604E+04  0.7818609E-02  0.8506206E-01
        1   -1    0    0  501    0  0.00000000000E+00  0.00000000000E+00  0.17372201456E+04  0.17372201456E+04  0.50400001928E-02 0. -1.
       -1   -1    0    0    0  501  0.00000000000E+00  0.00000000000E+00 -0.71538640066E+03  0.71538640068E+03  0.50400001928E-02 0.  1.
    10030    2    1    2    0    0  0.00000000000E+00  0.00000000000E+00  0.10218337450E+04  0.24526065463E+04  0.22296041507E+04 0.  0.
        1    1    3    3  502    0  0.10057808491E+04 -0.33902648940E+03  0.88597262785E+03  0.13825634069E+04  0.50400001928E-02 0. -1.
       -1    1    3    3    0  502 -0.10057808491E+04  0.33902648940E+03  0.13586111710E+03  0.10700431394E+04  0.50400001928E-02 0.  1.
</event>
<event>
 5   0  0.1733962E-04  0.2494601E+04  0.7818609E-02  0.8404912E-01
        2   -1    0    0  501    0  0.00000000000E+00  0.00000000000E+00  0.15241208118E+04  0.15241208118E+04  0.25500000920E-02 0.  1.
       -2   -1    0    0    0  501  0.00000000000E+00  0.00000000000E+00 -0.10207578736E+04  0.10207578736E+04  0.25500000920E-02 0. -1.
    10030    2    1    2    0    0  0.00000000000E+00  0.00000000000E+00  0.50336293817E+03  0.25448786854E+04  0.24946008249E+04 0.  0.
        3    1    3    3  502    0 -0.85518360902E+03 -0.72944934231E+03  0.80324746868E+03  0.13815360488E+04  0.10100000352E+00 0.  1.
       -3    1    3    3    0  502  0.85518360902E+03  0.72944934231E+03 -0.29988453051E+03  0.11633426365E+04  0.10100000352E+00 0. -1.
</event>
<event>
 5   0  0.8470971E-05  0.2174688E+04  0.7818609E-02  0.8529038E-01
       -1   -1    0    0    0  501  0.00000000000E+00  0.00000000000E+00  0.36130501940E+03  0.36130501943E+03  0.50400001928E-02 0.  1.
        1   -1    0    0  501    0  0.00000000000E+00  0.00000000000E+00 -0.32723509680E+04  0.32723509680E+04  0.50400001928E-02 0. -1.
    10030    2    1    2    0    0  0.00000000000E+00  0.00000000000E+00 -0.29110459486E+04  0.36336559874E+04  0.21746878673E+04 0.  0.
        2    1    3    3  502    0 -0.30827317807E+03 -0.89562048428E+03 -0.56328158336E+03  0.11020229337E+04  0.25500000920E-02 0.  1.
       -2    1    3    3    0  502  0.30827317807E+03  0.89562048428E+03 -0.23477643652E+04  0.25316330537E+04  0.25500000920E-02 0. -1.
</event>
<event>
 5   0  0.8602414E-05  0.2206134E+04  0.7818609E-02  0.8515879E-01
        1   -1    0    0  501    0  0.00000000000E+00  0.00000000000E+00  0.78598045810E+03  0.78598045812E+03  0.50400001928E-02 0. -1.
       -1   -1    0    0    0  501  0.00000000000E+00  0.00000000000E+00 -0.15480747433E+04  0.15480747433E+04  0.50400001928E-02 0.  1.
    10030    2    1    2    0    0  0.00000000000E+00  0.00000000000E+00 -0.76209428521E+03  0.23340552014E+04  0.22061337185E+04 0.  0.
        3    1    3    3  502    0 -0.72533065008E+02 -0.84071035592E+03  0.37056987514E+03  0.92161650953E+03  0.10100000352E+00 0.  1.
       -3    1    3    3    0  502  0.72533065008E+02  0.84071035592E+03 -0.11326641604E+04  0.14124386919E+04  0.10100000352E+00 0. -1.
</event>
<event>
 5   0  0.7954459E-05  0.2192706E+04  0.7818609E-02  0.8521470E-01
       -1   -1    0    0    0  501  0.00000000000E+00  0.00000000000E+00  0.91344699655E+03  0.91344699656E+03  0.50400001928E-02 0.  1.
        1   -1    0    0  501    0  0.00000000000E+00  0.00000000000E+00 -0.13158832266E+04  0.13158832267E+04  0.50400001928E-02 0. -1.
    10030    2    1    2    0    0  0.00000000000E+00  0.00000000000E+00 -0.40243623009E+03  0.22293302232E+04  0.21927057087E+04 0.  0.
        5    1    3    3  502    0  0.89579137547E+03  0.20418752742E+03 -0.80940087277E+03  0.12244535914E+04  0.46999998093E+01 0. -1.
       -5    1    3    3    0  502 -0.89579137547E+03 -0.20418752742E+03  0.40696464268E+03  0.10048766318E+04  0.46999998093E+01 0.  1.
</event>
<event>
 5   0  0.8470971E-05  0.2257311E+04  0.7818609E-02  0.8494946E-01
        1   -1    0    0  501    0  0.00000000000E+00  0.00000000000E+00  0.89553714688E+03  0.89553714689E+03  0.50400001928E-02 0.  1.
       -1   -1    0    0    0  501  0.00000000000E+00  0.00000000000E+00 -0.14224570029E+04  0.14224570029E+04  0.50400001928E-02 0. -1.
    10030    2    1    2    0    0  0.00000000000E+00  0.00000000000E+00 -0.52691985600E+03  0.23179941498E+04  0.22573108656E+04 0.  0.
        2    1    3    3  502    0 -0.49740772520E+03 -0.40153498663E+03 -0.12186368272E+04  0.13761251786E+04  0.25500000920E-02 0. -1.
       -2    1    3    3    0  502  0.49740772520E+03  0.40153498663E+03  0.69171697121E+03  0.94186897116E+03  0.25500000920E-02 0.  1.
</event>
<event>
 5   0  0.1798917E-04  0.2163339E+04  0.7818609E-02  0.8533844E-01
        2   -1    0    0  501    0  0.00000000000E+00  0.00000000000E+00  0.10560678328E+04  0.10560678328E+04  0.25500000920E-02 0.  1.
       -2   -1    0    0    0  501  0.00000000000E+00  0.00000000000E+00 -0.11078916405E+04  0.11078916405E+04  0.25500000920E-02 0. -1.
    10030    2    1    2    0    0  0.00000000000E+00  0.00000000000E+00 -0.51823807659E+02  0.21639594732E+04  0.21633388303E+04 0.  0.
        4    1    3    3  502    0 -0.38389675750E+03 -0.85883954587E+03 -0.55994241855E+03  0.10947690217E+04  0.12699999809E+01 0. -1.
       -4    1    3    3    0  502  0.38389675750E+03  0.85883954587E+03  0.50811861089E+03  0.10691904515E+04  0.12699999809E+01 0.  1.
</event>
<event>
 5   0  0.8784659E-05  0.2159992E+04  0.7818609E-02  0.8535267E-01
        1   -1    0    0  501    0  0.00000000000E+00  0.00000000000E+00  0.12316057050E+04  0.12316057050E+04  0.50400001928E-02 0. -1.
       -1   -1    0    0    0  501  0.00000000000E+00  0.00000000000E+00 -0.94704910660E+03  0.94704910661E+03  0.50400001928E-02 0.  1.
    10030    2    1    2    0    0  0.00000000000E+00  0.00000000000E+00  0.28455659844E+03  0.21786548117E+04  0.21599917432E+04 0.  0.
        4    1    3    3  502    0 -0.72411691751E+03  0.43558062205E+03  0.82063199693E+03  0.11779279587E+04  0.12699999809E+01 0. -1.
       -4    1    3    3    0  502  0.72411691751E+03 -0.43558062205E+03 -0.53607539850E+03  0.10007268530E+04  0.12699999809E+01 0.  1.
</event>
<event>
 5   0  0.7954459E-05  0.2175081E+04  0.7818609E-02  0.8528872E-01
        1   -1    0    0  501    0  0.00000000000E+00  0.00000000000E+00  0.10606466240E+04  0.10606466240E+04  0.50400001928E-02 0.  1.
       -1   -1    0    0    0  501  0.00000000000E+00  0.00000000000E+00 -0.11151166133E+04  0.11151166133E+04  0.50400001928E-02 0. -1.
    10030    2    1    2    0    0  0.00000000000E+00  0.00000000000E+00 -0.54469989324E+02  0.21757632373E+04  0.21750813054E+04 0.  0.
        5    1    3    3  502    0  0.86629740729E+03 -0.64334583572E+03  0.10829740660E+03  0.10844885802E+04  0.46999998093E+01 0.  1.
       -5    1    3    3    0  502 -0.86629740729E+03  0.64334583572E+03 -0.16276739592E+03  0.10912746572E+04  0.46999998093E+01 0. -1.
</event>
<event>
 5   0  0.6250625E-05  0.2209950E+04  0.7818609E-02  0.8514298E-01
        4   -1    0    0  501    0  0.00000000000E+00  0.00000000000E+00  0.13733044137E+04  0.13733050009E+04  0.12699999809E+01 0.  1.
       -4   -1    0    0    0  501  0.00000000000E+00  0.00000000000E+00 -0.88907307609E+03  0.88907398316E+03  0.12699999809E+01 0. -1.
    10030    2    1    2    0    0  0.00000000000E+00  0.00000000000E+00  0.48423133756E+03  0.22623789840E+04  0.22099499269E+04 0.  0.
        1    1    3    3  502    0 -0.40856433445E+03 -0.28693026342E+03  0.12512583480E+04  0.13471827066E+04  0.50400001928E-02 0.  1.
       -1    1    3    3    0  502  0.40856433445E+03  0.28693026342E+03 -0.76702701046E+03  0.91519627745E+03  0.50400001928E-02 0. -1.
</event>
<event>
 5   0  0.1754356E-04  0.1593066E+04  0.7818609E-02  0.8824819E-01
       -2   -1    0    0    0  501  0.00000000000E+00  0.00000000000E+00  0.32136242035E+03  0.32136242036E+03  0.25500000920E-02 0.  1.
        2   -1    0    0  501    0  0.00000000000E+00  0.00000000000E+00 -0.19742976323E+04  0.19742976323E+04  0.25500000920E-02 0. -1.
    10030    2    1    2    0    0  0.00000000000E+00  0.00000000000E+00 -0.16529352119E+04  0.22956600526E+04  0.15930663082E+04 0.  0.
        1    1    3    3  502    0 -0.66690058563E+03 -0.28014529496E+03 -0.34587243948E+03  0.80178895092E+03  0.50400001928E-02 0. -1.
       -1    1    3    3    0  502  0.66690058563E+03  0.28014529496E+03 -0.13070627724E+04  0.14938711017E+04  0.50400001928E-02 0.  1.
</event>
<event>
 5   0  0.1733962E-04  0.1611746E+04  0.7818609E-02  0.8813364E-01
        2   -1    0    0  501    0  0.00000000000E+00  0.00000000000E+00  0.73839931452E+03  0.73839931452E+03  0.25500000920E-02 0.  1.
       -2   -1    0    0    0  501  0.00000000000E+00  0.00000000000E+00 -0.87951282263E+03  0.87951282264E+03  0.25500000920E-02 0. -1.
    10030    2    1    2    0    0  0.00000000000E+00  0.00000000000E+00 -0.14111350811E+03  0.16179121372E+04  0.16117464631E+04 0.  0.
        3    1    3    3  502    0  0.72374827490E+01 -0.78861267049E+03 -0.23692952123E+03  0.82346702025E+03  0.10100000352E+00 0.  1.
       -3    1    3    3    0  502 -0.72374827490E+01  0.78861267049E+03  0.95816013113E+02  0.79444511691E+03  0.10100000352E+00 0. -1.
</event>
<event>
 5   0  0.1733962E-04  0.2160434E+04  0.7818609E-02  0.8535079E-01
        2   -1    0    0  501    0  0.00000000000E+00  0.00000000000E+00  0.73092034838E+03  0.73092034839E+03  0.25500000920E-02 0. -1.
       -2   -1    0    0    0  501  0.00000000000E+00  0.00000000000E+00 -0.15964370365E+04  0.15964370365E+04  0.25500000920E-02 0.  1.
    10030    2    1    2    0    0  0.00000000000E+00  0.00000000000E+00 -0.86551668807E+03  0.23273573849E+04  0.21604335814E+04 0.  0.
        3    1    3    3  502    0  0.13530213018E+03 -0.10646930839E+04 -0.30086375931E+03  0.11146286562E+04  0.10100000352E+00 0.  1.
       -3    1    3    3    0  502 -0.13530213018E+03  0.10646930839E+04 -0.56465292876E+03  0.12127287287E+04  0.10100000352E+00 0. -1.
</event>
<event>
 5   0  0.8784659E-05  0.2182613E+04  0.7818609E-02  0.8525700E-01
        1   -1    0    0  501    0  0.00000000000E+00  0.00000000000E+00  0.13759117685E+04  0.13759117685E+04  0.50400001928E-02 0. -1.
       -1   -1    0    0    0  501  0.00000000000E+00  0.00000000000E+00 -0.86557163507E+03  0.86557163509E+03  0.50400001928E-02 0.  1.
    10030    2    1    2    0    0  0.00000000000E+00  0.00000000000E+00  0.51034013343E+03  0.22414834036E+04  0.21826132953E+04 0.  0.
        4    1    3    3  502    0  0.45266059334E+03  0.67552702084E+03  0.10026127696E+04  0.12909191870E+04  0.12699999809E+01 0. -1.
       -4    1    3    3    0  502 -0.45266059334E+03 -0.67552702084E+03 -0.49227263619E+03  0.95056421660E+03  0.12699999809E+01 0.  1.
</event>
<event>
 5   0  0.1754356E-04  0.2118626E+04  0.7818609E-02  0.8553083E-01
       -2   -1    0    0    0  501  0.00000000000E+00  0.00000000000E+00  0.18651525820E+04  0.18651525820E+04  0.25500000920E-02 0. -1.
        2   -1    0    0  501    0  0.00000000000E+00  0.00000000000E+00 -0.60163667665E+03  0.60163667666E+03  0.25500000920E-02 0.  1.
    10030    2    1    2    0    0  0.00000000000E+00  0.00000000000E+00  0.12635159053E+04  0.24667892586E+04  0.21186261594E+04 0.  0.
        1    1    3    3  502    0  0.47597110263E+03  0.83216250424E+03  0.11564857182E+04  0.15021658165E+04  0.50400001928E-02 0. -1.
       -1    1    3    3    0  502 -0.47597110263E+03 -0.83216250424E+03  0.10703018711E+03  0.96462344207E+03  0.50400001928E-02 0.  1.
</event>
<event>
 5   0  0.8470971E-05  0.1771600E+04  0.7818609E-02  0.8721550E-01
       -1   -1    0    0    0  501  0.00000000000E+00  0.00000000000E+00  0.26934644968E+03  0.26934644973E+03  0.50400001928E-02 0. -1.
        1   -1    0    0  501    0  0.00000000000E+00  0.00000000000E+00 -0.29131321962E+04  0.29131321962E+04  0.50400001928E-02 0.  1.
    10030    2    1    2    0    0  0.00000000000E+00  0.00000000000E+00 -0.26437857465E+04  0.31824786459E+04  0.17716001971E+04 0.  0.
        2    1    3    3  502    0  0.10468879893E+03  0.80924218576E+03 -0.70270173607E+03  0.10768576460E+04  0.25500000920E-02 0. -1.
       -2    1    3    3    0  502 -0.10468879893E+03 -0.80924218576E+03 -0.19410840104E+04  0.21056209999E+04  0.25500000920E-02 0.  1.
</event>
<event>
 5   0  0.8602414E-05  0.1968175E+04  0.7818609E-02  0.8621646E-01
       -1   -1    0    0    0  501  0.00000000000E+00  0.00000000000E+00  0.52900651257E+03  0.52900651259E+03  0.50400001928E-02 0.  1.
        1   -1    0    0  501    0  0.00000000000E+00  0.00000000000E+00 -0.18306554557E+04  0.18306554557E+04  0.50400001928E-02 0. -1.
    10030    2    1    2    0    0  0.00000000000E+00  0.00000000000E+00 -0.13016489431E+04  0.23596619683E+04  0.19681754580E+04 0.  0.
        3    1    3    3  502    0  0.79351030665E+03  0.58245032417E+02  0.43484823796E+02  0.79683249850E+03  0.10100000352E+00 0.  1.
       -3    1    3    3    0  502 -0.79351030665E+03 -0.58245032417E+02 -0.13451337669E+04  0.15628294698E+04  0.10100000352E+00 0. -1.
</event>
<event>
 5   0  0.7954459E-05  0.2183655E+04  0.7818609E-02  0.8525262E-01
       -1   -1    0    0    0  501  0.00000000000E+00  0.00000000000E+00  0.71750767497E+03  0.71750767499E+03  0.50400001928E-02 0.  1.
        1   -1    0    0  501    0  0.00000000000E+00  0.00000000000E+00 -0.16614281844E+04  0.16614281844E+04  0.50400001928E-02 0. -1.
    10030    2    1    2    0    0  0.00000000000E+00  0.00000000000E+00 -0.94392050944E+03  0.23789358594E+04  0.21836551685E+04 0.  0.
        5    1    3    3  502    0 -0.47641940080E+03 -0.31400951458E+02  0.59773630459E+03  0.76503087849E+03  0.46999998093E+01 0.  1.
       -5    1    3    3    0  502  0.47641940080E+03  0.31400951458E+02 -0.15416568140E+04  0.16139049809E+04  0.46999998093E+01 0. -1.
</event>
<event>
 5   0  0.1805501E-04  0.2250324E+04  0.7818609E-02  0.8497769E-01
       -2   -1    0    0    0  501  0.00000000000E+00  0.00000000000E+00  0.79736881080E+03  0.79736881080E+03  0.25500000920E-02 0.  1.
        2   -1    0    0  501    0  0.00000000000E+00  0.00000000000E+00 -0.15877085454E+04  0.15877085454E+04  0.25500000920E-02 0. -1.
    10030    2    1    2    0    0  0.00000000000E+00  0.00000000000E+00 -0.79033973464E+03  0.23850773562E+04  0.22503237765E+04 0.  0.
        2    1    3    3  502    0  0.30675970650E+03 -0.95373356274E+03  0.14763044400E+03  0.10126717011E+04  0.25500000920E-02 0.  1.
       -2    1    3    3    0  502 -0.30675970650E+03  0.95373356274E+03 -0.93797017864E+03  0.13724056551E+04  0.25500000920E-02 0. -1.
</event>
<event>
 5   0  0.1754356E-04  0.2151830E+04  0.7818609E-02  0.8538749E-01
        2   -1    0    0  501    0  0.00000000000E+00  0.00000000000E+00  0.25247030424E+04  0.25247030424E+04  0.25500000920E-02 0.  1.
       -2   -1    0    0    0  501  0.00000000000E+00  0.00000000000E+00 -0.45850653128E+03  0.45850653128E+03  0.25500000920E-02 0. -1.
    10030    2    1    2    0    0  0.00000000000E+00  0.00000000000E+00  0.20661965111E+04  0.29832095737E+04  0.21518297651E+04 0.  0.
        1    1    3    3  502    0 -0.30723474720E+02  0.71242428136E+03  0.21500433901E+04  0.22652105571E+04  0.50400001928E-02 0.  1.
       -1    1    3    3    0  502  0.30723474720E+02 -0.71242428136E+03 -0.83846879057E+02  0.71799901652E+03  0.50400001928E-02 0. -1.
</event>
<event>
 5   0  0.1680258E-04  0.2192853E+04  0.7818609E-02  0.8521409E-01
        2   -1    0    0  501    0  0.00000000000E+00  0.00000000000E+00  0.13322600582E+04  0.13322600582E+04  0.25500000920E-02 0.  1.
       -2   -1    0    0    0  501  0.00000000000E+00  0.00000000000E+00 -0.90233962664E+03  0.90233962664E+03  0.25500000920E-02 0. -1.
    10030    2    1    2    0    0  0.00000000000E+00  0.00000000000E+00  0.42992043152E+03  0.22345996848E+04  0.21928529759E+04 0.  0.
        5    1    3    3  502    0 -0.57233979030E+03  0.11440360302E+03  0.11607830112E+04  0.12992691442E+04  0.46999998093E+01 0.  1.
       -5    1    3    3    0  502  0.57233979030E+03 -0.11440360302E+03 -0.73086257964E+03  0.93533054065E+03  0.46999998093E+01 0. -1.
</event>
<event>
 5   0  0.6250625E-05  0.2232370E+04  0.7818609E-02  0.8505075E-01
        4   -1    0    0  501    0  0.00000000000E+00  0.00000000000E+00  0.20756386107E+04  0.20756389993E+04  0.12699999809E+01 0.  1.
       -4   -1    0    0    0  501  0.00000000000E+00  0.00000000000E+00 -0.60023289742E+03  0.60023424098E+03  0.12699999809E+01 0. -1.
    10030    2    1    2    0    0  0.00000000000E+00  0.00000000000E+00  0.14754057133E+04  0.26758732403E+04  0.22323699467E+04 0.  0.
        4    1    3    3  502    0 -0.76427682126E+03 -0.37357838566E+03  0.16038916658E+04  0.18155302141E+04  0.12699999809E+01 0. -1.
       -4    1    3    3    0  502  0.76427682126E+03  0.37357838566E+03 -0.12848595250E+03  0.86034302614E+03  0.12699999809E+01 0.  1.
</event>
<event>
 5   0  0.1798917E-04  0.2086192E+04  0.7818609E-02  0.8567350E-01
       -2   -1    0    0    0  501  0.00000000000E+00  0.00000000000E+00  0.96057550406E+03  0.96057550407E+03  0.25500000920E-02 0.  1.
        2   -1    0    0  501    0  0.00000000000E+00  0.00000000000E+00 -0.11327054131E+04  0.11327054131E+04  0.25500000920E-02 0. -1.
    10030    2    1    2    0    0  0.00000000000E+00  0.00000000000E+00 -0.17212990908E+03  0.20932809172E+04  0.20861918159E+04 0.  0.
        4    1    3    3  502    0  0.37122671314E+03  0.91139509504E+03  0.26093844203E+03  0.10181064656E+04  0.12699999809E+01 0.  1.
       -4    1    3    3    0  502 -0.37122671314E+03 -0.91139509504E+03 -0.43306835111E+03  0.10751744516E+04  0.12699999809E+01 0. -1.
</event>
<event>
 5   0  0.1754356E-04  0.2167462E+04  0.7818609E-02  0.8532094E-01
       -2   -1    0    0    0  501  0.00000000000E+00  0.00000000000E+00  0.48944080659E+03  0.48944080659E+03  0.25500000920E-02 0. -1.
        2   -1    0    0  501    0  0.00000000000E+00  0.00000000000E+00 -0.23996227519E+04  0.23996227519E+04  0.25500000920E-02 0.  1.
    10030    2    1    2    0    0  0.00000000000E+00  0.00000000000E+00 -0.19101819453E+04  0.28890635585E+04  0.21674623828E+04 0.  0.
        1    1    3    3  502    0  0.60236909795E+03  0.21659679931E+02 -0.21555784082E+04  0.22382662813E+04  0.50400001928E-02 0.  1.
       -1    1    3    3    0  502 -0.60236909795E+03 -0.21659679931E+02  0.24539646296E+03  0.65079727716E+03  0.50400001928E-02 0. -1.
</event>
<event>
 5   0  0.8306787E-05  0.2033456E+04  0.7818609E-02  0.8591137E-01
        1   -1    0    0  501    0  0.00000000000E+00  0.00000000000E+00  0.97354986626E+03  0.97354986628E+03  0.50400001928E-02 0.  1.
       -1   -1    0    0    0  501  0.00000000000E+00  0.00000000000E+00 -0.10618209960E+04  0.10618209960E+04  0.50400001928E-02 0. -1.
    10030    2    1    2    0    0  0.00000000000E+00  0.00000000000E+00 -0.88271129713E+02  0.20353708623E+04  0.20334558649E+04 0.  0.
        1    1    3    3  502    0  0.10173446688E+03  0.15830903531E+03 -0.10442381873E+04  0.10610584547E+04  0.50400001928E-02 0. -1.
       -1    1    3    3    0  502 -0.10173446688E+03 -0.15830903531E+03  0.95596705757E+03  0.97431240760E+03  0.50400001928E-02 0.  1.
</event>
<event>
 5   0  0.7954459E-05  0.2009565E+04  0.7818609E-02  0.8602162E-01
       -1   -1    0    0    0  501  0.00000000000E+00  0.00000000000E+00  0.99308531728E+03  0.99308531729E+03  0.50400001928E-02 0. -1.
        1   -1    0    0  501    0  0.00000000000E+00  0.00000000000E+00 -0.10166178553E+04  0.10166178553E+04  0.50400001928E-02 0.  1.
    10030    2    1    2    0    0  0.00000000000E+00  0.00000000000E+00 -0.23532537983E+02  0.20097031726E+04  0.20095653912E+04 0.  0.
        5    1    3    3  502    0 -0.68459855292E+03  0.29395933042E+03  0.66243046163E+03  0.99695710695E+03  0.46999998093E+01 0. -1.
       -5    1    3    3    0  502  0.68459855292E+03 -0.29395933042E+03 -0.68596299961E+03  0.10127460656E+04  0.46999998093E+01 0.  1.
</event>
<event>
 5   0  0.1680258E-04  0.2252774E+04  0.7818609E-02  0.8496778E-01
        2   -1    0    0  501    0  0.00000000000E+00  0.00000000000E+00  0.21920540185E+04  0.21920540185E+04  0.25500000920E-02 0.  1.
       -2   -1    0    0    0  501  0.00000000000E+00  0.00000000000E+00 -0.57879409848E+03  0.57879409849E+03  0.25500000920E-02 0. -1.
    10030    2    1    2    0    0  0.00000000000E+00  0.00000000000E+00  0.16132599200E+04  0.27708481170E+04  0.22527742270E+04 0.  0.
        5    1    3    3  502    0 -0.17018629062E+03  0.11096081149E+04  0.69301695653E+03  0.13192756096E+04  0.46999998093E+01 0.  1.
       -5    1    3    3    0  502  0.17018629062E+03 -0.11096081149E+04  0.92024296346E+03  0.14515725073E+04  0.46999998093E+01 0. -1.
</event>
<event>
 5   0  0.1680258E-04  0.2187317E+04  0.7818609E-02  0.8523726E-01
       -2   -1    0    0    0  501  0.00000000000E+00  0.00000000000E+00  0.58496648606E+03  0.58496648607E+03  0.25500000920E-02 0. -1.
        2   -1    0    0  501    0  0.00000000000E+00  0.00000000000E+00 -0.20447128715E+04  0.20447128715E+04  0.25500000920E-02 0.  1.
    10030    2    1    2    0    0  0.00000000000E+00  0.00000000000E+00 -0.14597463854E+04  0.26296793576E+04  0.21873166240E+04 0.  0.
        5    1    3    3  502    0  0.39212018326E+03  0.28458342947E+03 -0.19086327675E+04  0.19691742172E+04  0.46999998093E+01 0.  1.
       -5    1    3    3    0  502 -0.39212018326E+03 -0.28458342947E+03  0.44888638208E+03  0.66050514037E+03  0.46999998093E+01 0. -1.
</event>
<event>
 5   0  0.1680258E-04  0.2188644E+04  0.7818609E-02  0.8523170E-01
       -2   -1    0    0    0  501  0.00000000000E+00  0.00000000000E+00  0.11349613284E+04  0.11349613284E+04  0.25500000920E-02 0.  1.
        2   -1    0    0  501    0  0.00000000000E+00  0.00000000000E+00 -0.10551373670E+04  0.10551373670E+04  0.25500000920E-02 0. -1.
    10030    2    1    2    0    0  0.00000000000E+00  0.00000000000E+00  0.79823961356E+02  0.21900986954E+04  0.21886435139E+04 0.  0.
        5    1    3    3  502    0 -0.98672292370E+03 -0.15712175905E+03 -0.40671272692E+03  0.10787709245E+04  0.46999998093E+01 0. -1.
       -5    1    3    3    0  502  0.98672292370E+03  0.15712175905E+03  0.48653668828E+03  0.11113277709E+04  0.46999998093E+01 0.  1.
</event>
<event>
 5   0  0.1798917E-04  0.1796951E+04  0.7818609E-02  0.8707922E-01
       -2   -1    0    0    0  501  0.00000000000E+00  0.00000000000E+00  0.84477006706E+03  0.84477006706E+03  0.25500000920E-02 0.  1.
        2   -1    0    0  501    0  0.00000000000E+00  0.00000000000E+00 -0.95559548140E+03  0.95559548140E+03  0.25500000920E-02 0. -1.
    10030    2    1    2    0    0  0.00000000000E+00  0.00000000000E+00 -0.11082541434E+03  0.18003655485E+04  0.17969512613E+04 0.  0.
        4    1    3    3  502    0 -0.30164708269E+03 -0.64100348941E+03  0.49824963144E+03  0.86610088562E+03  0.12699999809E+01 0.  1.
       -4    1    3    3    0  502  0.30164708269E+03  0.64100348941E+03 -0.60907504578E+03  0.93426466284E+03  0.12699999809E+01 0. -1.
</event>
<event>
 5   0  0.1798917E-04  0.2185027E+04  0.7818609E-02  0.8524686E-01
       -2   -1    0    0    0  501  0.00000000000E+00  0.00000000000E+00  0.88819350147E+03  0.88819350147E+03  0.25500000920E-02 0. -1.
        2   -1    0    0  501    0  0.00000000000E+00  0.00000000000E+00 -0.13438354946E+04  0.13438354946E+04  0.25500000920E-02 0.  1.
    10030    2    1    2    0    0  0.00000000000E+00  0.00000000000E+00 -0.45564199311E+03  0.22320289961E+04  0.21850271882E+04 0.  0.
        4    1    3    3  502    0 -0.96387568729E+03 -0.31682728530E+03  0.18604658386E+03  0.10315283872E+04  0.12699999809E+01 0. -1.
       -4    1    3    3    0  502  0.96387568729E+03  0.31682728530E+03 -0.64168857697E+03  0.12005006089E+04  0.12699999809E+01 0.  1.
</event>
<event>
 5   0  0.7954459E-05  0.1519626E+04  0.7818609E-02  0.8871506E-01
        1   -1    0    0  501    0  0.00000000000E+00  0.00000000000E+00  0.13406723831E+04  0.13406723832E+04  0.50400001928E-02 0. -1.
       -1   -1    0    0    0  501  0.00000000000E+00  0.00000000000E+00 -0.43061642537E+03  0.43061642540E+03  0.50400001928E-02 0.  1.
    10030    2    1    2    0    0  0.00000000000E+00  0.00000000000E+00  0.91005595778E+03  0.17712888085E+04  0.15196256766E+04 0.  0.
        5    1    3    3  502    0 -0.31598187907E+03 -0.50720741710E+03 -0.91926401686E+02  0.60462919644E+03  0.46999998093E+01 0.  1.
       -5    1    3    3    0  502  0.31598187907E+03  0.50720741710E+03  0.10019823595E+04  0.11666596121E+04  0.46999998093E+01 0. -1.
</event>
<event>
 5   0  0.1733962E-04  0.2340073E+04  0.7818609E-02  0.8462286E-01
       -2   -1    0    0    0  501  0.00000000000E+00  0.00000000000E+00  0.75329790806E+03  0.75329790806E+03  0.25500000920E-02 0.  1.
        2   -1    0    0  501    0  0.00000000000E+00  0.00000000000E+00 -0.18173226763E+04  0.18173226763E+04  0.25500000920E-02 0. -1.
    10030    2    1    2    0    0  0.00000000000E+00  0.00000000000E+00 -0.10640247683E+04  0.25706205844E+04  0.23400729650E+04 0.  0.
        3    1    3    3  502    0 -0.33516132521E+03 -0.96816830990E+03  0.88727502616E+02  0.10283752088E+04  0.10100000352E+00 0. -1.
       -3    1    3    3    0  502  0.33516132521E+03  0.96816830990E+03 -0.11527522709E+04  0.15422453755E+04  0.10100000352E+00 0.  1.
</event>
<event>
 5   0  0.1805501E-04  0.2149872E+04  0.7818609E-02  0.8539587E-01
       -2   -1    0    0    0  501  0.00000000000E+00  0.00000000000E+00  0.13620361210E+04  0.13620361210E+04  0.25500000920E-02 0.  1.
        2   -1    0    0  501    0  0.00000000000E+00  0.00000000000E+00 -0.84835290443E+03  0.84835290443E+03  0.25500000920E-02 0. -1.
    10030    2    1    2    0    0  0.00000000000E+00  0.00000000000E+00  0.51368321653E+03  0.22103890254E+04  0.21498719024E+04 0.  0.
        2    1    3    3  502    0 -0.77632394089E+03  0.22934875409E+03 -0.47032054870E+03  0.93620570962E+03  0.25500000920E-02 0. -1.
       -2    1    3    3    0  502  0.77632394089E+03 -0.22934875409E+03  0.98400376523E+03  0.12741833158E+04  0.25500000920E-02 0.  1.
</event>
<event>
 5   0  0.8602414E-05  0.2236688E+04  0.7818609E-02  0.8503311E-01
       -1   -1    0    0    0  501  0.00000000000E+00  0.00000000000E+00  0.69386613735E+03  0.69386613737E+03  0.50400001928E-02 0.  1.
        1   -1    0    0  501    0  0.00000000000E+00  0.00000000000E+00 -0.18024993135E+04  0.18024993135E+04  0.50400001928E-02 0. -1.
    10030    2    1    2    0    0  0.00000000000E+00  0.00000000000E+00 -0.11086331761E+04  0.24963654508E+04  0.22366879409E+04 0.  0.
        3    1    3    3  502    0  0.66891601575E+03 -0.61239761912E+03  0.17603683544E+03  0.92383356600E+03  0.10100000352E+00 0.  1.
       -3    1    3    3    0  502 -0.66891601575E+03  0.61239761912E+03 -0.12846700116E+04  0.15725318848E+04  0.10100000352E+00 0. -1.
</event>
<event>
 5   0  0.1680258E-04  0.1892948E+04  0.7818609E-02  0.8658375E-01
       -2   -1    0    0    0  501  0.00000000000E+00  0.00000000000E+00  0.10572374347E+04  0.10572374347E+04  0.25500000920E-02 0.  1.
        2   -1    0    0  501    0  0.00000000000E+00  0.00000000000E+00 -0.84731471003E+03  0.84731471003E+03  0.25500000920E-02 0. -1.
    10030    2    1    2    0    0  0.00000000000E+00  0.00000000000E+00  0.20992272468E+03  0.19045521448E+04  0.18929477863E+04 0.  0.
        5    1    3    3  502    0  0.79537294824E+03  0.49768482447E+03  0.23015255688E+03  0.96607484220E+03  0.46999998093E+01 0.  1.
       -5    1    3    3    0  502 -0.79537294824E+03 -0.49768482447E+03 -0.20229832197E+02  0.93847730255E+03  0.46999998093E+01 0. -1.
</event>
<event>
 5   0  0.1805501E-04  0.2207292E+04  0.7818609E-02  0.8515399E-01
       -2   -1    0    0    0  501  0.00000000000E+00  0.00000000000E+00  0.59830205339E+03  0.59830205339E+03  0.25500000920E-02 0.  1.
        2   -1    0    0  501    0  0.00000000000E+00  0.00000000000E+00 -0.20358187502E+04  0.20358187502E+04  0.25500000920E-02 0. -1.
    10030    2    1    2    0    0  0.00000000000E+00  0.00000000000E+00 -0.14375166968E+04  0.26341208036E+04  0.22072920410E+04 0.  0.
        2    1    3    3  502    0  0.50643552208E+03  0.73695233763E+03  0.53214935827E+02  0.89577202198E+03  0.25500000920E-02 0.  1.
       -2    1    3    3    0  502 -0.50643552208E+03 -0.73695233763E+03 -0.14907316326E+04  0.17383487816E+04  0.25500000920E-02 0. -1.
</event>
<event>
 5   0  0.8306787E-05  0.2197253E+04  0.7818609E-02  0.8519572E-01
       -1   -1    0    0    0  501  0.00000000000E+00  0.00000000000E+00  0.12476585969E+04  0.12476585969E+04  0.50400001928E-02 0.  1.
        1   -1    0    0  501    0  0.00000000000E+00  0.00000000000E+00 -0.96739623295E+03  0.96739623296E+03  0.50400001928E-02 0. -1.
    10030    2    1    2    0    0  0.00000000000E+00  0.00000000000E+00  0.28026236391E+03  0.22150548298E+04  0.21972530365E+04 0.  0.
        1    1    3    3  502    0  0.80629965973E+03 -0.39779347256E+02 -0.61107630990E+03  0.10124800217E+04  0.50400001928E-02 0. -1.
       -1    1    3    3    0  502 -0.80629965973E+03  0.39779347256E+02  0.89133867381E+03  0.12025748082E+04  0.50400001928E-02 0.  1.
</event>
<event>
 5   0  0.1680258E-04  0.2216690E+04  0.7818609E-02  0.8511513E-01
       -2   -1    0    0    0  501  0.00000000000E+00  0.00000000000E+00  0.60010242338E+03  0.60010242338E+03  0.25500000920E-02 0. -1.
        2   -1    0    0  501    0  0.00000000000E+00  0.00000000000E+00 -0.20470320209E+04  0.20470320209E+04  0.25500000920E-02 0.  1.
    10030    2    1    2    0    0  0.00000000000E+00  0.00000000000E+00 -0.14469295975E+04  0.26471344443E+04  0.22166902142E+04 0.  0.
        5    1    3    3  502    0  0.90635761210E+03 -0.47932156791E+03 -0.12261202275E+04  0.15983198018E+04  0.46999998093E+01 0. -1.
       -5    1    3    3    0  502 -0.90635761210E+03  0.47932156791E+03 -0.22080937004E+03  0.10488146425E+04  0.46999998093E+01 0.  1.
</event>
<event>
 5   0  0.1680258E-04  0.2156596E+04  0.7818609E-02  0.8536714E-01
       -2   -1    0    0    0  501  0.00000000000E+00  0.00000000000E+00  0.58455127015E+03  0.58455127016E+03  0.25500000920E-02 0.  1.
        2   -1    0    0  501    0  0.00000000000E+00  0.00000000000E+00 -0.19890921569E+04  0.19890921569E+04  0.25500000920E-02 0. -1.
    10030    2    1    2    0    0  0.00000000000E+00  0.00000000000E+00 -0.14045408867E+04  0.25736434270E+04  0.21565957867E+04 0.  0.
        5    1    3    3  502    0 -0.65793342187E+03  0.80325603181E+03 -0.35514667323E+03  0.10973822897E+04  0.46999998093E+01 0.  1.
       -5    1    3    3    0  502  0.65793342187E+03 -0.80325603181E+03 -0.10493942135E+04  0.14762611373E+04  0.46999998093E+01 0. -1.
</event>
<event>
 5   0  0.1733962E-04  0.2205084E+04  0.7818609E-02  0.8516315E-01
        2   -1    0    0  501    0  0.00000000000E+00  0.00000000000E+00  0.13592861562E+04  0.13592861562E+04  0.25500000920E-02 0. -1.
       -2   -1    0    0    0  501  0.00000000000E+00  0.00000000000E+00 -0.89429243200E+03  0.89429243200E+03  0.25500000920E-02 0.  1.
    10030    2    1    2    0    0  0.00000000000E+00  0.00000000000E+00  0.46499372418E+03  0.22535785882E+04  0.22050844178E+04 0.  0.
        3    1    3    3  502    0 -0.85337767948E+03 -0.29232710873E+03  0.88038715166E+03  0.12604721930E+04  0.10100000352E+00 0. -1.
       -3    1    3    3    0  502  0.85337767948E+03  0.29232710873E+03 -0.41539342748E+03  0.99310639517E+03  0.10100000352E+00 0.  1.
</event>
<event>
 5   0  0.8470971E-05  0.2149804E+04  0.7818609E-02  0.8539616E-01
        1   -1    0    0  501    0  0.00000000000E+00  0.00000000000E+00  0.88355387346E+03  0.88355387347E+03  0.50400001928E-02 0. -1.
       -1   -1    0    0    0  501  0.00000000000E+00  0.00000000000E+00 -0.13076901364E+04  0.13076901364E+04  0.50400001928E-02 0.  1.
    10030    2    1    2    0    0  0.00000000000E+00  0.00000000000E+00 -0.42413626289E+03  0.21912440098E+04  0.21498043495E+04 0.  0.
        2    1    3    3  502    0  0.57375260123E+03  0.79872115316E+03 -0.65432958330E+03  0.11812259443E+04  0.25500000920E-02 0.  1.
       -2    1    3    3    0  502 -0.57375260123E+03 -0.79872115316E+03  0.23019332040E+03  0.10100180655E+04  0.25500000920E-02 0. -1.
</event>
<event>
 5   0  0.7954459E-05  0.2185486E+04  0.7818609E-02  0.8524494E-01
        1   -1    0    0  501    0  0.00000000000E+00  0.00000000000E+00  0.25105614650E+04  0.25105614650E+04  0.50400001928E-02 0.  1.
       -1   -1    0    0    0  501  0.00000000000E+00  0.00000000000E+00 -0.47562556386E+03  0.47562556389E+03  0.50400001928E-02 0. -1.
    10030    2    1    2    0    0  0.00000000000E+00  0.00000000000E+00  0.20349359011E+04  0.29861870289E+04  0.21854859528E+04 0.  0.
        5    1    3    3  502    0  0.30884211407E+03 -0.75636458482E+03  0.20090006846E+04  0.21687730811E+04  0.46999998093E+01 0.  1.
       -5    1    3    3    0  502 -0.30884211407E+03  0.75636458482E+03  0.25935216546E+02  0.81741394780E+03  0.46999998093E+01 0. -1.
</event>
<event>
 5   0  0.1805501E-04  0.2119485E+04  0.7818609E-02  0.8552708E-01
        2   -1    0    0  501    0  0.00000000000E+00  0.00000000000E+00  0.19387469439E+04  0.19387469439E+04  0.25500000920E-02 0.  1.
       -2   -1    0    0    0  501  0.00000000000E+00  0.00000000000E+00 -0.57926816117E+03  0.57926816118E+03  0.25500000920E-02 0. -1.
    10030    2    1    2    0    0  0.00000000000E+00  0.00000000000E+00  0.13594787828E+04  0.25180151051E+04  0.21194851990E+04 0.  0.
        2    1    3    3  502    0  0.49748600001E+03 -0.51061158434E+03 -0.25181506234E+03  0.75606040492E+03  0.25500000920E-02 0. -1.
       -2    1    3    3    0  502 -0.49748600001E+03  0.51061158434E+03  0.16112938451E+04  0.17619547002E+04  0.25500000920E-02 0.  1.
</event>
<event>
 5   0  0.1754356E-04  0.2103403E+04  0.7818609E-02  0.8559746E-01
       -2   -1    0    0    0  501  0.00000000000E+00  0.00000000000E+00  0.66088279139E+03  0.66088279140E+03  0.25500000920E-02 0.  1.
        2   -1    0    0  501    0  0.00000000000E+00  0.00000000000E+00 -0.16736341515E+04  0.16736341515E+04  0.25500000920E-02 0. -1.
    10030    2    1    2    0    0  0.00000000000E+00  0.00000000000E+00 -0.10127513601E+04  0.23345169429E+04  0.21034029665E+04 0.  0.
        1    1    3    3  502    0  0.25640464167E+03 -0.52381980823E+03 -0.14777206072E+04  0.15886436745E+04  0.50400001928E-02 0. -1.
       -1    1    3    3    0  502 -0.25640464167E+03  0.52381980823E+03  0.46496924704E+03  0.74587326838E+03  0.50400001928E-02 0.  1.
</event>
<event>
 5   0  0.8470971E-05  0.2090633E+04  0.7818609E-02  0.8565381E-01
       -1   -1    0    0    0  501  0.00000000000E+00  0.00000000000E+00  0.17225856625E+04  0.17225856625E+04  0.50400001928E-02 0. -1.
        1   -1    0    0  501    0  0.00000000000E+00  0.00000000000E+00 -0.63432923836E+03  0.63432923838E+03  0.50400001928E-02 0.  1.
    10030    2    1    2    0    0  0.00000000000E+00  0.00000000000E+00  0.10882564242E+04  0.23569149009E+04  0.20906328720E+04 0.  0.
        2    1    3    3  502    0  0.68790229383E+03 -0.22867744304E+03 -0.30491134822E+03  0.78643109621E+03  0.25500000920E-02 0.  1.
       -2    1    3    3    0  502 -0.68790229383E+03  0.22867744304E+03  0.13931677724E+04  0.15704838047E+04  0.25500000920E-02 0. -1.
</event>
<event>
 5   0  0.8602414E-05  0.1822476E+04  0.7818609E-02  0.8694438E-01
        1   -1    0    0  501    0  0.00000000000E+00  0.00000000000E+00  0.16301468000E+04  0.16301468000E+04  0.50400001928E-02 0. -1.
       -1   -1    0    0    0  501  0.00000000000E+00  0.00000000000E+00 -0.50937399293E+03  0.50937399295E+03  0.50400001928E-02 0.  1.
    10030    2    1    2    0    0  0.00000000000E+00  0.00000000000E+00  0.11207728071E+04  0.21395207929E+04  0.18224756620E+04 0.  0.
        3    1    3    3  502    0  0.80890717042E+02 -0.70752915278E+03 -0.10703412949E+03  0.72013687950E+03  0.10100000352E+00 0.  1.
       -3    1    3    3    0  502 -0.80890717042E+02  0.70752915278E+03  0.12278069365E+04  0.14193839134E+04  0.10100000352E+00 0. -1.
</event>
<event>
 5   0  0.1805501E-04  0.2253041E+04  0.7818609E-02  0.8496670E-01
       -2   -1    0    0    0  501  0.00000000000E+00  0.00000000000E+00  0.69309905729E+03  0.69309905730E+03  0.25500000920E-02 0. -1.
        2   -1    0    0  501    0  0.00000000000E+00  0.00000000000E+00 -0.18309769910E+04  0.18309769910E+04  0.25500000920E-02 0.  1.
    10030    2    1    2    0    0  0.00000000000E+00  0.00000000000E+00 -0.11378779337E+04  0.25240760483E+04  0.22530409906E+04 0.  0.
        2    1    3    3  502    0  0.21037153083E+03 -0.10055339550E+04 -0.10868190546E+04  0.14955033845E+04  0.25500000920E-02 0.  1.
       -2    1    3    3    0  502 -0.21037153083E+03  0.10055339550E+04 -0.51058879061E+02  0.10285726638E+04  0.25500000920E-02 0. -1.
</event>
<event>
 5   0  0.8602414E-05  0.2124533E+04  0.7818609E-02  0.8550513E-01
        1   -1    0    0  501    0  0.00000000000E+00  0.00000000000E+00  0.16369463382E+04  0.16369463382E+04  0.50400001928E-02 0.  1.
       -1   -1    0    0    0  501  0.00000000000E+00  0.00000000000E+00 -0.68933826258E+03  0.68933826259E+03  0.50400001928E-02 0. -1.
    10030    2    1    2    0    0  0.00000000000E+00  0.00000000000E+00  0.94760807561E+03  0.23262846008E+04  0.21245326495E+04 0.  0.
        3    1    3    3  502    0  0.35276726840E+03 -0.32756352137E+03 -0.56304388178E+03  0.74078406381E+03  0.10100000352E+00 0. -1.
       -3    1    3    3    0  502 -0.35276726840E+03  0.32756352137E+03  0.15106519574E+04  0.15855005370E+04  0.10100000352E+00 0.  1.
</event>
<event>
 5   0  0.8306787E-05  0.2226906E+04  0.7818609E-02  0.8507312E-01
        1   -1    0    0  501    0  0.00000000000E+00  0.00000000000E+00  0.76397425435E+03  0.76397425437E+03  0.50400001928E-02 0.  1.
       -1   -1    0    0    0  501  0.00000000000E+00  0.00000000000E+00 -0.16228001567E+04  0.16228001567E+04  0.50400001928E-02 0. -1.
    10030    2    1    2    0    0  0.00000000000E+00  0.00000000000E+00 -0.85882590234E+03  0.23867744111E+04  0.22269059609E+04 0.  0.
        1    1    3    3  502    0 -0.29502032780E+02 -0.11061090336E+04 -0.56254791205E+03  0.12412927606E+04  0.50400001928E-02 0. -1.
       -1    1    3    3    0  502  0.29502032780E+02  0.11061090336E+04 -0.29627799029E+03  0.11454816505E+04  0.50400001928E-02 0.  1.
</event>
<event>
 5   0  0.8470971E-05  0.1499509E+04  0.7818609E-02  0.8884779E-01
        1   -1    0    0  501    0  0.00000000000E+00  0.00000000000E+00  0.15583425125E+04  0.15583425125E+04  0.50400001928E-02 0.  1.
       -1   -1    0    0    0  501  0.00000000000E+00  0.00000000000E+00 -0.36072440706E+03  0.36072440710E+03  0.50400001928E-02 0. -1.
    10030    2    1    2    0    0  0.00000000000E+00  0.00000000000E+00  0.11976181054E+04  0.19190669196E+04  0.14995094916E+04 0.  0.
        2    1    3    3  502    0  0.36909434720E+03  0.13124654344E+03 -0.21933618514E+03  0.44895952425E+03  0.25500000920E-02 0. -1.
       -2    1    3    3    0  502 -0.36909434720E+03 -0.13124654344E+03  0.14169542906E+04  0.14701073953E+04  0.25500000920E-02 0.  1.
</event>
<event>
 5   0  0.1798917E-04  0.2249384E+04  0.7818609E-02  0.8498150E-01
       -2   -1    0    0    0  501  0.00000000000E+00  0.00000000000E+00  0.86911769848E+03  0.86911769848E+03  0.25500000920E-02 0. -1.
        2   -1    0    0  501    0  0.00000000000E+00  0.00000000000E+00 -0.14554208591E+04  0.14554208591E+04  0.25500000920E-02 0.  1.
    10030    2    1    2    0    0  0.00000000000E+00  0.00000000000E+00 -0.58630316058E+03  0.23245385575E+04  0.22493839400E+04 0.  0.
        4    1    3    3  502    0  0.29378858904E+03  0.10069865210E+04  0.12610886593E+03  0.10565219579E+04  0.12699999809E+01 0. -1.
       -4    1    3    3    0  502 -0.29378858904E+03 -0.10069865210E+04 -0.71241202651E+03  0.12680165996E+04  0.12699999809E+01 0.  1.
</event>
<event>
 5   0  0.1680258E-04  0.2245784E+04  0.7818609E-02  0.8499610E-01
        2   -1    0    0  501    0  0.00000000000E+00  0.00000000000E+00  0.18120922514E+04  0.18120922514E+04  0.25500000920E-02 0.  1.
       -2   -1    0    0    0  501  0.00000000000E+00  0.00000000000E+00 -0.69581791497E+03  0.69581791498E+03  0.25500000920E-02 0. -1.
    10030    2    1    2    0    0  0.00000000000E+00  0.00000000000E+00  0.11162743365E+04  0.25079101664E+04  0.22457838294E+04 0.  0.
        5    1    3    3  502    0  0.58785948555E+03 -0.42111905989E+03  0.15174400857E+04  0.16809421587E+04  0.46999998093E+01 0.  1.
       -5    1    3    3    0  502 -0.58785948555E+03  0.42111905989E+03 -0.40116574923E+03  0.82696800767E+03  0.46999998093E+01 0. -1.
</event>
<event>
 5   0  0.1798917E-04  0.2228444E+04  0.7818609E-02  0.8506681E-01
       -2   -1    0    0    0  501  0.00000000000E+00  0.00000000000E+00  0.12488812409E+04  0.12488812409E+04  0.25500000920E-02 0. -1.
        2   -1    0    0  501    0  0.00000000000E+00  0.00000000000E+00 -0.99408263170E+03  0.99408263170E+03  0.25500000920E-02 0.  1.
    10030    2    1    2    0    0  0.00000000000E+00  0.00000000000E+00  0.25479860919E+03  0.22429638726E+04  0.22284444356E+04 0.  0.
        4    1    3    3  502    0 -0.72578465117E+03  0.17952798864E+03  0.95891506547E+03  0.12159413531E+04  0.12699999809E+01 0. -1.
       -4    1    3    3    0  502  0.72578465117E+03 -0.17952798864E+03 -0.70411645628E+03  0.10270225195E+04  0.12699999809E+01 0.  1.
</event>
<event>
 5   0  0.1754356E-04  0.1486869E+04  0.7818609E-02  0.8893232E-01
       -2   -1    0    0    0  501  0.00000000000E+00  0.00000000000E+00  0.28699453827E+03  0.28699453828E+03  0.25500000920E-02 0. -1.
        2   -1    0    0  501    0  0.00000000000E+00  0.00000000000E+00 -0.19258022608E+04  0.19258022608E+04  0.25500000920E-02 0.  1.
    10030    2    1    2    0    0  0.00000000000E+00  0.00000000000E+00 -0.16388077225E+04  0.22127967990E+04  0.14868688317E+04 0.  0.
        1    1    3    3  502    0 -0.10172943856E+03 -0.72258163767E+03 -0.60777400139E+03  0.94966432941E+03  0.50400001928E-02 0. -1.
       -1    1    3    3    0  502  0.10172943856E+03  0.72258163767E+03 -0.10310337211E+04  0.12631324696E+04  0.50400001928E-02 0.  1.
</event>
<event>
 5   0  0.1680258E-04  0.2165615E+04  0.7818609E-02  0.8532878E-01
       -2   -1    0    0    0  501  0.00000000000E+00  0.00000000000E+00  0.10689872067E+04  0.10689872067E+04  0.25500000920E-02 0. -1.
        2   -1    0    0  501    0  0.00000000000E+00  0.00000000000E+00 -0.10968065161E+04  0.10968065161E+04  0.25500000920E-02 0.  1.
    10030    2    1    2    0    0  0.00000000000E+00  0.00000000000E+00 -0.27819309458E+02  0.21657937228E+04  0.21656150479E+04 0.  0.
        5    1    3    3  502    0  0.27229019181E+03 -0.59279783745E+03  0.85039473073E+03  0.10717949957E+04  0.46999998093E+01 0. -1.
       -5    1    3    3    0  502 -0.27229019181E+03  0.59279783745E+03 -0.87821404019E+03  0.10939987272E+04  0.46999998093E+01 0.  1.
</event>
<event>
 5   0  0.1733962E-04  0.2192648E+04  0.7818609E-02  0.8521494E-01
        2   -1    0    0  501    0  0.00000000000E+00  0.00000000000E+00  0.10427134012E+04  0.10427134012E+04  0.25500000920E-02 0.  1.
       -2   -1    0    0    0  501  0.00000000000E+00  0.00000000000E+00 -0.11526908209E+04  0.11526908209E+04  0.25500000920E-02 0. -1.
    10030    2    1    2    0    0  0.00000000000E+00  0.00000000000E+00 -0.10997741969E+03  0.21954042222E+04  0.21926478664E+04 0.  0.
        3    1    3    3  502    0  0.80723412025E+03 -0.52441926756E+03 -0.58032308994E+03  0.11240184127E+04  0.10100000352E+00 0. -1.
       -3    1    3    3    0  502 -0.80723412025E+03  0.52441926756E+03  0.47034567025E+03  0.10713858095E+04  0.10100000352E+00 0.  1.
</event>
<event>
 5   0  0.1798917E-04  0.2181715E+04  0.7818609E-02  0.8526078E-01
       -2   -1    0    0    0  501  0.00000000000E+00  0.00000000000E+00  0.14466151228E+04  0.14466151228E+04  0.25500000920E-02 0. -1.
        2   -1    0    0  501    0  0.00000000000E+00  0.00000000000E+00 -0.82258904048E+03  0.82258904049E+03  0.25500000920E-02 0.  1.
    10030    2    1    2    0    0  0.00000000000E+00  0.00000000000E+00  0.62402608227E+03  0.22692041632E+04  0.21817146888E+04 0.  0.
        4    1    3    3  502    0 -0.56008597713E+03  0.89314037860E+03  0.60356085093E+03  0.12147770789E+04  0.12699999809E+01 0. -1.
       -4    1    3    3    0  502  0.56008597713E+03 -0.89314037860E+03  0.20465231338E+02  0.10544270844E+04  0.12699999809E+01 0.  1.
</event>
<event>
 5   0  0.8602414E-05  0.2136917E+04  0.7818609E-02  0.8545153E-01
        1   -1    0    0  501    0  0.00000000000E+00  0.00000000000E+00  0.10788650247E+04  0.10788650247E+04  0.50400001928E-02 0.  1.
       -1   -1    0    0    0  501  0.00000000000E+00  0.00000000000E+00 -0.10581527226E+04  0.10581527227E+04  0.50400001928E-02 0. -1.
    10030    2    1    2    0    0  0.00000000000E+00  0.00000000000E+00  0.20712302074E+02  0.21370177474E+04  0.21369173716E+04 0.  0.
        3    1    3    3  502    0 -0.38484773038E+03  0.19913926842E+03 -0.96633691197E+03  0.10590426155E+04  0.10100000352E+00 0. -1.
       -3    1    3    3    0  502  0.38484773038E+03 -0.19913926842E+03  0.98704921404E+03  0.10779751319E+04  0.10100000352E+00 0.  1.
</event>
<event>
 5   0  0.8470971E-05  0.2180484E+04  0.7818609E-02  0.8526595E-01
        1   -1    0    0  501    0  0.00000000000E+00  0.00000000000E+00  0.99393020145E+03  0.99393020146E+03  0.50400001928E-02 0. -1.
       -1   -1    0    0    0  501  0.00000000000E+00  0.00000000000E+00 -0.11958865580E+04  0.11958865580E+04  0.50400001928E-02 0.  1.
    10030    2    1    2    0    0  0.00000000000E+00  0.00000000000E+00 -0.20195635652E+03  0.21898167594E+04  0.21804841366E+04 0.  0.
        2    1    3    3  502    0 -0.29563563500E+02  0.20043940221E+03  0.97485743020E+03  0.99568919220E+03  0.25500000920E-02 0. -1.
       -2    1    3    3    0  502  0.29563563500E+02 -0.20043940221E+03 -0.11768137867E+04  0.11941275672E+04  0.25500000920E-02 0.  1.
</event>
<event>
 5   0  0.7954459E-05  0.2207111E+04  0.7818609E-02  0.8515474E-01
       -1   -1    0    0    0  501  0.00000000000E+00  0.00000000000E+00  0.12770723060E+04  0.12770723060E+04  0.50400001928E-02 0.  1.
        1   -1    0    0  501    0  0.00000000000E+00  0.00000000000E+00 -0.95361450839E+03  0.95361450840E+03  0.50400001928E-02 0. -1.
    10030    2    1    2    0    0  0.00000000000E+00  0.00000000000E+00  0.32345779759E+03  0.22306868144E+04  0.22071109435E+04 0.  0.
        5    1    3    3  502    0  0.90679064834E+03  0.62808271868E+03  0.19456295947E+03  0.11201044668E+04  0.46999998093E+01 0.  1.
       -5    1    3    3    0  502 -0.90679064834E+03 -0.62808271868E+03  0.12889483812E+03  0.11105823476E+04  0.46999998093E+01 0. -1.
</event>
<event>
 5   0  0.1798917E-04  0.2217497E+04  0.7818609E-02  0.8511180E-01
        2   -1    0    0  501    0  0.00000000000E+00  0.00000000000E+00  0.21429919246E+04  0.21429919246E+04  0.25500000920E-02 0. -1.
       -2   -1    0    0    0  501  0.00000000000E+00  0.00000000000E+00 -0.57364825724E+03  0.57364825725E+03  0.25500000920E-02 0.  1.
    10030    2    1    2    0    0  0.00000000000E+00  0.00000000000E+00  0.15693436674E+04  0.27166401819E+04  0.22174973126E+04 0.  0.
        4    1    3    3  502    0  0.88493922535E+03 -0.65872100639E+03  0.64885122071E+03  0.12798594909E+04  0.12699999809E+01 0. -1.
       -4    1    3    3    0  502 -0.88493922535E+03  0.65872100639E+03  0.92049244668E+03  0.14367806910E+04  0.12699999809E+01 0.  1.
</event>
<event>
 5   0  0.8306787E-05  0.2187442E+04  0.7818609E-02  0.8523673E-01
        1   -1    0    0  501    0  0.00000000000E+00  0.00000000000E+00  0.24074068762E+04  0.24074068762E+04  0.50400001928E-02 0. -1.
       -1   -1    0    0    0  501  0.00000000000E+00  0.00000000000E+00 -0.49689385500E+03  0.49689385502E+03  0.50400001928E-02 0.  1.
    10030    2    1    2    0    0  0.00000000000E+00  0.00000000000E+00  0.19105130212E+04  0.29043007312E+04  0.21874420525E+04 0.  0.
        1    1    3    3  502    0 -0.24296216501E+02  0.65719181779E+03  0.21155722214E+04  0.22154316093E+04  0.50400001928E-02 0. -1.
       -1    1    3    3    0  502  0.24296216501E+02 -0.65719181779E+03 -0.20505920021E+03  0.68886912191E+03  0.50400001928E-02 0.  1.
</event>
<event>
 5   0  0.7954459E-05  0.1934336E+04  0.7818609E-02  0.8637952E-01
        1   -1    0    0  501    0  0.00000000000E+00  0.00000000000E+00  0.77644523745E+03  0.77644523746E+03  0.50400001928E-02 0. -1.
       -1   -1    0    0    0  501  0.00000000000E+00  0.00000000000E+00 -0.12047385293E+04  0.12047385293E+04  0.50400001928E-02 0.  1.
    10030    2    1    2    0    0  0.00000000000E+00  0.00000000000E+00 -0.42829329181E+03  0.19811837667E+04  0.19343355380E+04 0.  0.
        5    1    3    3  502    0  0.25173533177E+03  0.63233709694E+02 -0.11683883045E+04  0.11968803196E+04  0.46999998093E+01 0.  1.
       -5    1    3    3    0  502 -0.25173533177E+03 -0.63233709694E+02  0.74009501272E+03  0.78430344712E+03  0.46999998093E+01 0. -1.
</event>
<event>
 5   0  0.8306787E-05  0.2130290E+04  0.7818609E-02  0.8548017E-01
        1   -1    0    0  501    0  0.00000000000E+00  0.00000000000E+00  0.11787980707E+04  0.11787980707E+04  0.50400001928E-02 0.  1.
       -1   -1    0    0    0  501  0.00000000000E+00  0.00000000000E+00 -0.96244969606E+03  0.96244969607E+03  0.50400001928E-02 0. -1.
    10030    2    1    2    0    0  0.00000000000E+00  0.00000000000E+00  0.21634837466E+03  0.21412477668E+04  0.21302899755E+04 0.  0.
        1    1    3    3  502    0  0.61200233950E+03 -0.80405887320E+03 -0.23042101595E+03  0.10364127458E+04  0.50400001928E-02 0. -1.
       -1    1    3    3    0  502 -0.61200233950E+03  0.80405887320E+03  0.44676939061E+03  0.11048350210E+04  0.50400001928E-02 0.  1.
</event>
<event>
 5   0  0.8470971E-05  0.1622382E+04  0.7818609E-02  0.8806915E-01
       -1   -1    0    0    0  501  0.00000000000E+00  0.00000000000E+00  0.10039817047E+04  0.10039817048E+04  0.50400001928E-02 0. -1.
        1   -1    0    0  501    0  0.00000000000E+00  0.00000000000E+00 -0.65542128238E+03  0.65542128240E+03  0.50400001928E-02 0.  1.
    10030    2    1    2    0    0  0.00000000000E+00  0.00000000000E+00  0.34856042236E+03  0.16594029872E+04  0.16223821701E+04 0.  0.
        2    1    3    3  502    0 -0.36204372609E+03 -0.33769655189E+03  0.83152892604E+03  0.96775770501E+03  0.25500000920E-02 0. -1.
       -2    1    3    3    0  502  0.36204372609E+03  0.33769655189E+03 -0.48296850368E+03  0.69164528214E+03  0.25500000920E-02 0.  1.
</event>
<event>
 5   0  0.1680258E-04  0.2184408E+04  0.7818609E-02  0.8524946E-01
       -2   -1    0    0    0  501  0.00000000000E+00  0.00000000000E+00  0.62608177518E+03  0.62608177519E+03  0.25500000920E-02 0. -1.
        2   -1    0    0  501    0  0.00000000000E+00  0.00000000000E+00 -0.19053572859E+04  0.19053572859E+04  0.25500000920E-02 0.  1.
    10030    2    1    2    0    0  0.00000000000E+00  0.00000000000E+00 -0.12792755107E+04  0.25314390611E+04  0.21844079032E+04 0.  0.
        5    1    3    3  502    0  0.10204316202E+04 -0.30671808318E+03 -0.91759858357E+03  0.14061884385E+04  0.46999998093E+01 0.  1.
       -5    1    3    3    0  502 -0.10204316202E+04  0.30671808318E+03 -0.36167692712E+03  0.11252506226E+04  0.46999998093E+01 0. -1.
</event>
<event>
 5   0  0.1798917E-04  0.2204387E+04  0.7818609E-02  0.8516604E-01
        2   -1    0    0  501    0  0.00000000000E+00  0.00000000000E+00  0.14754663659E+04  0.14754663659E+04  0.25500000920E-02 0. -1.
       -2   -1    0    0    0  501  0.00000000000E+00  0.00000000000E+00 -0.82335388008E+03  0.82335388008E+03  0.25500000920E-02 0.  1.
    10030    2    1    2    0    0  0.00000000000E+00  0.00000000000E+00  0.65211248583E+03  0.22988202460E+04  0.22043874045E+04 0.  0.
        4    1    3    3  502    0 -0.12006296168E+03  0.10716557149E+04  0.56378743800E+03  0.12168479668E+04  0.12699999809E+01 0.  1.
       -4    1    3    3    0  502  0.12006296168E+03 -0.10716557149E+04  0.88325047834E+02  0.10819722792E+04  0.12699999809E+01 0. -1.
</event>
<event>
 5   0  0.8602414E-05  0.2218968E+04  0.7818609E-02  0.8510575E-01
        1   -1    0    0  501    0  0.00000000000E+00  0.00000000000E+00  0.16802669781E+04  0.16802669781E+04  0.50400001928E-02 0. -1.
       -1   -1    0    0    0  501  0.00000000000E+00  0.00000000000E+00 -0.73259454914E+03  0.73259454916E+03  0.50400001928E-02 0.  1.
    10030    2    1    2    0    0  0.00000000000E+00  0.00000000000E+00  0.94767242893E+03  0.24128615272E+04  0.22189677143E+04 0.  0.
        3    1    3    3  502    0  0.10734658205E+04  0.15576201928E+03  0.22030227941E+03  0.11068530973E+04  0.10100000352E+00 0.  1.
       -3    1    3    3    0  502 -0.10734658205E+04 -0.15576201928E+03  0.72737014952E+03  0.13060084299E+04  0.10100000352E+00 0. -1.
</event>
<event>
 5   0  0.8470971E-05  0.2168157E+04  0.7818609E-02  0.8531800E-01
       -1   -1    0    0    0  501  0.00000000000E+00  0.00000000000E+00  0.16726763843E+04  0.16726763843E+04  0.50400001928E-02 0. -1.
        1   -1    0    0  501    0  0.00000000000E+00  0.00000000000E+00 -0.70260209402E+03  0.70260209404E+03  0.50400001928E-02 0.  1.
    10030    2    1    2    0    0  0.00000000000E+00  0.00000000000E+00  0.97007429027E+03  0.23752784783E+04  0.21681567566E+04 0.  0.
        2    1    3    3  502    0 -0.67356860775E+02  0.10644312211E+04  0.27239399210E+03  0.11007948301E+04  0.25500000920E-02 0.  1.
       -2    1    3    3    0  502  0.67356860775E+02 -0.10644312211E+04  0.69768029817E+03  0.12744836482E+04  0.25500000920E-02 0. -1.
</event>
<event>
 5   0  0.1798917E-04  0.2145658E+04  0.7818609E-02  0.8541393E-01
       -2   -1    0    0    0  501  0.00000000000E+00  0.00000000000E+00  0.13634279658E+04  0.13634279658E+04  0.25500000920E-02 0. -1.
        2   -1    0    0  501    0  0.00000000000E+00  0.00000000000E+00 -0.84416812718E+03  0.84416812718E+03  0.25500000920E-02 0.  1.
    10030    2    1    2    0    0  0.00000000000E+00  0.00000000000E+00  0.51925983861E+03  0.22075960930E+04  0.21456583441E+04 0.  0.
        4    1    3    3  502    0  0.54545551083E+03  0.27385063677E+03  0.11673940022E+04  0.13173178261E+04  0.12699999809E+01 0. -1.
       -4    1    3    3    0  502 -0.54545551083E+03 -0.27385063677E+03 -0.64813416362E+03  0.89027826689E+03  0.12699999809E+01 0.  1.
</event>
<event>
 5   0  0.8306787E-05  0.2201870E+04  0.7818609E-02  0.8517650E-01
       -1   -1    0    0    0  501  0.00000000000E+00  0.00000000000E+00  0.72119269220E+03  0.72119269222E+03  0.50400001928E-02 0. -1.
        1   -1    0    0  501    0  0.00000000000E+00  0.00000000000E+00 -0.16806292174E+04  0.16806292174E+04  0.50400001928E-02 0.  1.
    10030    2    1    2    0    0  0.00000000000E+00  0.00000000000E+00 -0.95943652517E+03  0.24018219096E+04  0.22018696691E+04 0.  0.
        1    1    3    3  502    0 -0.90340392991E+03  0.62876584805E+03 -0.45362172290E+03  0.11904863795E+04  0.50400001928E-02 0. -1.
       -1    1    3    3    0  502  0.90340392991E+03 -0.62876584805E+03 -0.50581480227E+03  0.12113355301E+04  0.50400001928E-02 0.  1.
</event>
<event>
 5   0  0.1754356E-04  0.2220938E+04  0.7818609E-02  0.8509763E-01
       -2   -1    0    0    0  501  0.00000000000E+00  0.00000000000E+00  0.10312867718E+04  0.10312867718E+04  0.25500000920E-02 0. -1.
        2   -1    0    0  501    0  0.00000000000E+00  0.00000000000E+00 -0.11957311700E+04  0.11957311700E+04  0.25500000920E-02 0.  1.
    10030    2    1    2    0    0  0.00000000000E+00  0.00000000000E+00 -0.16444439813E+03  0.22270179418E+04  0.22209383047E+04 0.  0.
        1    1    3    3  502    0  0.91896187383E+03 -0.53776691292E+03  0.23401002451E+03  0.10901581857E+04  0.50400001928E-02 0.  1.
       -1    1    3    3    0  502 -0.91896187383E+03  0.53776691292E+03 -0.39845442264E+03  0.11368597561E+04  0.50400001928E-02 0. -1.
</event>
<event>
 5   0  0.8306787E-05  0.2135370E+04  0.7818609E-02  0.8545821E-01
        1   -1    0    0  501    0  0.00000000000E+00  0.00000000000E+00  0.40924897144E+03  0.40924897147E+03  0.50400001928E-02 0.  1.
       -1   -1    0    0    0  501  0.00000000000E+00  0.00000000000E+00 -0.27854708850E+04  0.27854708850E+04  0.50400001928E-02 0. -1.
    10030    2    1    2    0    0  0.00000000000E+00  0.00000000000E+00 -0.23762219135E+04  0.31947198565E+04  0.21353698459E+04 0.  0.
        1    1    3    3  502    0  0.80440762513E+03 -0.43244732435E+03 -0.36068860217E+03  0.98192595620E+03  0.50400001928E-02 0.  1.
       -1    1    3    3    0  502 -0.80440762513E+03  0.43244732435E+03 -0.20155333114E+04  0.22127939003E+04  0.50400001928E-02 0. -1.
</event>
<event>
 5   0  0.8306787E-05  0.1147748E+04  0.7818609E-02  0.9159863E-01
       -1   -1    0    0    0  501  0.00000000000E+00  0.00000000000E+00  0.30770313926E+03  0.30770313930E+03  0.50400001928E-02 0. -1.
        1   -1    0    0  501    0  0.00000000000E+00  0.00000000000E+00 -0.10702901686E+04  0.10702901686E+04  0.50400001928E-02 0.  1.
    10030    2    1    2    0    0  0.00000000000E+00  0.00000000000E+00 -0.76258702935E+03  0.13779933079E+04  0.11477484826E+04 0.  0.
        1    1    3    3  502    0  0.48726477409E+03 -0.24542735096E+03 -0.59495443734E+03  0.80723746643E+03  0.50400001928E-02 0.  1.
       -1    1    3    3    0  502 -0.48726477409E+03  0.24542735096E+03 -0.16763259201E+03  0.57075584149E+03  0.50400001928E-02 0. -1.
</event>
<event>
 5   0  0.1733962E-04  0.2110557E+04  0.7818609E-02  0.8556607E-01
       -2   -1    0    0    0  501  0.00000000000E+00  0.00000000000E+00  0.11433736648E+04  0.11433736648E+04  0.25500000920E-02 0. -1.
        2   -1    0    0  501    0  0.00000000000E+00  0.00000000000E+00 -0.97397103206E+03  0.97397103206E+03  0.25500000920E-02 0.  1.
    10030    2    1    2    0    0  0.00000000000E+00  0.00000000000E+00  0.16940263275E+03  0.21173446969E+04  0.21105571097E+04 0.  0.
        3    1    3    3  502    0  0.10151290607E+04 -0.65222719814E+02  0.36644575181E+03  0.10812139068E+04  0.10100000352E+00 0. -1.
       -3    1    3    3    0  502 -0.10151290607E+04  0.65222719814E+02 -0.19704311906E+03  0.10361307900E+04  0.10100000352E+00 0.  1.
</event>
<event>
 5   0  0.6250625E-05  0.2187803E+04  0.7818609E-02  0.8523522E-01
        3   -1    0    0  501    0  0.00000000000E+00  0.00000000000E+00  0.13108233490E+04  0.13108233529E+04  0.10100000352E+00 0. -1.
       -3   -1    0    0    0  501  0.00000000000E+00  0.00000000000E+00 -0.91287696311E+03  0.91287696870E+03  0.10100000352E+00 0.  1.
    10030    2    1    2    0    0  0.00000000000E+00  0.00000000000E+00  0.39794638591E+03  0.22237003216E+04  0.21878029606E+04 0.  0.
        2    1    3    3  502    0  0.72460183119E+03  0.39198197788E+02  0.10309613913E+04  0.12607401409E+04  0.25500000920E-02 0. -1.
       -2    1    3    3    0  502 -0.72460183119E+03 -0.39198197788E+02 -0.63301500544E+03  0.96296018068E+03  0.25500000920E-02 0.  1.
</event>
<event>
 5   0  0.1733962E-04  0.2420536E+04  0.7818609E-02  0.8431855E-01
        2   -1    0    0  501    0  0.00000000000E+00  0.00000000000E+00  0.14313691321E+04  0.14313691321E+04  0.25500000920E-02 0.  1.
       -2   -1    0    0    0  501  0.00000000000E+00  0.00000000000E+00 -0.10233196683E+04  0.10233196683E+04  0.25500000920E-02 0. -1.
    10030    2    1    2    0    0  0.00000000000E+00  0.00000000000E+00  0.40804946384E+03  0.24546888004E+04  0.24205356312E+04 0.  0.
        3    1    3    3  502    0 -0.43319386646E+03  0.14357200884E+03 -0.93271872256E+03  0.10383805051E+04  0.10100000352E+00 0. -1.
       -3    1    3    3    0  502  0.43319386646E+03 -0.14357200884E+03  0.13407681864E+04  0.14163082954E+04  0.10100000352E+00 0.  1.
</event>
<event>
 5   0  0.1798917E-04  0.2177838E+04  0.7818609E-02  0.8527710E-01
       -2   -1    0    0    0  501  0.00000000000E+00  0.00000000000E+00  0.99236075658E+03  0.99236075658E+03  0.25500000920E-02 0.  1.
        2   -1    0    0  501    0  0.00000000000E+00  0.00000000000E+00 -0.11948721298E+04  0.11948721298E+04  0.25500000920E-02 0. -1.
    10030    2    1    2    0    0  0.00000000000E+00  0.00000000000E+00 -0.20251137318E+03  0.21872328863E+04  0.21778376530E+04 0.  0.
        4    1    3    3  502    0 -0.96972205810E+03 -0.48433162975E+03  0.31379141090E+01  0.10839508554E+04  0.12699999809E+01 0. -1.
       -4    1    3    3    0  502  0.96972205810E+03  0.48433162975E+03 -0.20564928729E+03  0.11032820309E+04  0.12699999809E+01 0.  1.
</event>
<event>
 5   0  0.1733962E-04  0.2379415E+04  0.7818609E-02  0.8447251E-01
        2   -1    0    0  501    0  0.00000000000E+00  0.00000000000E+00  0.15347919286E+04  0.15347919286E+04  0.25500000920E-02 0.  1.
       -2   -1    0    0    0  501  0.00000000000E+00  0.00000000000E+00 -0.92221258673E+03  0.92221258673E+03  0.25500000920E-02 0. -1.
    10030    2    1    2    0    0  0.00000000000E+00  0.00000000000E+00  0.61257934189E+03  0.24570045154E+04  0.23794154195E+04 0.  0.
        3    1    3    3  502    0  0.16104589921E+03  0.20716626948E+03 -0.89195926164E+03  0.92975533314E+03  0.10100000352E+00 0. -1.
       -3    1    3    3    0  502 -0.16104589921E+03 -0.20716626948E+03  0.15045386035E+04  0.15272491822E+04  0.10100000352E+00 0.  1.
</event>
<event>
 5   0  0.1754356E-04  0.2098088E+04  0.7818609E-02  0.8562086E-01
       -2   -1    0    0    0  501  0.00000000000E+00  0.00000000000E+00  0.69255764466E+03  0.69255764467E+03  0.25500000920E-02 0. -1.
        2   -1    0    0  501    0  0.00000000000E+00  0.00000000000E+00 -0.15890271541E+04  0.15890271541E+04  0.25500000920E-02 0.  1.
    10030    2    1    2    0    0  0.00000000000E+00  0.00000000000E+00 -0.89646950947E+03  0.22815847988E+04  0.20980876084E+04 0.  0.
        1    1    3    3  502    0  0.76681263450E+02  0.35412098744E+03 -0.15188223597E+04  0.15614426183E+04  0.50400001928E-02 0.  1.
       -1    1    3    3    0  502 -0.76681263450E+02 -0.35412098744E+03  0.62235285023E+03  0.72014218049E+03  0.50400001928E-02 0. -1.
</event>
<event>
 5   0  0.8470971E-05  0.2262761E+04  0.7818609E-02  0.8492750E-01
        1   -1    0    0  501    0  0.00000000000E+00  0.00000000000E+00  0.18513431116E+04  0.18513431116E+04  0.50400001928E-02 0. -1.
       -1   -1    0    0    0  501  0.00000000000E+00  0.00000000000E+00 -0.69140185717E+03  0.69140185719E+03  0.50400001928E-02 0.  1.
    10030    2    1    2    0    0  0.00000000000E+00  0.00000000000E+00  0.11599412544E+04  0.25427449688E+04  0.22627612032E+04 0.  0.
        2    1    3    3  502    0  0.19341780432E+03 -0.33842024674E+03 -0.61356304385E+03  0.72691011770E+03  0.25500000920E-02 0.  1.
       -2    1    3    3    0  502 -0.19341780432E+03  0.33842024674E+03  0.17735042983E+04  0.18158348511E+04  0.25500000920E-02 0. -1.
</event>
<event>
 5   0  0.8784659E-05  0.2247661E+04  0.7818609E-02  0.8498848E-01
       -1   -1    0    0    0  501  0.00000000000E+00  0.00000000000E+00  0.10183019181E+04  0.10183019181E+04  0.50400001928E-02 0. -1.
        1   -1    0    0  501    0  0.00000000000E+00  0.00000000000E+00 -0.12402953316E+04  0.12402953316E+04  0.50400001928E-02 0.  1.
    10030    2    1    2    0    0  0.00000000000E+00  0.00000000000E+00 -0.22199341345E+03  0.22585972497E+04  0.22476611090E+04 0.  0.
        4    1    3    3  502    0 -0.12558131615E+03 -0.86895100480E+03  0.59394852775E+03  0.10600108406E+04  0.12699999809E+01 0. -1.
       -4    1    3    3    0  502  0.12558131615E+03  0.86895100480E+03 -0.81594194121E+03  0.11985864091E+04  0.12699999809E+01 0.  1.
</event>
<event>
 5   0  0.1680258E-04  0.2212805E+04  0.7818609E-02  0.8513117E-01
        2   -1    0    0  501    0  0.00000000000E+00  0.00000000000E+00  0.11440013237E+04  0.11440013237E+04  0.25500000920E-02 0. -1.
       -2   -1    0    0    0  501  0.00000000000E+00  0.00000000000E+00 -0.10700396311E+04  0.10700396311E+04  0.25500000920E-02 0.  1.
    10030    2    1    2    0    0  0.00000000000E+00  0.00000000000E+00  0.73961692652E+02  0.22140409548E+04  0.22128052371E+04 0.  0.
        5    1    3    3  502    0 -0.78617261583E+03 -0.57947635778E+03 -0.48315985371E+03  0.10896447886E+04  0.46999998093E+01 0.  1.
       -5    1    3    3    0  502  0.78617261583E+03  0.57947635778E+03  0.55712154636E+03  0.11243961662E+04  0.46999998093E+01 0. -1.
</event>
<event>
 5   0  0.8306787E-05  0.2194335E+04  0.7818609E-02  0.8520790E-01
        1   -1    0    0  501    0  0.00000000000E+00  0.00000000000E+00  0.21209256113E+04  0.21209256113E+04  0.50400001928E-02 0.  1.
       -1   -1    0    0    0  501  0.00000000000E+00  0.00000000000E+00 -0.56757105725E+03  0.56757105727E+03  0.50400001928E-02 0. -1.
    10030    2    1    2    0    0  0.00000000000E+00  0.00000000000E+00  0.15533545541E+04  0.26884966686E+04  0.21943345156E+04 0.  0.
        1    1    3    3  502    0  0.71721603177E+03 -0.72192501160E+03  0.12791604399E+04  0.16345721121E+04  0.50400001928E-02 0.  1.
       -1    1    3    3    0  502 -0.71721603177E+03  0.72192501160E+03  0.27419411423E+03  0.10539245566E+04  0.50400001928E-02 0. -1.
</event>
<event>
 5   0  0.8784659E-05  0.2168466E+04  0.7818609E-02  0.8531669E-01
       -1   -1    0    0    0  501  0.00000000000E+00  0.00000000000E+00  0.10524556228E+04  0.10524556228E+04  0.50400001928E-02 0.  1.
        1   -1    0    0  501    0  0.00000000000E+00  0.00000000000E+00 -0.11169703371E+04  0.11169703371E+04  0.50400001928E-02 0. -1.
    10030    2    1    2    0    0  0.00000000000E+00  0.00000000000E+00 -0.64514714313E+02  0.21694259599E+04  0.21684664736E+04 0.  0.
        4    1    3    3  502    0  0.78683631592E+03 -0.54141427825E+03  0.48111615660E+03  0.10694462014E+04  0.12699999809E+01 0.  1.
       -4    1    3    3    0  502 -0.78683631592E+03  0.54141427825E+03 -0.54563087091E+03  0.10999797584E+04  0.12699999809E+01 0. -1.
</event>
<event>
 5   0  0.7954459E-05  0.2101092E+04  0.7818609E-02  0.8560762E-01
        1   -1    0    0  501    0  0.00000000000E+00  0.00000000000E+00  0.10690723669E+04  0.10690723670E+04  0.50400001928E-02 0.  1.
       -1   -1    0    0    0  501  0.00000000000E+00  0.00000000000E+00 -0.10323407236E+04  0.10323407236E+04  0.50400001928E-02 0. -1.
    10030    2    1    2    0    0  0.00000000000E+00  0.00000000000E+00  0.36731643334E+02  0.21014130906E+04  0.21010920407E+04 0.  0.
        5    1    3    3  502    0 -0.41313675940E+03 -0.94414592997E+03 -0.18545769248E+03  0.10471438128E+04  0.46999998093E+01 0. -1.
       -5    1    3    3    0  502  0.41313675940E+03  0.94414592997E+03  0.22218933581E+03  0.10542692777E+04  0.46999998093E+01 0.  1.
</event>
<event>
 5   0  0.1798917E-04  0.2121268E+04  0.7818609E-02  0.8551932E-01
       -2   -1    0    0    0  501  0.00000000000E+00  0.00000000000E+00  0.41674360802E+03  0.41674360803E+03  0.25500000920E-02 0.  1.
        2   -1    0    0  501    0  0.00000000000E+00  0.00000000000E+00 -0.26993684042E+04  0.26993684042E+04  0.25500000920E-02 0. -1.
    10030    2    1    2    0    0  0.00000000000E+00  0.00000000000E+00 -0.22826247962E+04  0.31161120123E+04  0.21212680436E+04 0.  0.
        4    1    3    3  502    0 -0.85758190693E+02 -0.93015906939E+03 -0.40331338696E+03  0.10174545015E+04  0.12699999809E+01 0.  1.
       -4    1    3    3    0  502  0.85758190693E+02  0.93015906939E+03 -0.18793114092E+04  0.20986575107E+04  0.12699999809E+01 0. -1.
</event>
<event>
 5   0  0.8306787E-05  0.2286263E+04  0.7818609E-02  0.8483357E-01
       -1   -1    0    0    0  501  0.00000000000E+00  0.00000000000E+00  0.85270648181E+03  0.85270648183E+03  0.50400001928E-02 0.  1.
        1   -1    0    0  501    0  0.00000000000E+00  0.00000000000E+00 -0.15324730907E+04  0.15324730907E+04  0.50400001928E-02 0. -1.
    10030    2    1    2    0    0  0.00000000000E+00  0.00000000000E+00 -0.67976660885E+03  0.23851795725E+04  0.22862630974E+04 0.  0.
        1    1    3    3  502    0  0.65985149982E+03  0.22713135543E+03  0.60469390707E+03  0.92338907060E+03  0.50400001928E-02 0.  1.
       -1    1    3    3    0  502 -0.65985149982E+03 -0.22713135543E+03 -0.12844605159E+04  0.14617905019E+04  0.50400001928E-02 0. -1.
</event>
<event>
 5   0  0.1805501E-04  0.2186317E+04  0.7818609E-02  0.8524145E-01
       -2   -1    0    0    0  501  0.00000000000E+00  0.00000000000E+00  0.83844892162E+03  0.83844892163E+03  0.25500000920E-02 0. -1.
        2   -1    0    0  501    0  0.00000000000E+00  0.00000000000E+00 -0.14252455274E+04  0.14252455274E+04  0.25500000920E-02 0.  1.
    10030    2    1    2    0    0  0.00000000000E+00  0.00000000000E+00 -0.58679660574E+03  0.22636944490E+04  0.21863170634E+04 0.  0.
        2    1    3    3  502    0 -0.30034522609E+03  0.84741107337E+03  0.35044782059E+03  0.96494894013E+03  0.25500000920E-02 0. -1.
       -2    1    3    3    0  502  0.30034522609E+03 -0.84741107337E+03 -0.93724442633E+03  0.12987455089E+04  0.25500000920E-02 0.  1.
</event>
<event>
 5   0  0.1680258E-04  0.2102728E+04  0.7818609E-02  0.8560043E-01
       -2   -1    0    0    0  501  0.00000000000E+00  0.00000000000E+00  0.36705242363E+03  0.36705242364E+03  0.25500000920E-02 0.  1.
        2   -1    0    0  501    0  0.00000000000E+00  0.00000000000E+00 -0.30114663644E+04  0.30114663644E+04  0.25500000920E-02 0. -1.
    10030    2    1    2    0    0  0.00000000000E+00  0.00000000000E+00 -0.26444139408E+04  0.33785187880E+04  0.21027277786E+04 0.  0.
        5    1    3    3  502    0 -0.62766773095E+02 -0.71657673816E+03 -0.25541855590E+04  0.26535462780E+04  0.46999998093E+01 0. -1.
       -5    1    3    3    0  502  0.62766773095E+02  0.71657673816E+03 -0.90228381768E+02  0.72497251007E+03  0.46999998093E+01 0.  1.
</event>
<event>
 5   0  0.8602414E-05  0.2255163E+04  0.7818609E-02  0.8495813E-01
       -1   -1    0    0    0  501  0.00000000000E+00  0.00000000000E+00  0.66128620251E+03  0.66128620253E+03  0.50400001928E-02 0.  1.
        1   -1    0    0  501    0  0.00000000000E+00  0.00000000000E+00 -0.19226773899E+04  0.19226773899E+04  0.50400001928E-02 0. -1.
    10030    2    1    2    0    0  0.00000000000E+00  0.00000000000E+00 -0.12613911874E+04  0.25839635924E+04  0.22551629918E+04 0.  0.
        3    1    3    3  502    0 -0.50267979413E+02 -0.92418391694E+03  0.10725346314E+03  0.93174357934E+03  0.10100000352E+00 0.  1.
       -3    1    3    3    0  502  0.50267979413E+02  0.92418391694E+03 -0.13686446505E+04  0.16522200131E+04  0.10100000352E+00 0. -1.
</event>
<event>
 5   0  0.7954459E-05  0.2225063E+04  0.7818609E-02  0.8508068E-01
        1   -1    0    0  501    0  0.00000000000E+00  0.00000000000E+00  0.19064249562E+04  0.19064249562E+04  0.50400001928E-02 0. -1.
       -1   -1    0    0    0  501  0.00000000000E+00  0.00000000000E+00 -0.64923958089E+03  0.64923958091E+03  0.50400001928E-02 0.  1.
    10030    2    1    2    0    0  0.00000000000E+00  0.00000000000E+00  0.12571853753E+04  0.25556645371E+04  0.22250631808E+04 0.  0.
        5    1    3    3  502    0  0.19396547146E+03 -0.10772400256E+04  0.85726056694E+03  0.13903188291E+04  0.46999998093E+01 0. -1.
       -5    1    3    3    0  502 -0.19396547146E+03  0.10772400256E+04  0.39992480839E+03  0.11653457080E+04  0.46999998093E+01 0.  1.
</event>
<event>
 5   0  0.1805501E-04  0.2367232E+04  0.7818609E-02  0.8451874E-01
       -2   -1    0    0    0  501  0.00000000000E+00  0.00000000000E+00  0.14936909294E+04  0.14936909294E+04  0.25500000920E-02 0. -1.
        2   -1    0    0  501    0  0.00000000000E+00  0.00000000000E+00 -0.93790928582E+03  0.93790928582E+03  0.25500000920E-02 0.  1.
    10030    2    1    2    0    0  0.00000000000E+00  0.00000000000E+00  0.55578164359E+03  0.24316002152E+04  0.23672317950E+04 0.  0.
        2    1    3    3  502    0  0.98509032114E+02  0.20785967055E+03  0.14705113525E+04  0.14883928614E+04  0.25500000920E-02 0. -1.
       -2    1    3    3    0  502 -0.98509032114E+02 -0.20785967055E+03 -0.91472970888E+03  0.94320735386E+03  0.25500000920E-02 0.  1.
</event>
<event>
 5   0  0.8784659E-05  0.2177268E+04  0.7818609E-02  0.8527950E-01
       -1   -1    0    0    0  501  0.00000000000E+00  0.00000000000E+00  0.29702092363E+04  0.29702092363E+04  0.50400001928E-02 0.  1.
        1   -1    0    0  501    0  0.00000000000E+00  0.00000000000E+00 -0.39900346787E+03  0.39900346790E+03  0.50400001928E-02 0. -1.
    10030    2    1    2    0    0  0.00000000000E+00  0.00000000000E+00  0.25712057684E+04  0.33692127042E+04  0.21772678160E+04 0.  0.
        4    1    3    3  502    0  0.61902011469E+03  0.53175111724E+03  0.24006014459E+04  0.25355145569E+04  0.12699999809E+01 0.  1.
       -4    1    3    3    0  502 -0.61902011469E+03 -0.53175111724E+03  0.17060432249E+03  0.83369814731E+03  0.12699999809E+01 0. -1.
</event>
<event>
 5   0  0.1733962E-04  0.2166157E+04  0.7818609E-02  0.8532648E-01
        2   -1    0    0  501    0  0.00000000000E+00  0.00000000000E+00  0.26712961512E+04  0.26712961512E+04  0.25500000920E-02 0. -1.
       -2   -1    0    0    0  501  0.00000000000E+00  0.00000000000E+00 -0.43913490968E+03  0.43913490969E+03  0.25500000920E-02 0.  1.
    10030    2    1    2    0    0  0.00000000000E+00  0.00000000000E+00  0.22321612415E+04  0.31104310609E+04  0.21661573295E+04 0.  0.
        3    1    3    3  502    0 -0.78275813804E+03  0.37005468152E+03  0.20504324242E+04  0.22257412038E+04  0.10100000352E+00 0. -1.
       -3    1    3    3    0  502  0.78275813804E+03 -0.37005468152E+03  0.18172881735E+03  0.88468985709E+03  0.10100000352E+00 0.  1.
</event>
<event>
 5   0  0.1680258E-04  0.1987811E+04  0.7818609E-02  0.8612341E-01
       -2   -1    0    0    0  501  0.00000000000E+00  0.00000000000E+00  0.95902229861E+03  0.95902229862E+03  0.25500000920E-02 0. -1.
        2   -1    0    0  501    0  0.00000000000E+00  0.00000000000E+00 -0.10300575677E+04  0.10300575677E+04  0.25500000920E-02 0.  1.
    10030    2    1    2    0    0  0.00000000000E+00  0.00000000000E+00 -0.71035269122E+02  0.19890798664E+04  0.19878110336E+04 0.  0.
        5    1    3    3  502    0  0.47794186807E+03 -0.87078179629E+03 -0.69254438483E+02  0.99574476310E+03  0.46999998093E+01 0. -1.
       -5    1    3    3    0  502 -0.47794186807E+03  0.87078179629E+03 -0.17808306393E+01  0.99333510325E+03  0.46999998093E+01 0.  1.
</event>
<event>
 5   0  0.1754356E-04  0.2127048E+04  0.7818609E-02  0.8549421E-01
       -2   -1    0    0    0  501  0.00000000000E+00  0.00000000000E+00  0.86090333557E+03  0.86090333558E+03  0.25500000920E-02 0.  1.
        2   -1    0    0  501    0  0.00000000000E+00  0.00000000000E+00 -0.13138333184E+04  0.13138333184E+04  0.25500000920E-02 0. -1.
    10030    2    1    2    0    0  0.00000000000E+00  0.00000000000E+00 -0.45292998278E+03  0.21747366539E+04  0.21270481764E+04 0.  0.
        1    1    3    3  502    0  0.14599231788E+03 -0.39474366882E+03  0.77213488663E+03  0.87939104165E+03  0.50400001928E-02 0.  1.
       -1    1    3    3    0  502 -0.14599231788E+03  0.39474366882E+03 -0.12250648694E+04  0.12953456123E+04  0.50400001928E-02 0. -1.
</event>
<event>
 5   0  0.8784659E-05  0.2194059E+04  0.7818609E-02  0.8520905E-01
       -1   -1    0    0    0  501  0.00000000000E+00  0.00000000000E+00  0.17352649856E+04  0.17352649856E+04  0.50400001928E-02 0.  1.
        1   -1    0    0  501    0  0.00000000000E+00  0.00000000000E+00 -0.69353902999E+03  0.69353903001E+03  0.50400001928E-02 0. -1.
    10030    2    1    2    0    0  0.00000000000E+00  0.00000000000E+00  0.10417259556E+04  0.24288040156E+04  0.21940592471E+04 0.  0.
        4    1    3    3  502    0 -0.91310135525E+03 -0.27725666528E+03 -0.78189046052E+02  0.95746565642E+03  0.12699999809E+01 0. -1.
       -4    1    3    3    0  502  0.91310135525E+03  0.27725666528E+03  0.11199150017E+04  0.14713383592E+04  0.12699999809E+01 0.  1.
</event>
<event>
 5   0  0.1754356E-04  0.1165030E+04  0.7818609E-02  0.9144029E-01
        2   -1    0    0  501    0  0.00000000000E+00  0.00000000000E+00  0.53151224699E+03  0.53151224699E+03  0.25500000920E-02 0.  1.
       -2   -1    0    0    0  501  0.00000000000E+00  0.00000000000E+00 -0.63841195977E+03  0.63841195977E+03  0.25500000920E-02 0. -1.
    10030    2    1    2    0    0  0.00000000000E+00  0.00000000000E+00 -0.10689971278E+03  0.11699242068E+04  0.11650300859E+04 0.  0.
        1    1    3    3  502    0  0.34380239735E+03  0.18954261658E+03 -0.48560321444E+03  0.62444933647E+03  0.50400001928E-02 0. -1.
       -1    1    3    3    0  502 -0.34380239735E+03 -0.18954261658E+03  0.37870350166E+03  0.54547487029E+03  0.50400001928E-02 0.  1.
</event>
<event>
 5   0  0.8306787E-05  0.2169793E+04  0.7818609E-02  0.8531107E-01
        1   -1    0    0  501    0  0.00000000000E+00  0.00000000000E+00  0.12232806874E+04  0.12232806874E+04  0.50400001928E-02 0. -1.
       -1   -1    0    0    0  501  0.00000000000E+00  0.00000000000E+00 -0.96216711890E+03  0.96216711891E+03  0.50400001928E-02 0.  1.
    10030    2    1    2    0    0  0.00000000000E+00  0.00000000000E+00  0.26111356851E+03  0.21854478063E+04  0.21697930359E+04 0.  0.
        1    1    3    3  502    0  0.37160749267E+02  0.33669610572E+03  0.11686505295E+04  0.12167535695E+04  0.50400001928E-02 0. -1.
       -1    1    3    3    0  502 -0.37160749267E+02 -0.33669610572E+03 -0.90753696096E+03  0.96869423681E+03  0.50400001928E-02 0.  1.
</event>
<event>
 5   0  0.1798917E-04  0.2228428E+04  0.7818609E-02  0.8506688E-01
       -2   -1    0    0    0  501  0.00000000000E+00  0.00000000000E+00  0.11193364564E+04  0.11193364564E+04  0.25500000920E-02 0.  1.
        2   -1    0    0  501    0  0.00000000000E+00  0.00000000000E+00 -0.11091145687E+04  0.11091145687E+04  0.25500000920E-02 0. -1.
    10030    2    1    2    0    0  0.00000000000E+00  0.00000000000E+00  0.10221887698E+02  0.22284510251E+04  0.22284275811E+04 0.  0.
        4    1    3    3  502    0  0.10221033094E+04  0.31573617111E+03 -0.30647900471E+03  0.11127962519E+04  0.12699999809E+01 0. -1.
       -4    1    3    3    0  502 -0.10221033094E+04 -0.31573617111E+03  0.31670089240E+03  0.11156547732E+04  0.12699999809E+01 0.  1.
</event>
<event>
 5   0  0.8306787E-05  0.2143674E+04  0.7818609E-02  0.8542245E-01
        1   -1    0    0  501    0  0.00000000000E+00  0.00000000000E+00  0.15217201534E+04  0.15217201534E+04  0.50400001928E-02 0. -1.
       -1   -1    0    0    0  501  0.00000000000E+00  0.00000000000E+00 -0.75495793547E+03  0.75495793549E+03  0.50400001928E-02 0.  1.
    10030    2    1    2    0    0  0.00000000000E+00  0.00000000000E+00  0.76676221791E+03  0.22766780889E+04  0.21436741407E+04 0.  0.
        1    1    3    3  502    0  0.10612798044E+04  0.14366076214E+03  0.42944824735E+03  0.11538539920E+04  0.50400001928E-02 0.  1.
       -1    1    3    3    0  502 -0.10612798044E+04 -0.14366076214E+03  0.33731397056E+03  0.11228240969E+04  0.50400001928E-02 0. -1.
</event>
<event>
 5   0  0.1680258E-04  0.2188490E+04  0.7818609E-02  0.8523234E-01
       -2   -1    0    0    0  501  0.00000000000E+00  0.00000000000E+00  0.75491208619E+03  0.75491208619E+03  0.25500000920E-02 0. -1.
        2   -1    0    0  501    0  0.00000000000E+00  0.00000000000E+00 -0.15861082445E+04  0.15861082445E+04  0.25500000920E-02 0.  1.
    10030    2    1    2    0    0  0.00000000000E+00  0.00000000000E+00 -0.83119615832E+03  0.23410203307E+04  0.21884901497E+04 0.  0.
        5    1    3    3  502    0 -0.91849330101E+03 -0.52122412912E+03 -0.72199781582E+03  0.12792996025E+04  0.46999998093E+01 0.  1.
       -5    1    3    3    0  502  0.91849330101E+03  0.52122412912E+03 -0.10919834250E+03  0.10617207282E+04  0.46999998093E+01 0. -1.
</event>
<event>
 5   0  0.1680258E-04  0.2096631E+04  0.7818609E-02  0.8562729E-01
       -2   -1    0    0    0  501  0.00000000000E+00  0.00000000000E+00  0.69566051323E+03  0.69566051324E+03  0.25500000920E-02 0. -1.
        2   -1    0    0  501    0  0.00000000000E+00  0.00000000000E+00 -0.15797432130E+04  0.15797432130E+04  0.25500000920E-02 0.  1.
    10030    2    1    2    0    0  0.00000000000E+00  0.00000000000E+00 -0.88408269977E+03  0.22754037262E+04  0.20966306058E+04 0.  0.
        5    1    3    3  502    0 -0.53125346022E+03  0.90347090206E+03 -0.46513929827E+03  0.11466763129E+04  0.46999998093E+01 0. -1.
       -5    1    3    3    0  502  0.53125346022E+03 -0.90347090206E+03 -0.41894340150E+03  0.11287274133E+04  0.46999998093E+01 0.  1.
</event>
<event>
 5   0  0.1805501E-04  0.2190794E+04  0.7818609E-02  0.8522270E-01
        2   -1    0    0  501    0  0.00000000000E+00  0.00000000000E+00  0.22236544346E+04  0.22236544346E+04  0.25500000920E-02 0. -1.
       -2   -1    0    0    0  501  0.00000000000E+00  0.00000000000E+00 -0.53960468665E+03  0.53960468666E+03  0.25500000920E-02 0.  1.
    10030    2    1    2    0    0  0.00000000000E+00  0.00000000000E+00  0.16840497479E+04  0.27632591213E+04  0.21907937871E+04 0.  0.
        2    1    3    3  502    0 -0.87808143636E+03  0.39931500115E+03  0.18734212527E+03  0.98263754810E+03  0.25500000920E-02 0.  1.
       -2    1    3    3    0  502  0.87808143636E+03 -0.39931500115E+03  0.14967076227E+04  0.17806215732E+04  0.25500000920E-02 0. -1.
</event>
<event>
 5   0  0.1805501E-04  0.2228537E+04  0.7818609E-02  0.8506643E-01
        2   -1    0    0  501    0  0.00000000000E+00  0.00000000000E+00  0.13130145765E+04  0.13130145765E+04  0.25500000920E-02 0. -1.
       -2   -1    0    0    0  501  0.00000000000E+00  0.00000000000E+00 -0.94560612720E+03  0.94560612720E+03  0.25500000920E-02 0.  1.
    10030    2    1    2    0    0  0.00000000000E+00  0.00000000000E+00  0.36740844933E+03  0.22586207037E+04  0.22285373039E+04 0.  0.
        2    1    3    3  502    0  0.35027331750E+03 -0.32308982672E+03  0.12045329654E+04  0.12953679392E+04  0.25500000920E-02 0. -1.
       -2    1    3    3    0  502 -0.35027331750E+03  0.32308982672E+03 -0.83712451605E+03  0.96325276458E+03  0.25500000920E-02 0.  1.
</event>
<event>
 5   0  0.1754356E-04  0.2358225E+04  0.7818609E-02  0.8455311E-01
       -2   -1    0    0    0  501  0.00000000000E+00  0.00000000000E+00  0.11579763181E+04  0.11579763182E+04  0.25500000920E-02 0. -1.
        2   -1    0    0  501    0  0.00000000000E+00  0.00000000000E+00 -0.12006341173E+04  0.12006341173E+04  0.25500000920E-02 0.  1.
    10030    2    1    2    0    0  0.00000000000E+00  0.00000000000E+00 -0.42657799155E+02  0.23586104355E+04  0.23582246497E+04 0.  0.
        1    1    3    3  502    0 -0.30261392367E+03 -0.36632564485E+02  0.11178871737E+04  0.11587013699E+04  0.50400001928E-02 0. -1.
       -1    1    3    3    0  502  0.30261392367E+03  0.36632564485E+02 -0.11605449728E+04  0.11999090655E+04  0.50400001928E-02 0.  1.
</event>
<event>
 5   0  0.7954459E-05  0.2217850E+04  0.7818609E-02  0.8511035E-01
       -1   -1    0    0    0  501  0.00000000000E+00  0.00000000000E+00  0.11369655797E+04  0.11369655797E+04  0.50400001928E-02 0. -1.
        1   -1    0    0  501    0  0.00000000000E+00  0.00000000000E+00 -0.10815760781E+04  0.10815760781E+04  0.50400001928E-02 0.  1.
    10030    2    1    2    0    0  0.00000000000E+00  0.00000000000E+00  0.55389501613E+02  0.22185416578E+04  0.22178501055E+04 0.  0.
        5    1    3    3  502    0  0.90850956312E+03  0.17128928651E+03  0.64022794101E+03  0.11245637165E+04  0.46999998093E+01 0. -1.
       -5    1    3    3    0  502 -0.90850956312E+03 -0.17128928651E+03 -0.58483843940E+03  0.10939779414E+04  0.46999998093E+01 0.  1.
</event>
<event>
 5   0  0.8602414E-05  0.1095576E+04  0.7818609E-02  0.9209515E-01
        1   -1    0    0  501    0  0.00000000000E+00  0.00000000000E+00  0.66762783692E+03  0.66762783694E+03  0.50400001928E-02 0. -1.
       -1   -1    0    0    0  501  0.00000000000E+00  0.00000000000E+00 -0.44945915746E+03  0.44945915749E+03  0.50400001928E-02 0.  1.
    10030    2    1    2    0    0  0.00000000000E+00  0.00000000000E+00  0.21816867946E+03  0.11170869944E+04  0.10955755476E+04 0.  0.
        3    1    3    3  502    0 -0.28341988006E+03 -0.32961856769E+03  0.44893982167E+03  0.62491775640E+03  0.10100000352E+00 0. -1.
       -3    1    3    3    0  502  0.28341988006E+03  0.32961856769E+03 -0.23077114221E+03  0.49216923802E+03  0.10100000352E+00 0.  1.
</event>
<event>
 5   0  0.1733962E-04  0.2230350E+04  0.7818609E-02  0.8505901E-01
        2   -1    0    0  501    0  0.00000000000E+00  0.00000000000E+00  0.24453618171E+04  0.24453618171E+04  0.25500000920E-02 0. -1.
       -2   -1    0    0    0  501  0.00000000000E+00  0.00000000000E+00 -0.50856093350E+03  0.50856093351E+03  0.25500000920E-02 0.  1.
    10030    2    1    2    0    0  0.00000000000E+00  0.00000000000E+00  0.19368008836E+04  0.29539227506E+04  0.22303501864E+04 0.  0.
        3    1    3    3  502    0 -0.92369814561E+03  0.37952348410E+03  0.31102963169E+03  0.10459425324E+04  0.10100000352E+00 0.  1.
       -3    1    3    3    0  502  0.92369814561E+03 -0.37952348410E+03  0.16257712519E+04  0.19079802181E+04  0.10100000352E+00 0. -1.
</event>
<event>
 5   0  0.8306787E-05  0.2205915E+04  0.7818609E-02  0.8515970E-01
        1   -1    0    0  501    0  0.00000000000E+00  0.00000000000E+00  0.11601570878E+04  0.11601570878E+04  0.50400001928E-02 0. -1.
       -1   -1    0    0    0  501  0.00000000000E+00  0.00000000000E+00 -0.10485779960E+04  0.10485779961E+04  0.50400001928E-02 0.  1.
    10030    2    1    2    0    0  0.00000000000E+00  0.00000000000E+00  0.11157909178E+03  0.22087350839E+04  0.22059149524E+04 0.  0.
        1    1    3    3  502    0  0.10768107538E+04 -0.15809271459E+03  0.23490504502E+03  0.11134159538E+04  0.50400001928E-02 0.  1.
       -1    1    3    3    0  502 -0.10768107538E+04  0.15809271459E+03 -0.12332595324E+03  0.10953191301E+04  0.50400001928E-02 0. -1.
</event>
<event>
 5   0  0.1805501E-04  0.2120953E+04  0.7818609E-02  0.8552069E-01
        2   -1    0    0  501    0  0.00000000000E+00  0.00000000000E+00  0.17166876444E+04  0.17166876444E+04  0.25500000920E-02 0.  1.
       -2   -1    0    0    0  501  0.00000000000E+00  0.00000000000E+00 -0.65510484924E+03  0.65510484925E+03  0.25500000920E-02 0. -1.
    10030    2    1    2    0    0  0.00000000000E+00  0.00000000000E+00  0.10615827951E+04  0.23717924936E+04  0.21209529938E+04 0.  0.
        2    1    3    3  502    0 -0.95398200770E+03  0.39636628749E+03  0.79876170732E+03  0.13058361957E+04  0.25500000920E-02 0. -1.
       -2    1    3    3    0  502  0.95398200770E+03 -0.39636628749E+03  0.26282108779E+03  0.10659562979E+04  0.25500000920E-02 0.  1.
</event>
<event>
 5   0  0.8784659E-05  0.2233511E+04  0.7818609E-02  0.8504608E-01
       -1   -1    0    0    0  501  0.00000000000E+00  0.00000000000E+00  0.11548553980E+04  0.11548553980E+04  0.50400001928E-02 0. -1.
        1   -1    0    0  501    0  0.00000000000E+00  0.00000000000E+00 -0.10799129044E+04  0.10799129045E+04  0.50400001928E-02 0.  1.
    10030    2    1    2    0    0  0.00000000000E+00  0.00000000000E+00  0.74942493524E+02  0.22347683024E+04  0.22335113584E+04 0.  0.
        4    1    3    3  502    0  0.58361170139E+02 -0.10635467699E+04 -0.29828260811E+03  0.11061247150E+04  0.12699999809E+01 0.  1.
       -4    1    3    3    0  502 -0.58361170139E+02  0.10635467699E+04  0.37322510164E+03  0.11286435874E+04  0.12699999809E+01 0. -1.
</event>
<event>
 5   0  0.8306787E-05  0.2112330E+04  0.7818609E-02  0.8555831E-01
        1   -1    0    0  501    0  0.00000000000E+00  0.00000000000E+00  0.15152713788E+04  0.15152713788E+04  0.50400001928E-02 0.  1.
       -1   -1    0    0    0  501  0.00000000000E+00  0.00000000000E+00 -0.73616181993E+03  0.73616181995E+03  0.50400001928E-02 0. -1.
    10030    2    1    2    0    0  0.00000000000E+00  0.00000000000E+00  0.77910955887E+03  0.22514331988E+04  0.21123304059E+04 0.  0.
        1    1    3    3  502    0 -0.22418501758E+03 -0.35880787605E+03  0.14210023235E+04  0.14826495261E+04  0.50400001928E-02 0.  1.
       -1    1    3    3    0  502  0.22418501758E+03  0.35880787605E+03 -0.64189276460E+03  0.76878367262E+03  0.50400001928E-02 0. -1.
</event>
<event>
 5   0  0.8470971E-05  0.1626593E+04  0.7818609E-02  0.8804376E-01
        1   -1    0    0  501    0  0.00000000000E+00  0.00000000000E+00  0.11143723735E+04  0.11143723735E+04  0.50400001928E-02 0.  1.
       -1   -1    0    0    0  501  0.00000000000E+00  0.00000000000E+00 -0.59356366453E+03  0.59356366455E+03  0.50400001928E-02 0. -1.
    10030    2    1    2    0    0  0.00000000000E+00  0.00000000000E+00  0.52080870896E+03  0.17079360380E+04  0.16265926960E+04 0.  0.
        2    1    3    3  502    0  0.65348671053E+03  0.79547578576E+02 -0.24105382782E+03  0.70105609334E+03  0.25500000920E-02 0. -1.
       -2    1    3    3    0  502 -0.65348671053E+03 -0.79547578576E+02  0.76186253677E+03  0.10068799447E+04  0.25500000920E-02 0.  1.
</event>
<event>
 5   0  0.7954459E-05  0.1734489E+04  0.7818609E-02  0.8741935E-01
        1   -1    0    0  501    0  0.00000000000E+00  0.00000000000E+00  0.42896065068E+03  0.42896065071E+03  0.50400001928E-02 0.  1.
       -1   -1    0    0    0  501  0.00000000000E+00  0.00000000000E+00 -0.17533385927E+04  0.17533385927E+04  0.50400001928E-02 0. -1.
    10030    2    1    2    0    0  0.00000000000E+00  0.00000000000E+00 -0.13243779420E+04  0.21822992434E+04  0.17344892777E+04 0.  0.
        5    1    3    3  502    0  0.13466291709E+03 -0.40348164255E+03 -0.16130596088E+04  0.16682071001E+04  0.46999998093E+01 0. -1.
       -5    1    3    3    0  502 -0.13466291709E+03  0.40348164255E+03  0.28868166680E+03  0.51409214335E+03  0.46999998093E+01 0.  1.
</event>
<event>
 5   0  0.1798917E-04  0.2123400E+04  0.7818609E-02  0.8551005E-01
        2   -1    0    0  501    0  0.00000000000E+00  0.00000000000E+00  0.14067638477E+04  0.14067638477E+04  0.25500000920E-02 0.  1.
       -2   -1    0    0    0  501  0.00000000000E+00  0.00000000000E+00 -0.80127656172E+03  0.80127656172E+03  0.25500000920E-02 0. -1.
    10030    2    1    2    0    0  0.00000000000E+00  0.00000000000E+00  0.60548728597E+03  0.22080404094E+04  0.21234000085E+04 0.  0.
        4    1    3    3  502    0  0.91311244111E+03 -0.21125902141E+03  0.82142531037E+03  0.12462527262E+04  0.12699999809E+01 0. -1.
       -4    1    3    3    0  502 -0.91311244111E+03  0.21125902141E+03 -0.21593802440E+03  0.96178768318E+03  0.12699999809E+01 0.  1.
</event>
<event>
 5   0  0.1798917E-04  0.2216636E+04  0.7818609E-02  0.8511536E-01
       -2   -1    0    0    0  501  0.00000000000E+00  0.00000000000E+00  0.89293054731E+03  0.89293054731E+03  0.25500000920E-02 0.  1.
        2   -1    0    0  501    0  0.00000000000E+00  0.00000000000E+00 -0.13756602186E+04  0.13756602186E+04  0.25500000920E-02 0. -1.
    10030    2    1    2    0    0  0.00000000000E+00  0.00000000000E+00 -0.48272967126E+03  0.22685907659E+04  0.22166362190E+04 0.  0.
        4    1    3    3  502    0 -0.19303017831E+03 -0.10474012676E+04 -0.55524083828E+03  0.12010845376E+04  0.12699999809E+01 0. -1.
       -4    1    3    3    0  502  0.19303017831E+03  0.10474012676E+04  0.72511167014E+02  0.10675062283E+04  0.12699999809E+01 0.  1.
</event>
<event>
 5   0  0.8470971E-05  0.2209854E+04  0.7818609E-02  0.8514338E-01
       -1   -1    0    0    0  501  0.00000000000E+00  0.00000000000E+00  0.13644246387E+04  0.13644246387E+04  0.50400001928E-02 0. -1.
        1   -1    0    0  501    0  0.00000000000E+00  0.00000000000E+00 -0.89478244782E+03  0.89478244784E+03  0.50400001928E-02 0.  1.
    10030    2    1    2    0    0  0.00000000000E+00  0.00000000000E+00  0.46964219083E+03  0.22592070865E+04  0.22098535862E+04 0.  0.
        2    1    3    3  502    0 -0.59427881108E+03 -0.53623956830E+03  0.10135030022E+04  0.12914753251E+04  0.25500000920E-02 0. -1.
       -2    1    3    3    0  502  0.59427881108E+03  0.53623956830E+03 -0.54386081135E+03  0.96773176141E+03  0.25500000920E-02 0.  1.
</event>
<event>
 5   0  0.1798917E-04  0.2206650E+04  0.7818609E-02  0.8515665E-01
       -2   -1    0    0    0  501  0.00000000000E+00  0.00000000000E+00  0.24010583747E+04  0.24010583747E+04  0.25500000920E-02 0. -1.
        2   -1    0    0  501    0  0.00000000000E+00  0.00000000000E+00 -0.50699547333E+03  0.50699547334E+03  0.25500000920E-02 0.  1.
    10030    2    1    2    0    0  0.00000000000E+00  0.00000000000E+00  0.18940629014E+04  0.29080538481E+04  0.22066497023E+04 0.  0.
        4    1    3    3  502    0 -0.38218468703E+03  0.55995481895E+02 -0.41497693095E+03  0.56692865081E+03  0.12699999809E+01 0.  1.
       -4    1    3    3    0  502  0.38218468703E+03 -0.55995481895E+02  0.23090398324E+04  0.23411251973E+04  0.12699999809E+01 0. -1.
</event>
<event>
 5   0  0.1754356E-04  0.2276038E+04  0.7818609E-02  0.8487429E-01
        2   -1    0    0  501    0  0.00000000000E+00  0.00000000000E+00  0.12343621316E+04  0.12343621316E+04  0.25500000920E-02 0. -1.
       -2   -1    0    0    0  501  0.00000000000E+00  0.00000000000E+00 -0.10491959323E+04  0.10491959323E+04  0.25500000920E-02 0.  1.
    10030    2    1    2    0    0  0.00000000000E+00  0.00000000000E+00  0.18516619928E+03  0.22835580640E+04  0.22760384246E+04 0.  0.
        1    1    3    3  502    0 -0.10371313779E+04 -0.18613385253E+01 -0.37741175736E+03  0.11036686976E+04  0.50400001928E-02 0.  1.
       -1    1    3    3    0  502  0.10371313779E+04  0.18613385253E+01  0.56257795664E+03  0.11798893664E+04  0.50400001928E-02 0. -1.
</event>
<event>
 5   0  0.1798917E-04  0.1882293E+04  0.7818609E-02  0.8663721E-01
       -2   -1    0    0    0  501  0.00000000000E+00  0.00000000000E+00  0.58043382141E+03  0.58043382141E+03  0.25500000920E-02 0.  1.
        2   -1    0    0  501    0  0.00000000000E+00  0.00000000000E+00 -0.15260247055E+04  0.15260247055E+04  0.25500000920E-02 0. -1.
    10030    2    1    2    0    0  0.00000000000E+00  0.00000000000E+00 -0.94559088412E+03  0.21064585269E+04  0.18822925930E+04 0.  0.
        4    1    3    3  502    0  0.31824618508E+03  0.83010536868E+03 -0.12714421498E+03  0.89806615666E+03  0.12699999809E+01 0.  1.
       -4    1    3    3    0  502 -0.31824618508E+03 -0.83010536868E+03 -0.81844666914E+03  0.12083923703E+04  0.12699999809E+01 0. -1.
</event>
<event>
 5   0  0.7954459E-05  0.1349933E+04  0.7818609E-02  0.8990879E-01
       -1   -1    0    0    0  501  0.00000000000E+00  0.00000000000E+00  0.12665855711E+04  0.12665855711E+04  0.50400001928E-02 0. -1.
        1   -1    0    0  501    0  0.00000000000E+00  0.00000000000E+00 -0.35969142568E+03  0.35969142571E+03  0.50400001928E-02 0.  1.
    10030    2    1    2    0    0  0.00000000000E+00  0.00000000000E+00  0.90689414543E+03  0.16262769968E+04  0.13499332870E+04 0.  0.
        5    1    3    3  502    0  0.18482143901E+03  0.41257877394E+03 -0.15032459144E+03  0.47644494101E+03  0.46999998093E+01 0.  1.
       -5    1    3    3    0  502 -0.18482143901E+03 -0.41257877394E+03  0.10572187369E+04  0.11498320558E+04  0.46999998093E+01 0. -1.
</event>
<event>
 5   0  0.1680258E-04  0.2222638E+04  0.7818609E-02  0.8509064E-01
        2   -1    0    0  501    0  0.00000000000E+00  0.00000000000E+00  0.54209084520E+03  0.54209084521E+03  0.25500000920E-02 0.  1.
       -2   -1    0    0    0  501  0.00000000000E+00  0.00000000000E+00 -0.22782716716E+04  0.22782716716E+04  0.25500000920E-02 0. -1.
    10030    2    1    2    0    0  0.00000000000E+00  0.00000000000E+00 -0.17361808264E+04  0.28203625168E+04  0.22226382666E+04 0.  0.
        5    1    3    3  502    0  0.32664434134E+02 -0.98591396512E+03 -0.15174962364E+04  0.18099475764E+04  0.46999998093E+01 0. -1.
       -5    1    3    3    0  502 -0.32664434134E+02  0.98591396512E+03 -0.21868458999E+03  0.10104149404E+04  0.46999998093E+01 0.  1.
</event>
<event>
 5   0  0.7954459E-05  0.2227731E+04  0.7818609E-02  0.8506974E-01
       -1   -1    0    0    0  501  0.00000000000E+00  0.00000000000E+00  0.12629617020E+04  0.12629617020E+04  0.50400001928E-02 0.  1.
        1   -1    0    0  501    0  0.00000000000E+00  0.00000000000E+00 -0.98237086159E+03  0.98237086161E+03  0.50400001928E-02 0. -1.
    10030    2    1    2    0    0  0.00000000000E+00  0.00000000000E+00  0.28059084037E+03  0.22453325636E+04  0.22277313800E+04 0.  0.
        5    1    3    3  502    0  0.88175813649E+03  0.44017268032E+03 -0.38286758813E+03  0.10572885509E+04  0.46999998093E+01 0. -1.
       -5    1    3    3    0  502 -0.88175813649E+03 -0.44017268032E+03  0.66345842850E+03  0.11880440127E+04  0.46999998093E+01 0.  1.
</event>
<event>
 5   0  0.8602414E-05  0.2205220E+04  0.7818609E-02  0.8516259E-01
        1   -1    0    0  501    0  0.00000000000E+00  0.00000000000E+00  0.95509728315E+03  0.95509728317E+03  0.50400001928E-02 0. -1.
       -1   -1    0    0    0  501  0.00000000000E+00  0.00000000000E+00 -0.12729056242E+04  0.12729056242E+04  0.50400001928E-02 0.  1.
    10030    2    1    2    0    0  0.00000000000E+00  0.00000000000E+00 -0.31780834105E+03  0.22280029074E+04  0.22052199014E+04 0.  0.
        3    1    3    3  502    0 -0.44198668371E+03 -0.59613053223E+03  0.66501154739E+03  0.99647589454E+03  0.10100000352E+00 0.  1.
       -3    1    3    3    0  502  0.44198668371E+03  0.59613053223E+03 -0.98281988844E+03  0.12315270128E+04  0.10100000352E+00 0. -1.
</event>
<event>
 5   0  0.1733962E-04  0.2263125E+04  0.7818609E-02  0.8492604E-01
        2   -1    0    0  501    0  0.00000000000E+00  0.00000000000E+00  0.88788206609E+03  0.88788206609E+03  0.25500000920E-02 0.  1.
       -2   -1    0    0    0  501  0.00000000000E+00  0.00000000000E+00 -0.14421211442E+04  0.14421211442E+04  0.25500000920E-02 0. -1.
    10030    2    1    2    0    0  0.00000000000E+00  0.00000000000E+00 -0.55423907814E+03  0.23300032103E+04  0.22631248318E+04 0.  0.
        3    1    3    3  502    0  0.24684094198E+03 -0.10519625334E+04  0.68781932384E+02  0.10827218418E+04  0.10100000352E+00 0.  1.
       -3    1    3    3    0  502 -0.24684094198E+03  0.10519625334E+04 -0.62302101052E+03  0.12472813685E+04  0.10100000352E+00 0. -1.
</event>
<event>
 5   0  0.8306787E-05  0.2162638E+04  0.7818609E-02  0.8534142E-01
        1   -1    0    0  501    0  0.00000000000E+00  0.00000000000E+00  0.16075493576E+04  0.16075493576E+04  0.50400001928E-02 0. -1.
       -1   -1    0    0    0  501  0.00000000000E+00  0.00000000000E+00 -0.72734954620E+03  0.72734954621E+03  0.50400001928E-02 0.  1.
    10030    2    1    2    0    0  0.00000000000E+00  0.00000000000E+00  0.88019981142E+03  0.23348989038E+04  0.21626375524E+04 0.  0.
        1    1    3    3  502    0 -0.50821128845E+03 -0.47942397847E+03  0.13311405338E+04  0.15033499877E+04  0.50400001928E-02 0. -1.
       -1    1    3    3    0  502  0.50821128845E+03  0.47942397847E+03 -0.45094072235E+03  0.83154891614E+03  0.50400001928E-02 0.  1.
</event>
<event>
 5   0  0.8784659E-05  0.1835781E+04  0.7818609E-02  0.8687499E-01
        1   -1    0    0  501    0  0.00000000000E+00  0.00000000000E+00  0.74518058150E+03  0.74518058152E+03  0.50400001928E-02 0.  1.
       -1   -1    0    0    0  501  0.00000000000E+00  0.00000000000E+00 -0.11306297374E+04  0.11306297374E+04  0.50400001928E-02 0. -1.
    10030    2    1    2    0    0  0.00000000000E+00  0.00000000000E+00 -0.38544915586E+03  0.18758103189E+04  0.18357813870E+04 0.  0.
        4    1    3    3  502    0 -0.60481863062E+03 -0.56905116228E+03  0.20682190689E+03  0.85580471797E+03  0.12699999809E+01 0. -1.
       -4    1    3    3    0  502  0.60481863062E+03  0.56905116228E+03 -0.59227106275E+03  0.10200056009E+04  0.12699999809E+01 0.  1.
</event>
<event>
 5   0  0.7954459E-05  0.2102420E+04  0.7818609E-02  0.8560178E-01
        1   -1    0    0  501    0  0.00000000000E+00  0.00000000000E+00  0.95779562951E+03  0.95779562952E+03  0.50400001928E-02 0.  1.
       -1   -1    0    0    0  501  0.00000000000E+00  0.00000000000E+00 -0.11537351392E+04  0.11537351392E+04  0.50400001928E-02 0. -1.
    10030    2    1    2    0    0  0.00000000000E+00  0.00000000000E+00 -0.19593950968E+03  0.21115307687E+04  0.21024200094E+04 0.  0.
        5    1    3    3  502    0 -0.37525661768E+01 -0.10375005385E+04 -0.26781479234E+03  0.10715261556E+04  0.46999998093E+01 0.  1.
       -5    1    3    3    0  502  0.37525661768E+01  0.10375005385E+04  0.71875282651E+02  0.10400046131E+04  0.46999998093E+01 0. -1.
</event>
<event>
 5   0  0.8306787E-05  0.2138595E+04  0.7818609E-02  0.8544430E-01
        1   -1    0    0  501    0  0.00000000000E+00  0.00000000000E+00  0.98558124109E+03  0.98558124110E+03  0.50400001928E-02 0.  1.
       -1   -1    0    0    0  501  0.00000000000E+00  0.00000000000E+00 -0.11601242398E+04  0.11601242399E+04  0.50400001928E-02 0. -1.
    10030    2    1    2    0    0  0.00000000000E+00  0.00000000000E+00 -0.17454299876E+03  0.21457054810E+04  0.21385945742E+04 0.  0.
        1    1    3    3  502    0 -0.99787323159E+03 -0.24067403557E+03  0.21326029332E+03  0.10484058997E+04  0.50400001928E-02 0. -1.
       -1    1    3    3    0  502  0.99787323159E+03  0.24067403557E+03 -0.38780329208E+03  0.10972995813E+04  0.50400001928E-02 0.  1.
</event>
<event>
 5   0  0.8306787E-05  0.2178912E+04  0.7818609E-02  0.8527257E-01
       -1   -1    0    0    0  501  0.00000000000E+00  0.00000000000E+00  0.96328438002E+03  0.96328438003E+03  0.50400001928E-02 0.  1.
        1   -1    0    0  501    0  0.00000000000E+00  0.00000000000E+00 -0.12321532774E+04  0.12321532774E+04  0.50400001928E-02 0. -1.
    10030    2    1    2    0    0  0.00000000000E+00  0.00000000000E+00 -0.26886889742E+03  0.21954376575E+04  0.21789116604E+04 0.  0.
        1    1    3    3  502    0  0.76514427559E+03 -0.23950164797E+03 -0.87766529223E+03  0.11887401596E+04  0.50400001928E-02 0. -1.
       -1    1    3    3    0  502 -0.76514427559E+03  0.23950164797E+03  0.60879639481E+03  0.10066974979E+04  0.50400001928E-02 0.  1.
</event>
<event>
 5   0  0.1798917E-04  0.1861616E+04  0.7818609E-02  0.8674202E-01
       -2   -1    0    0    0  501  0.00000000000E+00  0.00000000000E+00  0.87411196135E+03  0.87411196136E+03  0.25500000920E-02 0.  1.
        2   -1    0    0  501    0  0.00000000000E+00  0.00000000000E+00 -0.99118141256E+03  0.99118141256E+03  0.25500000920E-02 0. -1.
    10030    2    1    2    0    0  0.00000000000E+00  0.00000000000E+00 -0.11706945120E+03  0.18652933739E+04  0.18616159954E+04 0.  0.
        4    1    3    3  502    0 -0.16588606239E+02  0.97138295389E+02 -0.98593905463E+03  0.99085239195E+03  0.12699999809E+01 0. -1.
       -4    1    3    3    0  502  0.16588606239E+02 -0.97138295389E+02  0.86886960343E+03  0.87444098197E+03  0.12699999809E+01 0.  1.
</event>
<event>
 5   0  0.8784659E-05  0.2154514E+04  0.7818609E-02  0.8537602E-01
       -1   -1    0    0    0  501  0.00000000000E+00  0.00000000000E+00  0.87078913299E+03  0.87078913300E+03  0.50400001928E-02 0.  1.
        1   -1    0    0  501    0  0.00000000000E+00  0.00000000000E+00 -0.13326798253E+04  0.13326798253E+04  0.50400001928E-02 0. -1.
    10030    2    1    2    0    0  0.00000000000E+00  0.00000000000E+00 -0.46189069232E+03  0.22034689583E+04  0.21545144322E+04 0.  0.
        4    1    3    3  502    0 -0.56998807637E+03 -0.25706772757E+03 -0.11280952653E+04  0.12897948536E+04  0.12699999809E+01 0. -1.
       -4    1    3    3    0  502  0.56998807637E+03  0.25706772757E+03  0.66620457298E+03  0.91367410477E+03  0.12699999809E+01 0.  1.
</event>
<event>
 5   0  0.8306787E-05  0.2252270E+04  0.7818609E-02  0.8496982E-01
       -1   -1    0    0    0  501  0.00000000000E+00  0.00000000000E+00  0.70642411568E+03  0.70642411570E+03  0.50400001928E-02 0. -1.
        1   -1    0    0  501    0  0.00000000000E+00  0.00000000000E+00 -0.17952111153E+04  0.17952111154E+04  0.50400001928E-02 0.  1.
    10030    2    1    2    0    0  0.00000000000E+00  0.00000000000E+00 -0.10887869997E+04  0.25016352311E+04  0.22522703431E+04 0.  0.
        1    1    3    3  502    0 -0.78896806247E+03 -0.54961862270E+03 -0.11954946925E+04  0.15341964652E+04  0.50400001928E-02 0.  1.
       -1    1    3    3    0  502  0.78896806247E+03  0.54961862270E+03  0.10670769278E+03  0.96743876589E+03  0.50400001928E-02 0. -1.
</event>
<event>
 5   0  0.8602414E-05  0.2033102E+04  0.7818609E-02  0.8591299E-01
       -1   -1    0    0    0  501  0.00000000000E+00  0.00000000000E+00  0.88998156357E+03  0.88998156359E+03  0.50400001928E-02 0. -1.
        1   -1    0    0  501    0  0.00000000000E+00  0.00000000000E+00 -0.11611204812E+04  0.11611204812E+04  0.50400001928E-02 0.  1.
    10030    2    1    2    0    0  0.00000000000E+00  0.00000000000E+00 -0.27113891766E+03  0.20511020448E+04  0.20331018877E+04 0.  0.
        3    1    3    3  502    0  0.21545340103E+03 -0.86311930520E+03  0.36070108193E+03  0.95994811513E+03  0.10100000352E+00 0. -1.
       -3    1    3    3    0  502 -0.21545340103E+03  0.86311930520E+03 -0.63183999959E+03  0.10911539297E+04  0.10100000352E+00 0.  1.
</event>
<event>
 5   0  0.7954459E-05  0.2172183E+04  0.7818609E-02  0.8530096E-01
       -1   -1    0    0    0  501  0.00000000000E+00  0.00000000000E+00  0.58759975806E+03  0.58759975809E+03  0.50400001928E-02 0. -1.
        1   -1    0    0  501    0  0.00000000000E+00  0.00000000000E+00 -0.20074792088E+04  0.20074792088E+04  0.50400001928E-02 0.  1.
    10030    2    1    2    0    0  0.00000000000E+00  0.00000000000E+00 -0.14198794507E+04  0.25950789669E+04  0.21721825866E+04 0.  0.
        5    1    3    3  502    0 -0.18310886855E+03 -0.10483421949E+04 -0.96900235033E+03  0.14392838012E+04  0.46999998093E+01 0.  1.
       -5    1    3    3    0  502  0.18310886855E+03  0.10483421949E+04 -0.45087710036E+03  0.11557951657E+04  0.46999998093E+01 0. -1.
</event>
<event>
 5   0  0.1798917E-04  0.2213960E+04  0.7818609E-02  0.8512640E-01
        2   -1    0    0  501    0  0.00000000000E+00  0.00000000000E+00  0.19381859416E+04  0.19381859416E+04  0.25500000920E-02 0. -1.
       -2   -1    0    0    0  501  0.00000000000E+00  0.00000000000E+00 -0.63224294993E+03  0.63224294993E+03  0.25500000920E-02 0.  1.
    10030    2    1    2    0    0  0.00000000000E+00  0.00000000000E+00  0.13059429917E+04  0.25704288916E+04  0.22139597081E+04 0.  0.
        4    1    3    3  502    0  0.69463972700E+03 -0.69371071382E+03  0.59101790912E+02  0.98349048769E+03  0.12699999809E+01 0.  1.
       -4    1    3    3    0  502 -0.69463972700E+03  0.69371071382E+03  0.12468412008E+04  0.15869384039E+04  0.12699999809E+01 0. -1.
</event>
<event>
 5   0  0.8470971E-05  0.2270811E+04  0.7818609E-02  0.8489520E-01
        1   -1    0    0  501    0  0.00000000000E+00  0.00000000000E+00  0.11770480085E+04  0.11770480085E+04  0.50400001928E-02 0. -1.
       -1   -1    0    0    0  501  0.00000000000E+00  0.00000000000E+00 -0.10952364213E+04  0.10952364213E+04  0.50400001928E-02 0.  1.
    10030    2    1    2    0    0  0.00000000000E+00  0.00000000000E+00  0.81811587152E+02  0.22722844298E+04  0.22708111753E+04 0.  0.
        2    1    3    3  502    0 -0.25791787956E+03  0.27188748986E+03 -0.10315644386E+04  0.10975288746E+04  0.25500000920E-02 0.  1.
       -2    1    3    3    0  502  0.25791787956E+03 -0.27188748986E+03  0.11133760257E+04  0.11747555552E+04  0.25500000920E-02 0. -1.
</event>
<event>
 5   0  0.8784659E-05  0.2254527E+04  0.7818609E-02  0.8496069E-01
        1   -1    0    0  501    0  0.00000000000E+00  0.00000000000E+00  0.15466133359E+04  0.15466133359E+04  0.50400001928E-02 0. -1.
       -1   -1    0    0    0  501  0.00000000000E+00  0.00000000000E+00 -0.82161667094E+03  0.82161667096E+03  0.50400001928E-02 0.  1.
    10030    2    1    2    0    0  0.00000000000E+00  0.00000000000E+00  0.72499666492E+03  0.23682300068E+04  0.22545272678E+04 0.  0.
        4    1    3    3  502    0  0.33037537797E+03 -0.37309507380E+03  0.14246175243E+04  0.15092662217E+04  0.12699999809E+01 0. -1.
       -4    1    3    3    0  502 -0.33037537797E+03  0.37309507380E+03 -0.69962085937E+03  0.85896378516E+03  0.12699999809E+01 0.  1.
</event>
<event>
 5   0  0.1798917E-04  0.2095418E+04  0.7818609E-02  0.8563264E-01
        2   -1    0    0  501    0  0.00000000000E+00  0.00000000000E+00  0.24202479271E+04  0.24202479271E+04  0.25500000920E-02 0. -1.
       -2   -1    0    0    0  501  0.00000000000E+00  0.00000000000E+00 -0.45354618641E+03  0.45354618642E+03  0.25500000920E-02 0.  1.
    10030    2    1    2    0    0  0.00000000000E+00  0.00000000000E+00  0.19667017406E+04  0.28737941135E+04  0.20954180657E+04 0.  0.
        4    1    3    3  502    0 -0.78056617138E+03 -0.15721698009E+03  0.19172494424E+04  0.20760172841E+04  0.12699999809E+01 0. -1.
       -4    1    3    3    0  502  0.78056617138E+03  0.15721698009E+03  0.49452298248E+02  0.79777682934E+03  0.12699999809E+01 0.  1.
</event>
<event>
 5   0  0.1680258E-04  0.2119894E+04  0.7818609E-02  0.8552530E-01
       -2   -1    0    0    0  501  0.00000000000E+00  0.00000000000E+00  0.83911527732E+03  0.83911527733E+03  0.25500000920E-02 0. -1.
        2   -1    0    0  501    0  0.00000000000E+00  0.00000000000E+00 -0.13388959111E+04  0.13388959111E+04  0.25500000920E-02 0.  1.
    10030    2    1    2    0    0  0.00000000000E+00  0.00000000000E+00 -0.49978063379E+03  0.21780111884E+04  0.21198943500E+04 0.  0.
        5    1    3    3  502    0 -0.16367144674E+02 -0.64360878776E+03 -0.11149748001E+04  0.12875135145E+04  0.46999998093E+01 0.  1.
       -5    1    3    3    0  502  0.16367144674E+02  0.64360878776E+03  0.61519416629E+03  0.89049767397E+03  0.46999998093E+01 0. -1.
</event>
<event>
 5   0  0.8784659E-05  0.2191447E+04  0.7818609E-02  0.8521996E-01
        1   -1    0    0  501    0  0.00000000000E+00  0.00000000000E+00  0.90273010319E+03  0.90273010321E+03  0.50400001928E-02 0.  1.
       -1   -1    0    0    0  501  0.00000000000E+00  0.00000000000E+00 -0.13299771591E+04  0.13299771591E+04  0.50400001928E-02 0. -1.
    10030    2    1    2    0    0  0.00000000000E+00  0.00000000000E+00 -0.42724705592E+03  0.22327072623E+04  0.21914473921E+04 0.  0.
        4    1    3    3  502    0  0.73138386568E+03 -0.42312425862E+03 -0.92436249911E+03  0.12523594292E+04  0.12699999809E+01 0. -1.
       -4    1    3    3    0  502 -0.73138386568E+03  0.42312425862E+03  0.49711544318E+03  0.98034783315E+03  0.12699999809E+01 0.  1.
</event>
<event>
 5   0  0.1798917E-04  0.2184318E+04  0.7818609E-02  0.8524984E-01
       -2   -1    0    0    0  501  0.00000000000E+00  0.00000000000E+00  0.98538923209E+03  0.98538923210E+03  0.25500000920E-02 0.  1.
        2   -1    0    0  501    0  0.00000000000E+00  0.00000000000E+00 -0.12104971148E+04  0.12104971148E+04  0.25500000920E-02 0. -1.
    10030    2    1    2    0    0  0.00000000000E+00  0.00000000000E+00 -0.22510788267E+03  0.21958863469E+04  0.21843175798E+04 0.  0.
        4    1    3    3  502    0 -0.73571217201E+03  0.19945368424E+02 -0.92375952015E+03  0.11811026550E+04  0.12699999809E+01 0. -1.
       -4    1    3    3    0  502  0.73571217201E+03 -0.19945368424E+02  0.69865163747E+03  0.10147836918E+04  0.12699999809E+01 0.  1.
</event>
<event>
 5   0  0.1733962E-04  0.2151413E+04  0.7818609E-02  0.8538928E-01
        2   -1    0    0  501    0  0.00000000000E+00  0.00000000000E+00  0.13321924125E+04  0.13321924125E+04  0.25500000920E-02 0.  1.
       -2   -1    0    0    0  501  0.00000000000E+00  0.00000000000E+00 -0.86860159654E+03  0.86860159655E+03  0.25500000920E-02 0. -1.
    10030    2    1    2    0    0  0.00000000000E+00  0.00000000000E+00  0.46359081596E+03  0.22007940091E+04  0.21514129835E+04 0.  0.
        3    1    3    3  502    0 -0.37721885356E+03  0.99746119318E+03  0.37617878046E+03  0.11308109393E+04  0.10100000352E+00 0.  1.
       -3    1    3    3    0  502  0.37721885356E+03 -0.99746119318E+03  0.87412035503E+02  0.10699830697E+04  0.10100000352E+00 0. -1.
</event>
<event>
 5   0  0.7954459E-05  0.2322041E+04  0.7818609E-02  0.8469281E-01
       -1   -1    0    0    0  501  0.00000000000E+00  0.00000000000E+00  0.10798021717E+04  0.10798021717E+04  0.50400001928E-02 0. -1.
        1   -1    0    0  501    0  0.00000000000E+00  0.00000000000E+00 -0.12483472330E+04  0.12483472330E+04  0.50400001928E-02 0.  1.
    10030    2    1    2    0    0  0.00000000000E+00  0.00000000000E+00 -0.16854506128E+03  0.23281494048E+04  0.23220405279E+04 0.  0.
        5    1    3    3  502    0  0.10059574961E+04  0.18665579111E+03 -0.63449226006E+03  0.12039075489E+04  0.46999998093E+01 0.  1.
       -5    1    3    3    0  502 -0.10059574961E+04 -0.18665579111E+03  0.46594719878E+03  0.11242418558E+04  0.46999998093E+01 0. -1.
</event>
<event>
 5   0  0.1805501E-04  0.2208578E+04  0.7818609E-02  0.8514866E-01
        2   -1    0    0  501    0  0.00000000000E+00  0.00000000000E+00  0.13275151331E+04  0.13275151331E+04  0.25500000920E-02 0.  1.
       -2   -1    0    0    0  501  0.00000000000E+00  0.00000000000E+00 -0.91859876858E+03  0.91859876859E+03  0.25500000920E-02 0. -1.
    10030    2    1    2    0    0  0.00000000000E+00  0.00000000000E+00  0.40891636447E+03  0.22461139016E+04  0.22085776115E+04 0.  0.
        2    1    3    3  502    0  0.89751062497E+03  0.11041586588E+03 -0.44014123443E+03  0.10057043759E+04  0.25500000920E-02 0. -1.
       -2    1    3    3    0  502 -0.89751062497E+03 -0.11041586588E+03  0.84905759890E+03  0.12404095258E+04  0.25500000920E-02 0.  1.
</event>
<event>
 5   0  0.6250625E-05  0.2195907E+04  0.7818609E-02  0.8520134E-01
       -3   -1    0    0    0  501  0.00000000000E+00  0.00000000000E+00  0.71977293672E+03  0.71977294381E+03  0.10100000352E+00 0. -1.
        3   -1    0    0  501    0  0.00000000000E+00  0.00000000000E+00 -0.16748363143E+04  0.16748363173E+04  0.10100000352E+00 0.  1.
    10030    2    1    2    0    0  0.00000000000E+00  0.00000000000E+00 -0.95506337755E+03  0.23946092611E+04  0.21959069785E+04 0.  0.
        1    1    3    3  502    0  0.21477628809E+03 -0.82997602588E+03  0.27047665708E+03  0.89896978787E+03  0.50400001928E-02 0.  1.
       -1    1    3    3    0  502 -0.21477628809E+03  0.82997602588E+03 -0.12255400346E+04  0.14956394733E+04  0.50400001928E-02 0. -1.
</event>
<event>
 5   0  0.1805501E-04  0.2166879E+04  0.7818609E-02  0.8532342E-01
       -2   -1    0    0    0  501  0.00000000000E+00  0.00000000000E+00  0.71540272806E+03  0.71540272807E+03  0.25500000920E-02 0.  1.
        2   -1    0    0  501    0  0.00000000000E+00  0.00000000000E+00 -0.16408109649E+04  0.16408109649E+04  0.25500000920E-02 0. -1.
    10030    2    1    2    0    0  0.00000000000E+00  0.00000000000E+00 -0.92540823687E+03  0.23562136930E+04  0.21668785296E+04 0.  0.
        2    1    3    3  502    0 -0.33269661463E+03  0.35550136349E+03 -0.15151436405E+04  0.15914548401E+04  0.25500000920E-02 0. -1.
       -2    1    3    3    0  502  0.33269661463E+03 -0.35550136349E+03  0.58973540360E+03  0.76475885290E+03  0.25500000920E-02 0.  1.
</event>
<event>
 5   0  0.8602414E-05  0.2206447E+04  0.7818609E-02  0.8515750E-01
        1   -1    0    0  501    0  0.00000000000E+00  0.00000000000E+00  0.23502078411E+04  0.23502078411E+04  0.50400001928E-02 0.  1.
       -1   -1    0    0    0  501  0.00000000000E+00  0.00000000000E+00 -0.51786995517E+03  0.51786995520E+03  0.50400001928E-02 0. -1.
    10030    2    1    2    0    0  0.00000000000E+00  0.00000000000E+00  0.18323378859E+04  0.28680777963E+04  0.22064469442E+04 0.  0.
        3    1    3    3  502    0  0.32131947144E+03 -0.15889209707E+03 -0.44006129242E+03  0.56757982040E+03  0.10100000352E+00 0. -1.
       -3    1    3    3    0  502 -0.32131947144E+03  0.15889209707E+03  0.22723991783E+04  0.23004979759E+04  0.10100000352E+00 0.  1.
</event>
<event>
 5   0  0.1733962E-04  0.2205388E+04  0.7818609E-02  0.8516189E-01
        2   -1    0    0  501    0  0.00000000000E+00  0.00000000000E+00  0.16863726019E+04  0.16863726019E+04  0.25500000920E-02 0.  1.
       -2   -1    0    0    0  501  0.00000000000E+00  0.00000000000E+00 -0.72103535040E+03  0.72103535040E+03  0.25500000920E-02 0. -1.
    10030    2    1    2    0    0  0.00000000000E+00  0.00000000000E+00  0.96533725148E+03  0.24074079523E+04  0.22053881834E+04 0.  0.
        3    1    3    3  502    0 -0.26781540657E+03 -0.22596909111E+03  0.16239795034E+04  0.16613538334E+04  0.10100000352E+00 0.  1.
       -3    1    3    3    0  502  0.26781540657E+03  0.22596909111E+03 -0.65864225190E+03  0.74605411889E+03  0.10100000352E+00 0. -1.
</event>
<event>
 5   0  0.8784659E-05  0.2206304E+04  0.7818609E-02  0.8515809E-01
        1   -1    0    0  501    0  0.00000000000E+00  0.00000000000E+00  0.13854308660E+04  0.13854308661E+04  0.50400001928E-02 0. -1.
       -1   -1    0    0    0  501  0.00000000000E+00  0.00000000000E+00 -0.87838707600E+03  0.87838707601E+03  0.50400001928E-02 0.  1.
    10030    2    1    2    0    0  0.00000000000E+00  0.00000000000E+00  0.50704379005E+03  0.22638179421E+04  0.22063042106E+04 0.  0.
        4    1    3    3  502    0  0.68476620300E+03 -0.55513129264E+03 -0.42699203010E+03  0.97948931159E+03  0.12699999809E+01 0.  1.
       -4    1    3    3    0  502 -0.68476620300E+03  0.55513129264E+03  0.93403582015E+03  0.12843286305E+04  0.12699999809E+01 0. -1.
</event>
<event>
 5   0  0.8306787E-05  0.2165077E+04  0.7818609E-02  0.8533106E-01
       -1   -1    0    0    0  501  0.00000000000E+00  0.00000000000E+00  0.67663611806E+03  0.67663611808E+03  0.50400001928E-02 0.  1.
        1   -1    0    0  501    0  0.00000000000E+00  0.00000000000E+00 -0.17319343699E+04  0.17319343699E+04  0.50400001928E-02 0. -1.
    10030    2    1    2    0    0  0.00000000000E+00  0.00000000000E+00 -0.10552982519E+04  0.24085704880E+04  0.21650767643E+04 0.  0.
        1    1    3    3  502    0  0.87426560335E+03  0.50569294757E+03 -0.94182395093E+02  0.10143648387E+04  0.50400001928E-02 0. -1.
       -1    1    3    3    0  502 -0.87426560335E+03 -0.50569294757E+03 -0.96111585676E+03  0.13942056493E+04  0.50400001928E-02 0.  1.
</event>
<event>
 5   0  0.1805501E-04  0.2230945E+04  0.7818609E-02  0.8505657E-01
       -2   -1    0    0    0  501  0.00000000000E+00  0.00000000000E+00  0.49823058145E+03  0.49823058146E+03  0.25500000920E-02 0.  1.
        2   -1    0    0  501    0  0.00000000000E+00  0.00000000000E+00 -0.24973966866E+04  0.24973966866E+04  0.25500000920E-02 0. -1.
    10030    2    1    2    0    0  0.00000000000E+00  0.00000000000E+00 -0.19991661052E+04  0.29956272681E+04  0.22309454528E+04 0.  0.
        2    1    3    3  502    0 -0.21877653579E+03 -0.10728394682E+04 -0.12857887976E+04  0.16888163100E+04  0.25500000920E-02 0. -1.
       -2    1    3    3    0  502  0.21877653579E+03  0.10728394682E+04 -0.71337730762E+03  0.13068109581E+04  0.25500000920E-02 0.  1.
</event>
<event>
 5   0  0.7954459E-05  0.1667094E+04  0.7818609E-02  0.8780358E-01
        1   -1    0    0  501    0  0.00000000000E+00  0.00000000000E+00  0.11287017659E+04  0.11287017659E+04  0.50400001928E-02 0. -1.
       -1   -1    0    0    0  501  0.00000000000E+00  0.00000000000E+00 -0.61557482937E+03  0.61557482939E+03  0.50400001928E-02 0.  1.
    10030    2    1    2    0    0  0.00000000000E+00  0.00000000000E+00  0.51312693656E+03  0.17442765953E+04  0.16670937550E+04 0.  0.
        5    1    3    3  502    0 -0.67349488565E+03 -0.27686142310E+03 -0.16783987795E+03  0.74728838023E+03  0.46999998093E+01 0.  1.
       -5    1    3    3    0  502  0.67349488565E+03  0.27686142310E+03  0.68096681450E+03  0.99698821510E+03  0.46999998093E+01 0. -1.
</event>
<event>
 5   0  0.1798917E-04  0.2264548E+04  0.7818609E-02  0.8492032E-01
        2   -1    0    0  501    0  0.00000000000E+00  0.00000000000E+00  0.20851544851E+04  0.20851544851E+04  0.25500000920E-02 0. -1.
       -2   -1    0    0    0  501  0.00000000000E+00  0.00000000000E+00 -0.61484391708E+03  0.61484391708E+03  0.25500000920E-02 0.  1.
    10030    2    1    2    0    0  0.00000000000E+00  0.00000000000E+00  0.14703105680E+04  0.26999984022E+04  0.22645481239E+04 0.  0.
        4    1    3    3  502    0  0.63518933061E+03  0.65862603707E+03 -0.60013033231E+02  0.91698250773E+03  0.12699999809E+01 0.  1.
       -4    1    3    3    0  502 -0.63518933061E+03 -0.65862603707E+03  0.15303236013E+04  0.17830158945E+04  0.12699999809E+01 0. -1.
</event>
<event>
 5   0  0.1733962E-04  0.2164892E+04  0.7818609E-02  0.8533185E-01
        2   -1    0    0  501    0  0.00000000000E+00  0.00000000000E+00  0.11897447838E+04  0.11897447838E+04  0.25500000920E-02 0. -1.
       -2   -1    0    0    0  501  0.00000000000E+00  0.00000000000E+00 -0.98482418960E+03  0.98482418960E+03  0.25500000920E-02 0.  1.
    10030    2    1    2    0    0  0.00000000000E+00  0.00000000000E+00  0.20492059425E+03  0.21745689734E+04  0.21648920921E+04 0.  0.
        3    1    3    3  502    0  0.54760765236E+03  0.76435914930E+03  0.64111320741E+03  0.11380444653E+04  0.10100000352E+00 0. -1.
       -3    1    3    3    0  502 -0.54760765236E+03 -0.76435914930E+03 -0.43619261316E+03  0.10365245082E+04  0.10100000352E+00 0.  1.
</event>
<event>
 5   0  0.1680258E-04  0.2339066E+04  0.7818609E-02  0.8462675E-01
        2   -1    0    0  501    0  0.00000000000E+00  0.00000000000E+00  0.31446054855E+04  0.31446054855E+04  0.25500000920E-02 0. -1.
       -2   -1    0    0    0  501  0.00000000000E+00  0.00000000000E+00 -0.43496937039E+03  0.43496937039E+03  0.25500000920E-02 0.  1.
    10030    2    1    2    0    0  0.00000000000E+00  0.00000000000E+00  0.27096361151E+04  0.35795748559E+04  0.23390656837E+04 0.  0.
        5    1    3    3  502    0  0.21984787145E+03  0.95516923691E+03  0.37838715969E+03  0.10506570755E+04  0.46999998093E+01 0.  1.
       -5    1    3    3    0  502 -0.21984787145E+03 -0.95516923691E+03  0.23312489554E+04  0.25289177803E+04  0.46999998093E+01 0. -1.
</event>
<event>
 5   0  0.8784659E-05  0.2259687E+04  0.7818609E-02  0.8493988E-01
        1   -1    0    0  501    0  0.00000000000E+00  0.00000000000E+00  0.15182215015E+04  0.15182215015E+04  0.50400001928E-02 0.  1.
       -1   -1    0    0    0  501  0.00000000000E+00  0.00000000000E+00 -0.84081671860E+03  0.84081671862E+03  0.50400001928E-02 0. -1.
    10030    2    1    2    0    0  0.00000000000E+00  0.00000000000E+00  0.67740478293E+03  0.23590382202E+04  0.22596867226E+04 0.  0.
        4    1    3    3  502    0 -0.59929413213E+03 -0.42089089080E+03 -0.55949863855E+03  0.92159803505E+03  0.12699999809E+01 0. -1.
       -4    1    3    3    0  502  0.59929413213E+03  0.42089089080E+03  0.12369034215E+04  0.14374401851E+04  0.12699999809E+01 0.  1.
</event>
<event>
 5   0  0.8602414E-05  0.1963583E+04  0.7818609E-02  0.8623839E-01
       -1   -1    0    0    0  501  0.00000000000E+00  0.00000000000E+00  0.81639473909E+03  0.81639473910E+03  0.50400001928E-02 0.  1.
        1   -1    0    0  501    0  0.00000000000E+00  0.00000000000E+00 -0.11806965993E+04  0.11806965993E+04  0.50400001928E-02 0. -1.
    10030    2    1    2    0    0  0.00000000000E+00  0.00000000000E+00 -0.36430186019E+03  0.19970913384E+04  0.19635829416E+04 0.  0.
        3    1    3    3  502    0  0.58137308324E+03  0.77775043628E+03 -0.32962211376E+03  0.10254468056E+04  0.10100000352E+00 0.  1.
       -3    1    3    3    0  502 -0.58137308324E+03 -0.77775043628E+03 -0.34679746425E+02  0.97164453277E+03  0.10100000352E+00 0. -1.
</event>
<event>
 5   0  0.7954459E-05  0.2195100E+04  0.7818609E-02  0.8520470E-01
        1   -1    0    0  501    0  0.00000000000E+00  0.00000000000E+00  0.88319576786E+03  0.88319576787E+03  0.50400001928E-02 0. -1.
       -1   -1    0    0    0  501  0.00000000000E+00  0.00000000000E+00 -0.13639285964E+04  0.13639285965E+04  0.50400001928E-02 0.  1.
    10030    2    1    2    0    0  0.00000000000E+00  0.00000000000E+00 -0.48073282859E+03  0.22471243643E+04  0.21950999650E+04 0.  0.
        5    1    3    3  502    0  0.77943750188E+03 -0.92931865018E+02 -0.10256417405E+04  0.12915580594E+04  0.46999998093E+01 0.  1.
       -5    1    3    3    0  502 -0.77943750188E+03  0.92931865018E+02  0.54490891191E+03  0.95556630495E+03  0.46999998093E+01 0. -1.
</event>
<event>
 5   0  0.1798917E-04  0.2277184E+04  0.7818609E-02  0.8486972E-01
       -2   -1    0    0    0  501  0.00000000000E+00  0.00000000000E+00  0.70360795685E+03  0.70360795685E+03  0.25500000920E-02 0.  1.
        2   -1    0    0  501    0  0.00000000000E+00  0.00000000000E+00 -0.18424920981E+04  0.18424920981E+04  0.25500000920E-02 0. -1.
    10030    2    1    2    0    0  0.00000000000E+00  0.00000000000E+00 -0.11388841413E+04  0.25461000550E+04  0.22771843146E+04 0.  0.
        4    1    3    3  502    0  0.23757793513E+03  0.47347270829E+03  0.55743137795E+03  0.76899352063E+03  0.12699999809E+01 0.  1.
       -4    1    3    3    0  502 -0.23757793513E+03 -0.47347270829E+03 -0.16963155192E+04  0.17771065344E+04  0.12699999809E+01 0. -1.
</event>
<event>
 5   0  0.1754356E-04  0.2206511E+04  0.7818609E-02  0.8515723E-01
       -2   -1    0    0    0  501  0.00000000000E+00  0.00000000000E+00  0.86437196312E+03  0.86437196312E+03  0.25500000920E-02 0. -1.
        2   -1    0    0  501    0  0.00000000000E+00  0.00000000000E+00 -0.14081583915E+04  0.14081583915E+04  0.25500000920E-02 0.  1.
    10030    2    1    2    0    0  0.00000000000E+00  0.00000000000E+00 -0.54378642836E+03  0.22725303546E+04  0.22065109410E+04 0.  0.
        1    1    3    3  502    0  0.48160910471E+03 -0.48905232451E+03 -0.11614803320E+04  0.13491315976E+04  0.50400001928E-02 0.  1.
       -1    1    3    3    0  502 -0.48160910471E+03  0.48905232451E+03  0.61769390367E+03  0.92339875704E+03  0.50400001928E-02 0. -1.
</event>
<event>
 5   0  0.1680258E-04  0.2220549E+04  0.7818609E-02  0.8509924E-01
       -2   -1    0    0    0  501  0.00000000000E+00  0.00000000000E+00  0.78451508482E+03  0.78451508483E+03  0.25500000920E-02 0. -1.
        2   -1    0    0  501    0  0.00000000000E+00  0.00000000000E+00 -0.15713006552E+04  0.15713006552E+04  0.25500000920E-02 0.  1.
    10030    2    1    2    0    0  0.00000000000E+00  0.00000000000E+00 -0.78678557035E+03  0.23558157400E+04  0.22205486410E+04 0.  0.
        5    1    3    3  502    0  0.10405133338E+04  0.20343212448E+03 -0.74306780883E+03  0.12946908842E+04  0.46999998093E+01 0.  1.
       -5    1    3    3    0  502 -0.10405133338E+04 -0.20343212448E+03 -0.43717761523E+02  0.10611248558E+04  0.46999998093E+01 0. -1.
</event>
<event>
 5   0  0.1798917E-04  0.1996676E+04  0.7818609E-02  0.8608176E-01
        2   -1    0    0  501    0  0.00000000000E+00  0.00000000000E+00  0.14282224082E+04  0.14282224082E+04  0.25500000920E-02 0. -1.
       -2   -1    0    0    0  501  0.00000000000E+00  0.00000000000E+00 -0.69784548123E+03  0.69784548123E+03  0.25500000920E-02 0.  1.
    10030    2    1    2    0    0  0.00000000000E+00  0.00000000000E+00  0.73037692698E+03  0.21260678894E+04  0.19966757912E+04 0.  0.
        4    1    3    3  502    0 -0.76378340554E+03  0.53672633941E+03 -0.11632764801E+02  0.93358298405E+03  0.12699999809E+01 0.  1.
       -4    1    3    3    0  502  0.76378340554E+03 -0.53672633941E+03  0.74200969179E+03  0.11924849054E+04  0.12699999809E+01 0. -1.
</event>
<event>
 5   0  0.1805501E-04  0.2292412E+04  0.7818609E-02  0.8480919E-01
        2   -1    0    0  501    0  0.00000000000E+00  0.00000000000E+00  0.21643267162E+04  0.21643267162E+04  0.25500000920E-02 0.  1.
       -2   -1    0    0    0  501  0.00000000000E+00  0.00000000000E+00 -0.60701930613E+03  0.60701930614E+03  0.25500000920E-02 0. -1.
    10030    2    1    2    0    0  0.00000000000E+00  0.00000000000E+00  0.15573074101E+04  0.27713460223E+04  0.22924119189E+04 0.  0.
        2    1    3    3  502    0  0.58179839582E+03  0.85661897960E+03  0.13727530153E+04  0.17195162955E+04  0.25500000920E-02 0. -1.
       -2    1    3    3    0  502 -0.58179839582E+03 -0.85661897960E+03  0.18455439479E+03  0.10518297268E+04  0.25500000920E-02 0.  1.
</event>
<event>
 5   0  0.1680258E-04  0.1725471E+04  0.7818609E-02  0.8746969E-01
        2   -1    0    0  501    0  0.00000000000E+00  0.00000000000E+00  0.12655690665E+04  0.12655690665E+04  0.25500000920E-02 0.  1.
       -2   -1    0    0    0  501  0.00000000000E+00  0.00000000000E+00 -0.58812461299E+03  0.58812461300E+03  0.25500000920E-02 0. -1.
    10030    2    1    2    0    0  0.00000000000E+00  0.00000000000E+00  0.67744445352E+03  0.18536936795E+04  0.17254707386E+04 0.  0.
        5    1    3    3  502    0 -0.36096073173E+03  0.67824118282E+03  0.76029413136E+03  0.10809130437E+04  0.46999998093E+01 0.  1.
       -5    1    3    3    0  502  0.36096073173E+03 -0.67824118282E+03 -0.82849677841E+02  0.77278063578E+03  0.46999998093E+01 0. -1.
</event>
<event>
 5   0  0.1680258E-04  0.2220763E+04  0.7818609E-02  0.8509835E-01
       -2   -1    0    0    0  501  0.00000000000E+00  0.00000000000E+00  0.11086566418E+04  0.11086566418E+04  0.25500000920E-02 0. -1.
        2   -1    0    0  501    0  0.00000000000E+00  0.00000000000E+00 -0.11121090172E+04  0.11121090172E+04  0.25500000920E-02 0.  1.
    10030    2    1    2    0    0  0.00000000000E+00  0.00000000000E+00 -0.34523754078E+01  0.22207656591E+04  0.22207629756E+04 0.  0.
        5    1    3    3  502    0  0.23652127624E+03  0.10182362783E+04 -0.37612953243E+03  0.11109648724E+04  0.46999998093E+01 0.  1.
       -5    1    3    3    0  502 -0.23652127624E+03 -0.10182362783E+04  0.37267715702E+03  0.11098007866E+04  0.46999998093E+01 0. -1.
</event>
<event>
 5   0  0.8470971E-05  0.1991177E+04  0.7818609E-02  0.8610757E-01
       -1   -1    0    0    0  501  0.00000000000E+00  0.00000000000E+00  0.62803501085E+03  0.62803501087E+03  0.50400001928E-02 0. -1.
        1   -1    0    0  501    0  0.00000000000E+00  0.00000000000E+00 -0.15782507909E+04  0.15782507909E+04  0.50400001928E-02 0.  1.
    10030    2    1    2    0    0  0.00000000000E+00  0.00000000000E+00 -0.95021578006E+03  0.22062858018E+04  0.19911772926E+04 0.  0.
        2    1    3    3  502    0 -0.28163438569E+03 -0.90388679281E+03 -0.81638766129E+03  0.12501272235E+04  0.25500000920E-02 0.  1.
       -2    1    3    3    0  502  0.28163438569E+03  0.90388679281E+03 -0.13382811877E+03  0.95615857827E+03  0.25500000920E-02 0. -1.
</event>
<event>
 5   0  0.8470971E-05  0.2183070E+04  0.7818609E-02  0.8525508E-01
       -1   -1    0    0    0  501  0.00000000000E+00  0.00000000000E+00  0.46047032631E+03  0.46047032634E+03  0.50400001928E-02 0.  1.
        1   -1    0    0  501    0  0.00000000000E+00  0.00000000000E+00 -0.25874610615E+04  0.25874610615E+04  0.50400001928E-02 0. -1.
    10030    2    1    2    0    0  0.00000000000E+00  0.00000000000E+00 -0.21269907352E+04  0.30479313878E+04  0.21830703510E+04 0.  0.
        2    1    3    3  502    0  0.86626348527E+03 -0.64303806849E+02 -0.14064925024E+03  0.87996000880E+03  0.25500000920E-02 0.  1.
       -2    1    3    3    0  502 -0.86626348527E+03  0.64303806849E+02 -0.19863414849E+04  0.21679713790E+04  0.25500000920E-02 0. -1.
</event>
<event>
 5   0  0.6250625E-05  0.2244516E+04  0.7818609E-02  0.8500125E-01
       -4   -1    0    0    0  501  0.00000000000E+00  0.00000000000E+00  0.86029630324E+03  0.86029724065E+03  0.12699999809E+01 0.  1.
        4   -1    0    0  501    0  0.00000000000E+00  0.00000000000E+00 -0.14639854084E+04  0.14639859593E+04  0.12699999809E+01 0. -1.
    10030    2    1    2    0    0  0.00000000000E+00  0.00000000000E+00 -0.60368910521E+03  0.23242832000E+04  0.22445159518E+04 0.  0.
        1    1    3    3  502    0 -0.72888451131E+03  0.51441214120E+03 -0.10069015616E+04  0.13452669760E+04  0.50400001928E-02 0. -1.
       -1    1    3    3    0  502  0.72888451131E+03 -0.51441214120E+03  0.40321245639E+03  0.97901622400E+03  0.50400001928E-02 0.  1.
</event>
<event>
 5   0  0.7954459E-05  0.2165439E+04  0.7818609E-02  0.8532952E-01
        1   -1    0    0  501    0  0.00000000000E+00  0.00000000000E+00  0.14652131956E+04  0.14652131956E+04  0.50400001928E-02 0.  1.
       -1   -1    0    0    0  501  0.00000000000E+00  0.00000000000E+00 -0.80007577245E+03  0.80007577247E+03  0.50400001928E-02 0. -1.
    10030    2    1    2    0    0  0.00000000000E+00  0.00000000000E+00  0.66513742319E+03  0.22652889681E+04  0.21654390588E+04 0.  0.
        5    1    3    3  502    0 -0.23011157571E+03  0.90373997251E+03  0.90798875943E+03  0.13016001508E+04  0.46999998093E+01 0.  1.
       -5    1    3    3    0  502  0.23011157571E+03 -0.90373997251E+03 -0.24285133625E+03  0.96368881736E+03  0.46999998093E+01 0. -1.
</event>
<event>
 5   0  0.1733962E-04  0.2241132E+04  0.7818609E-02  0.8501501E-01
        2   -1    0    0  501    0  0.00000000000E+00  0.00000000000E+00  0.14714554131E+04  0.14714554131E+04  0.25500000920E-02 0.  1.
       -2   -1    0    0    0  501  0.00000000000E+00  0.00000000000E+00 -0.85335098228E+03  0.85335098229E+03  0.25500000920E-02 0. -1.
    10030    2    1    2    0    0  0.00000000000E+00  0.00000000000E+00  0.61810443079E+03  0.23248063954E+04  0.22411317874E+04 0.  0.
        3    1    3    3  502    0 -0.82926459276E+03  0.64152497021E+03 -0.10123196942E+03  0.10533195024E+04  0.10100000352E+00 0. -1.
       -3    1    3    3    0  502  0.82926459276E+03 -0.64152497021E+03  0.71933640020E+03  0.12714868930E+04  0.10100000352E+00 0.  1.
</event>
<event>
 5   0  0.8602414E-05  0.2194428E+04  0.7818609E-02  0.8520751E-01
       -1   -1    0    0    0  501  0.00000000000E+00  0.00000000000E+00  0.10085849803E+04  0.10085849803E+04  0.50400001928E-02 0.  1.
        1   -1    0    0  501    0  0.00000000000E+00  0.00000000000E+00 -0.11936314648E+04  0.11936314649E+04  0.50400001928E-02 0. -1.
    10030    2    1    2    0    0  0.00000000000E+00  0.00000000000E+00 -0.18504648458E+03  0.22022164451E+04  0.21944281874E+04 0.  0.
        3    1    3    3  502    0 -0.33187021017E+03 -0.13622898510E+02 -0.11419666182E+04  0.11892902030E+04  0.10100000352E+00 0. -1.
       -3    1    3    3    0  502  0.33187021017E+03  0.13622898510E+02  0.95692013357E+03  0.10129262421E+04  0.10100000352E+00 0.  1.
</event>
<event>
 5   0  0.8470971E-05  0.2165842E+04  0.7818609E-02  0.8532781E-01
        1   -1    0    0  501    0  0.00000000000E+00  0.00000000000E+00  0.10888186617E+04  0.10888186618E+04  0.50400001928E-02 0. -1.
       -1   -1    0    0    0  501  0.00000000000E+00  0.00000000000E+00 -0.10770555803E+04  0.10770555804E+04  0.50400001928E-02 0.  1.
    10030    2    1    2    0    0  0.00000000000E+00  0.00000000000E+00  0.11763081400E+02  0.21658742421E+04  0.21658422986E+04 0.  0.
        2    1    3    3  502    0 -0.10132296611E+04  0.34224279015E+03  0.17604204213E+03  0.10838612799E+04  0.25500000920E-02 0.  1.
       -2    1    3    3    0  502  0.10132296611E+04 -0.34224279015E+03 -0.16427896073E+03  0.10820129622E+04  0.25500000920E-02 0. -1.
</event>
<event>
 5   0  0.7954459E-05  0.2242843E+04  0.7818609E-02  0.8500804E-01
       -1   -1    0    0    0  501  0.00000000000E+00  0.00000000000E+00  0.14972672755E+04  0.14972672755E+04  0.50400001928E-02 0.  1.
        1   -1    0    0  501    0  0.00000000000E+00  0.00000000000E+00 -0.83992128497E+03  0.83992128499E+03  0.50400001928E-02 0. -1.
    10030    2    1    2    0    0  0.00000000000E+00  0.00000000000E+00  0.65734599050E+03  0.23371885605E+04  0.22428434221E+04 0.  0.
        5    1    3    3  502    0  0.66744572681E+03  0.75004101368E+03 -0.19185826859E+03  0.10221922547E+04  0.46999998093E+01 0.  1.
       -5    1    3    3    0  502 -0.66744572681E+03 -0.75004101368E+03  0.84920425909E+03  0.13149963057E+04  0.46999998093E+01 0. -1.
</event>
<event>
 5   0  0.1805501E-04  0.2184791E+04  0.7818609E-02  0.8524785E-01
       -2   -1    0    0    0  501  0.00000000000E+00  0.00000000000E+00  0.17550853814E+04  0.17550853814E+04  0.25500000920E-02 0. -1.
        2   -1    0    0  501    0  0.00000000000E+00  0.00000000000E+00 -0.67992615895E+03  0.67992615895E+03  0.25500000920E-02 0.  1.
    10030    2    1    2    0    0  0.00000000000E+00  0.00000000000E+00  0.10751592224E+04  0.24350115403E+04  0.21847914884E+04 0.  0.
        2    1    3    3  502    0  0.68149023706E+03  0.29715676326E+02  0.14885382741E+04  0.16373937089E+04  0.25500000920E-02 0. -1.
       -2    1    3    3    0  502 -0.68149023706E+03 -0.29715676326E+02 -0.41337905165E+03  0.79761783141E+03  0.25500000920E-02 0.  1.
</event>
<event>
 5   0  0.1798917E-04  0.1176163E+04  0.7818609E-02  0.9133981E-01
       -2   -1    0    0    0  501  0.00000000000E+00  0.00000000000E+00  0.25900023031E+03  0.25900023033E+03  0.25500000920E-02 0. -1.
        2   -1    0    0  501    0  0.00000000000E+00  0.00000000000E+00 -0.13352875000E+04  0.13352875000E+04  0.25500000920E-02 0.  1.
    10030    2    1    2    0    0  0.00000000000E+00  0.00000000000E+00 -0.10762872697E+04  0.15942877304E+04  0.11761628630E+04 0.  0.
        4    1    3    3  502    0  0.36960107263E+03 -0.11600464881E+03  0.61618586229E+02  0.39225055068E+03  0.12699999809E+01 0. -1.
       -4    1    3    3    0  502 -0.36960107263E+03  0.11600464881E+03 -0.11379058560E+04  0.12020371797E+04  0.12699999809E+01 0.  1.
</event>
<event>
 5   0  0.8602414E-05  0.2077034E+04  0.7818609E-02  0.8571428E-01
       -1   -1    0    0    0  501  0.00000000000E+00  0.00000000000E+00  0.66251393807E+03  0.66251393809E+03  0.50400001928E-02 0.  1.
        1   -1    0    0  501    0  0.00000000000E+00  0.00000000000E+00 -0.16279160633E+04  0.16279160633E+04  0.50400001928E-02 0. -1.
    10030    2    1    2    0    0  0.00000000000E+00  0.00000000000E+00 -0.96540212522E+03  0.22904300014E+04  0.20770335404E+04 0.  0.
        3    1    3    3  502    0 -0.86692119405E+02 -0.53979923505E+03  0.49097509570E+03  0.73481650262E+03  0.10100000352E+00 0.  1.
       -3    1    3    3    0  502  0.86692119405E+02  0.53979923505E+03 -0.14563772209E+04  0.15556134988E+04  0.10100000352E+00 0. -1.
</event>
<event>
 5   0  0.1805501E-04  0.2151925E+04  0.7818609E-02  0.8538709E-01
        2   -1    0    0  501    0  0.00000000000E+00  0.00000000000E+00  0.80122400236E+03  0.80122400236E+03  0.25500000920E-02 0.  1.
       -2   -1    0    0    0  501  0.00000000000E+00  0.00000000000E+00 -0.14449082888E+04  0.14449082888E+04  0.25500000920E-02 0. -1.
    10030    2    1    2    0    0  0.00000000000E+00  0.00000000000E+00 -0.64368428641E+03  0.22461322911E+04  0.21519249078E+04 0.  0.
        2    1    3    3  502    0 -0.89500153656E+03 -0.59414795678E+03 -0.25873319391E+03  0.11049807286E+04  0.25500000920E-02 0. -1.
       -2    1    3    3    0  502  0.89500153656E+03  0.59414795678E+03 -0.38495109250E+03  0.11411515625E+04  0.25500000920E-02 0.  1.
</event>
<event>
 5   0  0.7954459E-05  0.1661300E+04  0.7818609E-02  0.8783749E-01
       -1   -1    0    0    0  501  0.00000000000E+00  0.00000000000E+00  0.72463683291E+03  0.72463683293E+03  0.50400001928E-02 0. -1.
        1   -1    0    0  501    0  0.00000000000E+00  0.00000000000E+00 -0.95217274040E+03  0.95217274042E+03  0.50400001928E-02 0.  1.
    10030    2    1    2    0    0  0.00000000000E+00  0.00000000000E+00 -0.22753590750E+03  0.16768095733E+04  0.16613000199E+04 0.  0.
        5    1    3    3  502    0 -0.27040976958E+02 -0.60847426192E+03 -0.68382844951E+03  0.91575956463E+03  0.46999998093E+01 0.  1.
       -5    1    3    3    0  502  0.27040976958E+02  0.60847426192E+03  0.45629254202E+03  0.76105000871E+03  0.46999998093E+01 0. -1.
</event>
<event>
 5   0  0.8784659E-05  0.2175796E+04  0.7818609E-02  0.8528570E-01
        1   -1    0    0  501    0  0.00000000000E+00  0.00000000000E+00  0.11065710723E+04  0.11065710723E+04  0.50400001928E-02 0.  1.
       -1   -1    0    0    0  501  0.00000000000E+00  0.00000000000E+00 -0.10695403908E+04  0.10695403908E+04  0.50400001928E-02 0. -1.
    10030    2    1    2    0    0  0.00000000000E+00  0.00000000000E+00  0.37030681465E+02  0.21761114631E+04  0.21757963665E+04 0.  0.
        4    1    3    3  502    0  0.58189154265E+03 -0.49499437883E+02  0.93651148032E+03  0.11036771844E+04  0.12699999809E+01 0.  1.
       -4    1    3    3    0  502 -0.58189154265E+03  0.49499437883E+02 -0.89948079885E+03  0.10724342787E+04  0.12699999809E+01 0. -1.
</event>
<event>
 5   0  0.8470971E-05  0.2200948E+04  0.7818609E-02  0.8518034E-01
       -1   -1    0    0    0  501  0.00000000000E+00  0.00000000000E+00  0.58642965659E+03  0.58642965661E+03  0.50400001928E-02 0. -1.
        1   -1    0    0  501    0  0.00000000000E+00  0.00000000000E+00 -0.20651114872E+04  0.20651114873E+04  0.50400001928E-02 0.  1.
    10030    2    1    2    0    0  0.00000000000E+00  0.00000000000E+00 -0.14786818307E+04  0.26515411439E+04  0.22009476326E+04 0.  0.
        2    1    3    3  502    0 -0.18066466494E+03 -0.31445806188E+03 -0.19910511739E+04  0.20238103594E+04  0.25500000920E-02 0.  1.
       -2    1    3    3    0  502  0.18066466494E+03  0.31445806188E+03  0.51236934324E+03  0.62773078444E+03  0.25500000920E-02 0. -1.
</event>
<event>
 5   0  0.7954459E-05  0.1913740E+04  0.7818609E-02  0.8648047E-01
        1   -1    0    0  501    0  0.00000000000E+00  0.00000000000E+00  0.11292698448E+04  0.11292698448E+04  0.50400001928E-02 0. -1.
       -1   -1    0    0    0  501  0.00000000000E+00  0.00000000000E+00 -0.81078984636E+03  0.81078984638E+03  0.50400001928E-02 0.  1.
    10030    2    1    2    0    0  0.00000000000E+00  0.00000000000E+00  0.31847999840E+03  0.19400596912E+04  0.19137403418E+04 0.  0.
        5    1    3    3  502    0  0.61146720047E+03 -0.53597643642E+03 -0.35209310687E+03  0.88608945573E+03  0.46999998093E+01 0.  1.
       -5    1    3    3    0  502 -0.61146720047E+03  0.53597643642E+03  0.67057310527E+03  0.10539702354E+04  0.46999998093E+01 0. -1.
</event>
<event>
 5   0  0.8306787E-05  0.2223427E+04  0.7818609E-02  0.8508740E-01
        1   -1    0    0  501    0  0.00000000000E+00  0.00000000000E+00  0.13083581595E+04  0.13083581595E+04  0.50400001928E-02 0. -1.
       -1   -1    0    0    0  501  0.00000000000E+00  0.00000000000E+00 -0.94462438142E+03  0.94462438143E+03  0.50400001928E-02 0.  1.
    10030    2    1    2    0    0  0.00000000000E+00  0.00000000000E+00  0.36373377806E+03  0.22529825409E+04  0.22234270999E+04 0.  0.
        1    1    3    3  502    0 -0.25251586640E+03 -0.53488447472E+03 -0.77194323392E+03  0.97250296684E+03  0.50400001928E-02 0.  1.
       -1    1    3    3    0  502  0.25251586640E+03  0.53488447472E+03  0.11356770120E+04  0.12804795741E+04  0.50400001928E-02 0. -1.
</event>
<event>
 5   0  0.1733962E-04  0.2292268E+04  0.7818609E-02  0.8480976E-01
       -2   -1    0    0    0  501  0.00000000000E+00  0.00000000000E+00  0.78024427270E+03  0.78024427270E+03  0.25500000920E-02 0.  1.
        2   -1    0    0  501    0  0.00000000000E+00  0.00000000000E+00 -0.16836054558E+04  0.16836054558E+04  0.25500000920E-02 0. -1.
    10030    2    1    2    0    0  0.00000000000E+00  0.00000000000E+00 -0.90336118309E+03  0.24638497285E+04  0.22922683214E+04 0.  0.
        3    1    3    3  502    0  0.98163841633E+03  0.89600837317E+02  0.17688396513E+03  0.10014640472E+04  0.10100000352E+00 0.  1.
       -3    1    3    3    0  502 -0.98163841633E+03 -0.89600837317E+02 -0.10802451482E+04  0.14623856813E+04  0.10100000352E+00 0. -1.
</event>
<event>
 5   0  0.1733962E-04  0.2200582E+04  0.7818609E-02  0.8518186E-01
       -2   -1    0    0    0  501  0.00000000000E+00  0.00000000000E+00  0.10316067860E+04  0.10316067860E+04  0.25500000920E-02 0.  1.
        2   -1    0    0  501    0  0.00000000000E+00  0.00000000000E+00 -0.11735485476E+04  0.11735485476E+04  0.25500000920E-02 0. -1.
    10030    2    1    2    0    0  0.00000000000E+00  0.00000000000E+00 -0.14194176158E+03  0.22051553335E+04  0.22005823278E+04 0.  0.
        3    1    3    3  502    0 -0.74085789361E+02 -0.59816235859E+03  0.85146022002E+03  0.10432024865E+04  0.10100000352E+00 0.  1.
       -3    1    3    3    0  502  0.74085789361E+02  0.59816235859E+03 -0.99340198161E+03  0.11619528470E+04  0.10100000352E+00 0. -1.
</event>
<event>
 5   0  0.7954459E-05  0.2191259E+04  0.7818609E-02  0.8522075E-01
       -1   -1    0    0    0  501  0.00000000000E+00  0.00000000000E+00  0.14448418605E+04  0.14448418605E+04  0.50400001928E-02 0.  1.
        1   -1    0    0  501    0  0.00000000000E+00  0.00000000000E+00 -0.83082048545E+03  0.83082048546E+03  0.50400001928E-02 0. -1.
    10030    2    1    2    0    0  0.00000000000E+00  0.00000000000E+00  0.61402137507E+03  0.22756623460E+04  0.21912591960E+04 0.  0.
        5    1    3    3  502    0 -0.53917838500E+03 -0.38989591597E+03 -0.59694757140E+03  0.89392429721E+03  0.46999998093E+01 0. -1.
       -5    1    3    3    0  502  0.53917838500E+03  0.38989591597E+03  0.12109689465E+04  0.13817380488E+04  0.46999998093E+01 0.  1.
</event>
<event>
 5   0  0.8602414E-05  0.2196871E+04  0.7818609E-02  0.8519731E-01
       -1   -1    0    0    0  501  0.00000000000E+00  0.00000000000E+00  0.17086426535E+04  0.17086426535E+04  0.50400001928E-02 0.  1.
        1   -1    0    0  501    0  0.00000000000E+00  0.00000000000E+00 -0.70615178266E+03  0.70615178267E+03  0.50400001928E-02 0. -1.
    10030    2    1    2    0    0  0.00000000000E+00  0.00000000000E+00  0.10024908709E+04  0.24147944362E+04  0.21968714625E+04 0.  0.
        3    1    3    3  502    0 -0.94756027611E+03  0.32238421160E+03  0.99863538693E+03  0.14138863826E+04  0.10100000352E+00 0. -1.
       -3    1    3    3    0  502  0.94756027611E+03 -0.32238421160E+03  0.38554839293E+01  0.10009080536E+04  0.10100000352E+00 0.  1.
</event>
<event>
 5   0  0.8602414E-05  0.2138972E+04  0.7818609E-02  0.8544268E-01
        1   -1    0    0  501    0  0.00000000000E+00  0.00000000000E+00  0.73408888856E+03  0.73408888857E+03  0.50400001928E-02 0. -1.
       -1   -1    0    0    0  501  0.00000000000E+00  0.00000000000E+00 -0.15581223053E+04  0.15581223053E+04  0.50400001928E-02 0.  1.
    10030    2    1    2    0    0  0.00000000000E+00  0.00000000000E+00 -0.82403341674E+03  0.22922111939E+04  0.21389719693E+04 0.  0.
        3    1    3    3  502    0  0.65430933509E+02  0.83027061473E+03  0.30699786833E+03  0.88762503463E+03  0.10100000352E+00 0. -1.
       -3    1    3    3    0  502 -0.65430933509E+02 -0.83027061473E+03 -0.11310312851E+04  0.14045861593E+04  0.10100000352E+00 0.  1.
</event>
<event>
 5   0  0.1805501E-04  0.2477650E+04  0.7818609E-02  0.8410991E-01
       -2   -1    0    0    0  501  0.00000000000E+00  0.00000000000E+00  0.15225967073E+04  0.15225967073E+04  0.25500000920E-02 0. -1.
        2   -1    0    0  501    0  0.00000000000E+00  0.00000000000E+00 -0.10079408636E+04  0.10079408636E+04  0.25500000920E-02 0.  1.
    10030    2    1    2    0    0  0.00000000000E+00  0.00000000000E+00  0.51465584369E+03  0.25305375709E+04  0.24776500480E+04 0.  0.
        2    1    3    3  502    0  0.88967644554E+03  0.46565124678E+03  0.99830160885E+03  0.14159665828E+04  0.25500000920E-02 0. -1.
       -2    1    3    3    0  502 -0.88967644554E+03 -0.46565124678E+03 -0.48364576516E+03  0.11145709881E+04  0.25500000920E-02 0.  1.
</event>
<event>
 5   0  0.1805501E-04  0.2231268E+04  0.7818609E-02  0.8505525E-01
        2   -1    0    0  501    0  0.00000000000E+00  0.00000000000E+00  0.19613484369E+04  0.19613484369E+04  0.25500000920E-02 0.  1.
       -2   -1    0    0    0  501  0.00000000000E+00  0.00000000000E+00 -0.63458360266E+03  0.63458360267E+03  0.25500000920E-02 0. -1.
    10030    2    1    2    0    0  0.00000000000E+00  0.00000000000E+00  0.13267648342E+04  0.25959320395E+04  0.22312683004E+04 0.  0.
        2    1    3    3  502    0  0.89304280447E+03 -0.11584791148E+03 -0.10280129202E+03  0.90637425761E+03  0.25500000920E-02 0. -1.
       -2    1    3    3    0  502 -0.89304280447E+03  0.11584791148E+03  0.14295661262E+04  0.16895577819E+04  0.25500000920E-02 0.  1.
</event>
<event>
 5   0  0.8784659E-05  0.2200322E+04  0.7818609E-02  0.8518294E-01
        1   -1    0    0  501    0  0.00000000000E+00  0.00000000000E+00  0.67455983725E+03  0.67455983727E+03  0.50400001928E-02 0. -1.
       -1   -1    0    0    0  501  0.00000000000E+00  0.00000000000E+00 -0.17942869757E+04  0.17942869757E+04  0.50400001928E-02 0.  1.
    10030    2    1    2    0    0  0.00000000000E+00  0.00000000000E+00 -0.11197271385E+04  0.24688468130E+04  0.22003217313E+04 0.  0.
        4    1    3    3  502    0  0.11523268643E+02 -0.61714974029E+03  0.46195963813E+03  0.77098307882E+03  0.12699999809E+01 0. -1.
       -4    1    3    3    0  502 -0.11523268643E+02  0.61714974029E+03 -0.15816867766E+04  0.16978637342E+04  0.12699999809E+01 0.  1.
</event>
<event>
 5   0  0.1754356E-04  0.2299247E+04  0.7818609E-02  0.8478218E-01
        2   -1    0    0  501    0  0.00000000000E+00  0.00000000000E+00  0.11771524781E+04  0.11771524781E+04  0.25500000920E-02 0.  1.
       -2   -1    0    0    0  501  0.00000000000E+00  0.00000000000E+00 -0.11227382932E+04  0.11227382932E+04  0.25500000920E-02 0. -1.
    10030    2    1    2    0    0  0.00000000000E+00  0.00000000000E+00  0.54414184855E+02  0.22998907713E+04  0.22992469760E+04 0.  0.
        1    1    3    3  502    0  0.73066272199E+03 -0.63415331515E+03  0.64836061677E+03  0.11646415456E+04  0.50400001928E-02 0.  1.
       -1    1    3    3    0  502 -0.73066272199E+03  0.63415331515E+03 -0.59394643191E+03  0.11352492257E+04  0.50400001928E-02 0. -1.
</event>
<event>
 5   0  0.1680258E-04  0.2118484E+04  0.7818609E-02  0.8553144E-01
       -2   -1    0    0    0  501  0.00000000000E+00  0.00000000000E+00  0.12639898146E+04  0.12639898146E+04  0.25500000920E-02 0.  1.
        2   -1    0    0  501    0  0.00000000000E+00  0.00000000000E+00 -0.88766039256E+03  0.88766039256E+03  0.25500000920E-02 0. -1.
    10030    2    1    2    0    0  0.00000000000E+00  0.00000000000E+00  0.37632942206E+03  0.21516502072E+04  0.21184840760E+04 0.  0.
        5    1    3    3  502    0  0.68322309763E+03  0.44058295031E+03  0.87781241232E+03  0.11964463458E+04  0.46999998093E+01 0.  1.
       -5    1    3    3    0  502 -0.68322309763E+03 -0.44058295031E+03 -0.50148299026E+03  0.95520386136E+03  0.46999998093E+01 0. -1.
</event>
<event>
 5   0  0.1680258E-04  0.2238871E+04  0.7818609E-02  0.8502421E-01
       -2   -1    0    0    0  501  0.00000000000E+00  0.00000000000E+00  0.16710870695E+04  0.16710870695E+04  0.25500000920E-02 0. -1.
        2   -1    0    0  501    0  0.00000000000E+00  0.00000000000E+00 -0.74989278904E+03  0.74989278904E+03  0.25500000920E-02 0.  1.
    10030    2    1    2    0    0  0.00000000000E+00  0.00000000000E+00  0.92119428046E+03  0.24209798585E+04  0.22388712721E+04 0.  0.
        5    1    3    3  502    0  0.23662540841E+03 -0.81763166131E+03 -0.32559014600E+03  0.91134195045E+03  0.46999998093E+01 0.  1.
       -5    1    3    3    0  502 -0.23662540841E+03  0.81763166131E+03  0.12467844265E+04  0.15096379081E+04  0.46999998093E+01 0. -1.
</event>
<event>
 5   0  0.1805501E-04  0.2176237E+04  0.7818609E-02  0.8528384E-01
        2   -1    0    0  501    0  0.00000000000E+00  0.00000000000E+00  0.12034270287E+04  0.12034270287E+04  0.25500000920E-02 0. -1.
       -2   -1    0    0    0  501  0.00000000000E+00  0.00000000000E+00 -0.98385883485E+03  0.98385883485E+03  0.25500000920E-02 0.  1.
    10030    2    1    2    0    0  0.00000000000E+00  0.00000000000E+00  0.21956819381E+03  0.21872858635E+04  0.21762374082E+04 0.  0.
        2    1    3    3  502    0  0.21246645441E+03 -0.10661233750E+04  0.15736649114E+03  0.10984194361E+04  0.25500000920E-02 0. -1.
       -2    1    3    3    0  502 -0.21246645441E+03  0.10661233750E+04  0.62201702667E+02  0.10888664274E+04  0.25500000920E-02 0.  1.
</event>
<event>
 5   0  0.6250625E-05  0.2222559E+04  0.7818609E-02  0.8509097E-01
        3   -1    0    0  501    0  0.00000000000E+00  0.00000000000E+00  0.66128405213E+03  0.66128405985E+03  0.10100000352E+00 0. -1.
       -3   -1    0    0    0  501  0.00000000000E+00  0.00000000000E+00 -0.18674907613E+04  0.18674907641E+04  0.10100000352E+00 0.  1.
    10030    2    1    2    0    0  0.00000000000E+00  0.00000000000E+00 -0.12062067092E+04  0.25287748239E+04  0.22225587697E+04 0.  0.
        2    1    3    3  502    0 -0.11248491384E+03  0.34062346842E+03  0.59359977440E+03  0.69356895494E+03  0.25500000920E-02 0. -1.
       -2    1    3    3    0  502  0.11248491384E+03 -0.34062346842E+03 -0.17998064836E+04  0.18352058690E+04  0.25500000920E-02 0.  1.
</event>
<event>
 5   0  0.1733962E-04  0.2215167E+04  0.7818609E-02  0.8512142E-01
        2   -1    0    0  501    0  0.00000000000E+00  0.00000000000E+00  0.22146234782E+04  0.22146234782E+04  0.25500000920E-02 0. -1.
       -2   -1    0    0    0  501  0.00000000000E+00  0.00000000000E+00 -0.55392769111E+03  0.55392769111E+03  0.25500000920E-02 0.  1.
    10030    2    1    2    0    0  0.00000000000E+00  0.00000000000E+00  0.16606957871E+04  0.27685511693E+04  0.22151670546E+04 0.  0.
        3    1    3    3  502    0 -0.69463217858E+03 -0.23575934427E+03  0.18675030898E+04  0.20064057747E+04  0.10100000352E+00 0. -1.
       -3    1    3    3    0  502  0.69463217858E+03  0.23575934427E+03 -0.20680730272E+03  0.76214539465E+03  0.10100000352E+00 0.  1.
</event>
<event>
 5   0  0.8602414E-05  0.1853879E+04  0.7818609E-02  0.8678161E-01
       -1   -1    0    0    0  501  0.00000000000E+00  0.00000000000E+00  0.47374640979E+03  0.47374640981E+03  0.50400001928E-02 0.  1.
        1   -1    0    0  501    0  0.00000000000E+00  0.00000000000E+00 -0.18136642586E+04  0.18136642586E+04  0.50400001928E-02 0. -1.
    10030    2    1    2    0    0  0.00000000000E+00  0.00000000000E+00 -0.13399178488E+04  0.22874106684E+04  0.18538791019E+04 0.  0.
        3    1    3    3  502    0 -0.86180503070E+03 -0.26156628264E+03 -0.94054133271E+03  0.13022069113E+04  0.10100000352E+00 0.  1.
       -3    1    3    3    0  502  0.86180503070E+03  0.26156628264E+03 -0.39937651609E+03  0.98520375708E+03  0.10100000352E+00 0. -1.
</event>
<event>
 5   0  0.1798917E-04  0.2236185E+04  0.7818609E-02  0.8503516E-01
       -2   -1    0    0    0  501  0.00000000000E+00  0.00000000000E+00  0.10241591467E+04  0.10241591467E+04  0.25500000920E-02 0. -1.
        2   -1    0    0  501    0  0.00000000000E+00  0.00000000000E+00 -0.12206407579E+04  0.12206407579E+04  0.25500000920E-02 0.  1.
    10030    2    1    2    0    0  0.00000000000E+00  0.00000000000E+00 -0.19648161119E+03  0.22447999046E+04  0.22361846051E+04 0.  0.
        4    1    3    3  502    0 -0.40148209131E+03 -0.18934368929E+03  0.93191449609E+03  0.10322330857E+04  0.12699999809E+01 0. -1.
       -4    1    3    3    0  502  0.40148209131E+03  0.18934368929E+03 -0.11283961073E+04  0.12125668188E+04  0.12699999809E+01 0.  1.
</event>
<event>
 5   0  0.8470971E-05  0.2218678E+04  0.7818609E-02  0.8510694E-01
        1   -1    0    0  501    0  0.00000000000E+00  0.00000000000E+00  0.10248006180E+04  0.10248006180E+04  0.50400001928E-02 0. -1.
       -1   -1    0    0    0  501  0.00000000000E+00  0.00000000000E+00 -0.12008513684E+04  0.12008513684E+04  0.50400001928E-02 0.  1.
    10030    2    1    2    0    0  0.00000000000E+00  0.00000000000E+00 -0.17605075040E+03  0.22256519864E+04  0.22186781871E+04 0.  0.
        2    1    3    3  502    0  0.33700201972E+03  0.63093238567E+03 -0.93862173355E+03  0.11801088065E+04  0.25500000920E-02 0.  1.
       -2    1    3    3    0  502 -0.33700201972E+03 -0.63093238567E+03  0.76257098314E+03  0.10455431798E+04  0.25500000920E-02 0. -1.
</event>
<event>
 5   0  0.8306787E-05  0.2261142E+04  0.7818609E-02  0.8493402E-01
       -1   -1    0    0    0  501  0.00000000000E+00  0.00000000000E+00  0.12198350673E+04  0.12198350673E+04  0.50400001928E-02 0. -1.
        1   -1    0    0  501    0  0.00000000000E+00  0.00000000000E+00 -0.10478386475E+04  0.10478386475E+04  0.50400001928E-02 0.  1.
    10030    2    1    2    0    0  0.00000000000E+00  0.00000000000E+00  0.17199641984E+03  0.22676737148E+04  0.22611415940E+04 0.  0.
        1    1    3    3  502    0 -0.17613332213E+03  0.10973065108E+04  0.29416904960E+03  0.11496260068E+04  0.50400001928E-02 0.  1.
       -1    1    3    3    0  502  0.17613332213E+03 -0.10973065108E+04 -0.12217262975E+03  0.11180477080E+04  0.50400001928E-02 0. -1.
</event>
<event>
 5   0  0.1680258E-04  0.2111935E+04  0.7818609E-02  0.8556004E-01
       -2   -1    0    0    0  501  0.00000000000E+00  0.00000000000E+00  0.69598894768E+03  0.69598894769E+03  0.25500000920E-02 0. -1.
        2   -1    0    0  501    0  0.00000000000E+00  0.00000000000E+00 -0.16021332217E+04  0.16021332217E+04  0.25500000920E-02 0.  1.
    10030    2    1    2    0    0  0.00000000000E+00  0.00000000000E+00 -0.90614427397E+03  0.22981221693E+04  0.21119346723E+04 0.  0.
        5    1    3    3  502    0 -0.29922755836E+03 -0.76771206628E+03  0.26554672067E+03  0.86571132559E+03  0.46999998093E+01 0. -1.
       -5    1    3    3    0  502  0.29922755836E+03  0.76771206628E+03 -0.11716909946E+04  0.14324108438E+04  0.46999998093E+01 0.  1.
</event>
<event>
 5   0  0.7954459E-05  0.2176611E+04  0.7818609E-02  0.8528227E-01
        1   -1    0    0  501    0  0.00000000000E+00  0.00000000000E+00  0.10219773236E+04  0.10219773237E+04  0.50400001928E-02 0.  1.
       -1   -1    0    0    0  501  0.00000000000E+00  0.00000000000E+00 -0.11589382474E+04  0.11589382475E+04  0.50400001928E-02 0. -1.
    10030    2    1    2    0    0  0.00000000000E+00  0.00000000000E+00 -0.13696092379E+03  0.21809155711E+04  0.21766107676E+04 0.  0.
        5    1    3    3  502    0 -0.14053055726E+03  0.27932520911E+03  0.97598948806E+03  0.10248653476E+04  0.46999998093E+01 0.  1.
       -5    1    3    3    0  502  0.14053055726E+03 -0.27932520911E+03 -0.11129504119E+04  0.11560502235E+04  0.46999998093E+01 0. -1.
</event>
<event>
 5   0  0.1733962E-04  0.1977127E+04  0.7818609E-02  0.8617390E-01
       -2   -1    0    0    0  501  0.00000000000E+00  0.00000000000E+00  0.16427086438E+04  0.16427086438E+04  0.25500000920E-02 0. -1.
        2   -1    0    0  501    0  0.00000000000E+00  0.00000000000E+00 -0.59490608651E+03  0.59490608651E+03  0.25500000920E-02 0.  1.
    10030    2    1    2    0    0  0.00000000000E+00  0.00000000000E+00  0.10478025573E+04  0.22376147303E+04  0.19771265721E+04 0.  0.
        3    1    3    3  502    0  0.46852760390E+03 -0.75935314093E+03  0.42245800181E+02  0.89326369348E+03  0.10100000352E+00 0. -1.
       -3    1    3    3    0  502 -0.46852760390E+03  0.75935314093E+03  0.10055567571E+04  0.13443510368E+04  0.10100000352E+00 0.  1.
</event>
<event>
 5   0  0.1754356E-04  0.2197180E+04  0.7818609E-02  0.8519603E-01
        2   -1    0    0  501    0  0.00000000000E+00  0.00000000000E+00  0.10455011956E+04  0.10455011956E+04  0.25500000920E-02 0. -1.
       -2   -1    0    0    0  501  0.00000000000E+00  0.00000000000E+00 -0.11543740483E+04  0.11543740483E+04  0.25500000920E-02 0.  1.
    10030    2    1    2    0    0  0.00000000000E+00  0.00000000000E+00 -0.10887285273E+03  0.21998752440E+04  0.21971795081E+04 0.  0.
        1    1    3    3  502    0 -0.61949121068E+03 -0.52186541480E+03 -0.79749694463E+03  0.11367120339E+04  0.50400001928E-02 0.  1.
       -1    1    3    3    0  502  0.61949121068E+03  0.52186541480E+03  0.68862409190E+03  0.10631632101E+04  0.50400001928E-02 0. -1.
</event>
<event>
 5   0  0.8470971E-05  0.1293085E+04  0.7818609E-02  0.9035067E-01
        1   -1    0    0  501    0  0.00000000000E+00  0.00000000000E+00  0.41930789406E+03  0.41930789409E+03  0.50400001928E-02 0.  1.
       -1   -1    0    0    0  501  0.00000000000E+00  0.00000000000E+00 -0.99692128599E+03  0.99692128601E+03  0.50400001928E-02 0. -1.
    10030    2    1    2    0    0  0.00000000000E+00  0.00000000000E+00 -0.57761339193E+03  0.14162291801E+04  0.12930846299E+04 0.  0.
        2    1    3    3  502    0  0.45036271259E+02  0.64488754903E+03 -0.30022806038E+03  0.71277282837E+03  0.25500000920E-02 0.  1.
       -2    1    3    3    0  502 -0.45036271259E+02 -0.64488754903E+03 -0.27738533155E+03  0.70345635173E+03  0.25500000920E-02 0. -1.
</event>
<event>
 5   0  0.8470971E-05  0.2160384E+04  0.7818609E-02  0.8535100E-01
       -1   -1    0    0    0  501  0.00000000000E+00  0.00000000000E+00  0.13969802114E+04  0.13969802114E+04  0.50400001928E-02 0.  1.
        1   -1    0    0  501    0  0.00000000000E+00  0.00000000000E+00 -0.83524104508E+03  0.83524104509E+03  0.50400001928E-02 0. -1.
    10030    2    1    2    0    0  0.00000000000E+00  0.00000000000E+00  0.56173916628E+03  0.22322212565E+04  0.21603844211E+04 0.  0.
        2    1    3    3  502    0 -0.36806925735E+03 -0.78385009374E+03 -0.38629377159E+03  0.94821876465E+03  0.25500000920E-02 0. -1.
       -2    1    3    3    0  502  0.36806925735E+03  0.78385009374E+03  0.94803293787E+03  0.12840024918E+04  0.25500000920E-02 0.  1.
</event>
<event>
 5   0  0.1733962E-04  0.2160927E+04  0.7818609E-02  0.8534870E-01
       -2   -1    0    0    0  501  0.00000000000E+00  0.00000000000E+00  0.80206970936E+03  0.80206970936E+03  0.25500000920E-02 0. -1.
        2   -1    0    0  501    0  0.00000000000E+00  0.00000000000E+00 -0.14554858030E+04  0.14554858030E+04  0.25500000920E-02 0.  1.
    10030    2    1    2    0    0  0.00000000000E+00  0.00000000000E+00 -0.65341609360E+03  0.22575555123E+04  0.21609267225E+04 0.  0.
        3    1    3    3  502    0  0.50660141237E+03 -0.69812545309E+03 -0.10064780411E+04  0.13255271392E+04  0.10100000352E+00 0.  1.
       -3    1    3    3    0  502 -0.50660141237E+03  0.69812545309E+03  0.35306194755E+03  0.93202837311E+03  0.10100000352E+00 0. -1.
</event>
<event>
 5   0  0.1733962E-04  0.2042910E+04  0.7818609E-02  0.8586818E-01
        2   -1    0    0  501    0  0.00000000000E+00  0.00000000000E+00  0.73284255040E+03  0.73284255041E+03  0.25500000920E-02 0. -1.
       -2   -1    0    0    0  501  0.00000000000E+00  0.00000000000E+00 -0.14237299050E+04  0.14237299050E+04  0.25500000920E-02 0.  1.
    10030    2    1    2    0    0  0.00000000000E+00  0.00000000000E+00 -0.69088735458E+03  0.21565724554E+04  0.20429095473E+04 0.  0.
        3    1    3    3  502    0  0.20054621308E+03 -0.83585516192E+03  0.23707059978E+03  0.89166984628E+03  0.10100000352E+00 0. -1.
       -3    1    3    3    0  502 -0.20054621308E+03  0.83585516192E+03 -0.92795795436E+03  0.12649026091E+04  0.10100000352E+00 0.  1.
</event>
<event>
 5   0  0.8784659E-05  0.2189482E+04  0.7818609E-02  0.8522819E-01
        1   -1    0    0  501    0  0.00000000000E+00  0.00000000000E+00  0.16045313574E+04  0.16045313575E+04  0.50400001928E-02 0.  1.
       -1   -1    0    0    0  501  0.00000000000E+00  0.00000000000E+00 -0.74692065295E+03  0.74692065297E+03  0.50400001928E-02 0. -1.
    10030    2    1    2    0    0  0.00000000000E+00  0.00000000000E+00  0.85761070450E+03  0.23514520104E+04  0.21894817736E+04 0.  0.
        4    1    3    3  502    0  0.75023044347E+03  0.79348143096E+03  0.34563284464E+03  0.11453917128E+04  0.12699999809E+01 0.  1.
       -4    1    3    3    0  502 -0.75023044347E+03 -0.79348143096E+03  0.51197785986E+03  0.12060602976E+04  0.12699999809E+01 0. -1.
</event>
<event>
 5   0  0.8784659E-05  0.2047492E+04  0.7818609E-02  0.8584733E-01
       -1   -1    0    0    0  501  0.00000000000E+00  0.00000000000E+00  0.53994162333E+03  0.53994162336E+03  0.50400001928E-02 0. -1.
        1   -1    0    0  501    0  0.00000000000E+00  0.00000000000E+00 -0.19410536583E+04  0.19410536583E+04  0.50400001928E-02 0.  1.
    10030    2    1    2    0    0  0.00000000000E+00  0.00000000000E+00 -0.14011120350E+04  0.24809952817E+04  0.20474917956E+04 0.  0.
        4    1    3    3  502    0  0.74929308522E+03  0.47458587455E+03 -0.81055393505E+02  0.89064216697E+03  0.12699999809E+01 0. -1.
       -4    1    3    3    0  502 -0.74929308522E+03 -0.47458587455E+03 -0.13200566415E+04  0.15903531147E+04  0.12699999809E+01 0.  1.
</event>
<event>
 5   0  0.8306787E-05  0.1518732E+04  0.7818609E-02  0.8872091E-01
       -1   -1    0    0    0  501  0.00000000000E+00  0.00000000000E+00  0.11148737749E+04  0.11148737750E+04  0.50400001928E-02 0. -1.
        1   -1    0    0  501    0  0.00000000000E+00  0.00000000000E+00 -0.51722139759E+03  0.51722139761E+03  0.50400001928E-02 0.  1.
    10030    2    1    2    0    0  0.00000000000E+00  0.00000000000E+00  0.59765237736E+03  0.16320951726E+04  0.15187318026E+04 0.  0.
        1    1    3    3  502    0 -0.67302150146E+02  0.28052160020E+02  0.11111031452E+04  0.11134930186E+04  0.50400001928E-02 0. -1.
       -1    1    3    3    0  502  0.67302150146E+02 -0.28052160020E+02 -0.51345076785E+03  0.51860215400E+03  0.50400001928E-02 0.  1.
</event>
<event>
 5   0  0.8306787E-05  0.2171930E+04  0.7818609E-02  0.8530203E-01
        1   -1    0    0  501    0  0.00000000000E+00  0.00000000000E+00  0.20426037823E+04  0.20426037823E+04  0.50400001928E-02 0.  1.
       -1   -1    0    0    0  501  0.00000000000E+00  0.00000000000E+00 -0.57736136123E+03  0.57736136125E+03  0.50400001928E-02 0. -1.
    10030    2    1    2    0    0  0.00000000000E+00  0.00000000000E+00  0.14652424210E+04  0.26199651435E+04  0.21719304779E+04 0.  0.
        1    1    3    3  502    0  0.10761884191E+04  0.32545924139E+02  0.56168709826E+03  0.12143859135E+04  0.50400001928E-02 0. -1.
       -1    1    3    3    0  502 -0.10761884191E+04 -0.32545924139E+02  0.90355532279E+03  0.14055792300E+04  0.50400001928E-02 0.  1.
</event>
<event>
 5   0  0.8470971E-05  0.2195545E+04  0.7818609E-02  0.8520285E-01
        1   -1    0    0  501    0  0.00000000000E+00  0.00000000000E+00  0.10529349277E+04  0.10529349277E+04  0.50400001928E-02 0. -1.
       -1   -1    0    0    0  501  0.00000000000E+00  0.00000000000E+00 -0.11445191779E+04  0.11445191779E+04  0.50400001928E-02 0.  1.
    10030    2    1    2    0    0  0.00000000000E+00  0.00000000000E+00 -0.91584250186E+02  0.21974541056E+04  0.21955447778E+04 0.  0.
        2    1    3    3  502    0  0.94545825380E+03 -0.47993571462E+03 -0.33042406699E+03  0.11105897820E+04  0.25500000920E-02 0. -1.
       -2    1    3    3    0  502 -0.94545825380E+03  0.47993571462E+03  0.23883981680E+03  0.10868643236E+04  0.25500000920E-02 0.  1.
</event>
<event>
 5   0  0.7954459E-05  0.2145437E+04  0.7818609E-02  0.8541488E-01
       -1   -1    0    0    0  501  0.00000000000E+00  0.00000000000E+00  0.66345091396E+03  0.66345091398E+03  0.50400001928E-02 0.  1.
        1   -1    0    0  501    0  0.00000000000E+00  0.00000000000E+00 -0.17344543596E+04  0.17344543596E+04  0.50400001928E-02 0. -1.
    10030    2    1    2    0    0  0.00000000000E+00  0.00000000000E+00 -0.10710034456E+04  0.23979052735E+04  0.21454373261E+04 0.  0.
        5    1    3    3  502    0  0.81733775733E+03 -0.25184558796E+03 -0.12591799236E+04  0.15221771841E+04  0.46999998093E+01 0. -1.
       -5    1    3    3    0  502 -0.81733775733E+03  0.25184558796E+03  0.18817647804E+03  0.87572808943E+03  0.46999998093E+01 0.  1.
</event>
<event>
 5   0  0.8470971E-05  0.1987896E+04  0.7818609E-02  0.8612301E-01
        1   -1    0    0  501    0  0.00000000000E+00  0.00000000000E+00  0.77999788044E+03  0.77999788045E+03  0.50400001928E-02 0.  1.
       -1   -1    0    0    0  501  0.00000000000E+00  0.00000000000E+00 -0.12665832972E+04  0.12665832972E+04  0.50400001928E-02 0. -1.
    10030    2    1    2    0    0  0.00000000000E+00  0.00000000000E+00 -0.48658541678E+03  0.20465811777E+04  0.19878956585E+04 0.  0.
        2    1    3    3  502    0  0.35857047128E+02  0.81787781110E+03 -0.82360175202E+03  0.11612621098E+04  0.25500000920E-02 0. -1.
       -2    1    3    3    0  502 -0.35857047128E+02 -0.81787781110E+03  0.33701633524E+03  0.88531906788E+03  0.25500000920E-02 0.  1.
</event>
<event>
 5   0  0.1754356E-04  0.2208818E+04  0.7818609E-02  0.8514767E-01
        2   -1    0    0  501    0  0.00000000000E+00  0.00000000000E+00  0.21450978008E+04  0.21450978008E+04  0.25500000920E-02 0.  1.
       -2   -1    0    0    0  501  0.00000000000E+00  0.00000000000E+00 -0.56860780812E+03  0.56860780813E+03  0.25500000920E-02 0. -1.
    10030    2    1    2    0    0  0.00000000000E+00  0.00000000000E+00  0.15764899927E+04  0.27137056090E+04  0.22088181082E+04 0.  0.
        1    1    3    3  502    0 -0.32898812856E+03 -0.97027442450E+03  0.12948807504E+04  0.16511758856E+04  0.50400001928E-02 0.  1.
       -1    1    3    3    0  502  0.32898812856E+03  0.97027442450E+03  0.28160924233E+03  0.10625297233E+04  0.50400001928E-02 0. -1.
</event>
<event>
 5   0  0.1754356E-04  0.2232620E+04  0.7818609E-02  0.8504972E-01
        2   -1    0    0  501    0  0.00000000000E+00  0.00000000000E+00  0.84295251115E+03  0.84295251116E+03  0.25500000920E-02 0.  1.
       -2   -1    0    0    0  501  0.00000000000E+00  0.00000000000E+00 -0.14783129543E+04  0.14783129543E+04  0.25500000920E-02 0. -1.
    10030    2    1    2    0    0  0.00000000000E+00  0.00000000000E+00 -0.63536044311E+03  0.23212654654E+04  0.22326196426E+04 0.  0.
        1    1    3    3  502    0  0.11050521074E+03 -0.11050882511E+04 -0.43492358746E+03  0.11927237615E+04  0.50400001928E-02 0. -1.
       -1    1    3    3    0  502 -0.11050521074E+03  0.11050882511E+04 -0.20043685565E+03  0.11285417039E+04  0.50400001928E-02 0.  1.
</event>
<event>
 5   0  0.1805501E-04  0.2157230E+04  0.7818609E-02  0.8536444E-01
        2   -1    0    0  501    0  0.00000000000E+00  0.00000000000E+00  0.12223109329E+04  0.12223109329E+04  0.25500000920E-02 0. -1.
       -2   -1    0    0    0  501  0.00000000000E+00  0.00000000000E+00 -0.95181211213E+03  0.95181211214E+03  0.25500000920E-02 0.  1.
    10030    2    1    2    0    0  0.00000000000E+00  0.00000000000E+00  0.27049882074E+03  0.21741230450E+04  0.21572300301E+04 0.  0.
        2    1    3    3  502    0 -0.43662272153E+03 -0.18188830599E+03 -0.84171649710E+03  0.96550992658E+03  0.25500000920E-02 0.  1.
       -2    1    3    3    0  502  0.43662272153E+03  0.18188830599E+03  0.11122153178E+04  0.12086131184E+04  0.25500000920E-02 0. -1.
</event>
<event>
 5   0  0.8784659E-05  0.2160056E+04  0.7818609E-02  0.8535240E-01
       -1   -1    0    0    0  501  0.00000000000E+00  0.00000000000E+00  0.75874923473E+03  0.75874923474E+03  0.50400001928E-02 0. -1.
        1   -1    0    0  501    0  0.00000000000E+00  0.00000000000E+00 -0.15373470557E+04  0.15373470557E+04  0.50400001928E-02 0.  1.
    10030    2    1    2    0    0  0.00000000000E+00  0.00000000000E+00 -0.77859782094E+03  0.22960962904E+04  0.21600563900E+04 0.  0.
        4    1    3    3  502    0 -0.83516611508E+03  0.51335033646E+03  0.92488141841E+02  0.98467592487E+03  0.12699999809E+01 0. -1.
       -4    1    3    3    0  502  0.83516611508E+03 -0.51335033646E+03 -0.87108596278E+03  0.13114203656E+04  0.12699999809E+01 0.  1.
</event>
<event>
 5   0  0.8784659E-05  0.2186438E+04  0.7818609E-02  0.8524094E-01
       -1   -1    0    0    0  501  0.00000000000E+00  0.00000000000E+00  0.17180703679E+04  0.17180703679E+04  0.50400001928E-02 0. -1.
        1   -1    0    0  501    0  0.00000000000E+00  0.00000000000E+00 -0.69562192899E+03  0.69562192901E+03  0.50400001928E-02 0.  1.
    10030    2    1    2    0    0  0.00000000000E+00  0.00000000000E+00  0.10224484389E+04  0.24136922969E+04  0.21864376721E+04 0.  0.
        4    1    3    3  502    0  0.60096833508E+03  0.80775775767E+03  0.98152043394E+03  0.14060652581E+04  0.12699999809E+01 0.  1.
       -4    1    3    3    0  502 -0.60096833508E+03 -0.80775775767E+03  0.40928004940E+02  0.10076270388E+04  0.12699999809E+01 0. -1.
</event>
<event>
 5   0  0.8306787E-05  0.2201796E+04  0.7818609E-02  0.8517681E-01
       -1   -1    0    0    0  501  0.00000000000E+00  0.00000000000E+00  0.82054352797E+03  0.82054352799E+03  0.50400001928E-02 0.  1.
        1   -1    0    0  501    0  0.00000000000E+00  0.00000000000E+00 -0.14770413989E+04  0.14770413989E+04  0.50400001928E-02 0. -1.
    10030    2    1    2    0    0  0.00000000000E+00  0.00000000000E+00 -0.65649787094E+03  0.22975849269E+04  0.22017963216E+04 0.  0.
        1    1    3    3  502    0  0.72225017591E+03  0.95724388915E+02 -0.11894838765E+04  0.13948764704E+04  0.50400001928E-02 0. -1.
       -1    1    3    3    0  502 -0.72225017591E+03 -0.95724388915E+02  0.53298600558E+03  0.90270845648E+03  0.50400001928E-02 0.  1.
</event>
<event>
 5   0  0.8470971E-05  0.1224175E+04  0.7818609E-02  0.9091955E-01
        1   -1    0    0  501    0  0.00000000000E+00  0.00000000000E+00  0.14789388368E+04  0.14789388368E+04  0.50400001928E-02 0.  1.
       -1   -1    0    0    0  501  0.00000000000E+00  0.00000000000E+00 -0.25332443908E+03  0.25332443913E+03  0.50400001928E-02 0. -1.
    10030    2    1    2    0    0  0.00000000000E+00  0.00000000000E+00  0.12256143978E+04  0.17322632760E+04  0.12241753981E+04 0.  0.
        2    1    3    3  502    0 -0.32075501172E+03 -0.16055650483E+03  0.13146312638E+04  0.13626876122E+04  0.25500000920E-02 0.  1.
       -2    1    3    3    0  502  0.32075501172E+03  0.16055650483E+03 -0.89016866034E+02  0.36957566375E+03  0.25500000920E-02 0. -1.
</event>
<event>
 5   0  0.8470971E-05  0.2203436E+04  0.7818609E-02  0.8516999E-01
        1   -1    0    0  501    0  0.00000000000E+00  0.00000000000E+00  0.26104311863E+04  0.26104311863E+04  0.50400001928E-02 0.  1.
       -1   -1    0    0    0  501  0.00000000000E+00  0.00000000000E+00 -0.46497381957E+03  0.46497381959E+03  0.50400001928E-02 0. -1.
    10030    2    1    2    0    0  0.00000000000E+00  0.00000000000E+00  0.21454573667E+04  0.30754050059E+04  0.22034356441E+04 0.  0.
        2    1    3    3  502    0  0.10754358199E+04  0.16318080306E+03  0.13168500295E+04  0.17080059067E+04  0.25500000920E-02 0. -1.
       -2    1    3    3    0  502 -0.10754358199E+04 -0.16318080306E+03  0.82860733716E+03  0.13673990991E+04  0.25500000920E-02 0.  1.
</event>
<event>
 5   0  0.1733962E-04  0.2227930E+04  0.7818609E-02  0.8506892E-01
        2   -1    0    0  501    0  0.00000000000E+00  0.00000000000E+00  0.13169929966E+04  0.13169929966E+04  0.25500000920E-02 0.  1.
       -2   -1    0    0    0  501  0.00000000000E+00  0.00000000000E+00 -0.94223556952E+03  0.94223556952E+03  0.25500000920E-02 0. -1.
    10030    2    1    2    0    0  0.00000000000E+00  0.00000000000E+00  0.37475742711E+03  0.22592285662E+04  0.22279296634E+04 0.  0.
        3    1    3    3  502    0  0.10638286505E+04  0.56834940061E+02 -0.14270304892E+03  0.10748608182E+04  0.10100000352E+00 0.  1.
       -3    1    3    3    0  502 -0.10638286505E+04 -0.56834940061E+02  0.51746047603E+03  0.11843677480E+04  0.10100000352E+00 0. -1.
</event>
<event>
 5   0  0.1754356E-04  0.1852229E+04  0.7818609E-02  0.8679007E-01
        2   -1    0    0  501    0  0.00000000000E+00  0.00000000000E+00  0.99378293409E+03  0.99378293409E+03  0.25500000920E-02 0. -1.
       -2   -1    0    0    0  501  0.00000000000E+00  0.00000000000E+00 -0.86305367503E+03  0.86305367503E+03  0.25500000920E-02 0.  1.
    10030    2    1    2    0    0  0.00000000000E+00  0.00000000000E+00  0.13072925906E+03  0.18568366091E+04  0.18522289421E+04 0.  0.
        1    1    3    3  502    0  0.16131499181E+03 -0.69267242767E+01 -0.84883456816E+03  0.86405476112E+03  0.50400001928E-02 0.  1.
       -1    1    3    3    0  502 -0.16131499181E+03  0.69267242767E+01  0.97956382722E+03  0.99278184800E+03  0.50400001928E-02 0. -1.
</event>
<event>
 5   0  0.1733962E-04  0.1872982E+04  0.7818609E-02  0.8668423E-01
       -2   -1    0    0    0  501  0.00000000000E+00  0.00000000000E+00  0.61094823136E+03  0.61094823137E+03  0.25500000920E-02 0. -1.
        2   -1    0    0  501    0  0.00000000000E+00  0.00000000000E+00 -0.14354991767E+04  0.14354991767E+04  0.25500000920E-02 0.  1.
    10030    2    1    2    0    0  0.00000000000E+00  0.00000000000E+00 -0.82455094534E+03  0.20464474081E+04  0.18729823097E+04 0.  0.
        3    1    3    3  502    0 -0.42024918765E+03 -0.79028004616E+02  0.49805058899E+03  0.65643674838E+03  0.10100000352E+00 0. -1.
       -3    1    3    3    0  502  0.42024918765E+03  0.79028004616E+02 -0.13226015343E+04  0.13900106597E+04  0.10100000352E+00 0.  1.
</event>
<event>
 5   0  0.8306787E-05  0.2170295E+04  0.7818609E-02  0.8530894E-01
       -1   -1    0    0    0  501  0.00000000000E+00  0.00000000000E+00  0.97632042733E+03  0.97632042734E+03  0.50400001928E-02 0. -1.
        1   -1    0    0  501    0  0.00000000000E+00  0.00000000000E+00 -0.12061056515E+04  0.12061056515E+04  0.50400001928E-02 0.  1.
    10030    2    1    2    0    0  0.00000000000E+00  0.00000000000E+00 -0.22978522415E+03  0.21824260788E+04  0.21702954500E+04 0.  0.
        1    1    3    3  502    0  0.23234017410E+02  0.75015063141E+03 -0.90303339005E+03  0.11741955088E+04  0.50400001928E-02 0.  1.
       -1    1    3    3    0  502 -0.23234017410E+02 -0.75015063141E+03  0.67324816590E+03  0.10082305700E+04  0.50400001928E-02 0. -1.
</event>
<event>
 5   0  0.1805501E-04  0.2225610E+04  0.7818609E-02  0.8507844E-01
       -2   -1    0    0    0  501  0.00000000000E+00  0.00000000000E+00  0.81370379034E+03  0.81370379035E+03  0.25500000920E-02 0. -1.
        2   -1    0    0  501    0  0.00000000000E+00  0.00000000000E+00 -0.15218495023E+04  0.15218495023E+04  0.25500000920E-02 0.  1.
    10030    2    1    2    0    0  0.00000000000E+00  0.00000000000E+00 -0.70814571197E+03  0.23355532927E+04  0.22256097667E+04 0.  0.
        2    1    3    3  502    0 -0.10836762956E+04 -0.14530419859E+03 -0.13680136898E+03  0.11018993776E+04  0.25500000920E-02 0. -1.
       -2    1    3    3    0  502  0.10836762956E+04  0.14530419859E+03 -0.57134434299E+03  0.12336539150E+04  0.25500000920E-02 0.  1.
</event>
<event>
 5   0  0.1805501E-04  0.2217731E+04  0.7818609E-02  0.8511084E-01
       -2   -1    0    0    0  501  0.00000000000E+00  0.00000000000E+00  0.75966325035E+03  0.75966325036E+03  0.25500000920E-02 0.  1.
        2   -1    0    0  501    0  0.00000000000E+00  0.00000000000E+00 -0.16185886295E+04  0.16185886295E+04  0.25500000920E-02 0. -1.
    10030    2    1    2    0    0  0.00000000000E+00  0.00000000000E+00 -0.85892537915E+03  0.23782518799E+04  0.22177306413E+04 0.  0.
        2    1    3    3  502    0  0.66177217268E+03 -0.25068399858E+03 -0.13449502892E+04  0.15197618748E+04  0.25500000920E-02 0. -1.
       -2    1    3    3    0  502 -0.66177217268E+03  0.25068399858E+03  0.48602491002E+03  0.85849000509E+03  0.25500000920E-02 0.  1.
</event>
<event>
 5   0  0.8306787E-05  0.2105538E+04  0.7818609E-02  0.8558808E-01
        1   -1    0    0  501    0  0.00000000000E+00  0.00000000000E+00  0.10887019327E+04  0.10887019327E+04  0.50400001928E-02 0.  1.
       -1   -1    0    0    0  501  0.00000000000E+00  0.00000000000E+00 -0.10180223339E+04  0.10180223339E+04  0.50400001928E-02 0. -1.
    10030    2    1    2    0    0  0.00000000000E+00  0.00000000000E+00  0.70679598739E+02  0.21067242666E+04  0.21055382993E+04 0.  0.
        1    1    3    3  502    0 -0.79695276843E+03  0.56972945830E+03 -0.35036080617E+03  0.10404220611E+04  0.50400001928E-02 0.  1.
       -1    1    3    3    0  502  0.79695276843E+03 -0.56972945830E+03  0.42104040491E+03  0.10663022055E+04  0.50400001928E-02 0. -1.
</event>
<event>
 5   0  0.8784659E-05  0.2277431E+04  0.7818609E-02  0.8486873E-01
       -1   -1    0    0    0  501  0.00000000000E+00  0.00000000000E+00  0.68231954297E+03  0.68231954299E+03  0.50400001928E-02 0.  1.
        1   -1    0    0  501    0  0.00000000000E+00  0.00000000000E+00 -0.19003895611E+04  0.19003895612E+04  0.50400001928E-02 0. -1.
    10030    2    1    2    0    0  0.00000000000E+00  0.00000000000E+00 -0.12180700182E+04  0.25827091041E+04  0.22774309534E+04 0.  0.
        4    1    3    3  502    0 -0.47557987896E+03  0.16650045587E+03  0.54900909814E+03  0.74519207311E+03  0.12699999809E+01 0.  1.
       -4    1    3    3    0  502  0.47557987896E+03 -0.16650045587E+03 -0.17670791163E+04  0.18375170310E+04  0.12699999809E+01 0. -1.
</event>
<event>
 5   0  0.7954459E-05  0.2227807E+04  0.7818609E-02  0.8506943E-01
        1   -1    0    0  501    0  0.00000000000E+00  0.00000000000E+00  0.16098289882E+04  0.16098289882E+04  0.50400001928E-02 0.  1.
       -1   -1    0    0    0  501  0.00000000000E+00  0.00000000000E+00 -0.77075299131E+03  0.77075299133E+03  0.50400001928E-02 0. -1.
    10030    2    1    2    0    0  0.00000000000E+00  0.00000000000E+00  0.83907599690E+03  0.23805819796E+04  0.22278065519E+04 0.  0.
        5    1    3    3  502    0 -0.53304497180E+03 -0.66285080788E+02  0.14622781218E+04  0.15578222137E+04  0.46999998093E+01 0.  1.
       -5    1    3    3    0  502  0.53304497180E+03  0.66285080788E+02 -0.62320212489E+03  0.82275976589E+03  0.46999998093E+01 0. -1.
</event>
<event>
 5   0  0.1798917E-04  0.2030858E+04  0.7818609E-02  0.8592328E-01
        2   -1    0    0  501    0  0.00000000000E+00  0.00000000000E+00  0.82411207036E+03  0.82411207036E+03  0.25500000920E-02 0. -1.
       -2   -1    0    0    0  501  0.00000000000E+00  0.00000000000E+00 -0.12511597663E+04  0.12511597663E+04  0.25500000920E-02 0.  1.
    10030    2    1    2    0    0  0.00000000000E+00  0.00000000000E+00 -0.42704769598E+03  0.20752718367E+04  0.20308578142E+04 0.  0.
        4    1    3    3  502    0  0.49350183664E+03  0.87400749629E+03 -0.56338227949E+02  0.10052903934E+04  0.12699999809E+01 0. -1.
       -4    1    3    3    0  502 -0.49350183664E+03 -0.87400749629E+03 -0.37070946803E+03  0.10699814433E+04  0.12699999809E+01 0.  1.
</event>
<event>
 5   0  0.7954459E-05  0.2212331E+04  0.7818609E-02  0.8513313E-01
        1   -1    0    0  501    0  0.00000000000E+00  0.00000000000E+00  0.21013064297E+04  0.21013064297E+04  0.50400001928E-02 0.  1.
       -1   -1    0    0    0  501  0.00000000000E+00  0.00000000000E+00 -0.58230520864E+03  0.58230520866E+03  0.50400001928E-02 0. -1.
    10030    2    1    2    0    0  0.00000000000E+00  0.00000000000E+00  0.15190012211E+04  0.26836116384E+04  0.22123306073E+04 0.  0.
        5    1    3    3  502    0 -0.12300727934E+03 -0.41500340316E+03 -0.47529713552E+03  0.64287484974E+03  0.46999998093E+01 0. -1.
       -5    1    3    3    0  502  0.12300727934E+03  0.41500340316E+03  0.19942983566E+04  0.20407367887E+04  0.46999998093E+01 0.  1.
</event>
<event>
 5   0  0.1754356E-04  0.1208550E+04  0.7818609E-02  0.9105406E-01
       -2   -1    0    0    0  501  0.00000000000E+00  0.00000000000E+00  0.15061144053E+03  0.15061144055E+03  0.25500000920E-02 0.  1.
        2   -1    0    0  501    0  0.00000000000E+00  0.00000000000E+00 -0.24244391232E+04  0.24244391232E+04  0.25500000920E-02 0. -1.
    10030    2    1    2    0    0  0.00000000000E+00  0.00000000000E+00 -0.22738276827E+04  0.25750505638E+04  0.12085499888E+04 0.  0.
        1    1    3    3  502    0  0.58374316427E+03 -0.15242008403E+03 -0.10643354696E+04  0.12234369439E+04  0.50400001928E-02 0.  1.
       -1    1    3    3    0  502 -0.58374316427E+03  0.15242008403E+03 -0.12094922131E+04  0.13516136199E+04  0.50400001928E-02 0. -1.
</event>
<event>
 5   0  0.7954459E-05  0.2317835E+04  0.7818609E-02  0.8470922E-01
       -1   -1    0    0    0  501  0.00000000000E+00  0.00000000000E+00  0.68808608628E+03  0.68808608630E+03  0.50400001928E-02 0.  1.
        1   -1    0    0  501    0  0.00000000000E+00  0.00000000000E+00 -0.19519213970E+04  0.19519213970E+04  0.50400001928E-02 0. -1.
    10030    2    1    2    0    0  0.00000000000E+00  0.00000000000E+00 -0.12638353108E+04  0.26400074833E+04  0.23178351579E+04 0.  0.
        5    1    3    3  502    0 -0.61012183573E+03  0.97581843967E+03 -0.78724605484E+03  0.13943631960E+04  0.46999998093E+01 0. -1.
       -5    1    3    3    0  502  0.61012183573E+03 -0.97581843967E+03 -0.47658925592E+03  0.12456442873E+04  0.46999998093E+01 0.  1.
</event>
<event>
 5   0  0.8602414E-05  0.2269315E+04  0.7818609E-02  0.8490119E-01
       -1   -1    0    0    0  501  0.00000000000E+00  0.00000000000E+00  0.86641962822E+03  0.86641962823E+03  0.50400001928E-02 0.  1.
        1   -1    0    0  501    0  0.00000000000E+00  0.00000000000E+00 -0.14859399156E+04  0.14859399156E+04  0.50400001928E-02 0. -1.
    10030    2    1    2    0    0  0.00000000000E+00  0.00000000000E+00 -0.61952028737E+03  0.23523595438E+04  0.22693148827E+04 0.  0.
        3    1    3    3  502    0  0.39150569418E+03  0.36095074297E+02 -0.14130727563E+04  0.14667495314E+04  0.10100000352E+00 0. -1.
       -3    1    3    3    0  502 -0.39150569418E+03 -0.36095074297E+02  0.79355246895E+03  0.88561001245E+03  0.10100000352E+00 0.  1.
</event>
<event>
 5   0  0.8602414E-05  0.1258868E+04  0.7818609E-02  0.9062835E-01
       -1   -1    0    0    0  501  0.00000000000E+00  0.00000000000E+00  0.48188320950E+03  0.48188320953E+03  0.50400001928E-02 0.  1.
        1   -1    0    0  501    0  0.00000000000E+00  0.00000000000E+00 -0.82216438169E+03  0.82216438170E+03  0.50400001928E-02 0. -1.
    10030    2    1    2    0    0  0.00000000000E+00  0.00000000000E+00 -0.34028117218E+03  0.13040475912E+04  0.12588680805E+04 0.  0.
        3    1    3    3  502    0 -0.14694608002E+03  0.35993996562E+03  0.34263730682E+03  0.51821835505E+03  0.10100000352E+00 0.  1.
       -3    1    3    3    0  502  0.14694608002E+03 -0.35993996562E+03 -0.68291847900E+03  0.78582923619E+03  0.10100000352E+00 0. -1.
</event>
<event>
 5   0  0.6250625E-05  0.1117703E+04  0.7818609E-02  0.9188107E-01
        3   -1    0    0  501    0  0.00000000000E+00  0.00000000000E+00  0.29742977349E+03  0.29742979064E+03  0.10100000352E+00 0.  1.
       -3   -1    0    0    0  501  0.00000000000E+00  0.00000000000E+00 -0.10500469169E+04  0.10500469217E+04  0.10100000352E+00 0. -1.
    10030    2    1    2    0    0  0.00000000000E+00  0.00000000000E+00 -0.75261714339E+03  0.13474767124E+04  0.11177034159E+04 0.  0.
        2    1    3    3  502    0  0.55005951915E+03 -0.98162071625E+02 -0.38917860211E+03  0.68092675910E+03  0.25500000920E-02 0.  1.
       -2    1    3    3    0  502 -0.55005951915E+03  0.98162071625E+02 -0.36343854129E+03  0.66654995328E+03  0.25500000920E-02 0. -1.
</event>
<event>
 5   0  0.1798917E-04  0.2183877E+04  0.7818609E-02  0.8525169E-01
       -2   -1    0    0    0  501  0.00000000000E+00  0.00000000000E+00  0.83153924853E+03  0.83153924853E+03  0.25500000920E-02 0.  1.
        2   -1    0    0  501    0  0.00000000000E+00  0.00000000000E+00 -0.14338823439E+04  0.14338823439E+04  0.25500000920E-02 0. -1.
    10030    2    1    2    0    0  0.00000000000E+00  0.00000000000E+00 -0.60234309539E+03  0.22654215925E+04  0.21838767793E+04 0.  0.
        4    1    3    3  502    0 -0.92394986538E+03 -0.57674476353E+03 -0.38159016811E+03  0.11540929535E+04  0.12699999809E+01 0. -1.
       -4    1    3    3    0  502  0.92394986538E+03  0.57674476353E+03 -0.22075292729E+03  0.11113286390E+04  0.12699999809E+01 0.  1.
</event>
<event>
 5   0  0.1733962E-04  0.1615995E+04  0.7818609E-02  0.8810782E-01
        2   -1    0    0  501    0  0.00000000000E+00  0.00000000000E+00  0.23339893120E+04  0.23339893120E+04  0.25500000920E-02 0. -1.
       -2   -1    0    0    0  501  0.00000000000E+00  0.00000000000E+00 -0.27971845245E+03  0.27971845246E+03  0.25500000920E-02 0.  1.
    10030    2    1    2    0    0  0.00000000000E+00  0.00000000000E+00  0.20542708596E+04  0.26137077645E+04  0.16159948990E+04 0.  0.
        3    1    3    3  502    0 -0.41006233966E+03 -0.66013494734E+03  0.13849082136E+04  0.15880491307E+04  0.10100000352E+00 0. -1.
       -3    1    3    3    0  502  0.41006233966E+03  0.66013494734E+03  0.66936264595E+03  0.10256586338E+04  0.10100000352E+00 0.  1.
</event>
<event>
 5   0  0.1805501E-04  0.2205015E+04  0.7818609E-02  0.8516344E-01
        2   -1    0    0  501    0  0.00000000000E+00  0.00000000000E+00  0.10999468186E+04  0.10999468186E+04  0.25500000920E-02 0. -1.
       -2   -1    0    0    0  501  0.00000000000E+00  0.00000000000E+00 -0.11050742478E+04  0.11050742478E+04  0.25500000920E-02 0.  1.
    10030    2    1    2    0    0  0.00000000000E+00  0.00000000000E+00 -0.51274292505E+01  0.22050210664E+04  0.22050151049E+04 0.  0.
        2    1    3    3  502    0 -0.41725485011E+03  0.10839340420E+03  0.10121666589E+04  0.11001509375E+04  0.25500000920E-02 0. -1.
       -2    1    3    3    0  502  0.41725485011E+03 -0.10839340420E+03 -0.10172940881E+04  0.11048701289E+04  0.25500000920E-02 0.  1.
</event>
<event>
 5   0  0.1754356E-04  0.2230645E+04  0.7818609E-02  0.8505780E-01
       -2   -1    0    0    0  501  0.00000000000E+00  0.00000000000E+00  0.48476478522E+03  0.48476478522E+03  0.25500000920E-02 0. -1.
        2   -1    0    0  501    0  0.00000000000E+00  0.00000000000E+00 -0.25660774765E+04  0.25660774765E+04  0.25500000920E-02 0.  1.
    10030    2    1    2    0    0  0.00000000000E+00  0.00000000000E+00 -0.20813126913E+04  0.30508422618E+04  0.22306447470E+04 0.  0.
        1    1    3    3  502    0 -0.92741613818E+03 -0.60119370973E+03 -0.83591539396E+03  0.13857449678E+04  0.50400001928E-02 0.  1.
       -1    1    3    3    0  502  0.92741613818E+03  0.60119370973E+03 -0.12453972974E+04  0.16650972939E+04  0.50400001928E-02 0. -1.
</event>
<event>
 5   0  0.1680258E-04  0.1531082E+04  0.7818609E-02  0.8864043E-01
       -2   -1    0    0    0  501  0.00000000000E+00  0.00000000000E+00  0.16101337121E+04  0.16101337121E+04  0.25500000920E-02 0.  1.
        2   -1    0    0  501    0  0.00000000000E+00  0.00000000000E+00 -0.36397804396E+03  0.36397804397E+03  0.25500000920E-02 0. -1.
    10030    2    1    2    0    0  0.00000000000E+00  0.00000000000E+00  0.12461556682E+04  0.19741117561E+04  0.15310823871E+04 0.  0.
        5    1    3    3  502    0  0.50521133143E+03  0.48785885415E+03  0.23032844389E+03  0.73913329856E+03  0.46999998093E+01 0. -1.
       -5    1    3    3    0  502 -0.50521133143E+03 -0.48785885415E+03  0.10158272243E+04  0.12349784575E+04  0.46999998093E+01 0.  1.
</event>
<event>
 5   0  0.1733962E-04  0.2172016E+04  0.7818609E-02  0.8530167E-01
       -2   -1    0    0    0  501  0.00000000000E+00  0.00000000000E+00  0.84867197536E+03  0.84867197536E+03  0.25500000920E-02 0. -1.
        2   -1    0    0  501    0  0.00000000000E+00  0.00000000000E+00 -0.13897163131E+04  0.13897163131E+04  0.25500000920E-02 0.  1.
    10030    2    1    2    0    0  0.00000000000E+00  0.00000000000E+00 -0.54104433778E+03  0.22383882885E+04  0.21720159195E+04 0.  0.
        3    1    3    3  502    0  0.54324008002E+03 -0.74342807951E+03 -0.86398235648E+03  0.12626403354E+04  0.10100000352E+00 0.  1.
       -3    1    3    3    0  502 -0.54324008002E+03  0.74342807951E+03  0.32293801870E+03  0.97574795315E+03  0.10100000352E+00 0. -1.
</event>
<event>
 5   0  0.8602414E-05  0.2218569E+04  0.7818609E-02  0.8510739E-01
        1   -1    0    0  501    0  0.00000000000E+00  0.00000000000E+00  0.11141720434E+04  0.11141720434E+04  0.50400001928E-02 0. -1.
       -1   -1    0    0    0  501  0.00000000000E+00  0.00000000000E+00 -0.11044181684E+04  0.11044181684E+04  0.50400001928E-02 0.  1.
    10030    2    1    2    0    0  0.00000000000E+00  0.00000000000E+00  0.97538750165E+01  0.22185902119E+04  0.22185687707E+04 0.  0.
        3    1    3    3  502    0 -0.33131675179E+03 -0.10564652596E+04  0.72864377324E+02  0.11095940079E+04  0.10100000352E+00 0.  1.
       -3    1    3    3    0  502  0.33131675179E+03  0.10564652596E+04 -0.63110502307E+02  0.11089962040E+04  0.10100000352E+00 0. -1.
</event>
<event>
 5   0  0.8602414E-05  0.1495265E+04  0.7818609E-02  0.8887608E-01
        1   -1    0    0  501    0  0.00000000000E+00  0.00000000000E+00  0.88863999872E+03  0.88863999874E+03  0.50400001928E-02 0. -1.
       -1   -1    0    0    0  501  0.00000000000E+00  0.00000000000E+00 -0.62900000905E+03  0.62900000907E+03  0.50400001928E-02 0.  1.
    10030    2    1    2    0    0  0.00000000000E+00  0.00000000000E+00  0.25963998968E+03  0.15176400078E+04  0.14952652838E+04 0.  0.
        3    1    3    3  502    0 -0.52102081102E+03  0.42336874854E+02  0.67232684557E+03  0.85163283989E+03  0.10100000352E+00 0. -1.
       -3    1    3    3    0  502  0.52102081102E+03 -0.42336874854E+02 -0.41268685589E+03  0.66600716792E+03  0.10100000352E+00 0.  1.
</event>
<event>
 5   0  0.7954459E-05  0.1915728E+04  0.7818609E-02  0.8647067E-01
       -1   -1    0    0    0  501  0.00000000000E+00  0.00000000000E+00  0.47325697455E+03  0.47325697458E+03  0.50400001928E-02 0.  1.
        1   -1    0    0  501    0  0.00000000000E+00  0.00000000000E+00 -0.19386996203E+04  0.19386996203E+04  0.50400001928E-02 0. -1.
    10030    2    1    2    0    0  0.00000000000E+00  0.00000000000E+00 -0.14654426457E+04  0.24119565949E+04  0.19157276601E+04 0.  0.
        5    1    3    3  502    0  0.11206293826E+03 -0.82400185992E+03 -0.13311825101E+04  0.15695878862E+04  0.46999998093E+01 0. -1.
       -5    1    3    3    0  502 -0.11206293826E+03  0.82400185992E+03 -0.13426013558E+03  0.84236870864E+03  0.46999998093E+01 0.  1.
</event>
<event>
 5   0  0.8602414E-05  0.2258252E+04  0.7818609E-02  0.8494566E-01
       -1   -1    0    0    0  501  0.00000000000E+00  0.00000000000E+00  0.11177205737E+04  0.11177205738E+04  0.50400001928E-02 0.  1.
        1   -1    0    0  501    0  0.00000000000E+00  0.00000000000E+00 -0.11406477181E+04  0.11406477181E+04  0.50400001928E-02 0. -1.
    10030    2    1    2    0    0  0.00000000000E+00  0.00000000000E+00 -0.22927144348E+02  0.22583682919E+04  0.22582519097E+04 0.  0.
        3    1    3    3  502    0  0.54096188903E+03 -0.33296585920E+03 -0.94501014567E+03  0.11386615891E+04  0.10100000352E+00 0. -1.
       -3    1    3    3    0  502 -0.54096188903E+03  0.33296585920E+03  0.92208300133E+03  0.11197067028E+04  0.10100000352E+00 0.  1.
</event>
<event>
 5   0  0.1805501E-04  0.2038980E+04  0.7818609E-02  0.8588610E-01
       -2   -1    0    0    0  501  0.00000000000E+00  0.00000000000E+00  0.15157476567E+04  0.15157476567E+04  0.25500000920E-02 0. -1.
        2   -1    0    0  501    0  0.00000000000E+00  0.00000000000E+00 -0.68570781040E+03  0.68570781040E+03  0.25500000920E-02 0.  1.
    10030    2    1    2    0    0  0.00000000000E+00  0.00000000000E+00  0.83003984632E+03  0.22014554671E+04  0.20389801439E+04 0.  0.
        2    1    3    3  502    0 -0.58886716672E+03  0.91083490188E+01 -0.48346484300E+03  0.76196178151E+03  0.25500000920E-02 0.  1.
       -2    1    3    3    0  502  0.58886716672E+03 -0.91083490188E+01  0.13135046893E+04  0.14394936856E+04  0.25500000920E-02 0. -1.
</event>
<event>
 5   0  0.1733962E-04  0.1987095E+04  0.7818609E-02  0.8612678E-01
        2   -1    0    0  501    0  0.00000000000E+00  0.00000000000E+00  0.20576659834E+04  0.20576659834E+04  0.25500000920E-02 0. -1.
       -2   -1    0    0    0  501  0.00000000000E+00  0.00000000000E+00 -0.47973611042E+03  0.47973611042E+03  0.25500000920E-02 0.  1.
    10030    2    1    2    0    0  0.00000000000E+00  0.00000000000E+00  0.15779298730E+04  0.25374020938E+04  0.19870950409E+04 0.  0.
        3    1    3    3  502    0 -0.84757187384E+03 -0.32102080252E+03  0.26916353086E+03  0.94545304142E+03  0.10100000352E+00 0.  1.
       -3    1    3    3    0  502  0.84757187384E+03  0.32102080252E+03  0.13087663421E+04  0.15919490524E+04  0.10100000352E+00 0. -1.
</event>
<event>
 5   0  0.8602414E-05  0.2297037E+04  0.7818609E-02  0.8479090E-01
       -1   -1    0    0    0  501  0.00000000000E+00  0.00000000000E+00  0.83728776522E+03  0.83728776524E+03  0.50400001928E-02 0. -1.
        1   -1    0    0  501    0  0.00000000000E+00  0.00000000000E+00 -0.15754374575E+04  0.15754374575E+04  0.50400001928E-02 0.  1.
    10030    2    1    2    0    0  0.00000000000E+00  0.00000000000E+00 -0.73814969229E+03  0.24127252228E+04  0.22970367938E+04 0.  0.
        3    1    3    3  502    0  0.53363728108E+03 -0.86781821295E+03  0.18793250807E+03  0.10359516573E+04  0.10100000352E+00 0. -1.
       -3    1    3    3    0  502 -0.53363728108E+03  0.86781821295E+03 -0.92608220036E+03  0.13767735654E+04  0.10100000352E+00 0.  1.
</event>
<event>
 5   0  0.8470971E-05  0.2050272E+04  0.7818609E-02  0.8583471E-01
        1   -1    0    0  501    0  0.00000000000E+00  0.00000000000E+00  0.10851056561E+04  0.10851056561E+04  0.50400001928E-02 0.  1.
       -1   -1    0    0    0  501  0.00000000000E+00  0.00000000000E+00 -0.96848109126E+03  0.96848109128E+03  0.50400001928E-02 0. -1.
    10030    2    1    2    0    0  0.00000000000E+00  0.00000000000E+00  0.11662456480E+03  0.20535867473E+04  0.20502724794E+04 0.  0.
        2    1    3    3  502    0 -0.31376874824E+03  0.44445173848E+03  0.92857589365E+03  0.10762162262E+04  0.25500000920E-02 0.  1.
       -2    1    3    3    0  502  0.31376874824E+03 -0.44445173848E+03 -0.81195132886E+03  0.97737052117E+03  0.25500000920E-02 0. -1.
</event>
<event>
 5   0  0.1805501E-04  0.2183344E+04  0.7818609E-02  0.8525393E-01
       -2   -1    0    0    0  501  0.00000000000E+00  0.00000000000E+00  0.14647221578E+04  0.14647221578E+04  0.25500000920E-02 0. -1.
        2   -1    0    0  501    0  0.00000000000E+00  0.00000000000E+00 -0.81363385104E+03  0.81363385105E+03  0.25500000920E-02 0.  1.
    10030    2    1    2    0    0  0.00000000000E+00  0.00000000000E+00  0.65108830677E+03  0.22783560089E+04  0.21833437933E+04 0.  0.
        2    1    3    3  502    0  0.93962924963E+03 -0.39771228722E+03  0.73059720021E+03  0.12549304599E+04  0.25500000920E-02 0. -1.
       -2    1    3    3    0  502 -0.93962924963E+03  0.39771228722E+03 -0.79508893439E+02  0.10234255490E+04  0.25500000920E-02 0.  1.
</event>
<event>
 5   0  0.8784659E-05  0.2231323E+04  0.7818609E-02  0.8505503E-01
        1   -1    0    0  501    0  0.00000000000E+00  0.00000000000E+00  0.10549325551E+04  0.10549325551E+04  0.50400001928E-02 0. -1.
       -1   -1    0    0    0  501  0.00000000000E+00  0.00000000000E+00 -0.11798863888E+04  0.11798863888E+04  0.50400001928E-02 0.  1.
    10030    2    1    2    0    0  0.00000000000E+00  0.00000000000E+00 -0.12495383371E+03  0.22348189439E+04  0.22313229824E+04 0.  0.
        4    1    3    3  502    0 -0.28644825080E+03  0.18867030714E+03 -0.11257662843E+04  0.11768604101E+04  0.12699999809E+01 0.  1.
       -4    1    3    3    0  502  0.28644825080E+03 -0.18867030714E+03  0.10008124506E+04  0.10579585338E+04  0.12699999809E+01 0. -1.
</event>
<event>
 5   0  0.1754356E-04  0.2191902E+04  0.7818609E-02  0.8521806E-01
        2   -1    0    0  501    0  0.00000000000E+00  0.00000000000E+00  0.41622209705E+03  0.41622209706E+03  0.25500000920E-02 0. -1.
       -2   -1    0    0    0  501  0.00000000000E+00  0.00000000000E+00 -0.28857403332E+04  0.28857403332E+04  0.25500000920E-02 0.  1.
    10030    2    1    2    0    0  0.00000000000E+00  0.00000000000E+00 -0.24695182362E+04  0.33019624303E+04  0.21919022725E+04 0.  0.
        1    1    3    3  502    0 -0.66984306079E+03 -0.86633879497E+03 -0.11695065863E+04  0.16021792313E+04  0.50400001928E-02 0.  1.
       -1    1    3    3    0  502  0.66984306079E+03  0.86633879497E+03 -0.13000116499E+04  0.16997831990E+04  0.50400001928E-02 0. -1.
</event>
<event>
 5   0  0.8784659E-05  0.2188534E+04  0.7818609E-02  0.8523216E-01
        1   -1    0    0  501    0  0.00000000000E+00  0.00000000000E+00  0.96109481382E+03  0.96109481383E+03  0.50400001928E-02 0.  1.
       -1   -1    0    0    0  501  0.00000000000E+00  0.00000000000E+00 -0.12458914084E+04  0.12458914084E+04  0.50400001928E-02 0. -1.
    10030    2    1    2    0    0  0.00000000000E+00  0.00000000000E+00 -0.28479659461E+03  0.22069862223E+04  0.21885335467E+04 0.  0.
        4    1    3    3  502    0 -0.63285820742E+03 -0.27876008318E+03 -0.99760617997E+03  0.12138518847E+04  0.12699999809E+01 0. -1.
       -4    1    3    3    0  502  0.63285820742E+03  0.27876008318E+03  0.71280958536E+03  0.99313433761E+03  0.12699999809E+01 0.  1.
</event>
<event>
 5   0  0.8602414E-05  0.2209147E+04  0.7818609E-02  0.8514631E-01
        1   -1    0    0  501    0  0.00000000000E+00  0.00000000000E+00  0.12976770847E+04  0.12976770847E+04  0.50400001928E-02 0. -1.
       -1   -1    0    0    0  501  0.00000000000E+00  0.00000000000E+00 -0.94020511197E+03  0.94020511198E+03  0.50400001928E-02 0.  1.
    10030    2    1    2    0    0  0.00000000000E+00  0.00000000000E+00  0.35747197269E+03  0.22378821966E+04  0.22091470107E+04 0.  0.
        3    1    3    3  502    0  0.20140004317E+03  0.19025651920E+03 -0.90443518433E+03  0.94591888307E+03  0.10100000352E+00 0.  1.
       -3    1    3    3    0  502 -0.20140004317E+03 -0.19025651920E+03  0.12619071570E+04  0.12919633136E+04  0.10100000352E+00 0. -1.
</event>
<event>
 5   0  0.8470971E-05  0.2203649E+04  0.7818609E-02  0.8516911E-01
        1   -1    0    0  501    0  0.00000000000E+00  0.00000000000E+00  0.17310571618E+04  0.17310571618E+04  0.50400001928E-02 0. -1.
       -1   -1    0    0    0  501  0.00000000000E+00  0.00000000000E+00 -0.70131536761E+03  0.70131536762E+03  0.50400001928E-02 0.  1.
    10030    2    1    2    0    0  0.00000000000E+00  0.00000000000E+00  0.10297417942E+04  0.24323725294E+04  0.22036487831E+04 0.  0.
        2    1    3    3  502    0 -0.94708191121E+03  0.52756586479E+03  0.73208859624E+03  0.13081450994E+04  0.25500000920E-02 0.  1.
       -2    1    3    3    0  502  0.94708191121E+03 -0.52756586479E+03  0.29765319793E+03  0.11242274301E+04  0.25500000920E-02 0. -1.
</event>
<event>
 5   0  0.1754356E-04  0.2031795E+04  0.7818609E-02  0.8591898E-01
       -2   -1    0    0    0  501  0.00000000000E+00  0.00000000000E+00  0.71381384482E+03  0.71381384483E+03  0.25500000920E-02 0. -1.
        2   -1    0    0  501    0  0.00000000000E+00  0.00000000000E+00 -0.14458214394E+04  0.14458214394E+04  0.25500000920E-02 0.  1.
    10030    2    1    2    0    0  0.00000000000E+00  0.00000000000E+00 -0.73200759461E+03  0.21596352843E+04  0.20317946359E+04 0.  0.
        1    1    3    3  502    0  0.13405463625E+03 -0.33386395187E+03  0.64383268104E+03  0.73753393485E+03  0.50400001928E-02 0. -1.
       -1    1    3    3    0  502 -0.13405463625E+03  0.33386395187E+03 -0.13758402756E+04  0.14221013494E+04  0.50400001928E-02 0.  1.
</event>
<event>
 5   0  0.1680258E-04  0.2204231E+04  0.7818609E-02  0.8516669E-01
        2   -1    0    0  501    0  0.00000000000E+00  0.00000000000E+00  0.16768229055E+04  0.16768229055E+04  0.25500000920E-02 0.  1.
       -2   -1    0    0    0  501  0.00000000000E+00  0.00000000000E+00 -0.72438097824E+03  0.72438097825E+03  0.25500000920E-02 0. -1.
    10030    2    1    2    0    0  0.00000000000E+00  0.00000000000E+00  0.95244192724E+03  0.24012038837E+04  0.22042310375E+04 0.  0.
        5    1    3    3  502    0 -0.69103981849E+02 -0.71025314072E+03 -0.43871385856E+03  0.83769136553E+03  0.46999998093E+01 0. -1.
       -5    1    3    3    0  502  0.69103981849E+02  0.71025314072E+03  0.13911557858E+04  0.15635125182E+04  0.46999998093E+01 0.  1.
</event>
<event>
 5   0  0.7954459E-05  0.2203737E+04  0.7818609E-02  0.8516874E-01
        1   -1    0    0  501    0  0.00000000000E+00  0.00000000000E+00  0.15721626919E+04  0.15721626919E+04  0.50400001928E-02 0.  1.
       -1   -1    0    0    0  501  0.00000000000E+00  0.00000000000E+00 -0.77225757456E+03  0.77225757458E+03  0.50400001928E-02 0. -1.
    10030    2    1    2    0    0  0.00000000000E+00  0.00000000000E+00  0.79990511734E+03  0.23444202665E+04  0.22037373231E+04 0.  0.
        5    1    3    3  502    0  0.82100902973E+01  0.27696011261E+03 -0.73457911380E+03  0.78511328736E+03  0.46999998093E+01 0. -1.
       -5    1    3    3    0  502 -0.82100902973E+01 -0.27696011261E+03  0.15344842311E+04  0.15593069791E+04  0.46999998093E+01 0.  1.
</event>
<event>
 5   0  0.1798917E-04  0.2216891E+04  0.7818609E-02  0.8511430E-01
       -2   -1    0    0    0  501  0.00000000000E+00  0.00000000000E+00  0.10112604510E+04  0.10112604510E+04  0.25500000920E-02 0. -1.
        2   -1    0    0  501    0  0.00000000000E+00  0.00000000000E+00 -0.12149706751E+04  0.12149706751E+04  0.25500000920E-02 0.  1.
    10030    2    1    2    0    0  0.00000000000E+00  0.00000000000E+00 -0.20371022410E+03  0.22262311261E+04  0.22168913305E+04 0.  0.
        4    1    3    3  502    0 -0.91556908330E+02 -0.76379643800E+03 -0.90326649754E+03  0.11864483321E+04  0.12699999809E+01 0.  1.
       -4    1    3    3    0  502  0.91556908330E+02  0.76379643800E+03  0.69955627344E+03  0.10397827940E+04  0.12699999809E+01 0. -1.
</event>
<event>
 5   0  0.8306787E-05  0.2076173E+04  0.7818609E-02  0.8571813E-01
        1   -1    0    0  501    0  0.00000000000E+00  0.00000000000E+00  0.11407888503E+04  0.11407888503E+04  0.50400001928E-02 0.  1.
       -1   -1    0    0    0  501  0.00000000000E+00  0.00000000000E+00 -0.94463010973E+03  0.94463010974E+03  0.50400001928E-02 0. -1.
    10030    2    1    2    0    0  0.00000000000E+00  0.00000000000E+00  0.19615874061E+03  0.20854189601E+04  0.20761729185E+04 0.  0.
        1    1    3    3  502    0 -0.51836715537E+03  0.22914288427E+02 -0.80503201288E+03  0.95776099010E+03  0.50400001928E-02 0. -1.
       -1    1    3    3    0  502  0.51836715537E+03 -0.22914288427E+02  0.10011907535E+04  0.11276579700E+04  0.50400001928E-02 0.  1.
</event>
<event>
 5   0  0.7954459E-05  0.2186049E+04  0.7818609E-02  0.8524257E-01
       -1   -1    0    0    0  501  0.00000000000E+00  0.00000000000E+00  0.86126812589E+03  0.86126812591E+03  0.50400001928E-02 0.  1.
        1   -1    0    0  501    0  0.00000000000E+00  0.00000000000E+00 -0.13871433270E+04  0.13871433270E+04  0.50400001928E-02 0. -1.
    10030    2    1    2    0    0  0.00000000000E+00  0.00000000000E+00 -0.52587520106E+03  0.22484114529E+04  0.21860487950E+04 0.  0.
        5    1    3    3  502    0 -0.31720738235E+03 -0.36385633334E+03  0.74568474345E+03  0.88830162745E+03  0.46999998093E+01 0.  1.
       -5    1    3    3    0  502  0.31720738235E+03  0.36385633334E+03 -0.12715599445E+04  0.13601098254E+04  0.46999998093E+01 0. -1.
</event>
<event>
 5   0  0.8470971E-05  0.2154205E+04  0.7818609E-02  0.8537734E-01
       -1   -1    0    0    0  501  0.00000000000E+00  0.00000000000E+00  0.12057988180E+04  0.12057988180E+04  0.50400001928E-02 0.  1.
        1   -1    0    0  501    0  0.00000000000E+00  0.00000000000E+00 -0.96214243482E+03  0.96214243484E+03  0.50400001928E-02 0. -1.
    10030    2    1    2    0    0  0.00000000000E+00  0.00000000000E+00  0.24365638317E+03  0.21679412528E+04  0.21542053854E+04 0.  0.
        2    1    3    3  502    0 -0.42227500153E+03 -0.78225436108E+03 -0.49025393706E+03  0.10151783021E+04  0.25500000920E-02 0. -1.
       -2    1    3    3    0  502  0.42227500153E+03  0.78225436108E+03  0.73391032023E+03  0.11527629507E+04  0.25500000920E-02 0.  1.
</event>
<event>
 5   0  0.8470971E-05  0.2026161E+04  0.7818609E-02  0.8594486E-01
       -1   -1    0    0    0  501  0.00000000000E+00  0.00000000000E+00  0.10687839043E+04  0.10687839043E+04  0.50400001928E-02 0. -1.
        1   -1    0    0  501    0  0.00000000000E+00  0.00000000000E+00 -0.96028007887E+03  0.96028007889E+03  0.50400001928E-02 0.  1.
    10030    2    1    2    0    0  0.00000000000E+00  0.00000000000E+00  0.10850382542E+03  0.20290639832E+04  0.20261607951E+04 0.  0.
        2    1    3    3  502    0 -0.31818591780E+03 -0.93878383819E+03 -0.15527148324E+03  0.10033277663E+04  0.25500000920E-02 0. -1.
       -2    1    3    3    0  502  0.31818591780E+03  0.93878383819E+03  0.26377530866E+03  0.10257362169E+04  0.25500000920E-02 0.  1.
</event>
<event>
 5   0  0.6250625E-05  0.2137848E+04  0.7818609E-02  0.8544752E-01
        3   -1    0    0  501    0  0.00000000000E+00  0.00000000000E+00  0.98261225101E+03  0.98261225620E+03  0.10100000352E+00 0. -1.
       -3   -1    0    0    0  501  0.00000000000E+00  0.00000000000E+00 -0.11628176782E+04  0.11628176826E+04  0.10100000352E+00 0.  1.
    10030    2    1    2    0    0  0.00000000000E+00  0.00000000000E+00 -0.18020542723E+03  0.21454299388E+04  0.21378483637E+04 0.  0.
        2    1    3    3  502    0 -0.21830836568E+03 -0.34661517837E+03 -0.10809228329E+04  0.11559389236E+04  0.25500000920E-02 0.  1.
       -2    1    3    3    0  502  0.21830836568E+03  0.34661517837E+03  0.90071740565E+03  0.98949101524E+03  0.25500000920E-02 0. -1.
</event>
<event>
 5   0  0.7954459E-05  0.2215004E+04  0.7818609E-02  0.8512209E-01
       -1   -1    0    0    0  501  0.00000000000E+00  0.00000000000E+00  0.61199755950E+03  0.61199755952E+03  0.50400001928E-02 0.  1.
        1   -1    0    0  501    0  0.00000000000E+00  0.00000000000E+00 -0.20041918280E+04  0.20041918280E+04  0.50400001928E-02 0. -1.
    10030    2    1    2    0    0  0.00000000000E+00  0.00000000000E+00 -0.13921942685E+04  0.26161893876E+04  0.22150038443E+04 0.  0.
        5    1    3    3  502    0 -0.10848741117E+04 -0.20546466752E+03 -0.59469351102E+03  0.12541331787E+04  0.46999998093E+01 0. -1.
       -5    1    3    3    0  502  0.10848741117E+04  0.20546466752E+03 -0.79750075751E+03  0.13620562089E+04  0.46999998093E+01 0.  1.
</event>
<event>
 5   0  0.8470971E-05  0.2157040E+04  0.7818609E-02  0.8536525E-01
       -1   -1    0    0    0  501  0.00000000000E+00  0.00000000000E+00  0.10478146822E+04  0.10478146822E+04  0.50400001928E-02 0. -1.
        1   -1    0    0  501    0  0.00000000000E+00  0.00000000000E+00 -0.11101248736E+04  0.11101248736E+04  0.50400001928E-02 0.  1.
    10030    2    1    2    0    0  0.00000000000E+00  0.00000000000E+00 -0.62310191449E+02  0.21579395558E+04  0.21570397694E+04 0.  0.
        2    1    3    3  502    0 -0.36692444504E+03  0.54167576054E+03  0.82661668005E+03  0.10542017424E+04  0.25500000920E-02 0. -1.
       -2    1    3    3    0  502  0.36692444504E+03 -0.54167576054E+03 -0.88892687150E+03  0.11037378134E+04  0.25500000920E-02 0.  1.
</event>
<event>
 5   0  0.8470971E-05  0.2222334E+04  0.7818609E-02  0.8509189E-01
        1   -1    0    0  501    0  0.00000000000E+00  0.00000000000E+00  0.21922015426E+04  0.21922015426E+04  0.50400001928E-02 0. -1.
       -1   -1    0    0    0  501  0.00000000000E+00  0.00000000000E+00 -0.56322023855E+03  0.56322023857E+03  0.50400001928E-02 0.  1.
    10030    2    1    2    0    0  0.00000000000E+00  0.00000000000E+00  0.16289813040E+04  0.27554217811E+04  0.22223341565E+04 0.  0.
        2    1    3    3  502    0 -0.51554001336E+03  0.71806812232E+03 -0.20278300800E+02  0.88420277264E+03  0.25500000920E-02 0.  1.
       -2    1    3    3    0  502  0.51554001336E+03 -0.71806812232E+03  0.16492596048E+04  0.18712190085E+04  0.25500000920E-02 0. -1.
</event>
<event>
 5   0  0.6250625E-05  0.1728849E+04  0.7818609E-02  0.8745079E-01
       -4   -1    0    0    0  501  0.00000000000E+00  0.00000000000E+00  0.98338573736E+03  0.98338655743E+03  0.12699999809E+01 0.  1.
        4   -1    0    0  501    0  0.00000000000E+00  0.00000000000E+00 -0.75985278657E+03  0.75985384789E+03  0.12699999809E+01 0. -1.
    10030    2    1    2    0    0  0.00000000000E+00  0.00000000000E+00  0.22353295079E+03  0.17432404053E+04  0.17288493661E+04 0.  0.
        1    1    3    3  502    0  0.24560319141E+03  0.47279003372E+03 -0.57461911373E+03  0.78360606781E+03  0.50400001928E-02 0. -1.
       -1    1    3    3    0  502 -0.24560319141E+03 -0.47279003372E+03  0.79815206452E+03  0.95963433752E+03  0.50400001928E-02 0.  1.
</event>
<event>
 5   0  0.1754356E-04  0.2146559E+04  0.7818609E-02  0.8541007E-01
        2   -1    0    0  501    0  0.00000000000E+00  0.00000000000E+00  0.14357959905E+04  0.14357959905E+04  0.25500000920E-02 0. -1.
       -2   -1    0    0    0  501  0.00000000000E+00  0.00000000000E+00 -0.80229286784E+03  0.80229286784E+03  0.25500000920E-02 0.  1.
    10030    2    1    2    0    0  0.00000000000E+00  0.00000000000E+00  0.63350312263E+03  0.22380888583E+04  0.21465589979E+04 0.  0.
        1    1    3    3  502    0  0.78116687391E+03  0.53968122513E+03  0.83854210511E+03  0.12667400569E+04  0.50400001928E-02 0. -1.
       -1    1    3    3    0  502 -0.78116687391E+03 -0.53968122513E+03 -0.20503898248E+03  0.97134880142E+03  0.50400001928E-02 0.  1.
</event>
<event>
 5   0  0.7954459E-05  0.2207364E+04  0.7818609E-02  0.8515369E-01
       -1   -1    0    0    0  501  0.00000000000E+00  0.00000000000E+00  0.54536300847E+03  0.54536300850E+03  0.50400001928E-02 0.  1.
        1   -1    0    0  501    0  0.00000000000E+00  0.00000000000E+00 -0.22335831811E+04  0.22335831811E+04  0.50400001928E-02 0. -1.
    10030    2    1    2    0    0  0.00000000000E+00  0.00000000000E+00 -0.16882201726E+04  0.27789461896E+04  0.22073637157E+04 0.  0.
        5    1    3    3  502    0  0.77379772089E+03  0.61768078548E+03 -0.23019072495E+03  0.10165147935E+04  0.46999998093E+01 0. -1.
       -5    1    3    3    0  502 -0.77379772089E+03 -0.61768078548E+03 -0.14580294477E+04  0.17624313961E+04  0.46999998093E+01 0.  1.
</event>
<event>
 5   0  0.8470971E-05  0.2214356E+04  0.7818609E-02  0.8512477E-01
        1   -1    0    0  501    0  0.00000000000E+00  0.00000000000E+00  0.15590968743E+04  0.15590968743E+04  0.50400001928E-02 0.  1.
       -1   -1    0    0    0  501  0.00000000000E+00  0.00000000000E+00 -0.78625170206E+03  0.78625170208E+03  0.50400001928E-02 0. -1.
    10030    2    1    2    0    0  0.00000000000E+00  0.00000000000E+00  0.77284517224E+03  0.23453485764E+04  0.22143555009E+04 0.  0.
        2    1    3    3  502    0 -0.21337696454E+01 -0.85569783937E+02  0.15555871425E+04  0.15579403386E+04  0.25500000920E-02 0.  1.
       -2    1    3    3    0  502  0.21337696454E+01  0.85569783937E+02 -0.78274197024E+03  0.78740823775E+03  0.25500000920E-02 0. -1.
</event>
<event>
 5   0  0.8306787E-05  0.2230818E+04  0.7818609E-02  0.8505709E-01
        1   -1    0    0  501    0  0.00000000000E+00  0.00000000000E+00  0.17235157271E+04  0.17235157271E+04  0.50400001928E-02 0. -1.
       -1   -1    0    0    0  501  0.00000000000E+00  0.00000000000E+00 -0.72186011668E+03  0.72186011670E+03  0.50400001928E-02 0.  1.
    10030    2    1    2    0    0  0.00000000000E+00  0.00000000000E+00  0.10016556104E+04  0.24453758438E+04  0.22308180238E+04 0.  0.
        1    1    3    3  502    0 -0.43411836040E+03  0.86765116868E+03 -0.10242924367E+03  0.97558651658E+03  0.50400001928E-02 0.  1.
       -1    1    3    3    0  502  0.43411836040E+03 -0.86765116868E+03  0.11040848541E+04  0.14697893272E+04  0.50400001928E-02 0. -1.
</event>
<event>
 5   0  0.1680258E-04  0.2246134E+04  0.7818609E-02  0.8499468E-01
       -2   -1    0    0    0  501  0.00000000000E+00  0.00000000000E+00  0.55230061495E+03  0.55230061496E+03  0.25500000920E-02 0. -1.
        2   -1    0    0  501    0  0.00000000000E+00  0.00000000000E+00 -0.22836830300E+04  0.22836830300E+04  0.25500000920E-02 0.  1.
    10030    2    1    2    0    0  0.00000000000E+00  0.00000000000E+00 -0.17313824150E+04  0.28359836450E+04  0.22461340493E+04 0.  0.
        5    1    3    3  502    0  0.55749101372E+03  0.52410712720E+03  0.17223971162E+03  0.78432972621E+03  0.46999998093E+01 0. -1.
       -5    1    3    3    0  502 -0.55749101372E+03 -0.52410712720E+03 -0.19036221267E+04  0.20516539187E+04  0.46999998093E+01 0.  1.
</event>
<event>
 5   0  0.1680258E-04  0.2214842E+04  0.7818609E-02  0.8512276E-01
        2   -1    0    0  501    0  0.00000000000E+00  0.00000000000E+00  0.19624643323E+04  0.19624643323E+04  0.25500000920E-02 0.  1.
       -2   -1    0    0    0  501  0.00000000000E+00  0.00000000000E+00 -0.62491882936E+03  0.62491882936E+03  0.25500000920E-02 0. -1.
    10030    2    1    2    0    0  0.00000000000E+00  0.00000000000E+00  0.13375455029E+04  0.25873831616E+04  0.22148416767E+04 0.  0.
        5    1    3    3  502    0 -0.39198943000E+03 -0.20221050995E+03 -0.51786667196E+03  0.68025935017E+03  0.46999998093E+01 0. -1.
       -5    1    3    3    0  502  0.39198943000E+03  0.20221050995E+03  0.18554121749E+04  0.19071238114E+04  0.46999998093E+01 0.  1.
</event>
<event>
 5   0  0.1798917E-04  0.2192643E+04  0.7818609E-02  0.8521496E-01
       -2   -1    0    0    0  501  0.00000000000E+00  0.00000000000E+00  0.75291547082E+03  0.75291547082E+03  0.25500000920E-02 0.  1.
        2   -1    0    0  501    0  0.00000000000E+00  0.00000000000E+00 -0.15963558788E+04  0.15963558788E+04  0.25500000920E-02 0. -1.
    10030    2    1    2    0    0  0.00000000000E+00  0.00000000000E+00 -0.84344040793E+03  0.23492713496E+04  0.21926431885E+04 0.  0.
        4    1    3    3  502    0  0.43317055680E+03  0.21676066339E+03 -0.14754888024E+04  0.15529619233E+04  0.12699999809E+01 0. -1.
       -4    1    3    3    0  502 -0.43317055680E+03 -0.21676066339E+03  0.63204839446E+03  0.79630942623E+03  0.12699999809E+01 0.  1.
</event>
<event>
 5   0  0.7954459E-05  0.2163598E+04  0.7818609E-02  0.8533734E-01
        1   -1    0    0  501    0  0.00000000000E+00  0.00000000000E+00  0.14134154684E+04  0.14134154684E+04  0.50400001928E-02 0.  1.
       -1   -1    0    0    0  501  0.00000000000E+00  0.00000000000E+00 -0.82798655005E+03  0.82798655007E+03  0.50400001928E-02 0. -1.
    10030    2    1    2    0    0  0.00000000000E+00  0.00000000000E+00  0.58542891839E+03  0.22414020185E+04  0.21635979271E+04 0.  0.
        5    1    3    3  502    0  0.69654329990E+03  0.57329159393E+02 -0.56269520969E+03  0.89727765499E+03  0.46999998093E+01 0. -1.
       -5    1    3    3    0  502 -0.69654329990E+03 -0.57329159393E+02  0.11481241281E+04  0.13441243635E+04  0.46999998093E+01 0.  1.
</event>
<event>
 5   0  0.1805501E-04  0.2211122E+04  0.7818609E-02  0.8513813E-01
       -2   -1    0    0    0  501  0.00000000000E+00  0.00000000000E+00  0.77240685899E+03  0.77240685900E+03  0.25500000920E-02 0. -1.
        2   -1    0    0  501    0  0.00000000000E+00  0.00000000000E+00 -0.15824106328E+04  0.15824106328E+04  0.25500000920E-02 0.  1.
    10030    2    1    2    0    0  0.00000000000E+00  0.00000000000E+00 -0.81000377382E+03  0.23548174918E+04  0.22111217303E+04 0.  0.
        2    1    3    3  502    0  0.22933444008E+02  0.48801682307E+03 -0.14612090438E+04  0.15407200369E+04  0.25500000920E-02 0.  1.
       -2    1    3    3    0  502 -0.22933444008E+02 -0.48801682307E+03  0.65120526997E+03  0.81409745491E+03  0.25500000920E-02 0. -1.
</event>
<event>
 5   0  0.8470971E-05  0.2139776E+04  0.7818609E-02  0.8543921E-01
       -1   -1    0    0    0  501  0.00000000000E+00  0.00000000000E+00  0.12924615623E+04  0.12924615623E+04  0.50400001928E-02 0.  1.
        1   -1    0    0  501    0  0.00000000000E+00  0.00000000000E+00 -0.88564397017E+03  0.88564397019E+03  0.50400001928E-02 0. -1.
    10030    2    1    2    0    0  0.00000000000E+00  0.00000000000E+00  0.40681759208E+03  0.21781055325E+04  0.21397764269E+04 0.  0.
        2    1    3    3  502    0  0.22294291227E+03  0.41821824275E+02  0.12677036350E+04  0.12878373785E+04  0.25500000920E-02 0.  1.
       -2    1    3    3    0  502 -0.22294291227E+03 -0.41821824275E+02 -0.86088604293E+03  0.89026815400E+03  0.25500000920E-02 0. -1.
</event>
<event>
 5   0  0.1805501E-04  0.2207518E+04  0.7818609E-02  0.8515306E-01
        2   -1    0    0  501    0  0.00000000000E+00  0.00000000000E+00  0.11862024148E+04  0.11862024148E+04  0.25500000920E-02 0.  1.
       -2   -1    0    0    0  501  0.00000000000E+00  0.00000000000E+00 -0.10270453000E+04  0.10270453000E+04  0.25500000920E-02 0. -1.
    10030    2    1    2    0    0  0.00000000000E+00  0.00000000000E+00  0.15915711477E+03  0.22132477149E+04  0.22075177146E+04 0.  0.
        2    1    3    3  502    0 -0.24474068909E+03  0.44626675740E+03 -0.90236734879E+03  0.10360110307E+04  0.25500000920E-02 0. -1.
       -2    1    3    3    0  502  0.24474068909E+03 -0.44626675740E+03  0.10615244636E+04  0.11772366841E+04  0.25500000920E-02 0.  1.
</event>
<event>
 5   0  0.7954459E-05  0.2185706E+04  0.7818609E-02  0.8524401E-01
        1   -1    0    0  501    0  0.00000000000E+00  0.00000000000E+00  0.11209171644E+04  0.11209171644E+04  0.50400001928E-02 0.  1.
       -1   -1    0    0    0  501  0.00000000000E+00  0.00000000000E+00 -0.10654915448E+04  0.10654915448E+04  0.50400001928E-02 0. -1.
    10030    2    1    2    0    0  0.00000000000E+00  0.00000000000E+00  0.55425619603E+02  0.21864087092E+04  0.21857060746E+04 0.  0.
        5    1    3    3  502    0 -0.46667910430E+03  0.36414770876E+02 -0.96012186006E+03  0.10681626740E+04  0.46999998093E+01 0. -1.
       -5    1    3    3    0  502  0.46667910430E+03 -0.36414770876E+02  0.10155474797E+04  0.11182460353E+04  0.46999998093E+01 0.  1.
</event>
<event>
 5   0  0.1798917E-04  0.2170205E+04  0.7818609E-02  0.8530933E-01
        2   -1    0    0  501    0  0.00000000000E+00  0.00000000000E+00  0.18233620120E+04  0.18233620120E+04  0.25500000920E-02 0.  1.
       -2   -1    0    0    0  501  0.00000000000E+00  0.00000000000E+00 -0.64575627786E+03  0.64575627787E+03  0.25500000920E-02 0. -1.
    10030    2    1    2    0    0  0.00000000000E+00  0.00000000000E+00  0.11776057341E+04  0.24691182898E+04  0.21702050281E+04 0.  0.
        4    1    3    3  502    0  0.44630270244E+03  0.95319429997E+03  0.88913125044E+03  0.13777958735E+04  0.12699999809E+01 0.  1.
       -4    1    3    3    0  502 -0.44630270244E+03 -0.95319429997E+03  0.28847448366E+03  0.10913224163E+04  0.12699999809E+01 0. -1.
</event>
<event>
 5   0  0.8306787E-05  0.2253668E+04  0.7818609E-02  0.8496416E-01
       -1   -1    0    0    0  501  0.00000000000E+00  0.00000000000E+00  0.12702320739E+04  0.12702320739E+04  0.50400001928E-02 0.  1.
        1   -1    0    0  501    0  0.00000000000E+00  0.00000000000E+00 -0.99962436874E+03  0.99962436875E+03  0.50400001928E-02 0. -1.
    10030    2    1    2    0    0  0.00000000000E+00  0.00000000000E+00  0.27060770517E+03  0.22698564427E+04  0.22536680635E+04 0.  0.
        1    1    3    3  502    0 -0.74917664338E+03 -0.70885267505E+03 -0.32184765543E+03  0.10804275409E+04  0.50400001928E-02 0. -1.
       -1    1    3    3    0  502  0.74917664338E+03  0.70885267505E+03  0.59245536060E+03  0.11894289017E+04  0.50400001928E-02 0.  1.
</event>
<event>
 5   0  0.7954459E-05  0.2197041E+04  0.7818609E-02  0.8519661E-01
       -1   -1    0    0    0  501  0.00000000000E+00  0.00000000000E+00  0.76023946203E+03  0.76023946205E+03  0.50400001928E-02 0.  1.
        1   -1    0    0  501    0  0.00000000000E+00  0.00000000000E+00 -0.15873257668E+04  0.15873257668E+04  0.50400001928E-02 0. -1.
    10030    2    1    2    0    0  0.00000000000E+00  0.00000000000E+00 -0.82708630476E+03  0.23475652288E+04  0.21970413624E+04 0.  0.
        5    1    3    3  502    0  0.28637693267E+03 -0.59386540181E+03 -0.13523985313E+04  0.15045569914E+04  0.46999998093E+01 0. -1.
       -5    1    3    3    0  502 -0.28637693267E+03  0.59386540181E+03  0.52531222652E+03  0.84300823742E+03  0.46999998093E+01 0.  1.
</event>
<event>
 5   0  0.8306787E-05  0.2226322E+04  0.7818609E-02  0.8507552E-01
       -1   -1    0    0    0  501  0.00000000000E+00  0.00000000000E+00  0.74043733158E+03  0.74043733159E+03  0.50400001928E-02 0.  1.
        1   -1    0    0  501    0  0.00000000000E+00  0.00000000000E+00 -0.16735075120E+04  0.16735075120E+04  0.50400001928E-02 0. -1.
    10030    2    1    2    0    0  0.00000000000E+00  0.00000000000E+00 -0.93307018042E+03  0.24139448436E+04  0.22263220222E+04 0.  0.
        1    1    3    3  502    0  0.76660502793E+03  0.38896466548E+03  0.30027846616E+03  0.91057341116E+03  0.50400001928E-02 0.  1.
       -1    1    3    3    0  502 -0.76660502793E+03 -0.38896466548E+03 -0.12333486466E+04  0.15033714324E+04  0.50400001928E-02 0. -1.
</event>
<event>
 5   0  0.1805501E-04  0.1900894E+04  0.7818609E-02  0.8654411E-01
        2   -1    0    0  501    0  0.00000000000E+00  0.00000000000E+00  0.93889390072E+03  0.93889390072E+03  0.25500000920E-02 0. -1.
       -2   -1    0    0    0  501  0.00000000000E+00  0.00000000000E+00 -0.96214275822E+03  0.96214275822E+03  0.25500000920E-02 0.  1.
    10030    2    1    2    0    0  0.00000000000E+00  0.00000000000E+00 -0.23248857496E+02  0.19010366589E+04  0.19008944919E+04 0.  0.
        2    1    3    3  502    0  0.56903876080E+03 -0.70693631797E+03 -0.29410953119E+03  0.95397300030E+03  0.25500000920E-02 0.  1.
       -2    1    3    3    0  502 -0.56903876080E+03  0.70693631797E+03  0.27086067369E+03  0.94706365864E+03  0.25500000920E-02 0. -1.
</event>
<event>
 5   0  0.1733962E-04  0.2032300E+04  0.7818609E-02  0.8591667E-01
        2   -1    0    0  501    0  0.00000000000E+00  0.00000000000E+00  0.10005177408E+04  0.10005177408E+04  0.25500000920E-02 0. -1.
       -2   -1    0    0    0  501  0.00000000000E+00  0.00000000000E+00 -0.10320264500E+04  0.10320264500E+04  0.25500000920E-02 0.  1.
    10030    2    1    2    0    0  0.00000000000E+00  0.00000000000E+00 -0.31508709157E+02  0.20325441908E+04  0.20322999505E+04 0.  0.
        3    1    3    3  502    0 -0.76052769274E+03 -0.31431033046E+03 -0.61195300226E+03  0.10255144282E+04  0.10100000352E+00 0.  1.
       -3    1    3    3    0  502  0.76052769274E+03  0.31431033046E+03  0.58044429310E+03  0.10070297626E+04  0.10100000352E+00 0. -1.
</event>
<event>
 5   0  0.7954459E-05  0.2211591E+04  0.7818609E-02  0.8513619E-01
       -1   -1    0    0    0  501  0.00000000000E+00  0.00000000000E+00  0.42805855539E+03  0.42805855542E+03  0.50400001928E-02 0. -1.
        1   -1    0    0  501    0  0.00000000000E+00  0.00000000000E+00 -0.28565811573E+04  0.28565811573E+04  0.50400001928E-02 0.  1.
    10030    2    1    2    0    0  0.00000000000E+00  0.00000000000E+00 -0.24285226019E+04  0.32846397127E+04  0.22115912856E+04 0.  0.
        5    1    3    3  502    0  0.98670253913E+03 -0.15098571245E+03 -0.50761012020E+03  0.11198520930E+04  0.46999998093E+01 0.  1.
       -5    1    3    3    0  502 -0.98670253913E+03  0.15098571245E+03 -0.19209124817E+04  0.21647876197E+04  0.46999998093E+01 0. -1.
</event>
<event>
 5   0  0.1680258E-04  0.2204774E+04  0.7818609E-02  0.8516444E-01
        2   -1    0    0  501    0  0.00000000000E+00  0.00000000000E+00  0.99746247510E+03  0.99746247510E+03  0.25500000920E-02 0.  1.
       -2   -1    0    0    0  501  0.00000000000E+00  0.00000000000E+00 -0.12183491647E+04  0.12183491647E+04  0.25500000920E-02 0. -1.
    10030    2    1    2    0    0  0.00000000000E+00  0.00000000000E+00 -0.22088668956E+03  0.22158116398E+04  0.22047744314E+04 0.  0.
        5    1    3    3  502    0  0.18993449841E+03  0.10831201090E+04 -0.18836339629E+03  0.11156734035E+04  0.46999998093E+01 0. -1.
       -5    1    3    3    0  502 -0.18993449841E+03 -0.10831201090E+04 -0.32523293272E+02  0.11001382362E+04  0.46999998093E+01 0.  1.
</event>
<event>
 5   0  0.1680258E-04  0.1321892E+04  0.7818609E-02  0.9012383E-01
       -2   -1    0    0    0  501  0.00000000000E+00  0.00000000000E+00  0.62900679180E+03  0.62900679181E+03  0.25500000920E-02 0. -1.
        2   -1    0    0  501    0  0.00000000000E+00  0.00000000000E+00 -0.69450690914E+03  0.69450690915E+03  0.25500000920E-02 0.  1.
    10030    2    1    2    0    0  0.00000000000E+00  0.00000000000E+00 -0.65500117338E+02  0.13235137010E+04  0.13218919212E+04 0.  0.
        5    1    3    3  502    0 -0.18430741580E+03 -0.60568076907E+03  0.15724327227E+03  0.65235416317E+03  0.46999998093E+01 0. -1.
       -5    1    3    3    0  502  0.18430741580E+03  0.60568076907E+03 -0.22274338961E+03  0.67115953778E+03  0.46999998093E+01 0.  1.
</event>
<event>
 5   0  0.1680258E-04  0.2200550E+04  0.7818609E-02  0.8518199E-01
        2   -1    0    0  501    0  0.00000000000E+00  0.00000000000E+00  0.85090661170E+03  0.85090661170E+03  0.25500000920E-02 0. -1.
       -2   -1    0    0    0  501  0.00000000000E+00  0.00000000000E+00 -0.14227237918E+04  0.14227237918E+04  0.25500000920E-02 0.  1.
    10030    2    1    2    0    0  0.00000000000E+00  0.00000000000E+00 -0.57181718013E+03  0.22736304035E+04  0.22005500050E+04 0.  0.
        5    1    3    3  502    0 -0.11107605411E+03 -0.33855626839E+03  0.78963517010E+03  0.86631635591E+03  0.46999998093E+01 0. -1.
       -5    1    3    3    0  502  0.11107605411E+03  0.33855626839E+03 -0.13614523502E+04  0.14073140476E+04  0.46999998093E+01 0.  1.
</event>
<event>
 5   0  0.8306787E-05  0.2159277E+04  0.7818609E-02  0.8535572E-01
        1   -1    0    0  501    0  0.00000000000E+00  0.00000000000E+00  0.90305981982E+03  0.90305981984E+03  0.50400001928E-02 0. -1.
       -1   -1    0    0    0  501  0.00000000000E+00  0.00000000000E+00 -0.12907443371E+04  0.12907443371E+04  0.50400001928E-02 0.  1.
    10030    2    1    2    0    0  0.00000000000E+00  0.00000000000E+00 -0.38768451724E+03  0.21938041569E+04  0.21592770535E+04 0.  0.
        1    1    3    3  502    0 -0.20703793983E+03  0.10466188710E+04 -0.25839210035E+02  0.10672129284E+04  0.50400001928E-02 0. -1.
       -1    1    3    3    0  502  0.20703793983E+03 -0.10466188710E+04 -0.36184530720E+03  0.11265912285E+04  0.50400001928E-02 0.  1.
</event>
<event>
 5   0  0.1798917E-04  0.2131652E+04  0.7818609E-02  0.8547427E-01
        2   -1    0    0  501    0  0.00000000000E+00  0.00000000000E+00  0.10386440959E+04  0.10386440960E+04  0.25500000920E-02 0.  1.
       -2   -1    0    0    0  501  0.00000000000E+00  0.00000000000E+00 -0.10937197431E+04  0.10937197431E+04  0.25500000920E-02 0. -1.
    10030    2    1    2    0    0  0.00000000000E+00  0.00000000000E+00 -0.55075647145E+02  0.21323638390E+04  0.21316524612E+04 0.  0.
        4    1    3    3  502    0  0.99984208283E+02 -0.65346520648E+03  0.80878563261E+03  0.10445809832E+04  0.12699999809E+01 0.  1.
       -4    1    3    3    0  502 -0.99984208283E+02  0.65346520648E+03 -0.86386127975E+03  0.10877828559E+04  0.12699999809E+01 0. -1.
</event>
<event>
 5   0  0.8306787E-05  0.2220585E+04  0.7818609E-02  0.8509909E-01
       -1   -1    0    0    0  501  0.00000000000E+00  0.00000000000E+00  0.64834777238E+03  0.64834777239E+03  0.50400001928E-02 0.  1.
        1   -1    0    0  501    0  0.00000000000E+00  0.00000000000E+00 -0.19013707138E+04  0.19013707138E+04  0.50400001928E-02 0. -1.
    10030    2    1    2    0    0  0.00000000000E+00  0.00000000000E+00 -0.12530229414E+04  0.25497184862E+04  0.22205850281E+04 0.  0.
        1    1    3    3  502    0 -0.92362031209E+03 -0.49214676647E+03 -0.20079217411E+03  0.10656455404E+04  0.50400001928E-02 0.  1.
       -1    1    3    3    0  502  0.92362031209E+03  0.49214676647E+03 -0.10522307673E+04  0.14840729458E+04  0.50400001928E-02 0. -1.
</event>
<event>
 5   0  0.8602414E-05  0.2187671E+04  0.7818609E-02  0.8523577E-01
        1   -1    0    0  501    0  0.00000000000E+00  0.00000000000E+00  0.17330009416E+04  0.17330009416E+04  0.50400001928E-02 0. -1.
       -1   -1    0    0    0  501  0.00000000000E+00  0.00000000000E+00 -0.69040726341E+03  0.69040726343E+03  0.50400001928E-02 0.  1.
    10030    2    1    2    0    0  0.00000000000E+00  0.00000000000E+00  0.10425936782E+04  0.24234082051E+04  0.21876713077E+04 0.  0.
        3    1    3    3  502    0  0.93769759033E+03  0.18375876015E+03 -0.68454900683E+02  0.95798232577E+03  0.10100000352E+00 0.  1.
       -3    1    3    3    0  502 -0.93769759033E+03 -0.18375876015E+03  0.11110485789E+04  0.14654258793E+04  0.10100000352E+00 0. -1.
</event>
<event>
 5   0  0.8470971E-05  0.2160809E+04  0.7818609E-02  0.8534920E-01
       -1   -1    0    0    0  501  0.00000000000E+00  0.00000000000E+00  0.55039762237E+03  0.55039762239E+03  0.50400001928E-02 0. -1.
        1   -1    0    0  501    0  0.00000000000E+00  0.00000000000E+00 -0.21207828390E+04  0.21207828390E+04  0.50400001928E-02 0.  1.
    10030    2    1    2    0    0  0.00000000000E+00  0.00000000000E+00 -0.15703852166E+04  0.26711804614E+04  0.21608089524E+04 0.  0.
        2    1    3    3  502    0 -0.68812149698E+03 -0.68392280082E+03 -0.13728887489E+04  0.16810964009E+04  0.25500000920E-02 0.  1.
       -2    1    3    3    0  502  0.68812149698E+03  0.68392280082E+03 -0.19749646767E+03  0.99008406048E+03  0.25500000920E-02 0. -1.
</event>
<event>
 5   0  0.1798917E-04  0.2192617E+04  0.7818609E-02  0.8521507E-01
        2   -1    0    0  501    0  0.00000000000E+00  0.00000000000E+00  0.64061731722E+03  0.64061731723E+03  0.25500000920E-02 0. -1.
       -2   -1    0    0    0  501  0.00000000000E+00  0.00000000000E+00 -0.18761476951E+04  0.18761476951E+04  0.25500000920E-02 0.  1.
    10030    2    1    2    0    0  0.00000000000E+00  0.00000000000E+00 -0.12355303778E+04  0.25167650123E+04  0.21926173429E+04 0.  0.
        4    1    3    3  502    0 -0.18147318240E+03 -0.88435593012E+03  0.96178773206E+02  0.90789310846E+03  0.12699999809E+01 0. -1.
       -4    1    3    3    0  502  0.18147318240E+03  0.88435593012E+03 -0.13317091510E+04  0.16088719038E+04  0.12699999809E+01 0.  1.
</event>
<event>
 5   0  0.8784659E-05  0.2183479E+04  0.7818609E-02  0.8525336E-01
       -1   -1    0    0    0  501  0.00000000000E+00  0.00000000000E+00  0.17661034683E+04  0.17661034683E+04  0.50400001928E-02 0. -1.
        1   -1    0    0  501    0  0.00000000000E+00  0.00000000000E+00 -0.67487271503E+03  0.67487271505E+03  0.50400001928E-02 0.  1.
    10030    2    1    2    0    0  0.00000000000E+00  0.00000000000E+00  0.10912307533E+04  0.24409761834E+04  0.21834789147E+04 0.  0.
        4    1    3    3  502    0 -0.57434434384E+03 -0.74635863064E+03  0.11629827418E+04  0.14964802376E+04  0.12699999809E+01 0. -1.
       -4    1    3    3    0  502  0.57434434384E+03  0.74635863064E+03 -0.71751988542E+02  0.94449594577E+03  0.12699999809E+01 0.  1.
</event>
<event>
 5   0  0.8602414E-05  0.2203705E+04  0.7818609E-02  0.8516888E-01
        1   -1    0    0  501    0  0.00000000000E+00  0.00000000000E+00  0.16860626954E+04  0.16860626954E+04  0.50400001928E-02 0.  1.
       -1   -1    0    0    0  501  0.00000000000E+00  0.00000000000E+00 -0.72006731338E+03  0.72006731340E+03  0.50400001928E-02 0. -1.
    10030    2    1    2    0    0  0.00000000000E+00  0.00000000000E+00  0.96599538200E+03  0.24061300088E+04  0.22037047309E+04 0.  0.
        3    1    3    3  502    0 -0.29356595427E+03 -0.40297733258E+03 -0.58986312059E+03  0.77234073524E+03  0.10100000352E+00 0. -1.
       -3    1    3    3    0  502  0.29356595427E+03  0.40297733258E+03  0.15558585026E+04  0.16337892735E+04  0.10100000352E+00 0.  1.
</event>
<event>
 5   0  0.1754356E-04  0.2144107E+04  0.7818609E-02  0.8542059E-01
        2   -1    0    0  501    0  0.00000000000E+00  0.00000000000E+00  0.18928870361E+04  0.18928870361E+04  0.25500000920E-02 0.  1.
       -2   -1    0    0    0  501  0.00000000000E+00  0.00000000000E+00 -0.60716690455E+03  0.60716690456E+03  0.25500000920E-02 0. -1.
    10030    2    1    2    0    0  0.00000000000E+00  0.00000000000E+00  0.12857201315E+04  0.25000539406E+04  0.21441066787E+04 0.  0.
        1    1    3    3  502    0 -0.40640276839E+03 -0.55646181095E+03 -0.31475124646E+03  0.75754953922E+03  0.50400001928E-02 0. -1.
       -1    1    3    3    0  502  0.40640276839E+03  0.55646181095E+03  0.16004713780E+04  0.17425044014E+04  0.50400001928E-02 0.  1.
</event>
<event>
 5   0  0.1680258E-04  0.2180845E+04  0.7818609E-02  0.8526443E-01
       -2   -1    0    0    0  501  0.00000000000E+00  0.00000000000E+00  0.10441868073E+04  0.10441868073E+04  0.25500000920E-02 0.  1.
        2   -1    0    0  501    0  0.00000000000E+00  0.00000000000E+00 -0.11387055496E+04  0.11387055496E+04  0.25500000920E-02 0. -1.
    10030    2    1    2    0    0  0.00000000000E+00  0.00000000000E+00 -0.94518742319E+02  0.21828923569E+04  0.21808450768E+04 0.  0.
        5    1    3    3  502    0  0.39197163058E+03  0.10092683531E+04  0.82225334822E+02  0.10858395201E+04  0.46999998093E+01 0.  1.
       -5    1    3    3    0  502 -0.39197163058E+03 -0.10092683531E+04 -0.17674407714E+03  0.10970528367E+04  0.46999998093E+01 0. -1.
</event>
<event>
 5   0  0.8784659E-05  0.2133154E+04  0.7818609E-02  0.8546778E-01
        1   -1    0    0  501    0  0.00000000000E+00  0.00000000000E+00  0.96815775169E+03  0.96815775170E+03  0.50400001928E-02 0.  1.
       -1   -1    0    0    0  501  0.00000000000E+00  0.00000000000E+00 -0.11750014718E+04  0.11750014718E+04  0.50400001928E-02 0. -1.
    10030    2    1    2    0    0  0.00000000000E+00  0.00000000000E+00 -0.20684372011E+03  0.21431592235E+04  0.21331542684E+04 0.  0.
        4    1    3    3  502    0 -0.19494928963E+03  0.86207447750E+03  0.49637697063E+03  0.10136909490E+04  0.12699999809E+01 0.  1.
       -4    1    3    3    0  502  0.19494928963E+03 -0.86207447750E+03 -0.70322069074E+03  0.11294682745E+04  0.12699999809E+01 0. -1.
</event>
<event>
 5   0  0.1798917E-04  0.2201712E+04  0.7818609E-02  0.8517716E-01
        2   -1    0    0  501    0  0.00000000000E+00  0.00000000000E+00  0.88712579522E+03  0.88712579522E+03  0.25500000920E-02 0.  1.
       -2   -1    0    0    0  501  0.00000000000E+00  0.00000000000E+00 -0.13660795832E+04  0.13660795832E+04  0.25500000920E-02 0. -1.
    10030    2    1    2    0    0  0.00000000000E+00  0.00000000000E+00 -0.47895378796E+03  0.22532053784E+04  0.22017124577E+04 0.  0.
        4    1    3    3  502    0  0.64686038854E+03  0.18093721453E+03 -0.11320658477E+04  0.13163363303E+04  0.12699999809E+01 0. -1.
       -4    1    3    3    0  502 -0.64686038854E+03 -0.18093721453E+03  0.65311205976E+03  0.93686904815E+03  0.12699999809E+01 0.  1.
</event>
<event>
 5   0  0.1805501E-04  0.2178976E+04  0.7818609E-02  0.8527230E-01
       -2   -1    0    0    0  501  0.00000000000E+00  0.00000000000E+00  0.75804870743E+03  0.75804870744E+03  0.25500000920E-02 0.  1.
        2   -1    0    0  501    0  0.00000000000E+00  0.00000000000E+00 -0.15658421324E+04  0.15658421324E+04  0.25500000920E-02 0. -1.
    10030    2    1    2    0    0  0.00000000000E+00  0.00000000000E+00 -0.80779342494E+03  0.23238908398E+04  0.21789764611E+04 0.  0.
        2    1    3    3  502    0  0.71503928700E+03  0.75995164001E+03 -0.69726370314E+02  0.10457865192E+04  0.25500000920E-02 0. -1.
       -2    1    3    3    0  502 -0.71503928700E+03 -0.75995164001E+03 -0.73806705462E+03  0.12781043206E+04  0.25500000920E-02 0.  1.
</event>
<event>
 5   0  0.8306787E-05  0.2155100E+04  0.7818609E-02  0.8537352E-01
        1   -1    0    0  501    0  0.00000000000E+00  0.00000000000E+00  0.12377533108E+04  0.12377533109E+04  0.50400001928E-02 0.  1.
       -1   -1    0    0    0  501  0.00000000000E+00  0.00000000000E+00 -0.93808183105E+03  0.93808183106E+03  0.50400001928E-02 0. -1.
    10030    2    1    2    0    0  0.00000000000E+00  0.00000000000E+00  0.29967147980E+03  0.21758351419E+04  0.21550998977E+04 0.  0.
        1    1    3    3  502    0  0.14303053972E+03 -0.69036651203E+02 -0.92620010119E+03  0.93971826734E+03  0.50400001928E-02 0. -1.
       -1    1    3    3    0  502 -0.14303053972E+03  0.69036651203E+02  0.12258715810E+04  0.12361168746E+04  0.50400001928E-02 0.  1.
</event>
<event>
 5   0  0.1805501E-04  0.2203644E+04  0.7818609E-02  0.8516913E-01
        2   -1    0    0  501    0  0.00000000000E+00  0.00000000000E+00  0.19665299632E+04  0.19665299632E+04  0.25500000920E-02 0.  1.
       -2   -1    0    0    0  501  0.00000000000E+00  0.00000000000E+00 -0.61733726345E+03  0.61733726346E+03  0.25500000920E-02 0. -1.
    10030    2    1    2    0    0  0.00000000000E+00  0.00000000000E+00  0.13491926997E+04  0.25838672266E+04  0.22036444595E+04 0.  0.
        2    1    3    3  502    0 -0.57868863783E+03 -0.70420194386E+03 -0.51274170224E+02  0.91291289718E+03  0.25500000920E-02 0. -1.
       -2    1    3    3    0  502  0.57868863783E+03  0.70420194386E+03  0.14004668699E+04  0.16709543294E+04  0.25500000920E-02 0.  1.
</event>
<event>
 5   0  0.8470971E-05  0.2255363E+04  0.7818609E-02  0.8495732E-01
        1   -1    0    0  501    0  0.00000000000E+00  0.00000000000E+00  0.23472480786E+04  0.23472480786E+04  0.50400001928E-02 0.  1.
       -1   -1    0    0    0  501  0.00000000000E+00  0.00000000000E+00 -0.54176860731E+03  0.54176860733E+03  0.50400001928E-02 0. -1.
    10030    2    1    2    0    0  0.00000000000E+00  0.00000000000E+00  0.18054794712E+04  0.28890166859E+04  0.22553627846E+04 0.  0.
        2    1    3    3  502    0 -0.35332655183E+03 -0.10702037500E+04  0.95217866109E+03  0.14754050025E+04  0.25500000920E-02 0. -1.
       -2    1    3    3    0  502  0.35332655183E+03  0.10702037500E+04  0.85330081016E+03  0.14136116834E+04  0.25500000920E-02 0.  1.
</event>
<event>
 5   0  0.8784659E-05  0.2178053E+04  0.7818609E-02  0.8527619E-01
       -1   -1    0    0    0  501  0.00000000000E+00  0.00000000000E+00  0.55555502143E+03  0.55555502145E+03  0.50400001928E-02 0.  1.
        1   -1    0    0  501    0  0.00000000000E+00  0.00000000000E+00 -0.21347640264E+04  0.21347640264E+04  0.50400001928E-02 0. -1.
    10030    2    1    2    0    0  0.00000000000E+00  0.00000000000E+00 -0.15792090050E+04  0.26903190479E+04  0.21780531440E+04 0.  0.
        4    1    3    3  502    0  0.49235386919E+03 -0.90085566932E+03 -0.34079530884E+03  0.10817099079E+04  0.12699999809E+01 0.  1.
       -4    1    3    3    0  502 -0.49235386919E+03  0.90085566932E+03 -0.12384136962E+04  0.16086091400E+04  0.12699999809E+01 0. -1.
</event>
<event>
 5   0  0.1754356E-04  0.1658247E+04  0.7818609E-02  0.8785543E-01
        2   -1    0    0  501    0  0.00000000000E+00  0.00000000000E+00  0.82183163367E+03  0.82183163368E+03  0.25500000920E-02 0. -1.
       -2   -1    0    0    0  501  0.00000000000E+00  0.00000000000E+00 -0.83647969630E+03  0.83647969631E+03  0.25500000920E-02 0.  1.
    10030    2    1    2    0    0  0.00000000000E+00  0.00000000000E+00 -0.14648062630E+02  0.16583113300E+04  0.16582466347E+04 0.  0.
        1    1    3    3  502    0 -0.82629442290E+03 -0.62341190272E+02 -0.35548846017E+02  0.82940497816E+03  0.50400001928E-02 0. -1.
       -1    1    3    3    0  502  0.82629442290E+03  0.62341190272E+02  0.20900783387E+02  0.82890635182E+03  0.50400001928E-02 0.  1.
</event>
<event>
 5   0  0.1805501E-04  0.2183732E+04  0.7818609E-02  0.8525230E-01
       -2   -1    0    0    0  501  0.00000000000E+00  0.00000000000E+00  0.21715914000E+04  0.21715914000E+04  0.25500000920E-02 0.  1.
        2   -1    0    0  501    0  0.00000000000E+00  0.00000000000E+00 -0.54898534777E+03  0.54898534777E+03  0.25500000920E-02 0. -1.
    10030    2    1    2    0    0  0.00000000000E+00  0.00000000000E+00  0.16226060522E+04  0.27205767478E+04  0.21837324561E+04 0.  0.
        2    1    3    3  502    0 -0.68678272865E+03  0.50913236875E+03 -0.34845280751E+02  0.85562870386E+03  0.25500000920E-02 0. -1.
       -2    1    3    3    0  502  0.68678272865E+03 -0.50913236875E+03  0.16574513330E+04  0.18649480439E+04  0.25500000920E-02 0.  1.
</event>
<event>
 5   0  0.8306787E-05  0.2186788E+04  0.7818609E-02  0.8523948E-01
       -1   -1    0    0    0  501  0.00000000000E+00  0.00000000000E+00  0.98241893574E+03  0.98241893575E+03  0.50400001928E-02 0. -1.
        1   -1    0    0  501    0  0.00000000000E+00  0.00000000000E+00 -0.12169046119E+04  0.12169046119E+04  0.50400001928E-02 0.  1.
    10030    2    1    2    0    0  0.00000000000E+00  0.00000000000E+00 -0.23448567611E+03  0.21993235476E+04  0.21867877206E+04 0.  0.
        1    1    3    3  502    0 -0.96613130206E+03 -0.48725100705E+03  0.40778505491E+02  0.10828139837E+04  0.50400001928E-02 0. -1.
       -1    1    3    3    0  502  0.96613130206E+03  0.48725100705E+03 -0.27526418160E+03  0.11165095639E+04  0.50400001928E-02 0.  1.
</event>
<event>
 5   0  0.8470971E-05  0.2171786E+04  0.7818609E-02  0.8530264E-01
        1   -1    0    0  501    0  0.00000000000E+00  0.00000000000E+00  0.77248728938E+03  0.77248728939E+03  0.50400001928E-02 0. -1.
       -1   -1    0    0    0  501  0.00000000000E+00  0.00000000000E+00 -0.15264502208E+04  0.15264502208E+04  0.50400001928E-02 0.  1.
    10030    2    1    2    0    0  0.00000000000E+00  0.00000000000E+00 -0.75396293146E+03  0.22989375102E+04  0.21717858030E+04 0.  0.
        2    1    3    3  502    0 -0.39392062641E+03  0.67057337811E+03 -0.11791906505E+04  0.14125624607E+04  0.25500000920E-02 0.  1.
       -2    1    3    3    0  502  0.39392062641E+03 -0.67057337811E+03  0.42522771901E+03  0.88637504949E+03  0.25500000920E-02 0. -1.
</event>
<event>
 5   0  0.1754356E-04  0.2206258E+04  0.7818609E-02  0.8515828E-01
        2   -1    0    0  501    0  0.00000000000E+00  0.00000000000E+00  0.14814647503E+04  0.14814647503E+04  0.25500000920E-02 0.  1.
       -2   -1    0    0    0  501  0.00000000000E+00  0.00000000000E+00 -0.82141247601E+03  0.82141247601E+03  0.25500000920E-02 0. -1.
    10030    2    1    2    0    0  0.00000000000E+00  0.00000000000E+00  0.66005227429E+03  0.23028772263E+04  0.22062580345E+04 0.  0.
        1    1    3    3  502    0  0.88813716066E+03  0.64023844893E+03  0.47084441067E+03  0.11918000448E+04  0.50400001928E-02 0.  1.
       -1    1    3    3    0  502 -0.88813716066E+03 -0.64023844893E+03  0.18920786361E+03  0.11110771815E+04  0.50400001928E-02 0. -1.
</event>
<event>
 5   0  0.8470971E-05  0.2025265E+04  0.7818609E-02  0.8594899E-01
       -1   -1    0    0    0  501  0.00000000000E+00  0.00000000000E+00  0.66811108512E+03  0.66811108514E+03  0.50400001928E-02 0.  1.
        1   -1    0    0  501    0  0.00000000000E+00  0.00000000000E+00 -0.15348110761E+04  0.15348110761E+04  0.50400001928E-02 0. -1.
    10030    2    1    2    0    0  0.00000000000E+00  0.00000000000E+00 -0.86669999101E+03  0.22029221613E+04  0.20252647171E+04 0.  0.
        2    1    3    3  502    0  0.52630860199E+03  0.48578741425E+03 -0.12119894068E+04  0.14078027130E+04  0.25500000920E-02 0. -1.
       -2    1    3    3    0  502 -0.52630860199E+03 -0.48578741425E+03  0.34528941583E+03  0.79511944830E+03  0.25500000920E-02 0.  1.
</event>
<event>
 5   0  0.8602414E-05  0.1913779E+04  0.7818609E-02  0.8648028E-01
       -1   -1    0    0    0  501  0.00000000000E+00  0.00000000000E+00  0.66857735645E+03  0.66857735647E+03  0.50400001928E-02 0. -1.
        1   -1    0    0  501    0  0.00000000000E+00  0.00000000000E+00 -0.13695304914E+04  0.13695304914E+04  0.50400001928E-02 0.  1.
    10030    2    1    2    0    0  0.00000000000E+00  0.00000000000E+00 -0.70095313494E+03  0.20381078479E+04  0.19137785405E+04 0.  0.
        3    1    3    3  502    0 -0.90288955565E+02  0.82956146689E+03 -0.84920877310E+03  0.11905796376E+04  0.10100000352E+00 0. -1.
       -3    1    3    3    0  502  0.90288955565E+02 -0.82956146689E+03  0.14825563816E+03  0.84752821032E+03  0.10100000352E+00 0.  1.
</event>
<event>
 5   0  0.1754356E-04  0.2117811E+04  0.7818609E-02  0.8553438E-01
        2   -1    0    0  501    0  0.00000000000E+00  0.00000000000E+00  0.17203478729E+04  0.17203478729E+04  0.25500000920E-02 0.  1.
       -2   -1    0    0    0  501  0.00000000000E+00  0.00000000000E+00 -0.65177556992E+03  0.65177556992E+03  0.25500000920E-02 0. -1.
    10030    2    1    2    0    0  0.00000000000E+00  0.00000000000E+00  0.10685723029E+04  0.23721234428E+04  0.21178108653E+04 0.  0.
        1    1    3    3  502    0  0.10326528711E+04 -0.49820930842E+02  0.27782232517E+03  0.10705322609E+04  0.50400001928E-02 0. -1.
       -1    1    3    3    0  502 -0.10326528711E+04  0.49820930842E+02  0.79074997778E+03  0.13015911819E+04  0.50400001928E-02 0.  1.
</event>
<event>
 5   0  0.1798917E-04  0.2112277E+04  0.7818609E-02  0.8555855E-01
        2   -1    0    0  501    0  0.00000000000E+00  0.00000000000E+00  0.60383499055E+03  0.60383499056E+03  0.25500000920E-02 0.  1.
       -2   -1    0    0    0  501  0.00000000000E+00  0.00000000000E+00 -0.18472404902E+04  0.18472404902E+04  0.25500000920E-02 0. -1.
    10030    2    1    2    0    0  0.00000000000E+00  0.00000000000E+00 -0.12434054996E+04  0.24510754807E+04  0.21122769174E+04 0.  0.
        4    1    3    3  502    0 -0.45166868422E+02  0.51224950825E+03 -0.16921551320E+04  0.17685672756E+04  0.12699999809E+01 0. -1.
       -4    1    3    3    0  502  0.45166868422E+02 -0.51224950825E+03  0.44874963233E+03  0.68250820517E+03  0.12699999809E+01 0.  1.
</event>
<event>
 5   0  0.1798917E-04  0.2164026E+04  0.7818609E-02  0.8533552E-01
       -2   -1    0    0    0  501  0.00000000000E+00  0.00000000000E+00  0.40859335537E+03  0.40859335538E+03  0.25500000920E-02 0. -1.
        2   -1    0    0  501    0  0.00000000000E+00  0.00000000000E+00 -0.28653231495E+04  0.28653231495E+04  0.25500000920E-02 0.  1.
    10030    2    1    2    0    0  0.00000000000E+00  0.00000000000E+00 -0.24567297941E+04  0.32739165049E+04  0.21640258778E+04 0.  0.
        4    1    3    3  502    0 -0.83344026035E+03 -0.21138378429E+03 -0.23463655611E+03  0.89126971126E+03  0.12699999809E+01 0. -1.
       -4    1    3    3    0  502  0.83344026035E+03  0.21138378429E+03 -0.22220932380E+04  0.23826467936E+04  0.12699999809E+01 0.  1.
</event>
<event>
 5   0  0.1733962E-04  0.2171723E+04  0.7818609E-02  0.8530291E-01
        2   -1    0    0  501    0  0.00000000000E+00  0.00000000000E+00  0.13812974609E+04  0.13812974609E+04  0.25500000920E-02 0. -1.
       -2   -1    0    0    0  501  0.00000000000E+00  0.00000000000E+00 -0.85361442321E+03  0.85361442321E+03  0.25500000920E-02 0.  1.
    10030    2    1    2    0    0  0.00000000000E+00  0.00000000000E+00  0.52768303771E+03  0.22349118841E+04  0.21717232194E+04 0.  0.
        3    1    3    3  502    0  0.47763671017E+03  0.94184813577E+03  0.37412981741E+01  0.10560439126E+04  0.10100000352E+00 0.  1.
       -3    1    3    3    0  502 -0.47763671017E+03 -0.94184813577E+03  0.52394173954E+03  0.11788679716E+04  0.10100000352E+00 0. -1.
</event>
<event>
 5   0  0.8306787E-05  0.2265965E+04  0.7818609E-02  0.8491463E-01
        1   -1    0    0  501    0  0.00000000000E+00  0.00000000000E+00  0.14009461403E+04  0.14009461404E+04  0.50400001928E-02 0. -1.
       -1   -1    0    0    0  501  0.00000000000E+00  0.00000000000E+00 -0.91627317784E+03  0.91627317786E+03  0.50400001928E-02 0.  1.
    10030    2    1    2    0    0  0.00000000000E+00  0.00000000000E+00  0.48467296250E+03  0.23172193182E+04  0.22659650236E+04 0.  0.
        1    1    3    3  502    0  0.76348148310E+03  0.80696855901E+03  0.14709760722E+02  0.11109989232E+04  0.50400001928E-02 0. -1.
       -1    1    3    3    0  502 -0.76348148310E+03 -0.80696855901E+03  0.46996320178E+03  0.12062203950E+04  0.50400001928E-02 0.  1.
</event>
<event>
 5   0  0.1805501E-04  0.2192720E+04  0.7818609E-02  0.8521464E-01
       -2   -1    0    0    0  501  0.00000000000E+00  0.00000000000E+00  0.90139684831E+03  0.90139684832E+03  0.25500000920E-02 0. -1.
        2   -1    0    0  501    0  0.00000000000E+00  0.00000000000E+00 -0.13334922590E+04  0.13334922590E+04  0.25500000920E-02 0.  1.
    10030    2    1    2    0    0  0.00000000000E+00  0.00000000000E+00 -0.43209541065E+03  0.22348891073E+04  0.21927204286E+04 0.  0.
        2    1    3    3  502    0  0.59988569483E+03  0.84015512345E+03 -0.59231142929E+03  0.11901917104E+04  0.25500000920E-02 0.  1.
       -2    1    3    3    0  502 -0.59988569483E+03 -0.84015512345E+03  0.16021601864E+03  0.10446973968E+04  0.25500000920E-02 0. -1.
</event>
<event>
 5   0  0.1754356E-04  0.2164197E+04  0.7818609E-02  0.8533480E-01
       -2   -1    0    0    0  501  0.00000000000E+00  0.00000000000E+00  0.56071861265E+03  0.56071861265E+03  0.25500000920E-02 0.  1.
        2   -1    0    0  501    0  0.00000000000E+00  0.00000000000E+00 -0.20882791227E+04  0.20882791227E+04  0.25500000920E-02 0. -1.
    10030    2    1    2    0    0  0.00000000000E+00  0.00000000000E+00 -0.15275605100E+04  0.26489977353E+04  0.21641968233E+04 0.  0.
        1    1    3    3  502    0 -0.71621663382E+03  0.19162200408E+03 -0.17285387949E+04  0.18808326944E+04  0.50400001928E-02 0. -1.
       -1    1    3    3    0  502  0.71621663382E+03 -0.19162200408E+03  0.20097828487E+03  0.76816504088E+03  0.50400001928E-02 0.  1.
</event>
<event>
 5   0  0.8470971E-05  0.2239660E+04  0.7818609E-02  0.8502100E-01
        1   -1    0    0  501    0  0.00000000000E+00  0.00000000000E+00  0.18060817919E+04  0.18060817920E+04  0.50400001928E-02 0. -1.
       -1   -1    0    0    0  501  0.00000000000E+00  0.00000000000E+00 -0.69433117197E+03  0.69433117199E+03  0.50400001928E-02 0.  1.
    10030    2    1    2    0    0  0.00000000000E+00  0.00000000000E+00  0.11117506200E+04  0.25004129639E+04  0.22396596950E+04 0.  0.
        2    1    3    3  502    0 -0.54120291375E+03 -0.67564219357E+03  0.13489507200E+04  0.16028290653E+04  0.25500000920E-02 0. -1.
       -2    1    3    3    0  502  0.54120291375E+03  0.67564219357E+03 -0.23720010006E+03  0.89758389862E+03  0.25500000920E-02 0.  1.
</event>
<event>
 5   0  0.8470971E-05  0.1351666E+04  0.7818609E-02  0.8989568E-01
        1   -1    0    0  501    0  0.00000000000E+00  0.00000000000E+00  0.68859817476E+03  0.68859817478E+03  0.50400001928E-02 0. -1.
       -1   -1    0    0    0  501  0.00000000000E+00  0.00000000000E+00 -0.66330400530E+03  0.66330400532E+03  0.50400001928E-02 0.  1.
    10030    2    1    2    0    0  0.00000000000E+00  0.00000000000E+00  0.25294169456E+02  0.13519021801E+04  0.13516655317E+04 0.  0.
        2    1    3    3  502    0 -0.19151067541E+03 -0.94845744927E+02 -0.62861871676E+03  0.66395296912E+03  0.25500000920E-02 0.  1.
       -2    1    3    3    0  502  0.19151067541E+03  0.94845744927E+02  0.65391288622E+03  0.68794921099E+03  0.25500000920E-02 0. -1.
</event>
<event>
 5   0  0.1754356E-04  0.2243085E+04  0.7818609E-02  0.8500706E-01
       -2   -1    0    0    0  501  0.00000000000E+00  0.00000000000E+00  0.88905764031E+03  0.88905764031E+03  0.25500000920E-02 0. -1.
        2   -1    0    0  501    0  0.00000000000E+00  0.00000000000E+00 -0.14148216562E+04  0.14148216562E+04  0.25500000920E-02 0.  1.
    10030    2    1    2    0    0  0.00000000000E+00  0.00000000000E+00 -0.52576401593E+03  0.23038792966E+04  0.22430853779E+04 0.  0.
        1    1    3    3  502    0 -0.72472645218E+03  0.71013038974E+03  0.22792313229E+03  0.10399339187E+04  0.50400001928E-02 0. -1.
       -1    1    3    3    0  502  0.72472645218E+03 -0.71013038974E+03 -0.75368714822E+03  0.12639453779E+04  0.50400001928E-02 0.  1.
</event>
<event>
 5   0  0.1798917E-04  0.2258351E+04  0.7818609E-02  0.8494526E-01
       -2   -1    0    0    0  501  0.00000000000E+00  0.00000000000E+00  0.13721583596E+04  0.13721583596E+04  0.25500000920E-02 0.  1.
        2   -1    0    0  501    0  0.00000000000E+00  0.00000000000E+00 -0.92922017792E+03  0.92922017792E+03  0.25500000920E-02 0. -1.
    10030    2    1    2    0    0  0.00000000000E+00  0.00000000000E+00  0.44293818164E+03  0.23013785375E+04  0.22583509338E+04 0.  0.
        4    1    3    3  502    0  0.10641692584E+04  0.20360124275E+03  0.54553095564E+03  0.12130603089E+04  0.12699999809E+01 0.  1.
       -4    1    3    3    0  502 -0.10641692584E+04 -0.20360124275E+03 -0.10259277399E+03  0.10883182286E+04  0.12699999809E+01 0. -1.
</event>
<event>
 5   0  0.1798917E-04  0.2198056E+04  0.7818609E-02  0.8519238E-01
       -2   -1    0    0    0  501  0.00000000000E+00  0.00000000000E+00  0.48667958444E+03  0.48667958445E+03  0.25500000920E-02 0.  1.
        2   -1    0    0  501    0  0.00000000000E+00  0.00000000000E+00 -0.24818430292E+04  0.24818430292E+04  0.25500000920E-02 0. -1.
    10030    2    1    2    0    0  0.00000000000E+00  0.00000000000E+00 -0.19951634447E+04  0.29685226136E+04  0.21980558083E+04 0.  0.
        4    1    3    3  502    0 -0.73776778443E+03  0.51334311930E+03 -0.18517676478E+04  0.20583652485E+04  0.12699999809E+01 0. -1.
       -4    1    3    3    0  502  0.73776778443E+03 -0.51334311930E+03 -0.14339579698E+03  0.91015736517E+03  0.12699999809E+01 0.  1.
</event>
<event>
 5   0  0.8602414E-05  0.2340604E+04  0.7818609E-02  0.8462082E-01
       -1   -1    0    0    0  501  0.00000000000E+00  0.00000000000E+00  0.16983239292E+04  0.16983239292E+04  0.50400001928E-02 0. -1.
        1   -1    0    0  501    0  0.00000000000E+00  0.00000000000E+00 -0.80644584273E+03  0.80644584274E+03  0.50400001928E-02 0.  1.
    10030    2    1    2    0    0  0.00000000000E+00  0.00000000000E+00  0.89187808647E+03  0.25047697720E+04  0.23406035737E+04 0.  0.
        3    1    3    3  502    0  0.13570482434E+03  0.11288420975E+04  0.74270905220E+03  0.13580563416E+04  0.10100000352E+00 0. -1.
       -3    1    3    3    0  502 -0.13570482434E+03 -0.11288420975E+04  0.14916903427E+03  0.11467134304E+04  0.10100000352E+00 0.  1.
</event>
<event>
 5   0  0.7954459E-05  0.1633928E+04  0.7818609E-02  0.8799972E-01
       -1   -1    0    0    0  501  0.00000000000E+00  0.00000000000E+00  0.93641818615E+03  0.93641818616E+03  0.50400001928E-02 0.  1.
        1   -1    0    0  501    0  0.00000000000E+00  0.00000000000E+00 -0.71274765114E+03  0.71274765115E+03  0.50400001928E-02 0. -1.
    10030    2    1    2    0    0  0.00000000000E+00  0.00000000000E+00  0.22367053501E+03  0.16491658373E+04  0.16339276149E+04 0.  0.
        5    1    3    3  502    0 -0.28673685429E+02  0.48638918549E+03 -0.55003272086E+03  0.73481610218E+03  0.46999998093E+01 0. -1.
       -5    1    3    3    0  502  0.28673685429E+02 -0.48638918549E+03  0.77370325587E+03  0.91434973514E+03  0.46999998093E+01 0.  1.
</event>
<event>
 5   0  0.1805501E-04  0.2074188E+04  0.7818609E-02  0.8572700E-01
        2   -1    0    0  501    0  0.00000000000E+00  0.00000000000E+00  0.27247162621E+04  0.27247162621E+04  0.25500000920E-02 0.  1.
       -2   -1    0    0    0  501  0.00000000000E+00  0.00000000000E+00 -0.39474343799E+03  0.39474343800E+03  0.25500000920E-02 0. -1.
    10030    2    1    2    0    0  0.00000000000E+00  0.00000000000E+00  0.23299728241E+04  0.31194597001E+04  0.20741879036E+04 0.  0.
        2    1    3    3  502    0 -0.79679336200E+02 -0.50221119585E+03  0.25243700560E+04  0.25750745740E+04  0.25500000920E-02 0.  1.
       -2    1    3    3    0  502  0.79679336200E+02  0.50221119585E+03 -0.19439723185E+03  0.54438512618E+03  0.25500000920E-02 0. -1.
</event>
<event>
 5   0  0.8470971E-05  0.2213515E+04  0.7818609E-02  0.8512824E-01
       -1   -1    0    0    0  501  0.00000000000E+00  0.00000000000E+00  0.94479872974E+03  0.94479872975E+03  0.50400001928E-02 0. -1.
        1   -1    0    0  501    0  0.00000000000E+00  0.00000000000E+00 -0.12964797916E+04  0.12964797916E+04  0.50400001928E-02 0.  1.
    10030    2    1    2    0    0  0.00000000000E+00  0.00000000000E+00 -0.35168106185E+03  0.22412785214E+04  0.22135152679E+04 0.  0.
        2    1    3    3  502    0 -0.29106300024E+03  0.33506479560E+03  0.85074304460E+03  0.95955709330E+03  0.25500000920E-02 0. -1.
       -2    1    3    3    0  502  0.29106300024E+03 -0.33506479560E+03 -0.12024241064E+04  0.12817214281E+04  0.25500000920E-02 0.  1.
</event>
<event>
 5   0  0.8470971E-05  0.2185349E+04  0.7818609E-02  0.8524551E-01
        1   -1    0    0  501    0  0.00000000000E+00  0.00000000000E+00  0.11556240360E+04  0.11556240360E+04  0.50400001928E-02 0.  1.
       -1   -1    0    0    0  501  0.00000000000E+00  0.00000000000E+00 -0.10331536551E+04  0.10331536551E+04  0.50400001928E-02 0. -1.
    10030    2    1    2    0    0  0.00000000000E+00  0.00000000000E+00  0.12247038093E+03  0.21887776911E+04  0.21853486648E+04 0.  0.
        2    1    3    3  502    0  0.77462107520E+03 -0.76866682539E+03  0.11655498176E+03  0.10974841969E+04  0.25500000920E-02 0.  1.
       -2    1    3    3    0  502 -0.77462107520E+03  0.76866682539E+03  0.59153991670E+01  0.10912934942E+04  0.25500000920E-02 0. -1.
</event>
<event>
 5   0  0.8306787E-05  0.2464827E+04  0.7818609E-02  0.8415624E-01
       -1   -1    0    0    0  501  0.00000000000E+00  0.00000000000E+00  0.10709853708E+04  0.10709853708E+04  0.50400001928E-02 0.  1.
        1   -1    0    0  501    0  0.00000000000E+00  0.00000000000E+00 -0.14181737801E+04  0.14181737802E+04  0.50400001928E-02 0. -1.
    10030    2    1    2    0    0  0.00000000000E+00  0.00000000000E+00 -0.34718840937E+03  0.24891591510E+04  0.24648272733E+04 0.  0.
        1    1    3    3  502    0 -0.53855196899E+03  0.96246126969E+03 -0.72899923190E+03  0.13220475782E+04  0.50400001928E-02 0.  1.
       -1    1    3    3    0  502  0.53855196899E+03 -0.96246126969E+03  0.38181082253E+03  0.11671115727E+04  0.50400001928E-02 0. -1.
</event>
<event>
 5   0  0.1805501E-04  0.2065529E+04  0.7818609E-02  0.8576582E-01
        2   -1    0    0  501    0  0.00000000000E+00  0.00000000000E+00  0.21421000877E+04  0.21421000877E+04  0.25500000920E-02 0.  1.
       -2   -1    0    0    0  501  0.00000000000E+00  0.00000000000E+00 -0.49792364172E+03  0.49792364172E+03  0.25500000920E-02 0. -1.
    10030    2    1    2    0    0  0.00000000000E+00  0.00000000000E+00  0.16441764460E+04  0.26400237294E+04  0.20655287716E+04 0.  0.
        2    1    3    3  502    0  0.58454823578E+03  0.74343799967E+03  0.29169228652E+03  0.98968736949E+03  0.25500000920E-02 0. -1.
       -2    1    3    3    0  502 -0.58454823578E+03 -0.74343799967E+03  0.13524841594E+04  0.16503363599E+04  0.25500000920E-02 0.  1.
</event>
<event>
 5   0  0.1798917E-04  0.2189087E+04  0.7818609E-02  0.8522984E-01
       -2   -1    0    0    0  501  0.00000000000E+00  0.00000000000E+00  0.61597464162E+03  0.61597464162E+03  0.25500000920E-02 0.  1.
        2   -1    0    0  501    0  0.00000000000E+00  0.00000000000E+00 -0.19449266779E+04  0.19449266779E+04  0.25500000920E-02 0. -1.
    10030    2    1    2    0    0  0.00000000000E+00  0.00000000000E+00 -0.13289520362E+04  0.25609013195E+04  0.21890870365E+04 0.  0.
        4    1    3    3  502    0  0.10930927582E+04  0.54149801362E+02 -0.68259627190E+03  0.12898539694E+04  0.12699999809E+01 0. -1.
       -4    1    3    3    0  502 -0.10930927582E+04 -0.54149801362E+02 -0.64635576434E+03  0.12710473501E+04  0.12699999809E+01 0.  1.
</event>
<event>
 5   0  0.8602414E-05  0.2189555E+04  0.7818609E-02  0.8522788E-01
       -1   -1    0    0    0  501  0.00000000000E+00  0.00000000000E+00  0.86308192259E+03  0.86308192260E+03  0.50400001928E-02 0.  1.
        1   -1    0    0  501    0  0.00000000000E+00  0.00000000000E+00 -0.13886714673E+04  0.13886714673E+04  0.50400001928E-02 0. -1.
    10030    2    1    2    0    0  0.00000000000E+00  0.00000000000E+00 -0.52558954473E+03  0.22517533899E+04  0.21895545117E+04 0.  0.
        3    1    3    3  502    0 -0.18071519231E+03  0.88591928159E+02  0.84389297915E+03  0.86756088024E+03  0.10100000352E+00 0.  1.
       -3    1    3    3    0  502  0.18071519231E+03 -0.88591928159E+02 -0.13694825239E+04  0.13841925097E+04  0.10100000352E+00 0. -1.
</event>
<event>
 5   0  0.1754356E-04  0.2169934E+04  0.7818609E-02  0.8531047E-01
       -2   -1    0    0    0  501  0.00000000000E+00  0.00000000000E+00  0.61066928748E+03  0.61066928748E+03  0.25500000920E-02 0. -1.
        2   -1    0    0  501    0  0.00000000000E+00  0.00000000000E+00 -0.19276448331E+04  0.19276448331E+04  0.25500000920E-02 0.  1.
    10030    2    1    2    0    0  0.00000000000E+00  0.00000000000E+00 -0.13169755456E+04  0.25383141206E+04  0.21699340974E+04 0.  0.
        1    1    3    3  502    0 -0.55809724557E+03 -0.39990843959E+03 -0.16411981850E+04  0.17790252326E+04  0.50400001928E-02 0.  1.
       -1    1    3    3    0  502  0.55809724557E+03  0.39990843959E+03  0.32422263939E+03  0.75928888803E+03  0.50400001928E-02 0. -1.
</event>
<event>
 5   0  0.8470971E-05  0.2364338E+04  0.7818609E-02  0.8452977E-01
        1   -1    0    0  501    0  0.00000000000E+00  0.00000000000E+00  0.13976604744E+04  0.13976604744E+04  0.50400001928E-02 0.  1.
       -1   -1    0    0    0  501  0.00000000000E+00  0.00000000000E+00 -0.99990175746E+03  0.99990175748E+03  0.50400001928E-02 0. -1.
    10030    2    1    2    0    0  0.00000000000E+00  0.00000000000E+00  0.39775871689E+03  0.23975622318E+04  0.23643376787E+04 0.  0.
        2    1    3    3  502    0 -0.10208325727E+04 -0.56318150826E+03  0.55339219127E+00  0.11658785782E+04  0.25500000920E-02 0.  1.
       -2    1    3    3    0  502  0.10208325727E+04  0.56318150826E+03  0.39720532470E+03  0.12316836537E+04  0.25500000920E-02 0. -1.
</event>
<event>
 5   0  0.8306787E-05  0.2222611E+04  0.7818609E-02  0.8509075E-01
        1   -1    0    0  501    0  0.00000000000E+00  0.00000000000E+00  0.92508942295E+03  0.92508942296E+03  0.50400001928E-02 0. -1.
       -1   -1    0    0    0  501  0.00000000000E+00  0.00000000000E+00 -0.13350061328E+04  0.13350061328E+04  0.50400001928E-02 0.  1.
    10030    2    1    2    0    0  0.00000000000E+00  0.00000000000E+00 -0.40991670982E+03  0.22600955557E+04  0.22226111248E+04 0.  0.
        1    1    3    3  502    0 -0.36317708231E+03  0.39771398549E+03 -0.11934254744E+04  0.13093274496E+04  0.50400001928E-02 0.  1.
       -1    1    3    3    0  502  0.36317708231E+03 -0.39771398549E+03  0.78350876459E+03  0.95076810611E+03  0.50400001928E-02 0. -1.
</event>
<event>
 5   0  0.8602414E-05  0.2021186E+04  0.7818609E-02  0.8596779E-01
        1   -1    0    0  501    0  0.00000000000E+00  0.00000000000E+00  0.19835405491E+04  0.19835405491E+04  0.50400001928E-02 0. -1.
       -1   -1    0    0    0  501  0.00000000000E+00  0.00000000000E+00 -0.51488671713E+03  0.51488671715E+03  0.50400001928E-02 0.  1.
    10030    2    1    2    0    0  0.00000000000E+00  0.00000000000E+00  0.14686538319E+04  0.24984272662E+04  0.20211864651E+04 0.  0.
        3    1    3    3  502    0  0.93721550374E+03 -0.11038870273E+03  0.11812828883E+04  0.15119483584E+04  0.10100000352E+00 0. -1.
       -3    1    3    3    0  502 -0.93721550374E+03  0.11038870273E+03  0.28737094368E+03  0.98647890784E+03  0.10100000352E+00 0.  1.
</event>
<event>
 5   0  0.8306787E-05  0.2200891E+04  0.7818609E-02  0.8518057E-01
       -1   -1    0    0    0  501  0.00000000000E+00  0.00000000000E+00  0.17786673576E+04  0.17786673576E+04  0.50400001928E-02 0.  1.
        1   -1    0    0  501    0  0.00000000000E+00  0.00000000000E+00 -0.68083583924E+03  0.68083583926E+03  0.50400001928E-02 0. -1.
    10030    2    1    2    0    0  0.00000000000E+00  0.00000000000E+00  0.10978315184E+04  0.24595031969E+04  0.22008911678E+04 0.  0.
        1    1    3    3  502    0 -0.56686472094E+03 -0.73772935492E+03 -0.10784948241E+03  0.93659581668E+03  0.50400001928E-02 0. -1.
       -1    1    3    3    0  502  0.56686472094E+03  0.73772935492E+03  0.12056810008E+04  0.15229073802E+04  0.50400001928E-02 0.  1.
</event>
<event>
 5   0  0.8306787E-05  0.1133352E+04  0.7818609E-02  0.9173281E-01
        1   -1    0    0  501    0  0.00000000000E+00  0.00000000000E+00  0.10920051012E+04  0.10920051013E+04  0.50400001928E-02 0. -1.
       -1   -1    0    0    0  501  0.00000000000E+00  0.00000000000E+00 -0.29406629931E+03  0.29406629935E+03  0.50400001928E-02 0.  1.
    10030    2    1    2    0    0  0.00000000000E+00  0.00000000000E+00  0.79793880193E+03  0.13860714006E+04  0.11333523706E+04 0.  0.
        1    1    3    3  502    0  0.35304710006E+02  0.49644697806E+03  0.73034126676E+03  0.88380110349E+03  0.50400001928E-02 0. -1.
       -1    1    3    3    0  502 -0.35304710006E+02 -0.49644697806E+03  0.67597535170E+02  0.50227029711E+03  0.50400001928E-02 0.  1.
</event>
<event>
 5   0  0.8470971E-05  0.2162448E+04  0.7818609E-02  0.8534223E-01
       -1   -1    0    0    0  501  0.00000000000E+00  0.00000000000E+00  0.74218371117E+03  0.74218371119E+03  0.50400001928E-02 0. -1.
        1   -1    0    0  501    0  0.00000000000E+00  0.00000000000E+00 -0.15751422406E+04  0.15751422406E+04  0.50400001928E-02 0.  1.
    10030    2    1    2    0    0  0.00000000000E+00  0.00000000000E+00 -0.83295852940E+03  0.23173259518E+04  0.21624476075E+04 0.  0.
        2    1    3    3  502    0 -0.72090486298E+03  0.64659748402E+03  0.98850251556E+02  0.97342873393E+03  0.25500000920E-02 0. -1.
       -2    1    3    3    0  502  0.72090486298E+03 -0.64659748402E+03 -0.93180878095E+03  0.13438972178E+04  0.25500000920E-02 0.  1.
</event>
<event>
 5   0  0.8306787E-05  0.2263421E+04  0.7818609E-02  0.8492485E-01
       -1   -1    0    0    0  501  0.00000000000E+00  0.00000000000E+00  0.82845329928E+03  0.82845329929E+03  0.50400001928E-02 0.  1.
        1   -1    0    0  501    0  0.00000000000E+00  0.00000000000E+00 -0.15459759061E+04  0.15459759061E+04  0.50400001928E-02 0. -1.
    10030    2    1    2    0    0  0.00000000000E+00  0.00000000000E+00 -0.71752260685E+03  0.23744292054E+04  0.22634211628E+04 0.  0.
        1    1    3    3  502    0 -0.59224938733E+03  0.96288206951E+03 -0.41493783427E+03  0.12041904430E+04  0.50400001928E-02 0. -1.
       -1    1    3    3    0  502  0.59224938733E+03 -0.96288206951E+03 -0.30258477258E+03  0.11702387625E+04  0.50400001928E-02 0.  1.
</event>
<event>
 5   0  0.1805501E-04  0.2195139E+04  0.7818609E-02  0.8520454E-01
        2   -1    0    0  501    0  0.00000000000E+00  0.00000000000E+00  0.15010748936E+04  0.15010748936E+04  0.25500000920E-02 0.  1.
       -2   -1    0    0    0  501  0.00000000000E+00  0.00000000000E+00 -0.80253042721E+03  0.80253042721E+03  0.25500000920E-02 0. -1.
    10030    2    1    2    0    0  0.00000000000E+00  0.00000000000E+00  0.69854446642E+03  0.23036053208E+04  0.21951385156E+04 0.  0.
        2    1    3    3  502    0 -0.21794273758E+03  0.32692613691E+02 -0.77907312467E+03  0.80964361138E+03  0.25500000920E-02 0. -1.
       -2    1    3    3    0  502  0.21794273758E+03 -0.32692613691E+02  0.14776175911E+04  0.14939617095E+04  0.25500000920E-02 0.  1.
</event>
<event>
 5   0  0.8470971E-05  0.2186110E+04  0.7818609E-02  0.8524232E-01
        1   -1    0    0  501    0  0.00000000000E+00  0.00000000000E+00  0.14201322861E+04  0.14201322861E+04  0.50400001928E-02 0. -1.
       -1   -1    0    0    0  501  0.00000000000E+00  0.00000000000E+00 -0.84130873047E+03  0.84130873048E+03  0.50400001928E-02 0.  1.
    10030    2    1    2    0    0  0.00000000000E+00  0.00000000000E+00  0.57882355562E+03  0.22614410166E+04  0.21861104187E+04 0.  0.
        2    1    3    3  502    0  0.45259950206E+03 -0.99490288283E+03  0.27950928978E+03  0.11281859326E+04  0.25500000920E-02 0.  1.
       -2    1    3    3    0  502 -0.45259950206E+03  0.99490288283E+03  0.29931426583E+03  0.11332550839E+04  0.25500000920E-02 0. -1.
</event>
<event>
 5   0  0.7954459E-05  0.2109035E+04  0.7818609E-02  0.8557274E-01
       -1   -1    0    0    0  501  0.00000000000E+00  0.00000000000E+00  0.16184104643E+04  0.16184104643E+04  0.50400001928E-02 0. -1.
        1   -1    0    0  501    0  0.00000000000E+00  0.00000000000E+00 -0.68709805566E+03  0.68709805568E+03  0.50400001928E-02 0.  1.
    10030    2    1    2    0    0  0.00000000000E+00  0.00000000000E+00  0.93131240867E+03  0.23055085200E+04  0.21090345501E+04 0.  0.
        5    1    3    3  502    0 -0.58973805562E+03 -0.65991355910E+03 -0.16108462059E+03  0.89958169430E+03  0.46999998093E+01 0.  1.
       -5    1    3    3    0  502  0.58973805562E+03  0.65991355910E+03  0.10923970293E+04  0.14059268257E+04  0.46999998093E+01 0. -1.
</event>
<event>
 5   0  0.1754356E-04  0.2152975E+04  0.7818609E-02  0.8538260E-01
        2   -1    0    0  501    0  0.00000000000E+00  0.00000000000E+00  0.16249881329E+04  0.16249881329E+04  0.25500000920E-02 0.  1.
       -2   -1    0    0    0  501  0.00000000000E+00  0.00000000000E+00 -0.71312872582E+03  0.71312872582E+03  0.25500000920E-02 0. -1.
    10030    2    1    2    0    0  0.00000000000E+00  0.00000000000E+00  0.91185940710E+03  0.23381168587E+04  0.21529753521E+04 0.  0.
        1    1    3    3  502    0  0.38210268747E+03  0.95695685603E+03  0.79425946584E+03  0.13010061442E+04  0.50400001928E-02 0.  1.
       -1    1    3    3    0  502 -0.38210268747E+03 -0.95695685603E+03  0.11759994127E+03  0.10371107146E+04  0.50400001928E-02 0. -1.
</event>
<event>
 5   0  0.1754356E-04  0.2204359E+04  0.7818609E-02  0.8516616E-01
        2   -1    0    0  501    0  0.00000000000E+00  0.00000000000E+00  0.85038176442E+03  0.85038176443E+03  0.25500000920E-02 0. -1.
       -2   -1    0    0    0  501  0.00000000000E+00  0.00000000000E+00 -0.14285345196E+04  0.14285345196E+04  0.25500000920E-02 0.  1.
    10030    2    1    2    0    0  0.00000000000E+00  0.00000000000E+00 -0.57815275520E+03  0.22789162841E+04  0.22043590500E+04 0.  0.
        1    1    3    3  502    0  0.96143807317E+03  0.53851759260E+03 -0.26750589077E+03  0.11339857881E+04  0.50400001928E-02 0. -1.
       -1    1    3    3    0  502 -0.96143807317E+03 -0.53851759260E+03 -0.31064686443E+03  0.11449304959E+04  0.50400001928E-02 0.  1.
</event>
<event>
 5   0  0.1805501E-04  0.2170372E+04  0.7818609E-02  0.8530862E-01
       -2   -1    0    0    0  501  0.00000000000E+00  0.00000000000E+00  0.54337347124E+03  0.54337347124E+03  0.25500000920E-02 0. -1.
        2   -1    0    0  501    0  0.00000000000E+00  0.00000000000E+00 -0.21672552832E+04  0.21672552832E+04  0.25500000920E-02 0.  1.
    10030    2    1    2    0    0  0.00000000000E+00  0.00000000000E+00 -0.16238818119E+04  0.27106287544E+04  0.21703723425E+04 0.  0.
        2    1    3    3  502    0 -0.43534746291E+03  0.30934266367E+03 -0.19917661911E+04  0.20621233855E+04  0.25500000920E-02 0.  1.
       -2    1    3    3    0  502  0.43534746291E+03 -0.30934266367E+03  0.36788437919E+03  0.64850536889E+03  0.25500000920E-02 0. -1.
</event>
<event>
 5   0  0.1680258E-04  0.2205748E+04  0.7818609E-02  0.8516039E-01
       -2   -1    0    0    0  501  0.00000000000E+00  0.00000000000E+00  0.12393778765E+04  0.12393778765E+04  0.25500000920E-02 0. -1.
        2   -1    0    0  501    0  0.00000000000E+00  0.00000000000E+00 -0.98140483977E+03  0.98140483977E+03  0.25500000920E-02 0.  1.
    10030    2    1    2    0    0  0.00000000000E+00  0.00000000000E+00  0.25797303669E+03  0.22207827162E+04  0.22057483503E+04 0.  0.
        5    1    3    3  502    0  0.55498356622E+03  0.52374893589E+03 -0.67267528176E+03  0.10172678267E+04  0.46999998093E+01 0.  1.
       -5    1    3    3    0  502 -0.55498356622E+03 -0.52374893589E+03  0.93064831845E+03  0.12035148895E+04  0.46999998093E+01 0. -1.
</event>
<event>
 5   0  0.8784659E-05  0.2195719E+04  0.7818609E-02  0.8520212E-01
        1   -1    0    0  501    0  0.00000000000E+00  0.00000000000E+00  0.11608966864E+04  0.11608966864E+04  0.50400001928E-02 0. -1.
       -1   -1    0    0    0  501  0.00000000000E+00  0.00000000000E+00 -0.10382456196E+04  0.10382456196E+04  0.50400001928E-02 0.  1.
    10030    2    1    2    0    0  0.00000000000E+00  0.00000000000E+00  0.12265106685E+03  0.21991423060E+04  0.21957193805E+04 0.  0.
        4    1    3    3  502    0 -0.69113346992E+03 -0.28496273592E+03 -0.74393346738E+03  0.10546600641E+04  0.12699999809E+01 0. -1.
       -4    1    3    3    0  502  0.69113346992E+03  0.28496273592E+03  0.86658453422E+03  0.11444822419E+04  0.12699999809E+01 0.  1.
</event>
<event>
 5   0  0.1754356E-04  0.2200079E+04  0.7818609E-02  0.8518395E-01
        2   -1    0    0  501    0  0.00000000000E+00  0.00000000000E+00  0.24880465004E+04  0.24880465004E+04  0.25500000920E-02 0.  1.
       -2   -1    0    0    0  501  0.00000000000E+00  0.00000000000E+00 -0.48636028414E+03  0.48636028415E+03  0.25500000920E-02 0. -1.
    10030    2    1    2    0    0  0.00000000000E+00  0.00000000000E+00  0.20016862162E+04  0.29744067845E+04  0.22000790921E+04 0.  0.
        1    1    3    3  502    0  0.98874558955E+03 -0.32434348518E+03  0.51853353098E+03  0.11626235676E+04  0.50400001928E-02 0. -1.
       -1    1    3    3    0  502 -0.98874558955E+03  0.32434348518E+03  0.14831526853E+04  0.18117832169E+04  0.50400001928E-02 0.  1.
</event>
<event>
 5   0  0.8306787E-05  0.2392166E+04  0.7818609E-02  0.8442442E-01
        1   -1    0    0  501    0  0.00000000000E+00  0.00000000000E+00  0.10508727126E+04  0.10508727126E+04  0.50400001928E-02 0.  1.
       -1   -1    0    0    0  501  0.00000000000E+00  0.00000000000E+00 -0.13613586751E+04  0.13613586751E+04  0.50400001928E-02 0. -1.
    10030    2    1    2    0    0  0.00000000000E+00  0.00000000000E+00 -0.31048596254E+03  0.24122313877E+04  0.23921661177E+04 0.  0.
        1    1    3    3  502    0 -0.64238314273E+03  0.73469764730E+03 -0.85254737490E+03  0.12958679568E+04  0.50400001928E-02 0. -1.
       -1    1    3    3    0  502  0.64238314273E+03 -0.73469764730E+03  0.54206141235E+03  0.11163634309E+04  0.50400001928E-02 0.  1.
</event>
<event>
 5   0  0.8470971E-05  0.2183905E+04  0.7818609E-02  0.8525157E-01
        1   -1    0    0  501    0  0.00000000000E+00  0.00000000000E+00  0.11696737892E+04  0.11696737892E+04  0.50400001928E-02 0.  1.
       -1   -1    0    0    0  501  0.00000000000E+00  0.00000000000E+00 -0.10193955645E+04  0.10193955645E+04  0.50400001928E-02 0. -1.
    10030    2    1    2    0    0  0.00000000000E+00  0.00000000000E+00  0.15027822464E+03  0.21890693537E+04  0.21839050095E+04 0.  0.
        2    1    3    3  502    0  0.89898313611E+02  0.58600261790E+03 -0.84402415098E+03  0.10314347010E+04  0.25500000920E-02 0. -1.
       -2    1    3    3    0  502 -0.89898313611E+02 -0.58600261790E+03  0.99430237562E+03  0.11576346527E+04  0.25500000920E-02 0.  1.
</event>
<event>
 5   0  0.8602414E-05  0.2192641E+04  0.7818609E-02  0.8521498E-01
       -1   -1    0    0    0  501  0.00000000000E+00  0.00000000000E+00  0.13594093895E+04  0.13594093896E+04  0.50400001928E-02 0.  1.
        1   -1    0    0  501    0  0.00000000000E+00  0.00000000000E+00 -0.88414729143E+03  0.88414729145E+03  0.50400001928E-02 0. -1.
    10030    2    1    2    0    0  0.00000000000E+00  0.00000000000E+00  0.47526209811E+03  0.22435566810E+04  0.21926405357E+04 0.  0.
        3    1    3    3  502    0  0.79105053459E+03  0.68254753354E+03 -0.10217403339E+03  0.10497959931E+04  0.10100000352E+00 0.  1.
       -3    1    3    3    0  502 -0.79105053459E+03 -0.68254753354E+03  0.57743613151E+03  0.11937606879E+04  0.10100000352E+00 0. -1.
</event>
<event>
 5   0  0.7954459E-05  0.1233728E+04  0.7818609E-02  0.9083836E-01
        1   -1    0    0  501    0  0.00000000000E+00  0.00000000000E+00  0.14319553135E+04  0.14319553135E+04  0.50400001928E-02 0.  1.
       -1   -1    0    0    0  501  0.00000000000E+00  0.00000000000E+00 -0.26573556561E+03  0.26573556566E+03  0.50400001928E-02 0. -1.
    10030    2    1    2    0    0  0.00000000000E+00  0.00000000000E+00  0.11662197479E+04  0.16976908792E+04  0.12337284226E+04 0.  0.
        5    1    3    3  502    0 -0.46452638126E+03  0.40331186229E+03  0.52074286478E+03  0.80600275332E+03  0.46999998093E+01 0.  1.
       -5    1    3    3    0  502  0.46452638126E+03 -0.40331186229E+03  0.64547688310E+03  0.89168812584E+03  0.46999998093E+01 0. -1.
</event>
<event>
 5   0  0.8470971E-05  0.2161581E+04  0.7818609E-02  0.8534591E-01
        1   -1    0    0  501    0  0.00000000000E+00  0.00000000000E+00  0.89185457942E+03  0.89185457943E+03  0.50400001928E-02 0. -1.
       -1   -1    0    0    0  501  0.00000000000E+00  0.00000000000E+00 -0.13097520574E+04  0.13097520574E+04  0.50400001928E-02 0.  1.
    10030    2    1    2    0    0  0.00000000000E+00  0.00000000000E+00 -0.41789747794E+03  0.22016066368E+04  0.21615812456E+04 0.  0.
        2    1    3    3  502    0 -0.49421606654E+03  0.11761322792E+03  0.76266815447E+03  0.91637607218E+03  0.25500000920E-02 0. -1.
       -2    1    3    3    0  502  0.49421606654E+03 -0.11761322792E+03 -0.11805656324E+04  0.12852305646E+04  0.25500000920E-02 0.  1.
</event>
<event>
 5   0  0.1754356E-04  0.2203843E+04  0.7818609E-02  0.8516830E-01
       -2   -1    0    0    0  501  0.00000000000E+00  0.00000000000E+00  0.48985806686E+03  0.48985806686E+03  0.25500000920E-02 0.  1.
        2   -1    0    0  501    0  0.00000000000E+00  0.00000000000E+00 -0.24787398707E+04  0.24787398707E+04  0.25500000920E-02 0. -1.
    10030    2    1    2    0    0  0.00000000000E+00  0.00000000000E+00 -0.19888818039E+04  0.29685979376E+04  0.22038427542E+04 0.  0.
        1    1    3    3  502    0  0.18092123367E+03  0.51198469115E+03  0.29712306097E+03  0.61898540382E+03  0.50400001928E-02 0.  1.
       -1    1    3    3    0  502 -0.18092123367E+03 -0.51198469115E+03 -0.22860048649E+04  0.23496125338E+04  0.50400001928E-02 0. -1.
</event>
<event>
 5   0  0.1733962E-04  0.2233325E+04  0.7818609E-02  0.8504684E-01
        2   -1    0    0  501    0  0.00000000000E+00  0.00000000000E+00  0.16296955717E+04  0.16296955717E+04  0.25500000920E-02 0. -1.
       -2   -1    0    0    0  501  0.00000000000E+00  0.00000000000E+00 -0.76513403622E+03  0.76513403622E+03  0.25500000920E-02 0.  1.
    10030    2    1    2    0    0  0.00000000000E+00  0.00000000000E+00  0.86456153546E+03  0.23948296079E+04  0.22333253687E+04 0.  0.
        3    1    3    3  502    0 -0.81577408020E+03 -0.20011226161E+03  0.12212917681E+04  0.14822570156E+04  0.10100000352E+00 0. -1.
       -3    1    3    3    0  502  0.81577408020E+03  0.20011226161E+03 -0.35673023265E+03  0.91257259232E+03  0.10100000352E+00 0.  1.
</event>
<event>
 5   0  0.8306787E-05  0.2212007E+04  0.7818609E-02  0.8513447E-01
        1   -1    0    0  501    0  0.00000000000E+00  0.00000000000E+00  0.10302098140E+04  0.10302098140E+04  0.50400001928E-02 0.  1.
       -1   -1    0    0    0  501  0.00000000000E+00  0.00000000000E+00 -0.11873734668E+04  0.11873734669E+04  0.50400001928E-02 0. -1.
    10030    2    1    2    0    0  0.00000000000E+00  0.00000000000E+00 -0.15716365286E+03  0.22175832808E+04  0.22120070510E+04 0.  0.
        1    1    3    3  502    0 -0.44493214417E+03  0.57679825423E+02  0.93488311082E+03  0.10369657690E+04  0.50400001928E-02 0.  1.
       -1    1    3    3    0  502  0.44493214417E+03 -0.57679825423E+02 -0.10920467637E+04  0.11806175118E+04  0.50400001928E-02 0. -1.
</event>
<event>
 5   0  0.8470971E-05  0.2171396E+04  0.7818609E-02  0.8530429E-01
       -1   -1    0    0    0  501  0.00000000000E+00  0.00000000000E+00  0.13882288894E+04  0.13882288895E+04  0.50400001928E-02 0.  1.
        1   -1    0    0  501    0  0.00000000000E+00  0.00000000000E+00 -0.84909645952E+03  0.84909645954E+03  0.50400001928E-02 0. -1.
    10030    2    1    2    0    0  0.00000000000E+00  0.00000000000E+00  0.53913242992E+03  0.22373253490E+04  0.21713960809E+04 0.  0.
        2    1    3    3  502    0  0.70614055098E+03  0.13089731171E+03  0.11085191016E+04  0.13208267042E+04  0.25500000920E-02 0.  1.
       -2    1    3    3    0  502 -0.70614055098E+03 -0.13089731171E+03 -0.56938667169E+03  0.91649864476E+03  0.25500000920E-02 0. -1.
</event>
<event>
 5   0  0.8306787E-05  0.2049886E+04  0.7818609E-02  0.8583646E-01
       -1   -1    0    0    0  501  0.00000000000E+00  0.00000000000E+00  0.74544043239E+03  0.74544043241E+03  0.50400001928E-02 0.  1.
        1   -1    0    0  501    0  0.00000000000E+00  0.00000000000E+00 -0.14092449918E+04  0.14092449918E+04  0.50400001928E-02 0. -1.
    10030    2    1    2    0    0  0.00000000000E+00  0.00000000000E+00 -0.66380455939E+03  0.21546854242E+04  0.20498860418E+04 0.  0.
        1    1    3    3  502    0 -0.28733746590E+03 -0.51310641880E+02  0.70083092759E+03  0.75918350244E+03  0.50400001928E-02 0.  1.
       -1    1    3    3    0  502  0.28733746590E+03  0.51310641880E+02 -0.13646354870E+04  0.13955019218E+04  0.50400001928E-02 0. -1.
</event>
<event>
 5   0  0.8470971E-05  0.2199859E+04  0.7818609E-02  0.8518487E-01
        1   -1    0    0  501    0  0.00000000000E+00  0.00000000000E+00  0.18379009042E+04  0.18379009042E+04  0.50400001928E-02 0.  1.
       -1   -1    0    0    0  501  0.00000000000E+00  0.00000000000E+00 -0.65827536405E+03  0.65827536407E+03  0.50400001928E-02 0. -1.
    10030    2    1    2    0    0  0.00000000000E+00  0.00000000000E+00  0.11796255401E+04  0.24961762683E+04  0.21998589835E+04 0.  0.
        2    1    3    3  502    0 -0.10937528572E+04 -0.84328914898E+02  0.49876634118E+03  0.12050620489E+04  0.25500000920E-02 0.  1.
       -2    1    3    3    0  502  0.10937528572E+04  0.84328914898E+02  0.68085919895E+03  0.12911142194E+04  0.25500000920E-02 0. -1.
</event>
<event>
 5   0  0.8602414E-05  0.2231416E+04  0.7818609E-02  0.8505465E-01
        1   -1    0    0  501    0  0.00000000000E+00  0.00000000000E+00  0.23496433559E+04  0.23496433559E+04  0.50400001928E-02 0.  1.
       -1   -1    0    0    0  501  0.00000000000E+00  0.00000000000E+00 -0.52978438991E+03  0.52978438993E+03  0.50400001928E-02 0. -1.
    10030    2    1    2    0    0  0.00000000000E+00  0.00000000000E+00  0.18198589660E+04  0.28794277459E+04  0.22314160274E+04 0.  0.
        3    1    3    3  502    0  0.17641805247E+03  0.24123801352E+03  0.22970297031E+04  0.23163904195E+04  0.10100000352E+00 0.  1.
       -3    1    3    3    0  502 -0.17641805247E+03 -0.24123801352E+03 -0.47717073706E+03  0.56303732639E+03  0.10100000352E+00 0. -1.
</event>
<event>
 5   0  0.1754356E-04  0.1334251E+04  0.7818609E-02  0.9002837E-01
       -2   -1    0    0    0  501  0.00000000000E+00  0.00000000000E+00  0.10861225274E+04  0.10861225274E+04  0.25500000920E-02 0.  1.
        2   -1    0    0  501    0  0.00000000000E+00  0.00000000000E+00 -0.40976604083E+03  0.40976604084E+03  0.25500000920E-02 0. -1.
    10030    2    1    2    0    0  0.00000000000E+00  0.00000000000E+00  0.67635648657E+03  0.14958885682E+04  0.13342505431E+04 0.  0.
        1    1    3    3  502    0 -0.23908257845E+03 -0.43117437916E+03 -0.16569426716E+03  0.52012153845E+03  0.50400001928E-02 0. -1.
       -1    1    3    3    0  502  0.23908257845E+03  0.43117437916E+03  0.84205075373E+03  0.97576702980E+03  0.50400001928E-02 0.  1.
</event>
<event>
 5   0  0.7954459E-05  0.2197689E+04  0.7818609E-02  0.8519391E-01
        1   -1    0    0  501    0  0.00000000000E+00  0.00000000000E+00  0.13962354809E+04  0.13962354809E+04  0.50400001928E-02 0.  1.
       -1   -1    0    0    0  501  0.00000000000E+00  0.00000000000E+00 -0.86479623610E+03  0.86479623612E+03  0.50400001928E-02 0. -1.
    10030    2    1    2    0    0  0.00000000000E+00  0.00000000000E+00  0.53143924475E+03  0.22610317170E+04  0.21976889576E+04 0.  0.
        5    1    3    3  502    0  0.61785125362E+03 -0.38068349218E+03 -0.58315366578E+03  0.93099429683E+03  0.46999998093E+01 0. -1.
       -5    1    3    3    0  502 -0.61785125362E+03  0.38068349218E+03  0.11145929105E+04  0.13300374202E+04  0.46999998093E+01 0.  1.
</event>
<event>
 5   0  0.1805501E-04  0.2268096E+04  0.7818609E-02  0.8490607E-01
       -2   -1    0    0    0  501  0.00000000000E+00  0.00000000000E+00  0.81288186919E+03  0.81288186920E+03  0.25500000920E-02 0.  1.
        2   -1    0    0  501    0  0.00000000000E+00  0.00000000000E+00 -0.15821061504E+04  0.15821061504E+04  0.25500000920E-02 0. -1.
    10030    2    1    2    0    0  0.00000000000E+00  0.00000000000E+00 -0.76922428120E+03  0.23949880196E+04  0.22680964748E+04 0.  0.
        2    1    3    3  502    0  0.87993293050E+02 -0.78815517600E+03  0.47137805821E+03  0.92256635254E+03  0.25500000920E-02 0.  1.
       -2    1    3    3    0  502 -0.87993293050E+02  0.78815517600E+03 -0.12406023394E+04  0.14724216671E+04  0.25500000920E-02 0. -1.
</event>
<event>
 5   0  0.8470971E-05  0.2163302E+04  0.7818609E-02  0.8533860E-01
        1   -1    0    0  501    0  0.00000000000E+00  0.00000000000E+00  0.89824702361E+03  0.89824702362E+03  0.50400001928E-02 0. -1.
       -1   -1    0    0    0  501  0.00000000000E+00  0.00000000000E+00 -0.13025019443E+04  0.13025019443E+04  0.50400001928E-02 0.  1.
    10030    2    1    2    0    0  0.00000000000E+00  0.00000000000E+00 -0.40425492073E+03  0.22007489680E+04  0.21633016385E+04 0.  0.
        2    1    3    3  502    0  0.97540467044E+03  0.26032928943E+03  0.19290196912E+03  0.10278116460E+04  0.25500000920E-02 0. -1.
       -2    1    3    3    0  502 -0.97540467044E+03 -0.26032928943E+03 -0.59715688984E+03  0.11729373219E+04  0.25500000920E-02 0.  1.
</event>
<event>
 5   0  0.1733962E-04  0.2257111E+04  0.7818609E-02  0.8495026E-01
       -2   -1    0    0    0  501  0.00000000000E+00  0.00000000000E+00  0.80291825557E+03  0.80291825557E+03  0.25500000920E-02 0. -1.
        2   -1    0    0  501    0  0.00000000000E+00  0.00000000000E+00 -0.15862604654E+04  0.15862604654E+04  0.25500000920E-02 0.  1.
    10030    2    1    2    0    0  0.00000000000E+00  0.00000000000E+00 -0.78334220981E+03  0.23891787210E+04  0.22571109727E+04 0.  0.
        3    1    3    3  502    0 -0.14268643372E+03 -0.42983977595E+03 -0.14858446373E+04  0.15533370361E+04  0.10100000352E+00 0.  1.
       -3    1    3    3    0  502  0.14268643372E+03  0.42983977595E+03  0.70250242747E+03  0.83584168486E+03  0.10100000352E+00 0. -1.
</event>
<event>
 5   0  0.8306787E-05  0.2189460E+04  0.7818609E-02  0.8522828E-01
        1   -1    0    0  501    0  0.00000000000E+00  0.00000000000E+00  0.95274074714E+03  0.95274074716E+03  0.50400001928E-02 0. -1.
       -1   -1    0    0    0  501  0.00000000000E+00  0.00000000000E+00 -0.12578806984E+04  0.12578806984E+04  0.50400001928E-02 0.  1.
    10030    2    1    2    0    0  0.00000000000E+00  0.00000000000E+00 -0.30513995123E+03  0.22106214455E+04  0.21894603869E+04 0.  0.
        1    1    3    3  502    0  0.82025692443E+03  0.56696589356E+03 -0.60878041716E+03  0.11682830748E+04  0.50400001928E-02 0.  1.
       -1    1    3    3    0  502 -0.82025692443E+03 -0.56696589356E+03  0.30364046593E+03  0.10423383707E+04  0.50400001928E-02 0. -1.
</event>
<event>
 5   0  0.1733962E-04  0.2257401E+04  0.7818609E-02  0.8494909E-01
       -2   -1    0    0    0  501  0.00000000000E+00  0.00000000000E+00  0.90791948256E+03  0.90791948257E+03  0.25500000920E-02 0.  1.
        2   -1    0    0  501    0  0.00000000000E+00  0.00000000000E+00 -0.14031695792E+04  0.14031695792E+04  0.25500000920E-02 0. -1.
    10030    2    1    2    0    0  0.00000000000E+00  0.00000000000E+00 -0.49525009661E+03  0.23110890617E+04  0.22574011591E+04 0.  0.
        3    1    3    3  502    0 -0.56675562391E+03 -0.22035830817E+02  0.75142538723E+03  0.94145506417E+03  0.10100000352E+00 0.  1.
       -3    1    3    3    0  502  0.56675562391E+03  0.22035830817E+02 -0.12466754838E+04  0.13696339976E+04  0.10100000352E+00 0. -1.
</event>
<event>
 5   0  0.7954459E-05  0.1690015E+04  0.7818609E-02  0.8767080E-01
        1   -1    0    0  501    0  0.00000000000E+00  0.00000000000E+00  0.52177902976E+03  0.52177902979E+03  0.50400001928E-02 0.  1.
       -1   -1    0    0    0  501  0.00000000000E+00  0.00000000000E+00 -0.13684669672E+04  0.13684669672E+04  0.50400001928E-02 0. -1.
    10030    2    1    2    0    0  0.00000000000E+00  0.00000000000E+00 -0.84668793743E+03  0.18902459970E+04  0.16900146348E+04 0.  0.
        5    1    3    3  502    0 -0.47662797733E+03 -0.69645109739E+03 -0.37593158133E+03  0.92388581744E+03  0.46999998093E+01 0. -1.
       -5    1    3    3    0  502  0.47662797733E+03  0.69645109739E+03 -0.47075635610E+03  0.96636017956E+03  0.46999998093E+01 0.  1.
</event>
<event>
 5   0  0.7954459E-05  0.2257906E+04  0.7818609E-02  0.8494705E-01
        1   -1    0    0  501    0  0.00000000000E+00  0.00000000000E+00  0.22419883083E+04  0.22419883083E+04  0.50400001928E-02 0.  1.
       -1   -1    0    0    0  501  0.00000000000E+00  0.00000000000E+00 -0.56848440692E+03  0.56848440695E+03  0.50400001928E-02 0. -1.
    10030    2    1    2    0    0  0.00000000000E+00  0.00000000000E+00  0.16735039013E+04  0.28104727152E+04  0.22579064585E+04 0.  0.
        5    1    3    3  502    0 -0.17529333286E+02  0.75143240269E+03  0.18852474566E+04  0.20295659625E+04  0.46999998093E+01 0.  1.
       -5    1    3    3    0  502  0.17529333286E+02 -0.75143240269E+03 -0.21174355525E+03  0.78090675277E+03  0.46999998093E+01 0. -1.
</event>
<event>
 5   0  0.8602414E-05  0.2326796E+04  0.7818609E-02  0.8467430E-01
        1   -1    0    0  501    0  0.00000000000E+00  0.00000000000E+00  0.12865611092E+04  0.12865611092E+04  0.50400001928E-02 0.  1.
       -1   -1    0    0    0  501  0.00000000000E+00  0.00000000000E+00 -0.10520251052E+04  0.10520251052E+04  0.50400001928E-02 0. -1.
    10030    2    1    2    0    0  0.00000000000E+00  0.00000000000E+00  0.23453600399E+03  0.23385862144E+04  0.23267957248E+04 0.  0.
        3    1    3    3  502    0  0.46611910552E+03 -0.68053396068E+03 -0.70731669939E+03  0.10865957922E+04  0.10100000352E+00 0. -1.
       -3    1    3    3    0  502 -0.46611910552E+03  0.68053396068E+03  0.94185270338E+03  0.12519904222E+04  0.10100000352E+00 0.  1.
</event>
<event>
 5   0  0.1680258E-04  0.2124530E+04  0.7818609E-02  0.8550514E-01
        2   -1    0    0  501    0  0.00000000000E+00  0.00000000000E+00  0.58219431784E+03  0.58219431785E+03  0.25500000920E-02 0.  1.
       -2   -1    0    0    0  501  0.00000000000E+00  0.00000000000E+00 -0.19381969791E+04  0.19381969791E+04  0.25500000920E-02 0. -1.
    10030    2    1    2    0    0  0.00000000000E+00  0.00000000000E+00 -0.13560026613E+04  0.25203912970E+04  0.21245303181E+04 0.  0.
        5    1    3    3  502    0 -0.64616738831E+02  0.10598614858E+04 -0.64234260725E+03  0.12410108005E+04  0.46999998093E+01 0.  1.
       -5    1    3    3    0  502  0.64616738831E+02 -0.10598614858E+04 -0.71366005401E+03  0.12793804964E+04  0.46999998093E+01 0. -1.
</event>
<event>
 5   0  0.1754356E-04  0.2156085E+04  0.7818609E-02  0.8536932E-01
        2   -1    0    0  501    0  0.00000000000E+00  0.00000000000E+00  0.18970414387E+04  0.18970414387E+04  0.25500000920E-02 0. -1.
       -2   -1    0    0    0  501  0.00000000000E+00  0.00000000000E+00 -0.61262521693E+03  0.61262521693E+03  0.25500000920E-02 0.  1.
    10030    2    1    2    0    0  0.00000000000E+00  0.00000000000E+00  0.12844162217E+04  0.25096666556E+04  0.21560848062E+04 0.  0.
        1    1    3    3  502    0 -0.30787411421E+03  0.52410158637E+03  0.16785580005E+04  0.17852243288E+04  0.50400001928E-02 0. -1.
       -1    1    3    3    0  502  0.30787411421E+03 -0.52410158637E+03 -0.39414177879E+03  0.72444232679E+03  0.50400001928E-02 0.  1.
</event>
<event>
 5   0  0.1754356E-04  0.1735335E+04  0.7818609E-02  0.8741464E-01
        2   -1    0    0  501    0  0.00000000000E+00  0.00000000000E+00  0.13337187862E+04  0.13337187862E+04  0.25500000920E-02 0.  1.
       -2   -1    0    0    0  501  0.00000000000E+00  0.00000000000E+00 -0.56447198268E+03  0.56447198269E+03  0.25500000920E-02 0. -1.
    10030    2    1    2    0    0  0.00000000000E+00  0.00000000000E+00  0.76924680356E+03  0.18981907689E+04  0.17353349966E+04 0.  0.
        1    1    3    3  502    0 -0.59961799351E+03  0.62219759647E+03  0.47058125810E+03  0.98393003191E+03  0.50400001928E-02 0.  1.
       -1    1    3    3    0  502  0.59961799351E+03 -0.62219759647E+03  0.29866554546E+03  0.91426073702E+03  0.50400001928E-02 0. -1.
</event>
<event>
 5   0  0.8470971E-05  0.2180732E+04  0.7818609E-02  0.8526491E-01
        1   -1    0    0  501    0  0.00000000000E+00  0.00000000000E+00  0.20993718078E+04  0.20993718078E+04  0.50400001928E-02 0.  1.
       -1   -1    0    0    0  501  0.00000000000E+00  0.00000000000E+00 -0.56631115990E+03  0.56631115992E+03  0.50400001928E-02 0. -1.
    10030    2    1    2    0    0  0.00000000000E+00  0.00000000000E+00  0.15330606479E+04  0.26656829677E+04  0.21807316970E+04 0.  0.
        2    1    3    3  502    0  0.42034222957E+03 -0.95704563606E+03  0.38725010596E+03  0.11147136781E+04  0.25500000920E-02 0. -1.
       -2    1    3    3    0  502 -0.42034222957E+03  0.95704563606E+03  0.11458105419E+04  0.15509692896E+04  0.25500000920E-02 0.  1.
</event>
<event>
 5   0  0.6250625E-05  0.2130336E+04  0.7818609E-02  0.8547997E-01
       -4   -1    0    0    0  501  0.00000000000E+00  0.00000000000E+00  0.87640395141E+03  0.87640487159E+03  0.12699999809E+01 0. -1.
        4   -1    0    0  501    0  0.00000000000E+00  0.00000000000E+00 -0.12945871295E+04  0.12945877524E+04  0.12699999809E+01 0.  1.
    10030    2    1    2    0    0  0.00000000000E+00  0.00000000000E+00 -0.41818317804E+03  0.21709926240E+04  0.21303360775E+04 0.  0.
        2    1    3    3  502    0 -0.94367779265E+03  0.44708286968E+03  0.50909984064E+01  0.10442398130E+04  0.25500000920E-02 0. -1.
       -2    1    3    3    0  502  0.94367779265E+03 -0.44708286968E+03 -0.42327417645E+03  0.11267528110E+04  0.25500000920E-02 0.  1.
</event>
<event>
 5   0  0.1805501E-04  0.2210034E+04  0.7818609E-02  0.8514263E-01
       -2   -1    0    0    0  501  0.00000000000E+00  0.00000000000E+00  0.78721426373E+03  0.78721426374E+03  0.25500000920E-02 0. -1.
        2   -1    0    0  501    0  0.00000000000E+00  0.00000000000E+00 -0.15511187315E+04  0.15511187315E+04  0.25500000920E-02 0.  1.
    10030    2    1    2    0    0  0.00000000000E+00  0.00000000000E+00 -0.76390446776E+03  0.23383329952E+04  0.22100341990E+04 0.  0.
        2    1    3    3  502    0 -0.65026162667E+03 -0.19454867663E+03  0.54066343718E+03  0.86775936930E+03  0.25500000920E-02 0. -1.
       -2    1    3    3    0  502  0.65026162667E+03  0.19454867663E+03 -0.13045679049E+04  0.14705736259E+04  0.25500000920E-02 0.  1.
</event>
<event>
 5   0  0.7954459E-05  0.2035211E+04  0.7818609E-02  0.8590333E-01
        1   -1    0    0  501    0  0.00000000000E+00  0.00000000000E+00  0.11798215818E+04  0.11798215818E+04  0.50400001928E-02 0.  1.
       -1   -1    0    0    0  501  0.00000000000E+00  0.00000000000E+00 -0.87769300374E+03  0.87769300375E+03  0.50400001928E-02 0. -1.
    10030    2    1    2    0    0  0.00000000000E+00  0.00000000000E+00  0.30212857802E+03  0.20575145855E+04  0.20352111910E+04 0.  0.
        5    1    3    3  502    0 -0.63049924063E+03  0.23779625126E+03  0.92193125545E+03  0.11419525731E+04  0.46999998093E+01 0.  1.
       -5    1    3    3    0  502  0.63049924063E+03 -0.23779625126E+03 -0.61980267743E+03  0.91556201237E+03  0.46999998093E+01 0. -1.
</event>
<event>
 5   0  0.8784659E-05  0.2186817E+04  0.7818609E-02  0.8523935E-01
        1   -1    0    0  501    0  0.00000000000E+00  0.00000000000E+00  0.23271402311E+04  0.23271402311E+04  0.50400001928E-02 0.  1.
       -1   -1    0    0    0  501  0.00000000000E+00  0.00000000000E+00 -0.51373879217E+03  0.51373879220E+03  0.50400001928E-02 0. -1.
    10030    2    1    2    0    0  0.00000000000E+00  0.00000000000E+00  0.18134014389E+04  0.28408790233E+04  0.21868170583E+04 0.  0.
        4    1    3    3  502    0  0.89438553334E+03 -0.43373899565E+03  0.14984452707E+04  0.17981642975E+04  0.12699999809E+01 0.  1.
       -4    1    3    3    0  502 -0.89438553334E+03  0.43373899565E+03  0.31495616821E+03  0.10427147258E+04  0.12699999809E+01 0. -1.
</event>
<event>
 5   0  0.8602414E-05  0.2211759E+04  0.7818609E-02  0.8513550E-01
       -1   -1    0    0    0  501  0.00000000000E+00  0.00000000000E+00  0.10969283137E+04  0.10969283137E+04  0.50400001928E-02 0.  1.
        1   -1    0    0  501    0  0.00000000000E+00  0.00000000000E+00 -0.11149038742E+04  0.11149038742E+04  0.50400001928E-02 0. -1.
    10030    2    1    2    0    0  0.00000000000E+00  0.00000000000E+00 -0.17975560472E+02  0.22118321879E+04  0.22117591430E+04 0.  0.
        3    1    3    3  502    0  0.69407115530E+03  0.35634111956E+03 -0.79275842746E+03  0.11122857981E+04  0.10100000352E+00 0. -1.
       -3    1    3    3    0  502 -0.69407115530E+03 -0.35634111956E+03  0.77478286699E+03  0.10995463898E+04  0.10100000352E+00 0.  1.
</event>
<event>
 5   0  0.7954459E-05  0.2210085E+04  0.7818609E-02  0.8514242E-01
       -1   -1    0    0    0  501  0.00000000000E+00  0.00000000000E+00  0.59519873985E+03  0.59519873988E+03  0.50400001928E-02 0. -1.
        1   -1    0    0  501    0  0.00000000000E+00  0.00000000000E+00 -0.20516154646E+04  0.20516154646E+04  0.50400001928E-02 0.  1.
    10030    2    1    2    0    0  0.00000000000E+00  0.00000000000E+00 -0.14564167247E+04  0.26468142045E+04  0.22100850112E+04 0.  0.
        5    1    3    3  502    0  0.80751498494E+03 -0.19503330966E+03 -0.16008841112E+04  0.18035993098E+04  0.46999998093E+01 0.  1.
       -5    1    3    3    0  502 -0.80751498494E+03  0.19503330966E+03  0.14446738651E+03  0.84321489464E+03  0.46999998093E+01 0. -1.
</event>
<event>
 5   0  0.1805501E-04  0.1139043E+04  0.7818609E-02  0.9167952E-01
        2   -1    0    0  501    0  0.00000000000E+00  0.00000000000E+00  0.19452307173E+04  0.19452307173E+04  0.25500000920E-02 0. -1.
       -2   -1    0    0    0  501  0.00000000000E+00  0.00000000000E+00 -0.16674357144E+03  0.16674357146E+03  0.25500000920E-02 0.  1.
    10030    2    1    2    0    0  0.00000000000E+00  0.00000000000E+00  0.17784871459E+04  0.21119742888E+04  0.11390429616E+04 0.  0.
        2    1    3    3  502    0  0.42453587930E+03  0.33671945151E+03  0.56413470531E+03  0.78221395256E+03  0.25500000920E-02 0.  1.
       -2    1    3    3    0  502 -0.42453587930E+03 -0.33671945151E+03  0.12143524406E+04  0.13297603362E+04  0.25500000920E-02 0. -1.
</event>
<event>
 5   0  0.1805501E-04  0.2199902E+04  0.7818609E-02  0.8518469E-01
       -2   -1    0    0    0  501  0.00000000000E+00  0.00000000000E+00  0.72620541390E+03  0.72620541391E+03  0.25500000920E-02 0. -1.
        2   -1    0    0  501    0  0.00000000000E+00  0.00000000000E+00 -0.16660464316E+04  0.16660464316E+04  0.25500000920E-02 0.  1.
    10030    2    1    2    0    0  0.00000000000E+00  0.00000000000E+00 -0.93984101768E+03  0.23922518455E+04  0.21999017600E+04 0.  0.
        2    1    3    3  502    0  0.82467089404E+03 -0.10014608426E+03  0.31407513784E+03  0.88811852469E+03  0.25500000920E-02 0. -1.
       -2    1    3    3    0  502 -0.82467089404E+03  0.10014608426E+03 -0.12539161555E+04  0.15041333208E+04  0.25500000920E-02 0.  1.
</event>
<event>
 5   0  0.8784659E-05  0.1869116E+04  0.7818609E-02  0.8670384E-01
       -1   -1    0    0    0  501  0.00000000000E+00  0.00000000000E+00  0.64000211059E+03  0.64000211061E+03  0.50400001928E-02 0.  1.
        1   -1    0    0  501    0  0.00000000000E+00  0.00000000000E+00 -0.13646808613E+04  0.13646808613E+04  0.50400001928E-02 0. -1.
    10030    2    1    2    0    0  0.00000000000E+00  0.00000000000E+00 -0.72467875073E+03  0.20046829719E+04  0.18691159745E+04 0.  0.
        4    1    3    3  502    0 -0.68282916929E+03  0.12391620605E+03  0.30898740788E+03  0.75966159024E+03  0.12699999809E+01 0. -1.
       -4    1    3    3    0  502  0.68282916929E+03 -0.12391620605E+03 -0.10336661586E+04  0.12450213817E+04  0.12699999809E+01 0.  1.
</event>
<event>
 5   0  0.8306787E-05  0.2114682E+04  0.7818609E-02  0.8554803E-01
        1   -1    0    0  501    0  0.00000000000E+00  0.00000000000E+00  0.83024007242E+03  0.83024007244E+03  0.50400001928E-02 0. -1.
       -1   -1    0    0    0  501  0.00000000000E+00  0.00000000000E+00 -0.13465616928E+04  0.13465616928E+04  0.50400001928E-02 0.  1.
    10030    2    1    2    0    0  0.00000000000E+00  0.00000000000E+00 -0.51632162034E+03  0.21768017652E+04  0.21146815149E+04 0.  0.
        1    1    3    3  502    0  0.20038042858E+03 -0.18221744461E+03  0.79392660446E+03  0.83885336416E+03  0.50400001928E-02 0. -1.
       -1    1    3    3    0  502 -0.20038042858E+03  0.18221744461E+03 -0.13102482248E+04  0.13379484011E+04  0.50400001928E-02 0.  1.
</event>
<event>
 5   0  0.8306787E-05  0.2175800E+04  0.7818609E-02  0.8528569E-01
       -1   -1    0    0    0  501  0.00000000000E+00  0.00000000000E+00  0.57743747630E+03  0.57743747632E+03  0.50400001928E-02 0. -1.
        1   -1    0    0  501    0  0.00000000000E+00  0.00000000000E+00 -0.20496186393E+04  0.20496186393E+04  0.50400001928E-02 0.  1.
    10030    2    1    2    0    0  0.00000000000E+00  0.00000000000E+00 -0.14721811630E+04  0.26270561156E+04  0.21758001880E+04 0.  0.
        1    1    3    3  502    0  0.88982426396E+02  0.56820626240E+03  0.37887459150E+03  0.68871052333E+03  0.50400001928E-02 0. -1.
       -1    1    3    3    0  502 -0.88982426396E+02 -0.56820626240E+03 -0.18510557545E+04  0.19383455923E+04  0.50400001928E-02 0.  1.
</event>
<event>
 5   0  0.7954459E-05  0.2180195E+04  0.7818609E-02  0.8526717E-01
       -1   -1    0    0    0  501  0.00000000000E+00  0.00000000000E+00  0.23852054682E+04  0.23852054682E+04  0.50400001928E-02 0.  1.
        1   -1    0    0  501    0  0.00000000000E+00  0.00000000000E+00 -0.49820125126E+03  0.49820125129E+03  0.50400001928E-02 0. -1.
    10030    2    1    2    0    0  0.00000000000E+00  0.00000000000E+00  0.18870042169E+04  0.28834067195E+04  0.21801948067E+04 0.  0.
        5    1    3    3  502    0 -0.68125133030E+01 -0.15272452259E+03  0.23709441465E+04  0.23758723506E+04  0.46999998093E+01 0.  1.
       -5    1    3    3    0  502  0.68125133030E+01  0.15272452259E+03 -0.48393992963E+03  0.50753436891E+03  0.46999998093E+01 0. -1.
</event>
<event>
 5   0  0.1754356E-04  0.2234581E+04  0.7818609E-02  0.8504171E-01
       -2   -1    0    0    0  501  0.00000000000E+00  0.00000000000E+00  0.15038598127E+04  0.15038598127E+04  0.25500000920E-02 0. -1.
        2   -1    0    0  501    0  0.00000000000E+00  0.00000000000E+00 -0.83008930813E+03  0.83008930813E+03  0.25500000920E-02 0.  1.
    10030    2    1    2    0    0  0.00000000000E+00  0.00000000000E+00  0.67377050462E+03  0.23339491209E+04  0.22345809016E+04 0.  0.
        1    1    3    3  502    0  0.66767573302E+03  0.57661104394E+03  0.10529875674E+04  0.13737008399E+04  0.50400001928E-02 0. -1.
       -1    1    3    3    0  502 -0.66767573302E+03 -0.57661104394E+03 -0.37921706274E+03  0.96024828100E+03  0.50400001928E-02 0.  1.
</event>
<event>
 5   0  0.1733962E-04  0.2234437E+04  0.7818609E-02  0.8504230E-01
       -2   -1    0    0    0  501  0.00000000000E+00  0.00000000000E+00  0.88759241795E+03  0.88759241795E+03  0.25500000920E-02 0.  1.
        2   -1    0    0  501    0  0.00000000000E+00  0.00000000000E+00 -0.14062508302E+04  0.14062508302E+04  0.25500000920E-02 0. -1.
    10030    2    1    2    0    0  0.00000000000E+00  0.00000000000E+00 -0.51865841220E+03  0.22938432481E+04  0.22344373561E+04 0.  0.
        3    1    3    3  502    0 -0.50592242854E+03  0.78239795018E+02 -0.12787552469E+04  0.13774229419E+04  0.10100000352E+00 0. -1.
       -3    1    3    3    0  502  0.50592242854E+03 -0.78239795018E+02  0.76009683472E+03  0.91642030618E+03  0.10100000352E+00 0.  1.
</event>
<event>
 5   0  0.1754356E-04  0.2179402E+04  0.7818609E-02  0.8527051E-01
        2   -1    0    0  501    0  0.00000000000E+00  0.00000000000E+00  0.20519581833E+04  0.20519581833E+04  0.25500000920E-02 0. -1.
       -2   -1    0    0    0  501  0.00000000000E+00  0.00000000000E+00 -0.57869034245E+03  0.57869034245E+03  0.25500000920E-02 0.  1.
    10030    2    1    2    0    0  0.00000000000E+00  0.00000000000E+00  0.14732678408E+04  0.26306485257E+04  0.21794021050E+04 0.  0.
        1    1    3    3  502    0  0.54011812134E+03  0.65698000356E+03  0.15589340219E+04  0.17758450368E+04  0.50400001928E-02 0. -1.
       -1    1    3    3    0  502 -0.54011812134E+03 -0.65698000356E+03 -0.85666181065E+02  0.85480348893E+03  0.50400001928E-02 0.  1.
</event>
<event>
 5   0  0.1733962E-04  0.1947758E+04  0.7818609E-02  0.8631443E-01
        2   -1    0    0  501    0  0.00000000000E+00  0.00000000000E+00  0.14438656879E+04  0.14438656879E+04  0.25500000920E-02 0. -1.
       -2   -1    0    0    0  501  0.00000000000E+00  0.00000000000E+00 -0.65687586407E+03  0.65687586407E+03  0.25500000920E-02 0.  1.
    10030    2    1    2    0    0  0.00000000000E+00  0.00000000000E+00  0.78698982385E+03  0.21007415520E+04  0.19477582205E+04 0.  0.
        3    1    3    3  502    0 -0.87157863521E+03 -0.31016600956E+03  0.65312354620E+02  0.92742546046E+03  0.10100000352E+00 0. -1.
       -3    1    3    3    0  502  0.87157863521E+03  0.31016600956E+03  0.72167746923E+03  0.11733160915E+04  0.10100000352E+00 0.  1.
</event>
<event>
 5   0  0.1680258E-04  0.2118940E+04  0.7818609E-02  0.8552946E-01
       -2   -1    0    0    0  501  0.00000000000E+00  0.00000000000E+00  0.10909638567E+04  0.10909638567E+04  0.25500000920E-02 0.  1.
        2   -1    0    0  501    0  0.00000000000E+00  0.00000000000E+00 -0.10288857102E+04  0.10288857102E+04  0.25500000920E-02 0. -1.
    10030    2    1    2    0    0  0.00000000000E+00  0.00000000000E+00  0.62078146517E+02  0.21198495669E+04  0.21189404168E+04 0.  0.
        5    1    3    3  502    0  0.85247459741E+03  0.16418371570E+03  0.63857699820E+03  0.10777160592E+04  0.46999998093E+01 0.  1.
       -5    1    3    3    0  502 -0.85247459741E+03 -0.16418371570E+03 -0.57649885168E+03  0.10421335076E+04  0.46999998093E+01 0. -1.
</event>
<event>
 5   0  0.1680258E-04  0.2177089E+04  0.7818609E-02  0.8528025E-01
       -2   -1    0    0    0  501  0.00000000000E+00  0.00000000000E+00  0.71570805361E+03  0.71570805361E+03  0.25500000920E-02 0. -1.
        2   -1    0    0  501    0  0.00000000000E+00  0.00000000000E+00 -0.16556033775E+04  0.16556033776E+04  0.25500000920E-02 0.  1.
    10030    2    1    2    0    0  0.00000000000E+00  0.00000000000E+00 -0.93989532394E+03  0.23713114312E+04  0.21770885796E+04 0.  0.
        5    1    3    3  502    0 -0.89597779766E+02  0.25566397548E+03  0.67839132696E+03  0.73049894797E+03  0.46999998093E+01 0. -1.
       -5    1    3    3    0  502  0.89597779766E+02 -0.25566397548E+03 -0.16182866509E+04  0.16408124832E+04  0.46999998093E+01 0.  1.
</event>
<event>
 5   0  0.8602414E-05  0.2130931E+04  0.7818609E-02  0.8547739E-01
       -1   -1    0    0    0  501  0.00000000000E+00  0.00000000000E+00  0.66267686924E+03  0.66267686926E+03  0.50400001928E-02 0. -1.
        1   -1    0    0  501    0  0.00000000000E+00  0.00000000000E+00 -0.17130779719E+04  0.17130779719E+04  0.50400001928E-02 0.  1.
    10030    2    1    2    0    0  0.00000000000E+00  0.00000000000E+00 -0.10504011026E+04  0.23757548411E+04  0.21309313900E+04 0.  0.
        3    1    3    3  502    0 -0.49552611659E+03  0.66875716053E+03 -0.12667785347E+04  0.15157539834E+04  0.10100000352E+00 0.  1.
       -3    1    3    3    0  502  0.49552611659E+03 -0.66875716053E+03  0.21637743208E+03  0.86000085773E+03  0.10100000352E+00 0. -1.
</event>
<event>
 5   0  0.1754356E-04  0.2054197E+04  0.7818609E-02  0.8581693E-01
        2   -1    0    0  501    0  0.00000000000E+00  0.00000000000E+00  0.11342969881E+04  0.11342969881E+04  0.25500000920E-02 0.  1.
       -2   -1    0    0    0  501  0.00000000000E+00  0.00000000000E+00 -0.93003055867E+03  0.93003055868E+03  0.25500000920E-02 0. -1.
    10030    2    1    2    0    0  0.00000000000E+00  0.00000000000E+00  0.20426642947E+03  0.20643275468E+04  0.20541965452E+04 0.  0.
        1    1    3    3  502    0  0.27541729514E+02  0.52406010021E+03  0.98939945385E+03  0.11199592916E+04  0.50400001928E-02 0.  1.
       -1    1    3    3    0  502 -0.27541729514E+02 -0.52406010021E+03 -0.78513302438E+03  0.94436825524E+03  0.50400001928E-02 0. -1.
</event>
<event>
 5   0  0.8602414E-05  0.2232966E+04  0.7818609E-02  0.8504831E-01
       -1   -1    0    0    0  501  0.00000000000E+00  0.00000000000E+00  0.11798572859E+04  0.11798572859E+04  0.50400001928E-02 0. -1.
        1   -1    0    0  501    0  0.00000000000E+00  0.00000000000E+00 -0.10565128422E+04  0.10565128422E+04  0.50400001928E-02 0.  1.
    10030    2    1    2    0    0  0.00000000000E+00  0.00000000000E+00  0.12334444370E+03  0.22363701281E+04  0.22329660763E+04 0.  0.
        3    1    3    3  502    0 -0.47373613199E+03  0.96016776239E+03 -0.25533251163E+03  0.11007010295E+04  0.10100000352E+00 0.  1.
       -3    1    3    3    0  502  0.47373613199E+03 -0.96016776239E+03  0.37867695533E+03  0.11356690985E+04  0.10100000352E+00 0. -1.
</event>
<event>
 5   0  0.8470971E-05  0.2235563E+04  0.7818609E-02  0.8503770E-01
        1   -1    0    0  501    0  0.00000000000E+00  0.00000000000E+00  0.16538173068E+04  0.16538173068E+04  0.50400001928E-02 0. -1.
       -1   -1    0    0    0  501  0.00000000000E+00  0.00000000000E+00 -0.75548590577E+03  0.75548590579E+03  0.50400001928E-02 0.  1.
    10030    2    1    2    0    0  0.00000000000E+00  0.00000000000E+00  0.89833140100E+03  0.24093032126E+04  0.22355631649E+04 0.  0.
        2    1    3    3  502    0  0.96635870093E+03 -0.23920025020E+03  0.99696990560E+03  0.14089055650E+04  0.25500000920E-02 0. -1.
       -2    1    3    3    0  502 -0.96635870093E+03  0.23920025020E+03 -0.98638504600E+02  0.10003976475E+04  0.25500000920E-02 0.  1.
</event>
<event>
 5   0  0.8784659E-05  0.2183085E+04  0.7818609E-02  0.8525501E-01
        1   -1    0    0  501    0  0.00000000000E+00  0.00000000000E+00  0.15993431719E+04  0.15993431719E+04  0.50400001928E-02 0.  1.
       -1   -1    0    0    0  501  0.00000000000E+00  0.00000000000E+00 -0.74497177988E+03  0.74497177990E+03  0.50400001928E-02 0. -1.
    10030    2    1    2    0    0  0.00000000000E+00  0.00000000000E+00  0.85437139205E+03  0.23443149518E+04  0.21830854582E+04 0.  0.
        4    1    3    3  502    0 -0.87041907502E+03  0.55844554347E+03  0.52145949255E+02  0.10354765106E+04  0.12699999809E+01 0. -1.
       -4    1    3    3    0  502  0.87041907502E+03 -0.55844554347E+03  0.80222544280E+03  0.13088384412E+04  0.12699999809E+01 0.  1.
</event>
<event>
 5   0  0.1798917E-04  0.2171404E+04  0.7818609E-02  0.8530425E-01
       -2   -1    0    0    0  501  0.00000000000E+00  0.00000000000E+00  0.83470676217E+03  0.83470676217E+03  0.25500000920E-02 0. -1.
        2   -1    0    0  501    0  0.00000000000E+00  0.00000000000E+00 -0.14121715848E+04  0.14121715848E+04  0.25500000920E-02 0.  1.
    10030    2    1    2    0    0  0.00000000000E+00  0.00000000000E+00 -0.57746482261E+03  0.22468783469E+04  0.21714043116E+04 0.  0.
        4    1    3    3  502    0 -0.64925074378E+02  0.84740328954E+02 -0.14067268977E+04  0.14107722588E+04  0.12699999809E+01 0.  1.
       -4    1    3    3    0  502  0.64925074378E+02 -0.84740328954E+02  0.82926207506E+03  0.83610608816E+03  0.12699999809E+01 0. -1.
</event>
<event>
 5   0  0.6250625E-05  0.2164786E+04  0.7818609E-02  0.8533229E-01
       -3   -1    0    0    0  501  0.00000000000E+00  0.00000000000E+00  0.84879745772E+03  0.84879746373E+03  0.10100000352E+00 0. -1.
        3   -1    0    0  501    0  0.00000000000E+00  0.00000000000E+00 -0.13802763727E+04  0.13802763764E+04  0.10100000352E+00 0.  1.
    10030    2    1    2    0    0  0.00000000000E+00  0.00000000000E+00 -0.53147891502E+03  0.22290738402E+04  0.21647864439E+04 0.  0.
        2    1    3    3  502    0  0.49616586798E+03  0.91471294844E+03 -0.57240030306E+03  0.11876541810E+04  0.25500000920E-02 0.  1.
       -2    1    3    3    0  502 -0.49616586798E+03 -0.91471294844E+03  0.40921388039E+02  0.10414196592E+04  0.25500000920E-02 0. -1.
</event>
<event>
 5   0  0.7954459E-05  0.2138839E+04  0.7818609E-02  0.8544325E-01
        1   -1    0    0  501    0  0.00000000000E+00  0.00000000000E+00  0.18002055135E+04  0.18002055135E+04  0.50400001928E-02 0.  1.
       -1   -1    0    0    0  501  0.00000000000E+00  0.00000000000E+00 -0.63529322606E+03  0.63529322608E+03  0.50400001928E-02 0. -1.
    10030    2    1    2    0    0  0.00000000000E+00  0.00000000000E+00  0.11649122875E+04  0.24354987396E+04  0.21388392818E+04 0.  0.
        5    1    3    3  502    0  0.70215531555E+03  0.85878486584E+02 -0.33080707582E+03  0.78093060705E+03  0.46999998093E+01 0. -1.
       -5    1    3    3    0  502 -0.70215531555E+03 -0.85878486584E+02  0.14957193633E+04  0.16545681326E+04  0.46999998093E+01 0.  1.
</event>
<event>
 5   0  0.7954459E-05  0.2337486E+04  0.7818609E-02  0.8463286E-01
        1   -1    0    0  501    0  0.00000000000E+00  0.00000000000E+00  0.82597088947E+03  0.82597088949E+03  0.50400001928E-02 0.  1.
       -1   -1    0    0    0  501  0.00000000000E+00  0.00000000000E+00 -0.16537635495E+04  0.16537635495E+04  0.50400001928E-02 0. -1.
    10030    2    1    2    0    0  0.00000000000E+00  0.00000000000E+00 -0.82779266006E+03  0.24797344390E+04  0.23374862994E+04 0.  0.
        5    1    3    3  502    0 -0.47787023605E+03 -0.95853929569E+03 -0.91010096642E+03  0.14055117940E+04  0.46999998093E+01 0. -1.
       -5    1    3    3    0  502  0.47787023605E+03  0.95853929569E+03  0.82308306363E+02  0.10742226451E+04  0.46999998093E+01 0.  1.
</event>
<event>
 5   0  0.1680258E-04  0.1460938E+04  0.7818609E-02  0.8910852E-01
        2   -1    0    0  501    0  0.00000000000E+00  0.00000000000E+00  0.16195274441E+04  0.16195274441E+04  0.25500000920E-02 0. -1.
       -2   -1    0    0    0  501  0.00000000000E+00  0.00000000000E+00 -0.32946953062E+03  0.32946953063E+03  0.25500000920E-02 0.  1.
    10030    2    1    2    0    0  0.00000000000E+00  0.00000000000E+00  0.12900579135E+04  0.19489969747E+04  0.14609379821E+04 0.  0.
        5    1    3    3  502    0  0.59518028085E+03  0.17140926419E+03  0.12844459137E+03  0.63256683886E+03  0.46999998093E+01 0.  1.
       -5    1    3    3    0  502 -0.59518028085E+03 -0.17140926419E+03  0.11616133221E+04  0.13164301359E+04  0.46999998093E+01 0. -1.
</event>
<event>
 5   0  0.1754356E-04  0.2264543E+04  0.7818609E-02  0.8492034E-01
       -2   -1    0    0    0  501  0.00000000000E+00  0.00000000000E+00  0.10853616274E+04  0.10853616274E+04  0.25500000920E-02 0. -1.
        2   -1    0    0  501    0  0.00000000000E+00  0.00000000000E+00 -0.11812086191E+04  0.11812086191E+04  0.25500000920E-02 0.  1.
    10030    2    1    2    0    0  0.00000000000E+00  0.00000000000E+00 -0.95846991677E+02  0.22665702465E+04  0.22645427875E+04 0.  0.
        1    1    3    3  502    0 -0.90314383268E+02  0.82992866960E+02 -0.11745395422E+04  0.11809266023E+04  0.50400001928E-02 0.  1.
       -1    1    3    3    0  502  0.90314383268E+02 -0.82992866960E+02  0.10786925505E+04  0.10856436442E+04  0.50400001928E-02 0. -1.
</event>
<event>
 5   0  0.8470971E-05  0.2151693E+04  0.7818609E-02  0.8538808E-01
        1   -1    0    0  501    0  0.00000000000E+00  0.00000000000E+00  0.12550289836E+04  0.12550289836E+04  0.50400001928E-02 0. -1.
       -1   -1    0    0    0  501  0.00000000000E+00  0.00000000000E+00 -0.92224655900E+03  0.92224655901E+03  0.50400001928E-02 0.  1.
    10030    2    1    2    0    0  0.00000000000E+00  0.00000000000E+00  0.33278242459E+03  0.21772755426E+04  0.21516934369E+04 0.  0.
        2    1    3    3  502    0 -0.72313912431E+03  0.78824984777E+03  0.28255216244E+03  0.11063922180E+04  0.25500000920E-02 0.  1.
       -2    1    3    3    0  502  0.72313912431E+03 -0.78824984777E+03  0.50230262147E+02  0.10708833246E+04  0.25500000920E-02 0. -1.
</event>
<event>
 5   0  0.1680258E-04  0.2340368E+04  0.7818609E-02  0.8462172E-01
       -2   -1    0    0    0  501  0.00000000000E+00  0.00000000000E+00  0.23627371385E+04  0.23627371385E+04  0.25500000920E-02 0. -1.
        2   -1    0    0  501    0  0.00000000000E+00  0.00000000000E+00 -0.57955289328E+03  0.57955289329E+03  0.25500000920E-02 0.  1.
    10030    2    1    2    0    0  0.00000000000E+00  0.00000000000E+00  0.17831842452E+04  0.29422900318E+04  0.23403684707E+04 0.  0.
        5    1    3    3  502    0 -0.29904754291E+03 -0.56106059386E+03 -0.34346001500E+03  0.72263773415E+03  0.46999998093E+01 0.  1.
       -5    1    3    3    0  502  0.29904754291E+03  0.56106059386E+03  0.21266442602E+04  0.22196522977E+04  0.46999998093E+01 0. -1.
</event>
<event>
 5   0  0.1754356E-04  0.2087298E+04  0.7818609E-02  0.8566859E-01
       -2   -1    0    0    0  501  0.00000000000E+00  0.00000000000E+00  0.80955116194E+03  0.80955116194E+03  0.25500000920E-02 0.  1.
        2   -1    0    0  501    0  0.00000000000E+00  0.00000000000E+00 -0.13454410775E+04  0.13454410776E+04  0.25500000920E-02 0. -1.
    10030    2    1    2    0    0  0.00000000000E+00  0.00000000000E+00 -0.53588991561E+03  0.21549922395E+04  0.20872981461E+04 0.  0.
        1    1    3    3  502    0  0.39199075671E+03  0.70984877854E+03 -0.94626211697E+03  0.12461757644E+04  0.50400001928E-02 0. -1.
       -1    1    3    3    0  502 -0.39199075671E+03 -0.70984877854E+03  0.41037220136E+03  0.90881647510E+03  0.50400001928E-02 0.  1.
</event>
<event>
 5   0  0.1754356E-04  0.2134630E+04  0.7818609E-02  0.8546140E-01
        2   -1    0    0  501    0  0.00000000000E+00  0.00000000000E+00  0.64530808145E+03  0.64530808146E+03  0.25500000920E-02 0.  1.
       -2   -1    0    0    0  501  0.00000000000E+00  0.00000000000E+00 -0.17652989725E+04  0.17652989725E+04  0.25500000920E-02 0. -1.
    10030    2    1    2    0    0  0.00000000000E+00  0.00000000000E+00 -0.11199908911E+04  0.24106070540E+04  0.21346303597E+04 0.  0.
        1    1    3    3  502    0 -0.10012123891E+04  0.13397616409E+02 -0.97730569680E+03  0.13991898260E+04  0.50400001928E-02 0.  1.
       -1    1    3    3    0  502  0.10012123891E+04 -0.13397616409E+02 -0.14268519428E+03  0.10114172279E+04  0.50400001928E-02 0. -1.
</event>
<event>
 5   0  0.1733962E-04  0.2182443E+04  0.7818609E-02  0.8525771E-01
       -2   -1    0    0    0  501  0.00000000000E+00  0.00000000000E+00  0.12911123809E+04  0.12911123809E+04  0.25500000920E-02 0. -1.
        2   -1    0    0  501    0  0.00000000000E+00  0.00000000000E+00 -0.92227823963E+03  0.92227823963E+03  0.25500000920E-02 0.  1.
    10030    2    1    2    0    0  0.00000000000E+00  0.00000000000E+00  0.36883414123E+03  0.22133906205E+04  0.21824434506E+04 0.  0.
        3    1    3    3  502    0  0.85787863150E+03 -0.57418516460E+02 -0.49705775300E+03  0.99313596875E+03  0.10100000352E+00 0.  1.
       -3    1    3    3    0  502 -0.85787863150E+03  0.57418516460E+02  0.86589189423E+03  0.12202546517E+04  0.10100000352E+00 0. -1.
</event>
<event>
 5   0  0.8784659E-05  0.2136457E+04  0.7818609E-02  0.8545352E-01
       -1   -1    0    0    0  501  0.00000000000E+00  0.00000000000E+00  0.70126854417E+03  0.70126854419E+03  0.50400001928E-02 0. -1.
        1   -1    0    0  501    0  0.00000000000E+00  0.00000000000E+00 -0.16272109488E+04  0.16272109488E+04  0.50400001928E-02 0.  1.
    10030    2    1    2    0    0  0.00000000000E+00  0.00000000000E+00 -0.92594240467E+03  0.23284794930E+04  0.21364567425E+04 0.  0.
        4    1    3    3  502    0  0.10058025302E+04  0.31783188714E+03 -0.27912568464E+03  0.10911317972E+04  0.12699999809E+01 0. -1.
       -4    1    3    3    0  502 -0.10058025302E+04 -0.31783188714E+03 -0.64681672003E+03  0.12373476958E+04  0.12699999809E+01 0.  1.
</event>
<event>
 5   0  0.8784659E-05  0.2065662E+04  0.7818609E-02  0.8576522E-01
        1   -1    0    0  501    0  0.00000000000E+00  0.00000000000E+00  0.29455877253E+04  0.29455877253E+04  0.50400001928E-02 0. -1.
       -1   -1    0    0    0  501  0.00000000000E+00  0.00000000000E+00 -0.36214834420E+03  0.36214834424E+03  0.50400001928E-02 0.  1.
    10030    2    1    2    0    0  0.00000000000E+00  0.00000000000E+00  0.25834393811E+04  0.33077360695E+04  0.20656618479E+04 0.  0.
        4    1    3    3  502    0  0.84114977836E+03 -0.61656435073E+00  0.22514355492E+04  0.24034344124E+04  0.12699999809E+01 0. -1.
       -4    1    3    3    0  502 -0.84114977836E+03  0.61656435073E+00  0.33200383193E+03  0.90430165713E+03  0.12699999809E+01 0.  1.
</event>
<event>
 5   0  0.8306787E-05  0.2315452E+04  0.7818609E-02  0.8471853E-01
        1   -1    0    0  501    0  0.00000000000E+00  0.00000000000E+00  0.11263519212E+04  0.11263519212E+04  0.50400001928E-02 0. -1.
       -1   -1    0    0    0  501  0.00000000000E+00  0.00000000000E+00 -0.11899743060E+04  0.11899743060E+04  0.50400001928E-02 0.  1.
    10030    2    1    2    0    0  0.00000000000E+00  0.00000000000E+00 -0.63622384827E+02  0.23163262272E+04  0.23154523063E+04 0.  0.
        1    1    3    3  502    0 -0.69678242150E+03  0.85441231168E+03 -0.38522020683E+03  0.11678701764E+04  0.50400001928E-02 0.  1.
       -1    1    3    3    0  502  0.69678242150E+03 -0.85441231168E+03  0.32159782200E+03  0.11484560507E+04  0.50400001928E-02 0. -1.
</event>
<event>
 5   0  0.1680258E-04  0.2237118E+04  0.7818609E-02  0.8503136E-01
        2   -1    0    0  501    0  0.00000000000E+00  0.00000000000E+00  0.70171438467E+03  0.70171438468E+03  0.25500000920E-02 0.  1.
       -2   -1    0    0    0  501  0.00000000000E+00  0.00000000000E+00 -0.17830248936E+04  0.17830248936E+04  0.25500000920E-02 0. -1.
    10030    2    1    2    0    0  0.00000000000E+00  0.00000000000E+00 -0.10813105090E+04  0.24847392783E+04  0.22371179818E+04 0.  0.
        5    1    3    3  502    0 -0.49952350452E+03 -0.49872715594E+03  0.42308605575E+03  0.82296804811E+03  0.46999998093E+01 0.  1.
       -5    1    3    3    0  502  0.49952350452E+03  0.49872715594E+03 -0.15043965647E+04  0.16617712302E+04  0.46999998093E+01 0. -1.
</event>
<event>
 5   0  0.8602414E-05  0.2135723E+04  0.7818609E-02  0.8545669E-01
       -1   -1    0    0    0  501  0.00000000000E+00  0.00000000000E+00  0.60377043297E+03  0.60377043300E+03  0.50400001928E-02 0.  1.
        1   -1    0    0  501    0  0.00000000000E+00  0.00000000000E+00 -0.18886775533E+04  0.18886775533E+04  0.50400001928E-02 0. -1.
    10030    2    1    2    0    0  0.00000000000E+00  0.00000000000E+00 -0.12849071203E+04  0.24924479863E+04  0.21357225139E+04 0.  0.
        3    1    3    3  502    0 -0.23898134888E+03  0.48745655993E+03 -0.17156128623E+04  0.17994592206E+04  0.10100000352E+00 0. -1.
       -3    1    3    3    0  502  0.23898134888E+03 -0.48745655993E+03  0.43070574205E+03  0.69298876568E+03  0.10100000352E+00 0.  1.
</event>
<event>
 5   0  0.1680258E-04  0.2017328E+04  0.7818609E-02  0.8598562E-01
       -2   -1    0    0    0  501  0.00000000000E+00  0.00000000000E+00  0.50551868287E+03  0.50551868287E+03  0.25500000920E-02 0.  1.
        2   -1    0    0  501    0  0.00000000000E+00  0.00000000000E+00 -0.20125928175E+04  0.20125928175E+04  0.25500000920E-02 0. -1.
    10030    2    1    2    0    0  0.00000000000E+00  0.00000000000E+00 -0.15070741346E+04  0.25181115004E+04  0.20173282036E+04 0.  0.
        5    1    3    3  502    0  0.52525816928E+01  0.17335470705E+03  0.48675323082E+03  0.51674968968E+03  0.46999998093E+01 0.  1.
       -5    1    3    3    0  502 -0.52525816928E+01 -0.17335470705E+03 -0.19938273655E+04  0.20013618107E+04  0.46999998093E+01 0. -1.
</event>
<event>
 5   0  0.1754356E-04  0.2167732E+04  0.7818609E-02  0.8531980E-01
        2   -1    0    0  501    0  0.00000000000E+00  0.00000000000E+00  0.79299172537E+03  0.79299172538E+03  0.25500000920E-02 0.  1.
       -2   -1    0    0    0  501  0.00000000000E+00  0.00000000000E+00 -0.14814353128E+04  0.14814353128E+04  0.25500000920E-02 0. -1.
    10030    2    1    2    0    0  0.00000000000E+00  0.00000000000E+00 -0.68844358739E+03  0.22744270381E+04  0.21677324048E+04 0.  0.
        1    1    3    3  502    0  0.59188320144E+03 -0.48225958159E+03  0.46297235553E+03  0.89288489191E+03  0.50400001928E-02 0.  1.
       -1    1    3    3    0  502 -0.59188320144E+03  0.48225958159E+03 -0.11514159429E+04  0.13815421462E+04  0.50400001928E-02 0. -1.
</event>
<event>
 5   0  0.1798917E-04  0.2202390E+04  0.7818609E-02  0.8517434E-01
       -2   -1    0    0    0  501  0.00000000000E+00  0.00000000000E+00  0.13718708486E+04  0.13718708486E+04  0.25500000920E-02 0. -1.
        2   -1    0    0  501    0  0.00000000000E+00  0.00000000000E+00 -0.88392495422E+03  0.88392495422E+03  0.25500000920E-02 0.  1.
    10030    2    1    2    0    0  0.00000000000E+00  0.00000000000E+00  0.48794589442E+03  0.22557958029E+04  0.22023904078E+04 0.  0.
        4    1    3    3  502    0  0.52831434493E+03 -0.53648588807E+03 -0.57906443657E+03  0.94986861710E+03  0.12699999809E+01 0.  1.
       -4    1    3    3    0  502 -0.52831434493E+03  0.53648588807E+03  0.10670103310E+04  0.13059271858E+04  0.12699999809E+01 0. -1.
</event>
<event>
 5   0  0.1680258E-04  0.1383234E+04  0.7818609E-02  0.8966045E-01
        2   -1    0    0  501    0  0.00000000000E+00  0.00000000000E+00  0.88408326560E+03  0.88408326560E+03  0.25500000920E-02 0. -1.
       -2   -1    0    0    0  501  0.00000000000E+00  0.00000000000E+00 -0.54105062232E+03  0.54105062232E+03  0.25500000920E-02 0.  1.
    10030    2    1    2    0    0  0.00000000000E+00  0.00000000000E+00  0.34303264328E+03  0.14251338879E+04  0.13832336043E+04 0.  0.
        5    1    3    3  502    0 -0.40137318888E+02 -0.26432481744E+03  0.82867201482E+03  0.87074566414E+03  0.46999998093E+01 0. -1.
       -5    1    3    3    0  502  0.40137318888E+02  0.26432481744E+03 -0.48563937154E+03  0.55438822378E+03  0.46999998093E+01 0.  1.
</event>
<event>
 5   0  0.8784659E-05  0.2225809E+04  0.7818609E-02  0.8507762E-01
        1   -1    0    0  501    0  0.00000000000E+00  0.00000000000E+00  0.41871896314E+03  0.41871896317E+03  0.50400001928E-02 0.  1.
       -1   -1    0    0    0  501  0.00000000000E+00  0.00000000000E+00 -0.29579661318E+04  0.29579661318E+04  0.50400001928E-02 0. -1.
    10030    2    1    2    0    0  0.00000000000E+00  0.00000000000E+00 -0.25392471686E+04  0.33766850950E+04  0.22258090770E+04 0.  0.
        4    1    3    3  502    0  0.58905676023E+03  0.16607122253E+03  0.14049732187E+03  0.62793998764E+03  0.12699999809E+01 0.  1.
       -4    1    3    3    0  502 -0.58905676023E+03 -0.16607122253E+03 -0.26797444905E+04  0.27487451073E+04  0.12699999809E+01 0. -1.
</event>
<event>
 5   0  0.1754356E-04  0.2220574E+04  0.7818609E-02  0.8509913E-01
       -2   -1    0    0    0  501  0.00000000000E+00  0.00000000000E+00  0.81584783676E+03  0.81584783677E+03  0.25500000920E-02 0. -1.
        2   -1    0    0  501    0  0.00000000000E+00  0.00000000000E+00 -0.15109885268E+04  0.15109885268E+04  0.25500000920E-02 0.  1.
    10030    2    1    2    0    0  0.00000000000E+00  0.00000000000E+00 -0.69514069005E+03  0.23268363636E+04  0.22205735484E+04 0.  0.
        1    1    3    3  502    0  0.48060749417E+03 -0.51424489285E+03 -0.12473255591E+04  0.14322194048E+04  0.50400001928E-02 0. -1.
       -1    1    3    3    0  502 -0.48060749417E+03  0.51424489285E+03  0.55218486902E+03  0.89461695874E+03  0.50400001928E-02 0.  1.
</event>
<event>
 5   0  0.8784659E-05  0.2344795E+04  0.7818609E-02  0.8460465E-01
        1   -1    0    0  501    0  0.00000000000E+00  0.00000000000E+00  0.13445550697E+04  0.13445550697E+04  0.50400001928E-02 0.  1.
       -1   -1    0    0    0  501  0.00000000000E+00  0.00000000000E+00 -0.10222834349E+04  0.10222834349E+04  0.50400001928E-02 0. -1.
    10030    2    1    2    0    0  0.00000000000E+00  0.00000000000E+00  0.32227163477E+03  0.23668385046E+04  0.23447954069E+04 0.  0.
        4    1    3    3  502    0  0.50904448716E+03  0.93302513992E+03  0.66061339428E+03  0.12514287320E+04  0.12699999809E+01 0.  1.
       -4    1    3    3    0  502 -0.50904448716E+03 -0.93302513992E+03 -0.33834175951E+03  0.11154097726E+04  0.12699999809E+01 0. -1.
</event>
<event>
 5   0  0.8470971E-05  0.1990560E+04  0.7818609E-02  0.8611047E-01
        1   -1    0    0  501    0  0.00000000000E+00  0.00000000000E+00  0.70147267765E+03  0.70147267767E+03  0.50400001928E-02 0. -1.
       -1   -1    0    0    0  501  0.00000000000E+00  0.00000000000E+00 -0.14121461277E+04  0.14121461277E+04  0.50400001928E-02 0.  1.
    10030    2    1    2    0    0  0.00000000000E+00  0.00000000000E+00 -0.71067345002E+03  0.21136188053E+04  0.19905596454E+04 0.  0.
        2    1    3    3  502    0  0.82669260165E+03 -0.71988114306E+02 -0.93883533431E+03  0.12530022870E+04  0.25500000920E-02 0.  1.
       -2    1    3    3    0  502 -0.82669260165E+03  0.71988114306E+02  0.22816188429E+03  0.86061651836E+03  0.25500000920E-02 0. -1.
</event>
<event>
 5   0  0.8470971E-05  0.2182270E+04  0.7818609E-02  0.8525844E-01
       -1   -1    0    0    0  501  0.00000000000E+00  0.00000000000E+00  0.18737352416E+04  0.18737352416E+04  0.50400001928E-02 0.  1.
        1   -1    0    0  501    0  0.00000000000E+00  0.00000000000E+00 -0.63540232134E+03  0.63540232136E+03  0.50400001928E-02 0. -1.
    10030    2    1    2    0    0  0.00000000000E+00  0.00000000000E+00  0.12383329202E+04  0.25091375629E+04  0.21822701227E+04 0.  0.
        2    1    3    3  502    0 -0.10019404737E+04 -0.14203942822E+03  0.14998191025E+03  0.10230124562E+04  0.25500000920E-02 0. -1.
       -2    1    3    3    0  502  0.10019404737E+04  0.14203942822E+03  0.10883510100E+04  0.14861251068E+04  0.25500000920E-02 0.  1.
</event>
<event>
 5   0  0.8306787E-05  0.2305461E+04  0.7818609E-02  0.8475771E-01
       -1   -1    0    0    0  501  0.00000000000E+00  0.00000000000E+00  0.16183712652E+04  0.16183712652E+04  0.50400001928E-02 0. -1.
        1   -1    0    0  501    0  0.00000000000E+00  0.00000000000E+00 -0.82106442724E+03  0.82106442725E+03  0.50400001928E-02 0.  1.
    10030    2    1    2    0    0  0.00000000000E+00  0.00000000000E+00  0.79730683800E+03  0.24394356925E+04  0.23054605405E+04 0.  0.
        1    1    3    3  502    0 -0.51335761599E+03 -0.96484670012E+03  0.78645096833E+03  0.13464658637E+04  0.50400001928E-02 0. -1.
       -1    1    3    3    0  502  0.51335761599E+03  0.96484670012E+03  0.10855869667E+02  0.10929698287E+04  0.50400001928E-02 0.  1.
</event>
<event>
 5   0  0.8784659E-05  0.2217770E+04  0.7818609E-02  0.8511068E-01
       -1   -1    0    0    0  501  0.00000000000E+00  0.00000000000E+00  0.11629208199E+04  0.11629208199E+04  0.50400001928E-02 0. -1.
        1   -1    0    0  501    0  0.00000000000E+00  0.00000000000E+00 -0.10573603747E+04  0.10573603747E+04  0.50400001928E-02 0.  1.
    10030    2    1    2    0    0  0.00000000000E+00  0.00000000000E+00  0.10556044523E+03  0.22202811947E+04  0.22177704065E+04 0.  0.
        4    1    3    3  502    0  0.99541364738E+03  0.72733535812E+02 -0.43097100882E+03  0.10871412604E+04  0.12699999809E+01 0.  1.
       -4    1    3    3    0  502 -0.99541364738E+03 -0.72733535812E+02  0.53653145406E+03  0.11331399343E+04  0.12699999809E+01 0. -1.
</event>
<event>
 5   0  0.1798917E-04  0.2225499E+04  0.7818609E-02  0.8507889E-01
       -2   -1    0    0    0  501  0.00000000000E+00  0.00000000000E+00  0.64659088172E+03  0.64659088173E+03  0.25500000920E-02 0. -1.
        2   -1    0    0  501    0  0.00000000000E+00  0.00000000000E+00 -0.19149849824E+04  0.19149849824E+04  0.25500000920E-02 0.  1.
    10030    2    1    2    0    0  0.00000000000E+00  0.00000000000E+00 -0.12683941007E+04  0.25615758642E+04  0.22254993402E+04 0.  0.
        4    1    3    3  502    0  0.29358900897E+03 -0.84533470832E+03 -0.13954544431E+04  0.16577333896E+04  0.12699999809E+01 0.  1.
       -4    1    3    3    0  502 -0.29358900897E+03  0.84533470832E+03  0.12706034243E+03  0.90384247455E+03  0.12699999809E+01 0. -1.
</event>
<event>
 5   0  0.1798917E-04  0.2208950E+04  0.7818609E-02  0.8514712E-01
       -2   -1    0    0    0  501  0.00000000000E+00  0.00000000000E+00  0.61423132512E+03  0.61423132512E+03  0.25500000920E-02 0.  1.
        2   -1    0    0  501    0  0.00000000000E+00  0.00000000000E+00 -0.19860022289E+04  0.19860022289E+04  0.25500000920E-02 0. -1.
    10030    2    1    2    0    0  0.00000000000E+00  0.00000000000E+00 -0.13717709038E+04  0.26002335541E+04  0.22089497783E+04 0.  0.
        4    1    3    3  502    0  0.44511326697E+03 -0.40575113080E+03  0.40390529679E+03  0.72519025246E+03  0.12699999809E+01 0.  1.
       -4    1    3    3    0  502 -0.44511326697E+03  0.40575113080E+03 -0.17756762006E+04  0.18750433016E+04  0.12699999809E+01 0. -1.
</event>
<event>
 5   0  0.7954459E-05  0.2164533E+04  0.7818609E-02  0.8533337E-01
       -1   -1    0    0    0  501  0.00000000000E+00  0.00000000000E+00  0.62074477396E+03  0.62074477398E+03  0.50400001928E-02 0. -1.
        1   -1    0    0  501    0  0.00000000000E+00  0.00000000000E+00 -0.18869276696E+04  0.18869276696E+04  0.50400001928E-02 0.  1.
    10030    2    1    2    0    0  0.00000000000E+00  0.00000000000E+00 -0.12661828956E+04  0.25076724436E+04  0.21645327346E+04 0.  0.
        5    1    3    3  502    0 -0.24370013432E+03  0.96535570704E+03 -0.11245819814E+04  0.15020013713E+04  0.46999998093E+01 0.  1.
       -5    1    3    3    0  502  0.24370013432E+03 -0.96535570704E+03 -0.14160091418E+03  0.10056710722E+04  0.46999998093E+01 0. -1.
</event>
<event>
 5   0  0.1805501E-04  0.2048078E+04  0.7818609E-02  0.8584467E-01
       -2   -1    0    0    0  501  0.00000000000E+00  0.00000000000E+00  0.65239243420E+03  0.65239243420E+03  0.25500000920E-02 0. -1.
        2   -1    0    0  501    0  0.00000000000E+00  0.00000000000E+00 -0.16074001343E+04  0.16074001343E+04  0.25500000920E-02 0.  1.
    10030    2    1    2    0    0  0.00000000000E+00  0.00000000000E+00 -0.95500770012E+03  0.22597925685E+04  0.20480778172E+04 0.  0.
        2    1    3    3  502    0 -0.85783422183E+03 -0.55345963257E+03 -0.38883107804E+03  0.10924224111E+04  0.25500000920E-02 0. -1.
       -2    1    3    3    0  502  0.85783422183E+03  0.55345963257E+03 -0.56617662207E+03  0.11673701574E+04  0.25500000920E-02 0.  1.
</event>
<event>
 5   0  0.7954459E-05  0.2091142E+04  0.7818609E-02  0.8565155E-01
        1   -1    0    0  501    0  0.00000000000E+00  0.00000000000E+00  0.12293028242E+04  0.12293028242E+04  0.50400001928E-02 0.  1.
       -1   -1    0    0    0  501  0.00000000000E+00  0.00000000000E+00 -0.88930004441E+03  0.88930004442E+03  0.50400001928E-02 0. -1.
    10030    2    1    2    0    0  0.00000000000E+00  0.00000000000E+00  0.34000277980E+03  0.21186028686E+04  0.20911423253E+04 0.  0.
        5    1    3    3  502    0 -0.43994272562E+03  0.69364737163E+03 -0.48541010185E+03  0.95411809278E+03  0.46999998093E+01 0. -1.
       -5    1    3    3    0  502  0.43994272562E+03 -0.69364737163E+03  0.82541288165E+03  0.11644847759E+04  0.46999998093E+01 0.  1.
</event>
<event>
 5   0  0.1754356E-04  0.2195594E+04  0.7818609E-02  0.8520264E-01
       -2   -1    0    0    0  501  0.00000000000E+00  0.00000000000E+00  0.59236749995E+03  0.59236749996E+03  0.25500000920E-02 0.  1.
        2   -1    0    0  501    0  0.00000000000E+00  0.00000000000E+00 -0.20344768213E+04  0.20344768213E+04  0.25500000920E-02 0. -1.
    10030    2    1    2    0    0  0.00000000000E+00  0.00000000000E+00 -0.14421093214E+04  0.26268443213E+04  0.21955937223E+04 0.  0.
        1    1    3    3  502    0 -0.69714204913E+02 -0.94718266186E+03 -0.62326783197E+02  0.95178763031E+03  0.50400001928E-02 0. -1.
       -1    1    3    3    0  502  0.69714204913E+02  0.94718266186E+03 -0.13797825382E+04  0.16750566910E+04  0.50400001928E-02 0.  1.
</event>
<event>
 5   0  0.1798917E-04  0.2224263E+04  0.7818609E-02  0.8508397E-01
        2   -1    0    0  501    0  0.00000000000E+00  0.00000000000E+00  0.98777223245E+03  0.98777223246E+03  0.25500000920E-02 0.  1.
       -2   -1    0    0    0  501  0.00000000000E+00  0.00000000000E+00 -0.12521475445E+04  0.12521475445E+04  0.25500000920E-02 0. -1.
    10030    2    1    2    0    0  0.00000000000E+00  0.00000000000E+00 -0.26437531201E+03  0.22399197769E+04  0.22242630918E+04 0.  0.
        4    1    3    3  502    0 -0.16473215385E+03  0.10998626773E+04 -0.13280106542E+03  0.11200322885E+04  0.12699999809E+01 0. -1.
       -4    1    3    3    0  502  0.16473215385E+03 -0.10998626773E+04 -0.13157424660E+03  0.11198874884E+04  0.12699999809E+01 0.  1.
</event>
<event>
 5   0  0.7954459E-05  0.1982650E+04  0.7818609E-02  0.8614775E-01
       -1   -1    0    0    0  501  0.00000000000E+00  0.00000000000E+00  0.70675130567E+03  0.70675130568E+03  0.50400001928E-02 0. -1.
        1   -1    0    0  501    0  0.00000000000E+00  0.00000000000E+00 -0.13904829626E+04  0.13904829626E+04  0.50400001928E-02 0.  1.
    10030    2    1    2    0    0  0.00000000000E+00  0.00000000000E+00 -0.68373165695E+03  0.20972342683E+04  0.19826503972E+04 0.  0.
        5    1    3    3  502    0 -0.12309947285E+03 -0.95147527410E+03 -0.77957784560E+02  0.96257892332E+03  0.46999998093E+01 0.  1.
       -5    1    3    3    0  502  0.12309947285E+03  0.95147527410E+03 -0.60577387239E+03  0.11346553450E+04  0.46999998093E+01 0. -1.
</event>
<event>
 5   0  0.1798917E-04  0.2199688E+04  0.7818609E-02  0.8518558E-01
       -2   -1    0    0    0  501  0.00000000000E+00  0.00000000000E+00  0.36847762924E+03  0.36847762925E+03  0.25500000920E-02 0. -1.
        2   -1    0    0  501    0  0.00000000000E+00  0.00000000000E+00 -0.32828486540E+04  0.32828486540E+04  0.25500000920E-02 0.  1.
    10030    2    1    2    0    0  0.00000000000E+00  0.00000000000E+00 -0.29143710247E+04  0.36513262832E+04  0.21996875134E+04 0.  0.
        4    1    3    3  502    0 -0.41934992273E+02  0.10987955420E+04 -0.14959188051E+04  0.18565788082E+04  0.12699999809E+01 0. -1.
       -4    1    3    3    0  502  0.41934992273E+02 -0.10987955420E+04 -0.14184522196E+04  0.17947474750E+04  0.12699999809E+01 0.  1.
</event>
<event>
 5   0  0.1680258E-04  0.2178811E+04  0.7818609E-02  0.8527300E-01
        2   -1    0    0  501    0  0.00000000000E+00  0.00000000000E+00  0.14995509946E+04  0.14995509946E+04  0.25500000920E-02 0. -1.
       -2   -1    0    0    0  501  0.00000000000E+00  0.00000000000E+00 -0.79143972772E+03  0.79143972772E+03  0.25500000920E-02 0.  1.
    10030    2    1    2    0    0  0.00000000000E+00  0.00000000000E+00  0.70811126685E+03  0.22909907223E+04  0.21788108967E+04 0.  0.
        5    1    3    3  502    0 -0.54456749741E+03  0.89878830734E+03  0.65590368307E+03  0.12387921182E+04  0.46999998093E+01 0.  1.
       -5    1    3    3    0  502  0.54456749741E+03 -0.89878830734E+03  0.52207583784E+02  0.10521986041E+04  0.46999998093E+01 0. -1.
</event>
<event>
 5   0  0.1754356E-04  0.1177588E+04  0.7818609E-02  0.9132703E-01
        2   -1    0    0  501    0  0.00000000000E+00  0.00000000000E+00  0.41012718567E+03  0.41012718568E+03  0.25500000920E-02 0. -1.
       -2   -1    0    0    0  501  0.00000000000E+00  0.00000000000E+00 -0.84529443077E+03  0.84529443078E+03  0.25500000920E-02 0.  1.
    10030    2    1    2    0    0  0.00000000000E+00  0.00000000000E+00 -0.43516724510E+03  0.12554216165E+04  0.11775877478E+04 0.  0.
        1    1    3    3  502    0 -0.28604697800E+03  0.46296554866E+03 -0.45720220021E+03  0.71076988173E+03  0.50400001928E-02 0.  1.
       -1    1    3    3    0  502  0.28604697800E+03 -0.46296554866E+03  0.22034955111E+02  0.54465173473E+03  0.50400001928E-02 0. -1.
</event>
<event>
 5   0  0.8784659E-05  0.2204704E+04  0.7818609E-02  0.8516473E-01
        1   -1    0    0  501    0  0.00000000000E+00  0.00000000000E+00  0.19045490383E+04  0.19045490383E+04  0.50400001928E-02 0. -1.
       -1   -1    0    0    0  501  0.00000000000E+00  0.00000000000E+00 -0.63804096338E+03  0.63804096340E+03  0.50400001928E-02 0.  1.
    10030    2    1    2    0    0  0.00000000000E+00  0.00000000000E+00  0.12665080749E+04  0.25425900017E+04  0.22047043368E+04 0.  0.
        4    1    3    3  502    0 -0.83377451424E+03  0.22512694982E+03  0.14233119723E+04  0.16648365288E+04  0.12699999809E+01 0. -1.
       -4    1    3    3    0  502  0.83377451424E+03 -0.22512694982E+03 -0.15680389737E+03  0.87775347294E+03  0.12699999809E+01 0.  1.
</event>
<event>
 5   0  0.1754356E-04  0.2205933E+04  0.7818609E-02  0.8515963E-01
        2   -1    0    0  501    0  0.00000000000E+00  0.00000000000E+00  0.11461273195E+04  0.11461273195E+04  0.25500000920E-02 0.  1.
       -2   -1    0    0    0  501  0.00000000000E+00  0.00000000000E+00 -0.10614314752E+04  0.10614314752E+04  0.25500000920E-02 0. -1.
    10030    2    1    2    0    0  0.00000000000E+00  0.00000000000E+00  0.84695844296E+02  0.22075587948E+04  0.22059334637E+04 0.  0.
        1    1    3    3  502    0 -0.74462356707E+03  0.76946944913E+03 -0.22239968264E+03  0.10936220136E+04  0.50400001928E-02 0.  1.
       -1    1    3    3    0  502  0.74462356707E+03 -0.76946944913E+03  0.30709552694E+03  0.11139367812E+04  0.50400001928E-02 0. -1.
</event>
<event>
 5   0  0.8470971E-05  0.2249017E+04  0.7818609E-02  0.8498299E-01
       -1   -1    0    0    0  501  0.00000000000E+00  0.00000000000E+00  0.76190913727E+03  0.76190913729E+03  0.50400001928E-02 0. -1.
        1   -1    0    0  501    0  0.00000000000E+00  0.00000000000E+00 -0.16596720254E+04  0.16596720254E+04  0.50400001928E-02 0.  1.
    10030    2    1    2    0    0  0.00000000000E+00  0.00000000000E+00 -0.89776288817E+03  0.24215811627E+04  0.22490169240E+04 0.  0.
        2    1    3    3  502    0  0.71042044697E+03  0.33695027528E+03  0.41672180042E+03  0.88988187892E+03  0.25500000920E-02 0. -1.
       -2    1    3    3    0  502 -0.71042044697E+03 -0.33695027528E+03 -0.13144846886E+04  0.15316992838E+04  0.25500000920E-02 0.  1.
</event>
<event>
 5   0  0.1733962E-04  0.2101092E+04  0.7818609E-02  0.8560763E-01
       -2   -1    0    0    0  501  0.00000000000E+00  0.00000000000E+00  0.71670533984E+03  0.71670533985E+03  0.25500000920E-02 0. -1.
        2   -1    0    0  501    0  0.00000000000E+00  0.00000000000E+00 -0.15398892710E+04  0.15398892710E+04  0.25500000920E-02 0.  1.
    10030    2    1    2    0    0  0.00000000000E+00  0.00000000000E+00 -0.82318393113E+03  0.22565946108E+04  0.21010919668E+04 0.  0.
        3    1    3    3  502    0 -0.94588454737E+03 -0.35274427232E+03 -0.99350794669E+02  0.10143947403E+04  0.10100000352E+00 0. -1.
       -3    1    3    3    0  502  0.94588454737E+03  0.35274427232E+03 -0.72383313646E+03  0.12421998705E+04  0.10100000352E+00 0.  1.
</event>
<event>
 5   0  0.8784659E-05  0.2143929E+04  0.7818609E-02  0.8542135E-01
       -1   -1    0    0    0  501  0.00000000000E+00  0.00000000000E+00  0.87134268789E+03  0.87134268790E+03  0.50400001928E-02 0.  1.
        1   -1    0    0  501    0  0.00000000000E+00  0.00000000000E+00 -0.13187788026E+04  0.13187788027E+04  0.50400001928E-02 0. -1.
    10030    2    1    2    0    0  0.00000000000E+00  0.00000000000E+00 -0.44743611476E+03  0.21901214906E+04  0.21439293521E+04 0.  0.
        4    1    3    3  502    0  0.63733131040E+03 -0.46002503763E+03  0.52088453894E+03  0.94294037471E+03  0.12699999809E+01 0.  1.
       -4    1    3    3    0  502 -0.63733131040E+03  0.46002503763E+03 -0.96832065369E+03  0.12471811158E+04  0.12699999809E+01 0. -1.
</event>
<event>
 5   0  0.8306787E-05  0.2211218E+04  0.7818609E-02  0.8513773E-01
       -1   -1    0    0    0  501  0.00000000000E+00  0.00000000000E+00  0.11859249244E+04  0.11859249244E+04  0.50400001928E-02 0. -1.
        1   -1    0    0  501    0  0.00000000000E+00  0.00000000000E+00 -0.10307324616E+04  0.10307324616E+04  0.50400001928E-02 0.  1.
    10030    2    1    2    0    0  0.00000000000E+00  0.00000000000E+00  0.15519246277E+03  0.22166573860E+04  0.22112180504E+04 0.  0.
        1    1    3    3  502    0  0.93591106614E+03 -0.23421904796E+03  0.61890900188E+03  0.11462270450E+04  0.50400001928E-02 0. -1.
       -1    1    3    3    0  502 -0.93591106614E+03  0.23421904796E+03 -0.46371653911E+03  0.10704303409E+04  0.50400001928E-02 0.  1.
</event>
<event>
 5   0  0.1754356E-04  0.2175607E+04  0.7818609E-02  0.8528650E-01
       -2   -1    0    0    0  501  0.00000000000E+00  0.00000000000E+00  0.10328985827E+04  0.10328985828E+04  0.25500000920E-02 0. -1.
        2   -1    0    0  501    0  0.00000000000E+00  0.00000000000E+00 -0.11456266950E+04  0.11456266950E+04  0.25500000920E-02 0.  1.
    10030    2    1    2    0    0  0.00000000000E+00  0.00000000000E+00 -0.11272811222E+03  0.21785252777E+04  0.21756067564E+04 0.  0.
        1    1    3    3  502    0  0.18579599580E+03  0.61147898092E+03 -0.93782300417E+03  0.11348738623E+04  0.50400001928E-02 0.  1.
       -1    1    3    3    0  502 -0.18579599580E+03 -0.61147898092E+03  0.82509489195E+03  0.10436514154E+04  0.50400001928E-02 0. -1.
</event>
<event>
 5   0  0.1798917E-04  0.2190862E+04  0.7818609E-02  0.8522241E-01
       -2   -1    0    0    0  501  0.00000000000E+00  0.00000000000E+00  0.59565200630E+03  0.59565200631E+03  0.25500000920E-02 0.  1.
        2   -1    0    0  501    0  0.00000000000E+00  0.00000000000E+00 -0.20145477533E+04  0.20145477533E+04  0.25500000920E-02 0. -1.
    10030    2    1    2    0    0  0.00000000000E+00  0.00000000000E+00 -0.14188957470E+04  0.26101997596E+04  0.21908623061E+04 0.  0.
        4    1    3    3  502    0  0.25624054631E+03 -0.43182788048E+03  0.45046303980E+03  0.67457623666E+03  0.12699999809E+01 0.  1.
       -4    1    3    3    0  502 -0.25624054631E+03  0.43182788048E+03 -0.18693587868E+04  0.19356235230E+04  0.12699999809E+01 0. -1.
</event>
<event>
 5   0  0.6250625E-05  0.2182312E+04  0.7818609E-02  0.8525826E-01
       -3   -1    0    0    0  501  0.00000000000E+00  0.00000000000E+00  0.57600842196E+03  0.57600843081E+03  0.10100000352E+00 0. -1.
        3   -1    0    0  501    0  0.00000000000E+00  0.00000000000E+00 -0.20670211007E+04  0.20670211031E+04  0.10100000352E+00 0.  1.
    10030    2    1    2    0    0  0.00000000000E+00  0.00000000000E+00 -0.14910126787E+04  0.26430295340E+04  0.21823121475E+04 0.  0.
        2    1    3    3  502    0  0.40487785790E+02 -0.36631794524E+03  0.49834610567E+03  0.61982008587E+03  0.25500000920E-02 0. -1.
       -2    1    3    3    0  502 -0.40487785790E+02  0.36631794524E+03 -0.19893587844E+04  0.20232094481E+04  0.25500000920E-02 0.  1.
</event>
<event>
 5   0  0.1754356E-04  0.2256594E+04  0.7818609E-02  0.8495235E-01
       -2   -1    0    0    0  501  0.00000000000E+00  0.00000000000E+00  0.54896369149E+03  0.54896369150E+03  0.25500000920E-02 0.  1.
        2   -1    0    0  501    0  0.00000000000E+00  0.00000000000E+00 -0.23190138677E+04  0.23190138677E+04  0.25500000920E-02 0. -1.
    10030    2    1    2    0    0  0.00000000000E+00  0.00000000000E+00 -0.17700501762E+04  0.28679775592E+04  0.22565942599E+04 0.  0.
        1    1    3    3  502    0 -0.15116760824E+03 -0.55098907163E+03 -0.21215665637E+04  0.21971539061E+04  0.50400001928E-02 0. -1.
       -1    1    3    3    0  502  0.15116760824E+03  0.55098907163E+03  0.35151638750E+03  0.67082365309E+03  0.50400001928E-02 0.  1.
</event>
<event>
 5   0  0.1733962E-04  0.2190392E+04  0.7818609E-02  0.8522438E-01
       -2   -1    0    0    0  501  0.00000000000E+00  0.00000000000E+00  0.76877519736E+03  0.76877519736E+03  0.25500000920E-02 0.  1.
        2   -1    0    0  501    0  0.00000000000E+00  0.00000000000E+00 -0.15602143990E+04  0.15602143990E+04  0.25500000920E-02 0. -1.
    10030    2    1    2    0    0  0.00000000000E+00  0.00000000000E+00 -0.79143920167E+03  0.23289895964E+04  0.21903918668E+04 0.  0.
        3    1    3    3  502    0 -0.25278965491E+03 -0.10334159907E+04 -0.67217711788E+03  0.12584408239E+04  0.10100000352E+00 0. -1.
       -3    1    3    3    0  502  0.25278965491E+03  0.10334159907E+04 -0.11926208379E+03  0.10705487725E+04  0.10100000352E+00 0.  1.
</event>
<event>
 5   0  0.8306787E-05  0.2211990E+04  0.7818609E-02  0.8513454E-01
       -1   -1    0    0    0  501  0.00000000000E+00  0.00000000000E+00  0.10835335357E+04  0.10835335357E+04  0.50400001928E-02 0. -1.
        1   -1    0    0  501    0  0.00000000000E+00  0.00000000000E+00 -0.11289221985E+04  0.11289221985E+04  0.50400001928E-02 0.  1.
    10030    2    1    2    0    0  0.00000000000E+00  0.00000000000E+00 -0.45388662809E+02  0.22124557342E+04  0.22119901096E+04 0.  0.
        1    1    3    3  502    0  0.27108735220E+03  0.86346103268E+03 -0.65857319424E+03  0.11192729603E+04  0.50400001928E-02 0.  1.
       -1    1    3    3    0  502 -0.27108735220E+03 -0.86346103268E+03  0.61318453143E+03  0.10931827739E+04  0.50400001928E-02 0. -1.
</event>
<event>
 5   0  0.8306787E-05  0.2072750E+04  0.7818609E-02  0.8573343E-01
        1   -1    0    0  501    0  0.00000000000E+00  0.00000000000E+00  0.57180341829E+03  0.57180341831E+03  0.50400001928E-02 0. -1.
       -1   -1    0    0    0  501  0.00000000000E+00  0.00000000000E+00 -0.18783949020E+04  0.18783949020E+04  0.50400001928E-02 0.  1.
    10030    2    1    2    0    0  0.00000000000E+00  0.00000000000E+00 -0.13065914837E+04  0.24501983203E+04  0.20727495033E+04 0.  0.
        1    1    3    3  502    0 -0.62026133071E+03 -0.59572304911E+03 -0.13369368514E+04  0.15896572632E+04  0.50400001928E-02 0.  1.
       -1    1    3    3    0  502  0.62026133071E+03  0.59572304911E+03  0.30345367745E+02  0.86054105712E+03  0.50400001928E-02 0. -1.
</event>
<event>
 5   0  0.8602414E-05  0.2175689E+04  0.7818609E-02  0.8528616E-01
        1   -1    0    0  501    0  0.00000000000E+00  0.00000000000E+00  0.81166111059E+03  0.81166111060E+03  0.50400001928E-02 0.  1.
       -1   -1    0    0    0  501  0.00000000000E+00  0.00000000000E+00 -0.14580046995E+04  0.14580046995E+04  0.50400001928E-02 0. -1.
    10030    2    1    2    0    0  0.00000000000E+00  0.00000000000E+00 -0.64634358889E+03  0.22696658101E+04  0.21756890528E+04 0.  0.
        3    1    3    3  502    0 -0.94266202806E+03 -0.10610564066E+03 -0.87865238011E+03  0.12930197684E+04  0.10100000352E+00 0. -1.
       -3    1    3    3    0  502  0.94266202806E+03  0.10610564066E+03  0.23230879122E+03  0.97664604172E+03  0.10100000352E+00 0.  1.
</event>
<event>
 5   0  0.7954459E-05  0.2140088E+04  0.7818609E-02  0.8543787E-01
       -1   -1    0    0    0  501  0.00000000000E+00  0.00000000000E+00  0.13564656944E+04  0.13564656944E+04  0.50400001928E-02 0. -1.
        1   -1    0    0  501    0  0.00000000000E+00  0.00000000000E+00 -0.84410098886E+03  0.84410098887E+03  0.50400001928E-02 0.  1.
    10030    2    1    2    0    0  0.00000000000E+00  0.00000000000E+00  0.51236470557E+03  0.22005666833E+04  0.21400878805E+04 0.  0.
        5    1    3    3  502    0 -0.70973487095E+03  0.22243710197E+02  0.10792744741E+04  0.12919264105E+04  0.46999998093E+01 0. -1.
       -5    1    3    3    0  502  0.70973487095E+03 -0.22243710197E+02 -0.56690976855E+03  0.90864027280E+03  0.46999998093E+01 0.  1.
</event>
<event>
 5   0  0.7954459E-05  0.2160258E+04  0.7818609E-02  0.8535154E-01
        1   -1    0    0  501    0  0.00000000000E+00  0.00000000000E+00  0.77968201647E+03  0.77968201649E+03  0.50400001928E-02 0.  1.
       -1   -1    0    0    0  501  0.00000000000E+00  0.00000000000E+00 -0.14963514187E+04  0.14963514187E+04  0.50400001928E-02 0. -1.
    10030    2    1    2    0    0  0.00000000000E+00  0.00000000000E+00 -0.71666940218E+03  0.22760334351E+04  0.21602576619E+04 0.  0.
        5    1    3    3  502    0 -0.21115134686E+03 -0.46162218293E+03  0.64616394639E+03  0.82172371675E+03  0.46999998093E+01 0.  1.
       -5    1    3    3    0  502  0.21115134686E+03  0.46162218293E+03 -0.13628333486E+04  0.14543097184E+04  0.46999998093E+01 0. -1.
</event>
<event>
 5   0  0.1798917E-04  0.2198223E+04  0.7818609E-02  0.8519168E-01
       -2   -1    0    0    0  501  0.00000000000E+00  0.00000000000E+00  0.61739213540E+03  0.61739213541E+03  0.25500000920E-02 0. -1.
        2   -1    0    0  501    0  0.00000000000E+00  0.00000000000E+00 -0.19566911359E+04  0.19566911359E+04  0.25500000920E-02 0.  1.
    10030    2    1    2    0    0  0.00000000000E+00  0.00000000000E+00 -0.13392990005E+04  0.25740832713E+04  0.21982226627E+04 0.  0.
        4    1    3    3  502    0  0.68772708792E+02  0.49266769935E+02  0.61357316004E+03  0.61937915344E+03  0.12699999809E+01 0. -1.
       -4    1    3    3    0  502 -0.68772708792E+02 -0.49266769935E+02 -0.19528721606E+04  0.19547041179E+04  0.12699999809E+01 0.  1.
</event>
<event>
 5   0  0.1754356E-04  0.1135894E+04  0.7818609E-02  0.9170896E-01
        2   -1    0    0  501    0  0.00000000000E+00  0.00000000000E+00  0.10246098718E+04  0.10246098718E+04  0.25500000920E-02 0.  1.
       -2   -1    0    0    0  501  0.00000000000E+00  0.00000000000E+00 -0.31481633963E+03  0.31481633964E+03  0.25500000920E-02 0. -1.
    10030    2    1    2    0    0  0.00000000000E+00  0.00000000000E+00  0.70979353215E+03  0.13394262114E+04  0.11358942370E+04 0.  0.
        1    1    3    3  502    0  0.14264013687E+03  0.49816341192E+03  0.80750392235E+02  0.52443647804E+03  0.50400001928E-02 0. -1.
       -1    1    3    3    0  502 -0.14264013687E+03 -0.49816341192E+03  0.62904313991E+03  0.81498973338E+03  0.50400001928E-02 0.  1.
</event>
<event>
 5   0  0.8470971E-05  0.2083771E+04  0.7818609E-02  0.8568426E-01
       -1   -1    0    0    0  501  0.00000000000E+00  0.00000000000E+00  0.14364780274E+04  0.14364780274E+04  0.50400001928E-02 0.  1.
        1   -1    0    0  501    0  0.00000000000E+00  0.00000000000E+00 -0.75568539816E+03  0.75568539818E+03  0.50400001928E-02 0. -1.
    10030    2    1    2    0    0  0.00000000000E+00  0.00000000000E+00  0.68079262925E+03  0.21921634256E+04  0.20837710720E+04 0.  0.
        2    1    3    3  502    0 -0.47096444890E+03 -0.68302850404E+03  0.10034093807E+04  0.13019853435E+04  0.25500000920E-02 0.  1.
       -2    1    3    3    0  502  0.47096444890E+03  0.68302850404E+03 -0.32261675147E+03  0.89017808207E+03  0.25500000920E-02 0. -1.
</event>
<event>
 5   0  0.1680258E-04  0.2172193E+04  0.7818609E-02  0.8530092E-01
       -2   -1    0    0    0  501  0.00000000000E+00  0.00000000000E+00  0.76346750669E+03  0.76346750669E+03  0.25500000920E-02 0. -1.
        2   -1    0    0  501    0  0.00000000000E+00  0.00000000000E+00 -0.15450633949E+04  0.15450633949E+04  0.25500000920E-02 0.  1.
    10030    2    1    2    0    0  0.00000000000E+00  0.00000000000E+00 -0.78159588822E+03  0.23085309016E+04  0.21721930833E+04 0.  0.
        5    1    3    3  502    0 -0.72014339342E+03 -0.72739486932E+02 -0.12513660447E+04  0.14456267180E+04  0.46999998093E+01 0.  1.
       -5    1    3    3    0  502  0.72014339342E+03  0.72739486932E+02  0.46977015650E+03  0.86290418355E+03  0.46999998093E+01 0. -1.
</event>
<event>
 5   0  0.8470971E-05  0.2209556E+04  0.7818609E-02  0.8514461E-01
        1   -1    0    0  501    0  0.00000000000E+00  0.00000000000E+00  0.79373565938E+03  0.79373565940E+03  0.50400001928E-02 0.  1.
       -1   -1    0    0    0  501  0.00000000000E+00  0.00000000000E+00 -0.15377083738E+04  0.15377083738E+04  0.50400001928E-02 0. -1.
    10030    2    1    2    0    0  0.00000000000E+00  0.00000000000E+00 -0.74397271444E+03  0.23314440332E+04  0.22095555843E+04 0.  0.
        2    1    3    3  502    0 -0.31166642698E+03  0.71107684508E+03 -0.12013264713E+04  0.14303676212E+04  0.25500000920E-02 0. -1.
       -2    1    3    3    0  502  0.31166642698E+03 -0.71107684508E+03  0.45735375684E+03  0.90107641197E+03  0.25500000920E-02 0.  1.
</event>
<event>
 5   0  0.1805501E-04  0.2278858E+04  0.7818609E-02  0.8486304E-01
        2   -1    0    0  501    0  0.00000000000E+00  0.00000000000E+00  0.25631160818E+04  0.25631160818E+04  0.25500000920E-02 0.  1.
       -2   -1    0    0    0  501  0.00000000000E+00  0.00000000000E+00 -0.50653117820E+03  0.50653117821E+03  0.25500000920E-02 0. -1.
    10030    2    1    2    0    0  0.00000000000E+00  0.00000000000E+00  0.20565849036E+04  0.30696472600E+04  0.22788577918E+04 0.  0.
        2    1    3    3  502    0 -0.10845434918E+04  0.49366162609E+02  0.56240057613E+03  0.12226880271E+04  0.25500000920E-02 0. -1.
       -2    1    3    3    0  502  0.10845434918E+04 -0.49366162609E+02  0.14941843275E+04  0.18469592329E+04  0.25500000920E-02 0.  1.
</event>
<event>
 5   0  0.1733962E-04  0.2187030E+04  0.7818609E-02  0.8523846E-01
        2   -1    0    0  501    0  0.00000000000E+00  0.00000000000E+00  0.10519352817E+04  0.10519352817E+04  0.25500000920E-02 0.  1.
       -2   -1    0    0    0  501  0.00000000000E+00  0.00000000000E+00 -0.11367379318E+04  0.11367379318E+04  0.25500000920E-02 0. -1.
    10030    2    1    2    0    0  0.00000000000E+00  0.00000000000E+00 -0.84802650169E+02  0.21886732135E+04  0.21870297085E+04 0.  0.
        3    1    3    3  502    0 -0.67505343900E+03  0.19475398882E+03 -0.88097401696E+03  0.11268280660E+04  0.10100000352E+00 0. -1.
       -3    1    3    3    0  502  0.67505343900E+03 -0.19475398882E+03  0.79617136679E+03  0.10618451474E+04  0.10100000352E+00 0.  1.
</event>
<event>
 5   0  0.1754356E-04  0.2213106E+04  0.7818609E-02  0.8512993E-01
       -2   -1    0    0    0  501  0.00000000000E+00  0.00000000000E+00  0.69021651562E+03  0.69021651563E+03  0.25500000920E-02 0. -1.
        2   -1    0    0  501    0  0.00000000000E+00  0.00000000000E+00 -0.17740223319E+04  0.17740223319E+04  0.25500000920E-02 0.  1.
    10030    2    1    2    0    0  0.00000000000E+00  0.00000000000E+00 -0.10838058163E+04  0.24642388476E+04  0.22131059736E+04 0.  0.
        1    1    3    3  502    0  0.51805324967E+03  0.80883908925E+03 -0.11536658088E+04  0.15011810817E+04  0.50400001928E-02 0.  1.
       -1    1    3    3    0  502 -0.51805324967E+03 -0.80883908925E+03  0.69859992439E+02  0.96305776585E+03  0.50400001928E-02 0. -1.
</event>
<event>
 5   0  0.1798917E-04  0.2240434E+04  0.7818609E-02  0.8501784E-01
        2   -1    0    0  501    0  0.00000000000E+00  0.00000000000E+00  0.13818554266E+04  0.13818554266E+04  0.25500000920E-02 0.  1.
       -2   -1    0    0    0  501  0.00000000000E+00  0.00000000000E+00 -0.90811719229E+03  0.90811719229E+03  0.25500000920E-02 0. -1.
    10030    2    1    2    0    0  0.00000000000E+00  0.00000000000E+00  0.47373823436E+03  0.22899726189E+04  0.22404344848E+04 0.  0.
        4    1    3    3  502    0  0.20398657789E+03 -0.80781044347E+03 -0.52849805921E+03  0.98665092512E+03  0.12699999809E+01 0. -1.
       -4    1    3    3    0  502 -0.20398657789E+03  0.80781044347E+03  0.10022362936E+04  0.13033216938E+04  0.12699999809E+01 0.  1.
</event>
<event>
 5   0  0.7954459E-05  0.2286489E+04  0.7818609E-02  0.8483268E-01
       -1   -1    0    0    0  501  0.00000000000E+00  0.00000000000E+00  0.11419536433E+04  0.11419536433E+04  0.50400001928E-02 0. -1.
        1   -1    0    0  501    0  0.00000000000E+00  0.00000000000E+00 -0.11445365938E+04  0.11445365938E+04  0.50400001928E-02 0.  1.
    10030    2    1    2    0    0  0.00000000000E+00  0.00000000000E+00 -0.25829504833E+01  0.22864902370E+04  0.22864887781E+04 0.  0.
        5    1    3    3  502    0  0.34851793893E+03 -0.14621327283E+02  0.10874273217E+04  0.11420152393E+04  0.46999998093E+01 0. -1.
       -5    1    3    3    0  502 -0.34851793893E+03  0.14621327283E+02 -0.10900102722E+04  0.11444749977E+04  0.46999998093E+01 0.  1.
</event>
<event>
 5   0  0.8784659E-05  0.1495227E+04  0.7818609E-02  0.8887633E-01
        1   -1    0    0  501    0  0.00000000000E+00  0.00000000000E+00  0.15102275465E+04  0.15102275465E+04  0.50400001928E-02 0.  1.
       -1   -1    0    0    0  501  0.00000000000E+00  0.00000000000E+00 -0.37009406217E+03  0.37009406220E+03  0.50400001928E-02 0. -1.
    10030    2    1    2    0    0  0.00000000000E+00  0.00000000000E+00  0.11401334843E+04  0.18803216087E+04  0.14952274041E+04 0.  0.
        4    1    3    3  502    0  0.15831355127E+03 -0.70267979260E+03  0.82189876545E+03  0.10928592155E+04  0.12699999809E+01 0.  1.
       -4    1    3    3    0  502 -0.15831355127E+03  0.70267979260E+03  0.31823471888E+03  0.78746239317E+03  0.12699999809E+01 0. -1.
</event>
<event>
 5   0  0.6250625E-05  0.2135575E+04  0.7818609E-02  0.8545732E-01
        3   -1    0    0  501    0  0.00000000000E+00  0.00000000000E+00  0.15259493877E+04  0.15259493910E+04  0.10100000352E+00 0.  1.
       -3   -1    0    0    0  501  0.00000000000E+00  0.00000000000E+00 -0.74718761764E+03  0.74718762447E+03  0.10100000352E+00 0. -1.
    10030    2    1    2    0    0  0.00000000000E+00  0.00000000000E+00  0.77876177003E+03  0.22731370155E+04  0.21355753315E+04 0.  0.
        4    1    3    3  502    0  0.94497342099E+03 -0.42923143287E+03  0.65645026450E+03  0.12280647182E+04  0.12699999809E+01 0.  1.
       -4    1    3    3    0  502 -0.94497342099E+03  0.42923143287E+03  0.12231150554E+03  0.10450722973E+04  0.12699999809E+01 0. -1.
</event>
<event>
 5   0  0.1733962E-04  0.2203891E+04  0.7818609E-02  0.8516810E-01
        2   -1    0    0  501    0  0.00000000000E+00  0.00000000000E+00  0.17119244054E+04  0.17119244054E+04  0.25500000920E-02 0. -1.
       -2   -1    0    0    0  501  0.00000000000E+00  0.00000000000E+00 -0.70930929123E+03  0.70930929123E+03  0.25500000920E-02 0.  1.
    10030    2    1    2    0    0  0.00000000000E+00  0.00000000000E+00  0.10026151142E+04  0.24212336966E+04  0.22038910015E+04 0.  0.
        3    1    3    3  502    0 -0.48899612249E+03  0.66485882055E+03  0.13034711021E+04  0.15427868885E+04  0.10100000352E+00 0. -1.
       -3    1    3    3    0  502  0.48899612249E+03 -0.66485882055E+03 -0.30085598793E+03  0.87844680815E+03  0.10100000352E+00 0.  1.
</event>
<event>
 5   0  0.1805501E-04  0.2186496E+04  0.7818609E-02  0.8524070E-01
       -2   -1    0    0    0  501  0.00000000000E+00  0.00000000000E+00  0.88397764674E+03  0.88397764674E+03  0.25500000920E-02 0. -1.
        2   -1    0    0  501    0  0.00000000000E+00  0.00000000000E+00 -0.13520603339E+04  0.13520603339E+04  0.25500000920E-02 0.  1.
    10030    2    1    2    0    0  0.00000000000E+00  0.00000000000E+00 -0.46808268717E+03  0.22360379807E+04  0.21864959293E+04 0.  0.
        2    1    3    3  502    0 -0.75519995821E+03  0.62950149590E+03 -0.72298747975E+03  0.12203728963E+04  0.25500000920E-02 0.  1.
       -2    1    3    3    0  502  0.75519995821E+03 -0.62950149590E+03  0.25490479258E+03  0.10156650843E+04  0.25500000920E-02 0. -1.
</event>
<event>
 5   0  0.1680258E-04  0.2226209E+04  0.7818609E-02  0.8507598E-01
        2   -1    0    0  501    0  0.00000000000E+00  0.00000000000E+00  0.11735129022E+04  0.11735129023E+04  0.25500000920E-02 0. -1.
       -2   -1    0    0    0  501  0.00000000000E+00  0.00000000000E+00 -0.10558061282E+04  0.10558061282E+04  0.25500000920E-02 0.  1.
    10030    2    1    2    0    0  0.00000000000E+00  0.00000000000E+00  0.11770677402E+03  0.22293190305E+04  0.22262094365E+04 0.  0.
        5    1    3    3  502    0 -0.64955151982E+03 -0.15473412801E+03  0.95067030885E+03  0.11617469403E+04  0.46999998093E+01 0. -1.
       -5    1    3    3    0  502  0.64955151982E+03  0.15473412801E+03 -0.83296353483E+03  0.10675720901E+04  0.46999998093E+01 0.  1.
</event>
<event>
 5   0  0.8784659E-05  0.2184744E+04  0.7818609E-02  0.8524805E-01
       -1   -1    0    0    0  501  0.00000000000E+00  0.00000000000E+00  0.57179022600E+03  0.57179022602E+03  0.50400001928E-02 0. -1.
        1   -1    0    0  501    0  0.00000000000E+00  0.00000000000E+00 -0.20869133797E+04  0.20869133797E+04  0.50400001928E-02 0.  1.
    10030    2    1    2    0    0  0.00000000000E+00  0.00000000000E+00 -0.15151231537E+04  0.26587036057E+04  0.21847440793E+04 0.  0.
        4    1    3    3  502    0  0.65165734946E+03  0.68156604233E+03 -0.14286306146E+04  0.17117758664E+04  0.12699999809E+01 0.  1.
       -4    1    3    3    0  502 -0.65165734946E+03 -0.68156604233E+03 -0.86492539106E+02  0.94692773926E+03  0.12699999809E+01 0. -1.
</event>
<event>
 5   0  0.8306787E-05  0.2230027E+04  0.7818609E-02  0.8506033E-01
        1   -1    0    0  501    0  0.00000000000E+00  0.00000000000E+00  0.24752843160E+04  0.24752843160E+04  0.50400001928E-02 0.  1.
       -1   -1    0    0    0  501  0.00000000000E+00  0.00000000000E+00 -0.50226744056E+03  0.50226744058E+03  0.50400001928E-02 0. -1.
    10030    2    1    2    0    0  0.00000000000E+00  0.00000000000E+00  0.19730168754E+04  0.29775517566E+04  0.22300266528E+04 0.  0.
        1    1    3    3  502    0 -0.82158548467E+03  0.39560651368E+03  0.18432794194E+04  0.20564985389E+04  0.50400001928E-02 0.  1.
       -1    1    3    3    0  502  0.82158548467E+03 -0.39560651368E+03  0.12973745599E+03  0.92105321768E+03  0.50400001928E-02 0. -1.
</event>
<event>
 5   0  0.1805501E-04  0.2295791E+04  0.7818609E-02  0.8479582E-01
        2   -1    0    0  501    0  0.00000000000E+00  0.00000000000E+00  0.16517347528E+04  0.16517347528E+04  0.25500000920E-02 0. -1.
       -2   -1    0    0    0  501  0.00000000000E+00  0.00000000000E+00 -0.79774578413E+03  0.79774578414E+03  0.25500000920E-02 0.  1.
    10030    2    1    2    0    0  0.00000000000E+00  0.00000000000E+00  0.85398896867E+03  0.24494805369E+04  0.22957913107E+04 0.  0.
        2    1    3    3  502    0  0.27984458458E+03 -0.10209238793E+04 -0.46644346074E+02  0.10596104256E+04  0.25500000920E-02 0.  1.
       -2    1    3    3    0  502 -0.27984458458E+03  0.10209238793E+04  0.90063331474E+03  0.13898701114E+04  0.25500000920E-02 0. -1.
</event>
<event>
 5   0  0.8784659E-05  0.2215173E+04  0.7818609E-02  0.8512139E-01
       -1   -1    0    0    0  501  0.00000000000E+00  0.00000000000E+00  0.14365592479E+04  0.14365592479E+04  0.50400001928E-02 0.  1.
        1   -1    0    0  501    0  0.00000000000E+00  0.00000000000E+00 -0.85394878692E+03  0.85394878693E+03  0.50400001928E-02 0. -1.
    10030    2    1    2    0    0  0.00000000000E+00  0.00000000000E+00  0.58261046098E+03  0.22905080348E+04  0.22151731554E+04 0.  0.
        4    1    3    3  502    0 -0.10212020895E+04  0.42862353682E+03  0.30496707324E+03  0.11487290249E+04  0.12699999809E+01 0. -1.
       -4    1    3    3    0  502  0.10212020895E+04 -0.42862353682E+03  0.27764338773E+03  0.11417790100E+04  0.12699999809E+01 0.  1.
</event>
<event>
 5   0  0.1798917E-04  0.2192378E+04  0.7818609E-02  0.8521607E-01
        2   -1    0    0  501    0  0.00000000000E+00  0.00000000000E+00  0.10473043515E+04  0.10473043515E+04  0.25500000920E-02 0.  1.
       -2   -1    0    0    0  501  0.00000000000E+00  0.00000000000E+00 -0.11473555858E+04  0.11473555859E+04  0.25500000920E-02 0. -1.
    10030    2    1    2    0    0  0.00000000000E+00  0.00000000000E+00 -0.10005123437E+03  0.21946599373E+04  0.21923781588E+04 0.  0.
        4    1    3    3  502    0 -0.10622381030E+04 -0.23514111703E+03 -0.18428363154E+03  0.11034505889E+04  0.12699999809E+01 0. -1.
       -4    1    3    3    0  502  0.10622381030E+04  0.23514111703E+03  0.84232397163E+02  0.10912093484E+04  0.12699999809E+01 0.  1.
</event>
<event>
 5   0  0.7954459E-05  0.2011739E+04  0.7818609E-02  0.8601152E-01
        1   -1    0    0  501    0  0.00000000000E+00  0.00000000000E+00  0.18228481375E+04  0.18228481375E+04  0.50400001928E-02 0. -1.
       -1   -1    0    0    0  501  0.00000000000E+00  0.00000000000E+00 -0.55505110175E+03  0.55505110177E+03  0.50400001928E-02 0.  1.
    10030    2    1    2    0    0  0.00000000000E+00  0.00000000000E+00  0.12677970358E+04  0.23778992393E+04  0.20117394136E+04 0.  0.
        5    1    3    3  502    0  0.60113865195E+03  0.15011447617E+03 -0.30269162659E+03  0.68959868447E+03  0.46999998093E+01 0.  1.
       -5    1    3    3    0  502 -0.60113865195E+03 -0.15011447617E+03  0.15704886624E+04  0.16883005548E+04  0.46999998093E+01 0. -1.
</event>
<event>
 5   0  0.1680258E-04  0.2257820E+04  0.7818609E-02  0.8494740E-01
       -2   -1    0    0    0  501  0.00000000000E+00  0.00000000000E+00  0.79673517896E+03  0.79673517897E+03  0.25500000920E-02 0. -1.
        2   -1    0    0  501    0  0.00000000000E+00  0.00000000000E+00 -0.15995756715E+04  0.15995756715E+04  0.25500000920E-02 0.  1.
    10030    2    1    2    0    0  0.00000000000E+00  0.00000000000E+00 -0.80284049254E+03  0.23963108505E+04  0.22578203728E+04 0.  0.
        5    1    3    3  502    0 -0.10882670647E+04 -0.26205945442E+03 -0.55673777894E+03  0.12501917478E+04  0.46999998093E+01 0. -1.
       -5    1    3    3    0  502  0.10882670647E+04  0.26205945442E+03 -0.24610271360E+03  0.11461191027E+04  0.46999998093E+01 0.  1.
</event>
<event>
 5   0  0.1754356E-04  0.2049908E+04  0.7818609E-02  0.8583636E-01
        2   -1    0    0  501    0  0.00000000000E+00  0.00000000000E+00  0.97466104038E+03  0.97466104038E+03  0.25500000920E-02 0.  1.
       -2   -1    0    0    0  501  0.00000000000E+00  0.00000000000E+00 -0.10778420688E+04  0.10778420688E+04  0.25500000920E-02 0. -1.
    10030    2    1    2    0    0  0.00000000000E+00  0.00000000000E+00 -0.10318102838E+03  0.20525031091E+04  0.20499079707E+04 0.  0.
        1    1    3    3  502    0  0.14679413989E+03  0.24733859613E+03  0.93342611724E+03  0.97673395406E+03  0.50400001928E-02 0.  1.
       -1    1    3    3    0  502 -0.14679413989E+03 -0.24733859613E+03 -0.10366071456E+04  0.10757691551E+04  0.50400001928E-02 0. -1.
</event>
<event>
 5   0  0.8602414E-05  0.1813024E+04  0.7818609E-02  0.8699404E-01
       -1   -1    0    0    0  501  0.00000000000E+00  0.00000000000E+00  0.32356016709E+03  0.32356016713E+03  0.50400001928E-02 0.  1.
        1   -1    0    0  501    0  0.00000000000E+00  0.00000000000E+00 -0.25397571437E+04  0.25397571437E+04  0.50400001928E-02 0. -1.
    10030    2    1    2    0    0  0.00000000000E+00  0.00000000000E+00 -0.22161969767E+04  0.28633173109E+04  0.18130242644E+04 0.  0.
        3    1    3    3  502    0  0.84478620628E+03  0.30256847107E+03 -0.90490869884E+03  0.12743905121E+04  0.10100000352E+00 0.  1.
       -3    1    3    3    0  502 -0.84478620628E+03 -0.30256847107E+03 -0.13112882778E+04  0.15889267987E+04  0.10100000352E+00 0. -1.
</event>
<event>
 5   0  0.8784659E-05  0.2252378E+04  0.7818609E-02  0.8496938E-01
        1   -1    0    0  501    0  0.00000000000E+00  0.00000000000E+00  0.17514821225E+04  0.17514821225E+04  0.50400001928E-02 0. -1.
       -1   -1    0    0    0  501  0.00000000000E+00  0.00000000000E+00 -0.72413033516E+03  0.72413033518E+03  0.50400001928E-02 0.  1.
    10030    2    1    2    0    0  0.00000000000E+00  0.00000000000E+00  0.10273517873E+04  0.24756124577E+04  0.22523777094E+04 0.  0.
        4    1    3    3  502    0  0.26267449977E+03 -0.68780924066E+03 -0.42297041265E+03  0.84910837191E+03  0.12699999809E+01 0.  1.
       -4    1    3    3    0  502 -0.26267449977E+03  0.68780924066E+03  0.14503221999E+04  0.16265040857E+04  0.12699999809E+01 0. -1.
</event>
<event>
 5   0  0.8784659E-05  0.2185416E+04  0.7818609E-02  0.8524523E-01
       -1   -1    0    0    0  501  0.00000000000E+00  0.00000000000E+00  0.57399038712E+03  0.57399038714E+03  0.50400001928E-02 0.  1.
        1   -1    0    0  501    0  0.00000000000E+00  0.00000000000E+00 -0.20801938541E+04  0.20801938542E+04  0.50400001928E-02 0. -1.
    10030    2    1    2    0    0  0.00000000000E+00  0.00000000000E+00 -0.15062034670E+04  0.26541842413E+04  0.21854164598E+04 0.  0.
        4    1    3    3  502    0 -0.81174618888E+03 -0.72919429595E+03 -0.82343225427E+03  0.13670034699E+04  0.12699999809E+01 0. -1.
       -4    1    3    3    0  502  0.81174618888E+03  0.72919429595E+03 -0.68277121276E+03  0.12871807714E+04  0.12699999809E+01 0.  1.
</event>
<event>
 5   0  0.8784659E-05  0.2157580E+04  0.7818609E-02  0.8536295E-01
        1   -1    0    0  501    0  0.00000000000E+00  0.00000000000E+00  0.11019832860E+04  0.11019832860E+04  0.50400001928E-02 0. -1.
       -1   -1    0    0    0  501  0.00000000000E+00  0.00000000000E+00 -0.10560850600E+04  0.10560850600E+04  0.50400001928E-02 0.  1.
    10030    2    1    2    0    0  0.00000000000E+00  0.00000000000E+00  0.45898225974E+02  0.21580683461E+04  0.21575802046E+04 0.  0.
        4    1    3    3  502    0 -0.15837239869E+03  0.87090366477E+03  0.63971773428E+03  0.10921517305E+04  0.12699999809E+01 0. -1.
       -4    1    3    3    0  502  0.15837239869E+03 -0.87090366477E+03 -0.59381950831E+03  0.10659166156E+04  0.12699999809E+01 0.  1.
</event>
<event>
 5   0  0.8602414E-05  0.2245764E+04  0.7818609E-02  0.8499618E-01
       -1   -1    0    0    0  501  0.00000000000E+00  0.00000000000E+00  0.67001663713E+03  0.67001663715E+03  0.50400001928E-02 0. -1.
        1   -1    0    0  501    0  0.00000000000E+00  0.00000000000E+00 -0.18818397309E+04  0.18818397309E+04  0.50400001928E-02 0.  1.
    10030    2    1    2    0    0  0.00000000000E+00  0.00000000000E+00 -0.12118230938E+04  0.25518563681E+04  0.22457639486E+04 0.  0.
        3    1    3    3  502    0  0.30554166380E+03 -0.10079615790E+04 -0.16359876733E+03  0.10658831174E+04  0.10100000352E+00 0. -1.
       -3    1    3    3    0  502 -0.30554166380E+03  0.10079615790E+04 -0.10482243265E+04  0.14859732507E+04  0.10100000352E+00 0.  1.
</event>
<event>
 5   0  0.1680258E-04  0.2206899E+04  0.7818609E-02  0.8515562E-01
       -2   -1    0    0    0  501  0.00000000000E+00  0.00000000000E+00  0.70500516020E+03  0.70500516021E+03  0.25500000920E-02 0.  1.
        2   -1    0    0  501    0  0.00000000000E+00  0.00000000000E+00 -0.17270809195E+04  0.17270809195E+04  0.25500000920E-02 0. -1.
    10030    2    1    2    0    0  0.00000000000E+00  0.00000000000E+00 -0.10220757593E+04  0.24320860797E+04  0.22068991462E+04 0.  0.
        5    1    3    3  502    0 -0.41576968632E+03 -0.46993542042E+03 -0.15113307062E+04  0.16364126389E+04  0.46999998093E+01 0. -1.
       -5    1    3    3    0  502  0.41576968632E+03  0.46993542042E+03  0.48925494684E+03  0.79567344082E+03  0.46999998093E+01 0.  1.
</event>
<event>
 5   0  0.1805501E-04  0.2206477E+04  0.7818609E-02  0.8515737E-01
       -2   -1    0    0    0  501  0.00000000000E+00  0.00000000000E+00  0.74433729626E+03  0.74433729627E+03  0.25500000920E-02 0. -1.
        2   -1    0    0  501    0  0.00000000000E+00  0.00000000000E+00 -0.16351933097E+04  0.16351933097E+04  0.25500000920E-02 0.  1.
    10030    2    1    2    0    0  0.00000000000E+00  0.00000000000E+00 -0.89085601346E+03  0.23795306060E+04  0.22064771624E+04 0.  0.
        2    1    3    3  502    0 -0.10472992197E+04 -0.23121497045E+03 -0.16661825245E+03  0.10853836466E+04  0.25500000920E-02 0.  1.
       -2    1    3    3    0  502  0.10472992197E+04  0.23121497045E+03 -0.72423776101E+03  0.12941469594E+04  0.25500000920E-02 0. -1.
</event>
<event>
 5   0  0.8470971E-05  0.2180837E+04  0.7818609E-02  0.8526447E-01
       -1   -1    0    0    0  501  0.00000000000E+00  0.00000000000E+00  0.96242475050E+03  0.96242475052E+03  0.50400001928E-02 0.  1.
        1   -1    0    0  501    0  0.00000000000E+00  0.00000000000E+00 -0.12354341903E+04  0.12354341903E+04  0.50400001928E-02 0. -1.
    10030    2    1    2    0    0  0.00000000000E+00  0.00000000000E+00 -0.27300943976E+03  0.21978589408E+04  0.21808369424E+04 0.  0.
        2    1    3    3  502    0  0.74638462774E+01 -0.58569210992E+03 -0.10634234297E+04  0.12140676865E+04  0.25500000920E-02 0. -1.
       -2    1    3    3    0  502 -0.74638462774E+01  0.58569210992E+03  0.79041398990E+03  0.98379125431E+03  0.25500000920E-02 0.  1.
</event>
<event>
 5   0  0.8306787E-05  0.2009392E+04  0.7818609E-02  0.8602242E-01
       -1   -1    0    0    0  501  0.00000000000E+00  0.00000000000E+00  0.10405184715E+04  0.10405184715E+04  0.50400001928E-02 0.  1.
        1   -1    0    0  501    0  0.00000000000E+00  0.00000000000E+00 -0.97010668790E+03  0.97010668792E+03  0.50400001928E-02 0. -1.
    10030    2    1    2    0    0  0.00000000000E+00  0.00000000000E+00  0.70411783577E+02  0.20106251594E+04  0.20093918763E+04 0.  0.
        1    1    3    3  502    0 -0.84293371574E+03  0.49369402110E+03 -0.19976347257E+03  0.99708398873E+03  0.50400001928E-02 0.  1.
       -1    1    3    3    0  502  0.84293371574E+03 -0.49369402110E+03  0.27017525615E+03  0.10135411707E+04  0.50400001928E-02 0. -1.
</event>
<event>
 5   0  0.8602414E-05  0.1210462E+04  0.7818609E-02  0.9103748E-01
       -1   -1    0    0    0  501  0.00000000000E+00  0.00000000000E+00  0.77457432368E+03  0.77457432370E+03  0.50400001928E-02 0.  1.
        1   -1    0    0  501    0  0.00000000000E+00  0.00000000000E+00 -0.47291096954E+03  0.47291096957E+03  0.50400001928E-02 0. -1.
    10030    2    1    2    0    0  0.00000000000E+00  0.00000000000E+00  0.30166335414E+03  0.12474852933E+04  0.12104622165E+04 0.  0.
        3    1    3    3  502    0  0.27334015551E+03  0.27602960639E+03 -0.32747288774E+03  0.50808039386E+03  0.10100000352E+00 0. -1.
       -3    1    3    3    0  502 -0.27334015551E+03 -0.27602960639E+03  0.62913624187E+03  0.73940489940E+03  0.10100000352E+00 0.  1.
</event>
<event>
 5   0  0.8306787E-05  0.2161678E+04  0.7818609E-02  0.8534550E-01
        1   -1    0    0  501    0  0.00000000000E+00  0.00000000000E+00  0.12403931667E+04  0.12403931667E+04  0.50400001928E-02 0. -1.
       -1   -1    0    0    0  501  0.00000000000E+00  0.00000000000E+00 -0.94180847431E+03  0.94180847432E+03  0.50400001928E-02 0.  1.
    10030    2    1    2    0    0  0.00000000000E+00  0.00000000000E+00  0.29858469240E+03  0.21822016410E+04  0.21616778631E+04 0.  0.
        1    1    3    3  502    0  0.95044974314E+03 -0.49540949337E+03  0.28999831967E+03  0.11103532347E+04  0.50400001928E-02 0. -1.
       -1    1    3    3    0  502 -0.95044974314E+03  0.49540949337E+03  0.85863727244E+01  0.10718484063E+04  0.50400001928E-02 0.  1.
</event>
<event>
 5   0  0.8784659E-05  0.2182995E+04  0.7818609E-02  0.8525539E-01
        1   -1    0    0  501    0  0.00000000000E+00  0.00000000000E+00  0.95101588139E+03  0.95101588141E+03  0.50400001928E-02 0. -1.
       -1   -1    0    0    0  501  0.00000000000E+00  0.00000000000E+00 -0.12527308003E+04  0.12527308003E+04  0.50400001928E-02 0.  1.
    10030    2    1    2    0    0  0.00000000000E+00  0.00000000000E+00 -0.30171491887E+03  0.22037466817E+04  0.21829950858E+04 0.  0.
        4    1    3    3  502    0  0.10575254208E+04  0.90610537036E+01 -0.42346736856E+03  0.11391963586E+04  0.12699999809E+01 0.  1.
       -4    1    3    3    0  502 -0.10575254208E+04 -0.90610537036E+01  0.12175244969E+03  0.10645503230E+04  0.12699999809E+01 0. -1.
</event>
<event>
 5   0  0.8784659E-05  0.2175073E+04  0.7818609E-02  0.8528876E-01
       -1   -1    0    0    0  501  0.00000000000E+00  0.00000000000E+00  0.71327215158E+03  0.71327215160E+03  0.50400001928E-02 0.  1.
        1   -1    0    0  501    0  0.00000000000E+00  0.00000000000E+00 -0.16581820836E+04  0.16581820836E+04  0.50400001928E-02 0. -1.
    10030    2    1    2    0    0  0.00000000000E+00  0.00000000000E+00 -0.94490993203E+03  0.23714542352E+04  0.21750725069E+04 0.  0.
        4    1    3    3  502    0  0.88493294873E+03 -0.48882317289E+03 -0.90949444103E+03  0.13598662321E+04  0.12699999809E+01 0. -1.
       -4    1    3    3    0  502 -0.88493294873E+03  0.48882317289E+03 -0.35415491001E+02  0.10115880031E+04  0.12699999809E+01 0.  1.
</event>
<event>
 5   0  0.8602414E-05  0.1526061E+04  0.7818609E-02  0.8867305E-01
       -1   -1    0    0    0  501  0.00000000000E+00  0.00000000000E+00  0.28400237433E+03  0.28400237437E+03  0.50400001928E-02 0. -1.
        1   -1    0    0  501    0  0.00000000000E+00  0.00000000000E+00 -0.20500384830E+04  0.20500384830E+04  0.50400001928E-02 0.  1.
    10030    2    1    2    0    0  0.00000000000E+00  0.00000000000E+00 -0.17660361087E+04  0.23340408574E+04  0.15260613313E+04 0.  0.
        3    1    3    3  502    0 -0.39241719086E+03  0.47613518405E+03 -0.15696046982E+04  0.16865215338E+04  0.10100000352E+00 0.  1.
       -3    1    3    3    0  502  0.39241719086E+03 -0.47613518405E+03 -0.19643141046E+03  0.64751932357E+03  0.10100000352E+00 0. -1.
</event>
<event>
 5   0  0.1805501E-04  0.2180687E+04  0.7818609E-02  0.8526510E-01
        2   -1    0    0  501    0  0.00000000000E+00  0.00000000000E+00  0.42443226850E+03  0.42443226851E+03  0.25500000920E-02 0.  1.
       -2   -1    0    0    0  501  0.00000000000E+00  0.00000000000E+00 -0.28010328495E+04  0.28010328495E+04  0.25500000920E-02 0. -1.
    10030    2    1    2    0    0  0.00000000000E+00  0.00000000000E+00 -0.23766005810E+04  0.32254651180E+04  0.21806867968E+04 0.  0.
        2    1    3    3  502    0 -0.45298485797E+03 -0.54476812793E+03  0.37556815165E+02  0.70949144402E+03  0.25500000920E-02 0.  1.
       -2    1    3    3    0  502  0.45298485797E+03  0.54476812793E+03 -0.24141573962E+04  0.25159736740E+04  0.25500000920E-02 0. -1.
</event>
<event>
 5   0  0.6250625E-05  0.2141875E+04  0.7818609E-02  0.8543018E-01
       -3   -1    0    0    0  501  0.00000000000E+00  0.00000000000E+00  0.85517382325E+03  0.85517382922E+03  0.10100000352E+00 0.  1.
        3   -1    0    0  501    0  0.00000000000E+00  0.00000000000E+00 -0.13411390917E+04  0.13411390955E+04  0.10100000352E+00 0. -1.
    10030    2    1    2    0    0  0.00000000000E+00  0.00000000000E+00 -0.48596526843E+03  0.21963129247E+04  0.21418749312E+04 0.  0.
        4    1    3    3  502    0 -0.56047690912E+03  0.20516759650E+02  0.69253749769E+03  0.89115941430E+03  0.12699999809E+01 0.  1.
       -4    1    3    3    0  502  0.56047690912E+03 -0.20516759650E+02 -0.11785027661E+04  0.13051535104E+04  0.12699999809E+01 0. -1.
</event>
<event>
 5   0  0.1754356E-04  0.2175045E+04  0.7818609E-02  0.8528887E-01
        2   -1    0    0  501    0  0.00000000000E+00  0.00000000000E+00  0.84482896541E+03  0.84482896541E+03  0.25500000920E-02 0.  1.
       -2   -1    0    0    0  501  0.00000000000E+00  0.00000000000E+00 -0.13999347000E+04  0.13999347000E+04  0.25500000920E-02 0. -1.
    10030    2    1    2    0    0  0.00000000000E+00  0.00000000000E+00 -0.55510573457E+03  0.22447636654E+04  0.21750451804E+04 0.  0.
        1    1    3    3  502    0  0.42213624477E+02  0.55215185496E+03  0.68842508828E+03  0.88350594974E+03  0.50400001928E-02 0.  1.
       -1    1    3    3    0  502 -0.42213624477E+02 -0.55215185496E+03 -0.12435308228E+04  0.13612577157E+04  0.50400001928E-02 0. -1.
</event>
<event>
 5   0  0.8602414E-05  0.2225145E+04  0.7818609E-02  0.8508035E-01
        1   -1    0    0  501    0  0.00000000000E+00  0.00000000000E+00  0.11551126211E+04  0.11551126211E+04  0.50400001928E-02 0. -1.
       -1   -1    0    0    0  501  0.00000000000E+00  0.00000000000E+00 -0.10715985693E+04  0.10715985693E+04  0.50400001928E-02 0.  1.
    10030    2    1    2    0    0  0.00000000000E+00  0.00000000000E+00  0.83514051785E+02  0.22267111904E+04  0.22251445186E+04 0.  0.
        3    1    3    3  502    0 -0.81997025339E+03  0.11668371174E+03  0.78514661464E+03  0.11412368386E+04  0.10100000352E+00 0. -1.
       -3    1    3    3    0  502  0.81997025339E+03 -0.11668371174E+03 -0.70163256285E+03  0.10854743518E+04  0.10100000352E+00 0.  1.
</event>
<event>
 5   0  0.1754356E-04  0.2153471E+04  0.7818609E-02  0.8538048E-01
       -2   -1    0    0    0  501  0.00000000000E+00  0.00000000000E+00  0.10454544038E+04  0.10454544038E+04  0.25500000920E-02 0. -1.
        2   -1    0    0  501    0  0.00000000000E+00  0.00000000000E+00 -0.11089529215E+04  0.11089529215E+04  0.25500000920E-02 0.  1.
    10030    2    1    2    0    0  0.00000000000E+00  0.00000000000E+00 -0.63498517756E+02  0.21544073253E+04  0.21534713514E+04 0.  0.
        1    1    3    3  502    0  0.60264040513E+03  0.37854367848E+03  0.77661736643E+03  0.10533780462E+04  0.50400001928E-02 0. -1.
       -1    1    3    3    0  502 -0.60264040513E+03 -0.37854367848E+03 -0.84011588419E+03  0.11010292790E+04  0.50400001928E-02 0.  1.
</event>
<event>
 5   0  0.8306787E-05  0.2210820E+04  0.7818609E-02  0.8513938E-01
       -1   -1    0    0    0  501  0.00000000000E+00  0.00000000000E+00  0.14732964803E+04  0.14732964803E+04  0.50400001928E-02 0. -1.
        1   -1    0    0  501    0  0.00000000000E+00  0.00000000000E+00 -0.82938552220E+03  0.82938552222E+03  0.50400001928E-02 0.  1.
    10030    2    1    2    0    0  0.00000000000E+00  0.00000000000E+00  0.64391095813E+03  0.23026820026E+04  0.22108195501E+04 0.  0.
        1    1    3    3  502    0  0.69721537396E+03 -0.17185110011E+03  0.11972854462E+04  0.13961140777E+04  0.50400001928E-02 0. -1.
       -1    1    3    3    0  502 -0.69721537396E+03  0.17185110011E+03 -0.55337448806E+03  0.90656792485E+03  0.50400001928E-02 0.  1.
</event>
<event>
 5   0  0.1680258E-04  0.2241978E+04  0.7818609E-02  0.8501156E-01
       -2   -1    0    0    0  501  0.00000000000E+00  0.00000000000E+00  0.76682126184E+03  0.76682126185E+03  0.25500000920E-02 0.  1.
        2   -1    0    0  501    0  0.00000000000E+00  0.00000000000E+00 -0.16387345422E+04  0.16387345422E+04  0.25500000920E-02 0. -1.
    10030    2    1    2    0    0  0.00000000000E+00  0.00000000000E+00 -0.87191328032E+03  0.24055558040E+04  0.22419781350E+04 0.  0.
        5    1    3    3  502    0  0.30704853484E+03  0.10739507463E+04 -0.53743740520E+03  0.12395604313E+04  0.46999998093E+01 0. -1.
       -5    1    3    3    0  502 -0.30704853484E+03 -0.10739507463E+04 -0.33447587512E+03  0.11659953728E+04  0.46999998093E+01 0.  1.
</event>
<event>
 5   0  0.8470971E-05  0.2218672E+04  0.7818609E-02  0.8510697E-01
       -1   -1    0    0    0  501  0.00000000000E+00  0.00000000000E+00  0.57190684608E+03  0.57190684610E+03  0.50400001928E-02 0. -1.
        1   -1    0    0  501    0  0.00000000000E+00  0.00000000000E+00 -0.21517943011E+04  0.21517943011E+04  0.50400001928E-02 0.  1.
    10030    2    1    2    0    0  0.00000000000E+00  0.00000000000E+00 -0.15798874550E+04  0.27237011472E+04  0.22186715775E+04 0.  0.
        2    1    3    3  502    0  0.13838020573E+03  0.85206602873E+03 -0.16452926074E+04  0.18579971374E+04  0.25500000920E-02 0.  1.
       -2    1    3    3    0  502 -0.13838020573E+03 -0.85206602873E+03  0.65405152356E+02  0.86570400982E+03  0.25500000920E-02 0. -1.
</event>
<event>
 5   0  0.1733962E-04  0.2094262E+04  0.7818609E-02  0.8563775E-01
       -2   -1    0    0    0  501  0.00000000000E+00  0.00000000000E+00  0.75574807312E+03  0.75574807312E+03  0.25500000920E-02 0.  1.
        2   -1    0    0  501    0  0.00000000000E+00  0.00000000000E+00 -0.14508576871E+04  0.14508576871E+04  0.25500000920E-02 0. -1.
    10030    2    1    2    0    0  0.00000000000E+00  0.00000000000E+00 -0.69510961398E+03  0.22066057602E+04  0.20942615896E+04 0.  0.
        3    1    3    3  502    0 -0.77578118127E+03 -0.17560326137E+03 -0.10651241041E+04  0.13293465741E+04  0.10100000352E+00 0. -1.
       -3    1    3    3    0  502  0.77578118127E+03  0.17560326137E+03  0.37001449012E+03  0.87725918617E+03  0.10100000352E+00 0.  1.
</event>
<event>
 5   0  0.1805501E-04  0.2275162E+04  0.7818609E-02  0.8487779E-01
       -2   -1    0    0    0  501  0.00000000000E+00  0.00000000000E+00  0.90865631470E+03  0.90865631470E+03  0.25500000920E-02 0. -1.
        2   -1    0    0  501    0  0.00000000000E+00  0.00000000000E+00 -0.14241808041E+04  0.14241808041E+04  0.25500000920E-02 0.  1.
    10030    2    1    2    0    0  0.00000000000E+00  0.00000000000E+00 -0.51552448942E+03  0.23328371188E+04  0.22751623071E+04 0.  0.
        2    1    3    3  502    0 -0.10171428252E+03 -0.46099025611E+03 -0.13190032403E+04  0.14009380284E+04  0.25500000920E-02 0.  1.
       -2    1    3    3    0  502  0.10171428252E+03  0.46099025611E+03  0.80347875091E+03  0.93189909039E+03  0.25500000920E-02 0. -1.
</event>
<event>
 5   0  0.8470971E-05  0.2169556E+04  0.7818609E-02  0.8531207E-01
       -1   -1    0    0    0  501  0.00000000000E+00  0.00000000000E+00  0.11251260870E+04  0.11251260870E+04  0.50400001928E-02 0.  1.
        1   -1    0    0  501    0  0.00000000000E+00  0.00000000000E+00 -0.10458771575E+04  0.10458771575E+04  0.50400001928E-02 0. -1.
    10030    2    1    2    0    0  0.00000000000E+00  0.00000000000E+00  0.79248929481E+02  0.21710032446E+04  0.21695563360E+04 0.  0.
        2    1    3    3  502    0  0.10036760009E+04 -0.34615868696E+03  0.26237643170E+03  0.10936328192E+04  0.25500000920E-02 0. -1.
       -2    1    3    3    0  502 -0.10036760009E+04  0.34615868696E+03 -0.18312750221E+03  0.10773704253E+04  0.25500000920E-02 0.  1.
</event>
<event>
 5   0  0.1680258E-04  0.2117261E+04  0.7818609E-02  0.8553678E-01
       -2   -1    0    0    0  501  0.00000000000E+00  0.00000000000E+00  0.59193348507E+03  0.59193348508E+03  0.25500000920E-02 0.  1.
        2   -1    0    0  501    0  0.00000000000E+00  0.00000000000E+00 -0.18932842471E+04  0.18932842471E+04  0.25500000920E-02 0. -1.
    10030    2    1    2    0    0  0.00000000000E+00  0.00000000000E+00 -0.13013507620E+04  0.24852177322E+04  0.21172608178E+04 0.  0.
        5    1    3    3  502    0 -0.55873908356E+03  0.88092387780E+03 -0.43919776195E+03  0.11318714618E+04  0.46999998093E+01 0.  1.
       -5    1    3    3    0  502  0.55873908356E+03 -0.88092387780E+03 -0.86215300010E+03  0.13533462704E+04  0.46999998093E+01 0. -1.
</event>
<event>
 5   0  0.1680258E-04  0.2166094E+04  0.7818609E-02  0.8532675E-01
        2   -1    0    0  501    0  0.00000000000E+00  0.00000000000E+00  0.10860031070E+04  0.10860031070E+04  0.25500000920E-02 0.  1.
       -2   -1    0    0    0  501  0.00000000000E+00  0.00000000000E+00 -0.10800988080E+04  0.10800988080E+04  0.25500000920E-02 0. -1.
    10030    2    1    2    0    0  0.00000000000E+00  0.00000000000E+00  0.59042990245E+01  0.21661019151E+04  0.21660938682E+04 0.  0.
        5    1    3    3  502    0 -0.12961362833E+03 -0.12741057603E+03 -0.10647294011E+04  0.10801407015E+04  0.46999998093E+01 0. -1.
       -5    1    3    3    0  502  0.12961362833E+03  0.12741057603E+03  0.10706337001E+04  0.10859612136E+04  0.46999998093E+01 0.  1.
</event>
<event>
 5   0  0.1733962E-04  0.2200023E+04  0.7818609E-02  0.8518419E-01
        2   -1    0    0  501    0  0.00000000000E+00  0.00000000000E+00  0.17092700481E+04  0.17092700481E+04  0.25500000920E-02 0. -1.
       -2   -1    0    0    0  501  0.00000000000E+00  0.00000000000E+00 -0.70791900592E+03  0.70791900592E+03  0.25500000920E-02 0.  1.
    10030    2    1    2    0    0  0.00000000000E+00  0.00000000000E+00  0.10013510422E+04  0.24171890541E+04  0.22000225029E+04 0.  0.
        3    1    3    3  502    0  0.69591137059E+03  0.85158789268E+03  0.47537727390E+03  0.11981144092E+04  0.10100000352E+00 0.  1.
       -3    1    3    3    0  502 -0.69591137059E+03 -0.85158789268E+03  0.52597376832E+03  0.12190746449E+04  0.10100000352E+00 0. -1.
</event>
<event>
 5   0  0.1754356E-04  0.2267597E+04  0.7818609E-02  0.8490808E-01
       -2   -1    0    0    0  501  0.00000000000E+00  0.00000000000E+00  0.93641281698E+03  0.93641281698E+03  0.25500000920E-02 0.  1.
        2   -1    0    0  501    0  0.00000000000E+00  0.00000000000E+00 -0.13727909090E+04  0.13727909090E+04  0.25500000920E-02 0. -1.
    10030    2    1    2    0    0  0.00000000000E+00  0.00000000000E+00 -0.43637809203E+03  0.23092037260E+04  0.22675969679E+04 0.  0.
        1    1    3    3  502    0  0.89198963974E+03  0.27806519127E+03  0.43588339805E+03  0.10309995658E+04  0.50400001928E-02 0.  1.
       -1    1    3    3    0  502 -0.89198963974E+03 -0.27806519127E+03 -0.87226149008E+03  0.12782041602E+04  0.50400001928E-02 0. -1.
</event>
<event>
 5   0  0.7954459E-05  0.2250666E+04  0.7818609E-02  0.8497631E-01
       -1   -1    0    0    0  501  0.00000000000E+00  0.00000000000E+00  0.82404883472E+03  0.82404883474E+03  0.50400001928E-02 0. -1.
        1   -1    0    0  501    0  0.00000000000E+00  0.00000000000E+00 -0.15367705283E+04  0.15367705284E+04  0.50400001928E-02 0.  1.
    10030    2    1    2    0    0  0.00000000000E+00  0.00000000000E+00 -0.71272169362E+03  0.23608193631E+04  0.22506656466E+04 0.  0.
        5    1    3    3  502    0  0.92652511869E+03 -0.27052791356E+03 -0.96322450734E+03  0.13636193344E+04  0.46999998093E+01 0.  1.
       -5    1    3    3    0  502 -0.92652511869E+03  0.27052791356E+03  0.25050281371E+03  0.99720002871E+03  0.46999998093E+01 0. -1.
</event>
<event>
 5   0  0.8306787E-05  0.1970543E+04  0.7818609E-02  0.8620518E-01
        1   -1    0    0  501    0  0.00000000000E+00  0.00000000000E+00  0.81503220992E+03  0.81503220994E+03  0.50400001928E-02 0.  1.
       -1   -1    0    0    0  501  0.00000000000E+00  0.00000000000E+00 -0.11910699610E+04  0.11910699610E+04  0.50400001928E-02 0. -1.
    10030    2    1    2    0    0  0.00000000000E+00  0.00000000000E+00 -0.37603775106E+03  0.20061021709E+04  0.19705434606E+04 0.  0.
        1    1    3    3  502    0  0.35369824585E+03  0.91565706972E+03 -0.10145471899E+03  0.98682489758E+03  0.50400001928E-02 0.  1.
       -1    1    3    3    0  502 -0.35369824585E+03 -0.91565706972E+03 -0.27458303206E+03  0.10192772734E+04  0.50400001928E-02 0. -1.
</event>
<event>
 5   0  0.1805501E-04  0.1608341E+04  0.7818609E-02  0.8815440E-01
       -2   -1    0    0    0  501  0.00000000000E+00  0.00000000000E+00  0.38733350366E+03  0.38733350367E+03  0.25500000920E-02 0.  1.
        2   -1    0    0  501    0  0.00000000000E+00  0.00000000000E+00 -0.16695957543E+04  0.16695957543E+04  0.25500000920E-02 0. -1.
    10030    2    1    2    0    0  0.00000000000E+00  0.00000000000E+00 -0.12822622507E+04  0.20569292580E+04  0.16083412240E+04 0.  0.
        2    1    3    3  502    0  0.38287488294E+02  0.56022223519E+02 -0.16659278911E+04  0.16673092573E+04  0.25500000920E-02 0. -1.
       -2    1    3    3    0  502 -0.38287488294E+02 -0.56022223519E+02  0.38366564041E+03  0.38962000067E+03  0.25500000920E-02 0.  1.
</event>
<event>
 5   0  0.8470971E-05  0.1991574E+04  0.7818609E-02  0.8610570E-01
        1   -1    0    0  501    0  0.00000000000E+00  0.00000000000E+00  0.13427129365E+04  0.13427129365E+04  0.50400001928E-02 0. -1.
       -1   -1    0    0    0  501  0.00000000000E+00  0.00000000000E+00 -0.73849843632E+03  0.73849843634E+03  0.50400001928E-02 0.  1.
    10030    2    1    2    0    0  0.00000000000E+00  0.00000000000E+00  0.60421450018E+03  0.20812113728E+04  0.19915736532E+04 0.  0.
        2    1    3    3  502    0  0.74766697469E+03  0.24973369304E+03 -0.33373432963E+03  0.85600901003E+03  0.25500000920E-02 0.  1.
       -2    1    3    3    0  502 -0.74766697469E+03 -0.24973369304E+03  0.93794882981E+03  0.12252023628E+04  0.25500000920E-02 0. -1.
</event>
<event>
 5   0  0.1733962E-04  0.2183810E+04  0.7818609E-02  0.8525197E-01
        2   -1    0    0  501    0  0.00000000000E+00  0.00000000000E+00  0.15097561222E+04  0.15097561222E+04  0.25500000920E-02 0.  1.
       -2   -1    0    0    0  501  0.00000000000E+00  0.00000000000E+00 -0.78970111324E+03  0.78970111324E+03  0.25500000920E-02 0. -1.
    10030    2    1    2    0    0  0.00000000000E+00  0.00000000000E+00  0.72005500896E+03  0.22994572354E+04  0.21838095983E+04 0.  0.
        3    1    3    3  502    0  0.40505973459E+03 -0.94134420290E+03 -0.36832167429E+02  0.10254554674E+04  0.10100000352E+00 0.  1.
       -3    1    3    3    0  502 -0.40505973459E+03  0.94134420290E+03  0.75688717639E+03  0.12740017680E+04  0.10100000352E+00 0. -1.
</event>
<event>
 5   0  0.1680258E-04  0.2024977E+04  0.7818609E-02  0.8595031E-01
       -2   -1    0    0    0  501  0.00000000000E+00  0.00000000000E+00  0.94580339376E+03  0.94580339376E+03  0.25500000920E-02 0. -1.
        2   -1    0    0  501    0  0.00000000000E+00  0.00000000000E+00 -0.10838753883E+04  0.10838753883E+04  0.25500000920E-02 0.  1.
    10030    2    1    2    0    0  0.00000000000E+00  0.00000000000E+00 -0.13807199453E+03  0.20296787821E+04  0.20249770573E+04 0.  0.
        5    1    3    3  502    0  0.38571563362E+03  0.17379527220E+03  0.85295280095E+03  0.95211969694E+03  0.46999998093E+01 0. -1.
       -5    1    3    3    0  502 -0.38571563362E+03 -0.17379527220E+03 -0.99102479548E+03  0.10775590851E+04  0.46999998093E+01 0.  1.
</event>
<event>
 5   0  0.7954459E-05  0.2179997E+04  0.7818609E-02  0.8526800E-01
       -1   -1    0    0    0  501  0.00000000000E+00  0.00000000000E+00  0.75553560012E+03  0.75553560014E+03  0.50400001928E-02 0.  1.
        1   -1    0    0  501    0  0.00000000000E+00  0.00000000000E+00 -0.15725224673E+04  0.15725224673E+04  0.50400001928E-02 0. -1.
    10030    2    1    2    0    0  0.00000000000E+00  0.00000000000E+00 -0.81698686717E+03  0.23280580674E+04  0.21799969780E+04 0.  0.
        5    1    3    3  502    0  0.88723692525E+03 -0.12494941664E+02  0.26753252740E+03  0.92679082230E+03  0.46999998093E+01 0.  1.
       -5    1    3    3    0  502 -0.88723692525E+03  0.12494941664E+02 -0.10845193946E+04  0.14012672451E+04  0.46999998093E+01 0. -1.
</event>
<event>
 5   0  0.7954459E-05  0.2233893E+04  0.7818609E-02  0.8504452E-01
       -1   -1    0    0    0  501  0.00000000000E+00  0.00000000000E+00  0.63192137856E+03  0.63192137858E+03  0.50400001928E-02 0. -1.
        1   -1    0    0  501    0  0.00000000000E+00  0.00000000000E+00 -0.19742480428E+04  0.19742480428E+04  0.50400001928E-02 0.  1.
    10030    2    1    2    0    0  0.00000000000E+00  0.00000000000E+00 -0.13423266642E+04  0.26061694214E+04  0.22338930546E+04 0.  0.
        5    1    3    3  502    0  0.33979632712E+03  0.77840724489E+03  0.17509413290E+03  0.86721360010E+03  0.46999998093E+01 0. -1.
       -5    1    3    3    0  502 -0.33979632712E+03 -0.77840724489E+03 -0.15174207971E+04  0.17389558213E+04  0.46999998093E+01 0.  1.
</event>
<event>
 5   0  0.1754356E-04  0.2291453E+04  0.7818609E-02  0.8481299E-01
       -2   -1    0    0    0  501  0.00000000000E+00  0.00000000000E+00  0.10975058341E+04  0.10975058341E+04  0.25500000920E-02 0.  1.
        2   -1    0    0  501    0  0.00000000000E+00  0.00000000000E+00 -0.11960653848E+04  0.11960653848E+04  0.25500000920E-02 0. -1.
    10030    2    1    2    0    0  0.00000000000E+00  0.00000000000E+00 -0.98559550730E+02  0.22935712190E+04  0.22914525855E+04 0.  0.
        1    1    3    3  502    0  0.78830964529E+03 -0.57217274648E+03 -0.65305801613E+03  0.11727312229E+04  0.50400001928E-02 0. -1.
       -1    1    3    3    0  502 -0.78830964529E+03  0.57217274648E+03  0.55449846539E+03  0.11208399961E+04  0.50400001928E-02 0.  1.
</event>
<event>
 5   0  0.1798917E-04  0.2220166E+04  0.7818609E-02  0.8510081E-01
       -2   -1    0    0    0  501  0.00000000000E+00  0.00000000000E+00  0.10426694570E+04  0.10426694570E+04  0.25500000920E-02 0.  1.
        2   -1    0    0  501    0  0.00000000000E+00  0.00000000000E+00 -0.11818549361E+04  0.11818549361E+04  0.25500000920E-02 0. -1.
    10030    2    1    2    0    0  0.00000000000E+00  0.00000000000E+00 -0.13918547914E+03  0.22245243931E+04  0.22201657996E+04 0.  0.
        4    1    3    3  502    0 -0.11079869392E+04 -0.65366034739E+02 -0.50198715811E+02  0.11110487387E+04  0.12699999809E+01 0. -1.
       -4    1    3    3    0  502  0.11079869392E+04  0.65366034739E+02 -0.88986763328E+02  0.11134756543E+04  0.12699999809E+01 0.  1.
</event>
<event>
 5   0  0.6250625E-05  0.1982347E+04  0.7818609E-02  0.8614919E-01
        4   -1    0    0  501    0  0.00000000000E+00  0.00000000000E+00  0.17355754338E+04  0.17355758985E+04  0.12699999809E+01 0.  1.
       -4   -1    0    0    0  501  0.00000000000E+00  0.00000000000E+00 -0.56605005608E+03  0.56605148078E+03  0.12699999809E+01 0. -1.
    10030    2    1    2    0    0  0.00000000000E+00  0.00000000000E+00  0.11695253777E+04  0.23016273793E+04  0.19823468374E+04 0.  0.
        3    1    3    3  502    0 -0.25215771634E+03 -0.70929993022E+03  0.13333864006E+04  0.15312116798E+04  0.10100000352E+00 0.  1.
       -3    1    3    3    0  502  0.25215771634E+03  0.70929993022E+03 -0.16386102286E+03  0.77041569944E+03  0.10100000352E+00 0. -1.
</event>
<event>
 5   0  0.8784659E-05  0.1363777E+04  0.7818609E-02  0.8980464E-01
       -1   -1    0    0    0  501  0.00000000000E+00  0.00000000000E+00  0.45923276440E+03  0.45923276443E+03  0.50400001928E-02 0.  1.
        1   -1    0    0  501    0  0.00000000000E+00  0.00000000000E+00 -0.10124966454E+04  0.10124966455E+04  0.50400001928E-02 0. -1.
    10030    2    1    2    0    0  0.00000000000E+00  0.00000000000E+00 -0.55326388104E+03  0.14717294099E+04  0.13637765704E+04 0.  0.
        4    1    3    3  502    0 -0.27574623363E+03 -0.56790982212E+03 -0.55473742724E+03  0.84041226639E+03  0.12699999809E+01 0. -1.
       -4    1    3    3    0  502  0.27574623363E+03  0.56790982212E+03  0.14735461966E+01  0.63131714349E+03  0.12699999809E+01 0.  1.
</event>
<event>
 5   0  0.1733962E-04  0.2109968E+04  0.7818609E-02  0.8556865E-01
       -2   -1    0    0    0  501  0.00000000000E+00  0.00000000000E+00  0.47447098268E+03  0.47447098268E+03  0.25500000920E-02 0.  1.
        2   -1    0    0  501    0  0.00000000000E+00  0.00000000000E+00 -0.23457527999E+04  0.23457527999E+04  0.25500000920E-02 0. -1.
    10030    2    1    2    0    0  0.00000000000E+00  0.00000000000E+00 -0.18712818172E+04  0.28202237826E+04  0.21099683752E+04 0.  0.
        3    1    3    3  502    0  0.60908356398E+03  0.53370216407E+03 -0.18393879416E+04  0.20097683443E+04  0.10100000352E+00 0. -1.
       -3    1    3    3    0  502 -0.60908356398E+03 -0.53370216407E+03 -0.31893875553E+02  0.81045543822E+03  0.10100000352E+00 0.  1.
</event>
<event>
 5   0  0.8306787E-05  0.1960411E+04  0.7818609E-02  0.8625357E-01
        1   -1    0    0  501    0  0.00000000000E+00  0.00000000000E+00  0.20697341042E+04  0.20697341042E+04  0.50400001928E-02 0.  1.
       -1   -1    0    0    0  501  0.00000000000E+00  0.00000000000E+00 -0.46421541846E+03  0.46421541849E+03  0.50400001928E-02 0. -1.
    10030    2    1    2    0    0  0.00000000000E+00  0.00000000000E+00  0.16055186857E+04  0.25339495227E+04  0.19604106542E+04 0.  0.
        1    1    3    3  502    0  0.10553294119E+03 -0.95156282813E+03  0.53103413121E+03  0.10948087806E+04  0.50400001928E-02 0. -1.
       -1    1    3    3    0  502 -0.10553294119E+03  0.95156282813E+03  0.10744845545E+04  0.14391407421E+04  0.50400001928E-02 0.  1.
</event>
<event>
 5   0  0.1680258E-04  0.2240243E+04  0.7818609E-02  0.8501862E-01
        2   -1    0    0  501    0  0.00000000000E+00  0.00000000000E+00  0.22449425152E+04  0.22449425152E+04  0.25500000920E-02 0. -1.
       -2   -1    0    0    0  501  0.00000000000E+00  0.00000000000E+00 -0.55888847758E+03  0.55888847758E+03  0.25500000920E-02 0.  1.
    10030    2    1    2    0    0  0.00000000000E+00  0.00000000000E+00  0.16860540377E+04  0.28038309928E+04  0.22402432945E+04 0.  0.
        5    1    3    3  502    0  0.14029416113E+03  0.10521106019E+04  0.39519552798E+03  0.11326167779E+04  0.46999998093E+01 0.  1.
       -5    1    3    3    0  502 -0.14029416113E+03 -0.10521106019E+04  0.12908585097E+04  0.16712142149E+04  0.46999998093E+01 0. -1.
</event>
<event>
 5   0  0.8470971E-05  0.1944085E+04  0.7818609E-02  0.8633218E-01
       -1   -1    0    0    0  501  0.00000000000E+00  0.00000000000E+00  0.56670205172E+03  0.56670205174E+03  0.50400001928E-02 0.  1.
        1   -1    0    0  501    0  0.00000000000E+00  0.00000000000E+00 -0.16673078284E+04  0.16673078284E+04  0.50400001928E-02 0. -1.
    10030    2    1    2    0    0  0.00000000000E+00  0.00000000000E+00 -0.11006057767E+04  0.22340098801E+04  0.19440851496E+04 0.  0.
        2    1    3    3  502    0 -0.48045556798E+03 -0.61420535507E+03  0.11657081960E+03  0.78846339610E+03  0.25500000920E-02 0.  1.
       -2    1    3    3    0  502  0.48045556798E+03  0.61420535507E+03 -0.12171765963E+04  0.14455464840E+04  0.25500000920E-02 0. -1.
</event>
<event>
 5   0  0.1754356E-04  0.2200637E+04  0.7818609E-02  0.8518163E-01
       -2   -1    0    0    0  501  0.00000000000E+00  0.00000000000E+00  0.38116662834E+03  0.38116662835E+03  0.25500000920E-02 0. -1.
        2   -1    0    0  501    0  0.00000000000E+00  0.00000000000E+00 -0.31763042297E+04  0.31763042297E+04  0.25500000920E-02 0.  1.
    10030    2    1    2    0    0  0.00000000000E+00  0.00000000000E+00 -0.27951376014E+04  0.35574708581E+04  0.22006373384E+04 0.  0.
        1    1    3    3  502    0  0.89671939406E+03 -0.55660895266E+03 -0.89465898052E+03  0.13835945538E+04  0.50400001928E-02 0. -1.
       -1    1    3    3    0  502 -0.89671939406E+03  0.55660895266E+03 -0.19004786209E+04  0.21738763043E+04  0.50400001928E-02 0.  1.
</event>
<event>
 5   0  0.1805501E-04  0.2135173E+04  0.7818609E-02  0.8545906E-01
        2   -1    0    0  501    0  0.00000000000E+00  0.00000000000E+00  0.11295363212E+04  0.11295363212E+04  0.25500000920E-02 0.  1.
       -2   -1    0    0    0  501  0.00000000000E+00  0.00000000000E+00 -0.10090343186E+04  0.10090343186E+04  0.25500000920E-02 0. -1.
    10030    2    1    2    0    0  0.00000000000E+00  0.00000000000E+00  0.12050200265E+03  0.21385706398E+04  0.21351729787E+04 0.  0.
        2    1    3    3  502    0 -0.26314331656E+02  0.10403592331E+04 -0.17824791438E+03  0.10558466257E+04  0.25500000920E-02 0.  1.
       -2    1    3    3    0  502  0.26314331656E+02 -0.10403592331E+04  0.29874991703E+03  0.10827240142E+04  0.25500000920E-02 0. -1.
</event>
<event>
 5   0  0.6250625E-05  0.2203323E+04  0.7818609E-02  0.8517046E-01
       -3   -1    0    0    0  501  0.00000000000E+00  0.00000000000E+00  0.74482136797E+03  0.74482137482E+03  0.10100000352E+00 0. -1.
        3   -1    0    0  501    0  0.00000000000E+00  0.00000000000E+00 -0.16294624185E+04  0.16294624216E+04  0.10100000352E+00 0.  1.
    10030    2    1    2    0    0  0.00000000000E+00  0.00000000000E+00 -0.88464105048E+03  0.23742837964E+04  0.22033233439E+04 0.  0.
        5    1    3    3  502    0  0.22640492741E+03 -0.10665124342E+04 -0.27218246634E+03  0.11237496823E+04  0.46999998093E+01 0. -1.
       -5    1    3    3    0  502 -0.22640492741E+03  0.10665124342E+04 -0.61245858414E+03  0.12505341142E+04  0.46999998093E+01 0.  1.
</event>
<event>
 5   0  0.8784659E-05  0.2127841E+04  0.7818609E-02  0.8549078E-01
       -1   -1    0    0    0  501  0.00000000000E+00  0.00000000000E+00  0.50530975931E+03  0.50530975934E+03  0.50400001928E-02 0. -1.
        1   -1    0    0  501    0  0.00000000000E+00  0.00000000000E+00 -0.22400647467E+04  0.22400647467E+04  0.50400001928E-02 0.  1.
    10030    2    1    2    0    0  0.00000000000E+00  0.00000000000E+00 -0.17347549874E+04  0.27453745061E+04  0.21278407629E+04 0.  0.
        4    1    3    3  502    0 -0.76224423308E+01  0.21248593011E+03  0.47761735570E+03  0.52280811345E+03  0.12699999809E+01 0. -1.
       -4    1    3    3    0  502  0.76224423308E+01 -0.21248593011E+03 -0.22123723431E+04  0.22225663926E+04  0.12699999809E+01 0.  1.
</event>
<event>
 5   0  0.1798917E-04  0.2160994E+04  0.7818609E-02  0.8534841E-01
       -2   -1    0    0    0  501  0.00000000000E+00  0.00000000000E+00  0.94271108741E+03  0.94271108741E+03  0.25500000920E-02 0. -1.
        2   -1    0    0  501    0  0.00000000000E+00  0.00000000000E+00 -0.12384212641E+04  0.12384212641E+04  0.25500000920E-02 0.  1.
    10030    2    1    2    0    0  0.00000000000E+00  0.00000000000E+00 -0.29571017665E+03  0.21811323515E+04  0.21609937126E+04 0.  0.
        4    1    3    3  502    0 -0.43868406247E+03 -0.32316014116E+03 -0.10896075521E+04  0.12182456296E+04  0.12699999809E+01 0.  1.
       -4    1    3    3    0  502  0.43868406247E+03  0.32316014116E+03  0.79389737546E+03  0.96288672188E+03  0.12699999809E+01 0. -1.
</event>
<event>
 5   0  0.1680258E-04  0.2054117E+04  0.7818609E-02  0.8581729E-01
        2   -1    0    0  501    0  0.00000000000E+00  0.00000000000E+00  0.11963386438E+04  0.11963386438E+04  0.25500000920E-02 0.  1.
       -2   -1    0    0    0  501  0.00000000000E+00  0.00000000000E+00 -0.88173086296E+03  0.88173086296E+03  0.25500000920E-02 0. -1.
    10030    2    1    2    0    0  0.00000000000E+00  0.00000000000E+00  0.31460778086E+03  0.20780695068E+04  0.20541165544E+04 0.  0.
        5    1    3    3  502    0 -0.64313684701E+03  0.74363341221E+03 -0.14316274855E+03  0.99354583101E+03  0.46999998093E+01 0. -1.
       -5    1    3    3    0  502  0.64313684701E+03 -0.74363341221E+03  0.45777052940E+03  0.10845236758E+04  0.46999998093E+01 0.  1.
</event>
<event>
 5   0  0.8306787E-05  0.2178298E+04  0.7818609E-02  0.8527516E-01
        1   -1    0    0  501    0  0.00000000000E+00  0.00000000000E+00  0.15450927936E+04  0.15450927936E+04  0.50400001928E-02 0.  1.
       -1   -1    0    0    0  501  0.00000000000E+00  0.00000000000E+00 -0.76775038831E+03  0.76775038833E+03  0.50400001928E-02 0. -1.
    10030    2    1    2    0    0  0.00000000000E+00  0.00000000000E+00  0.77734240524E+03  0.23128431819E+04  0.21782980441E+04 0.  0.
        1    1    3    3  502    0 -0.10454173944E+04 -0.70480684785E+02  0.70432222698E+03  0.12625113286E+04  0.50400001928E-02 0. -1.
       -1    1    3    3    0  502  0.10454173944E+04  0.70480684785E+02  0.73020178264E+02  0.10503318533E+04  0.50400001928E-02 0.  1.
</event>
<event>
 5   0  0.1798917E-04  0.1723749E+04  0.7818609E-02  0.8747934E-01
        2   -1    0    0  501    0  0.00000000000E+00  0.00000000000E+00  0.11654810697E+04  0.11654810697E+04  0.25500000920E-02 0.  1.
       -2   -1    0    0    0  501  0.00000000000E+00  0.00000000000E+00 -0.63735696493E+03  0.63735696493E+03  0.25500000920E-02 0. -1.
    10030    2    1    2    0    0  0.00000000000E+00  0.00000000000E+00  0.52812410474E+03  0.18028380346E+04  0.17237487952E+04 0.  0.
        4    1    3    3  502    0 -0.26509062548E+03  0.57656536603E+03  0.87402315862E+03  0.10801012710E+04  0.12699999809E+01 0.  1.
       -4    1    3    3    0  502  0.26509062548E+03 -0.57656536603E+03 -0.34589905387E+03  0.72273676355E+03  0.12699999809E+01 0. -1.
</event>
<event>
 5   0  0.8602414E-05  0.2188871E+04  0.7818609E-02  0.8523074E-01
       -1   -1    0    0    0  501  0.00000000000E+00  0.00000000000E+00  0.11337986039E+04  0.11337986039E+04  0.50400001928E-02 0. -1.
        1   -1    0    0  501    0  0.00000000000E+00  0.00000000000E+00 -0.10564393690E+04  0.10564393690E+04  0.50400001928E-02 0.  1.
    10030    2    1    2    0    0  0.00000000000E+00  0.00000000000E+00  0.77359234868E+02  0.21902379729E+04  0.21888713819E+04 0.  0.
        3    1    3    3  502    0  0.42772857629E+03 -0.10023081026E+04 -0.62458726894E+02  0.10915467788E+04  0.10100000352E+00 0. -1.
       -3    1    3    3    0  502 -0.42772857629E+03  0.10023081026E+04  0.13981796176E+03  0.10986911941E+04  0.10100000352E+00 0.  1.
</event>
<event>
 5   0  0.8470971E-05  0.2003380E+04  0.7818609E-02  0.8605042E-01
        1   -1    0    0  501    0  0.00000000000E+00  0.00000000000E+00  0.11750734334E+04  0.11750734334E+04  0.50400001928E-02 0.  1.
       -1   -1    0    0    0  501  0.00000000000E+00  0.00000000000E+00 -0.85388907213E+03  0.85388907215E+03  0.50400001928E-02 0. -1.
    10030    2    1    2    0    0  0.00000000000E+00  0.00000000000E+00  0.32118436128E+03  0.20289625056E+04  0.20033795085E+04 0.  0.
        2    1    3    3  502    0  0.71498077199E+03  0.78531817237E+02 -0.54545999946E+03  0.90271333304E+03  0.25500000920E-02 0. -1.
       -2    1    3    3    0  502 -0.71498077199E+03 -0.78531817237E+02  0.86664436073E+03  0.11262491725E+04  0.25500000920E-02 0.  1.
</event>
<event>
 5   0  0.8470971E-05  0.2199239E+04  0.7818609E-02  0.8518745E-01
       -1   -1    0    0    0  501  0.00000000000E+00  0.00000000000E+00  0.12681922823E+04  0.12681922823E+04  0.50400001928E-02 0. -1.
        1   -1    0    0  501    0  0.00000000000E+00  0.00000000000E+00 -0.95345371884E+03  0.95345371886E+03  0.50400001928E-02 0.  1.
    10030    2    1    2    0    0  0.00000000000E+00  0.00000000000E+00  0.31473856348E+03  0.22216460012E+04  0.21992386390E+04 0.  0.
        2    1    3    3  502    0 -0.46226804636E+03 -0.80604358753E+03 -0.43663939462E+03  0.10266703330E+04  0.25500000920E-02 0.  1.
       -2    1    3    3    0  502  0.46226804636E+03  0.80604358753E+03  0.75137795810E+03  0.11949756682E+04  0.25500000920E-02 0. -1.
</event>
<event>
 5   0  0.8306787E-05  0.2177822E+04  0.7818609E-02  0.8527716E-01
       -1   -1    0    0    0  501  0.00000000000E+00  0.00000000000E+00  0.71826907301E+03  0.71826907303E+03  0.50400001928E-02 0. -1.
        1   -1    0    0  501    0  0.00000000000E+00  0.00000000000E+00 -0.16508111942E+04  0.16508111942E+04  0.50400001928E-02 0.  1.
    10030    2    1    2    0    0  0.00000000000E+00  0.00000000000E+00 -0.93254212117E+03  0.23690802672E+04  0.21778215043E+04 0.  0.
        1    1    3    3  502    0 -0.56314629413E+03  0.51763478471E+03 -0.13093479577E+04  0.15164008683E+04  0.50400001928E-02 0. -1.
       -1    1    3    3    0  502  0.56314629413E+03 -0.51763478471E+03  0.37680583652E+03  0.85267939895E+03  0.50400001928E-02 0.  1.
</event>
<event>
 5   0  0.7954459E-05  0.2362259E+04  0.7818609E-02  0.8453770E-01
        1   -1    0    0  501    0  0.00000000000E+00  0.00000000000E+00  0.13199762390E+04  0.13199762390E+04  0.50400001928E-02 0. -1.
       -1   -1    0    0    0  501  0.00000000000E+00  0.00000000000E+00 -0.10568875208E+04  0.10568875208E+04  0.50400001928E-02 0.  1.
    10030    2    1    2    0    0  0.00000000000E+00  0.00000000000E+00  0.26308871824E+03  0.23768637598E+04  0.23622585927E+04 0.  0.
        5    1    3    3  502    0 -0.36687481408E+03  0.73335592186E+03  0.98688032615E+03  0.12831067397E+04  0.46999998093E+01 0. -1.
       -5    1    3    3    0  502  0.36687481408E+03 -0.73335592186E+03 -0.72379160790E+03  0.10937570201E+04  0.46999998093E+01 0.  1.
</event>
<event>
 5   0  0.8470971E-05  0.2300739E+04  0.7818609E-02  0.8477630E-01
       -1   -1    0    0    0  501  0.00000000000E+00  0.00000000000E+00  0.14844538410E+04  0.14844538410E+04  0.50400001928E-02 0. -1.
        1   -1    0    0  501    0  0.00000000000E+00  0.00000000000E+00 -0.89147236733E+03  0.89147236735E+03  0.50400001928E-02 0.  1.
    10030    2    1    2    0    0  0.00000000000E+00  0.00000000000E+00  0.59298147362E+03  0.23759262083E+04  0.23007386465E+04 0.  0.
        2    1    3    3  502    0  0.54904178388E+03 -0.35024446588E+02  0.13397917026E+04  0.14483491978E+04  0.25500000920E-02 0. -1.
       -2    1    3    3    0  502 -0.54904178388E+03  0.35024446588E+02 -0.74681022900E+03  0.92757701052E+03  0.25500000920E-02 0.  1.
</event>
<event>
 5   0  0.1798917E-04  0.2196650E+04  0.7818609E-02  0.8519824E-01
       -2   -1    0    0    0  501  0.00000000000E+00  0.00000000000E+00  0.11560052354E+04  0.11560052354E+04  0.25500000920E-02 0.  1.
        2   -1    0    0  501    0  0.00000000000E+00  0.00000000000E+00 -0.10435225285E+04  0.10435225285E+04  0.25500000920E-02 0. -1.
    10030    2    1    2    0    0  0.00000000000E+00  0.00000000000E+00  0.11248270691E+03  0.21995277640E+04  0.21966497275E+04 0.  0.
        4    1    3    3  502    0  0.10511147320E+04 -0.31352877835E+03  0.11264826647E+03  0.11026485022E+04  0.12699999809E+01 0. -1.
       -4    1    3    3    0  502 -0.10511147320E+04  0.31352877835E+03 -0.16555955481E+00  0.10968792618E+04  0.12699999809E+01 0.  1.
</event>
<event>
 5   0  0.1798917E-04  0.2312217E+04  0.7818609E-02  0.8473119E-01
        2   -1    0    0  501    0  0.00000000000E+00  0.00000000000E+00  0.16216811154E+04  0.16216811154E+04  0.25500000920E-02 0. -1.
       -2   -1    0    0    0  501  0.00000000000E+00  0.00000000000E+00 -0.82419865750E+03  0.82419865750E+03  0.25500000920E-02 0.  1.
    10030    2    1    2    0    0  0.00000000000E+00  0.00000000000E+00  0.79748245790E+03  0.24458797729E+04  0.23122174623E+04 0.  0.
        4    1    3    3  502    0  0.76808013801E+03  0.60196725567E+03 -0.25699169741E+03  0.10091372656E+04  0.12699999809E+01 0.  1.
       -4    1    3    3    0  502 -0.76808013801E+03 -0.60196725567E+03  0.10544741553E+04  0.14367425073E+04  0.12699999809E+01 0. -1.
</event>
<event>
 5   0  0.1754356E-04  0.2182195E+04  0.7818609E-02  0.8525876E-01
       -2   -1    0    0    0  501  0.00000000000E+00  0.00000000000E+00  0.14923807989E+04  0.14923807989E+04  0.25500000920E-02 0.  1.
        2   -1    0    0  501    0  0.00000000000E+00  0.00000000000E+00 -0.79771464423E+03  0.79771464423E+03  0.25500000920E-02 0. -1.
    10030    2    1    2    0    0  0.00000000000E+00  0.00000000000E+00  0.69466615464E+03  0.22900954431E+04  0.21821952415E+04 0.  0.
        1    1    3    3  502    0 -0.96291014580E+03 -0.29309825272E+03  0.78933724141E+03  0.12791230650E+04  0.50400001928E-02 0.  1.
       -1    1    3    3    0  502  0.96291014580E+03  0.29309825272E+03 -0.94671086770E+02  0.10109723781E+04  0.50400001928E-02 0. -1.
</event>
<event>
 5   0  0.8784659E-05  0.2181288E+04  0.7818609E-02  0.8526257E-01
        1   -1    0    0  501    0  0.00000000000E+00  0.00000000000E+00  0.12056879015E+04  0.12056879016E+04  0.50400001928E-02 0. -1.
       -1   -1    0    0    0  501  0.00000000000E+00  0.00000000000E+00 -0.98657687311E+03  0.98657687312E+03  0.50400001928E-02 0.  1.
    10030    2    1    2    0    0  0.00000000000E+00  0.00000000000E+00  0.21911102843E+03  0.21922647747E+04  0.21812875096E+04 0.  0.
        4    1    3    3  502    0 -0.10166356920E+04 -0.72987705262E+02 -0.28050437453E+03  0.10571469398E+04  0.12699999809E+01 0.  1.
       -4    1    3    3    0  502  0.10166356920E+04  0.72987705262E+02  0.49961540296E+03  0.11351178349E+04  0.12699999809E+01 0. -1.
</event>
<event>
 5   0  0.8784659E-05  0.2078027E+04  0.7818609E-02  0.8570985E-01
       -1   -1    0    0    0  501  0.00000000000E+00  0.00000000000E+00  0.91535463881E+03  0.91535463882E+03  0.50400001928E-02 0.  1.
        1   -1    0    0  501    0  0.00000000000E+00  0.00000000000E+00 -0.11793775527E+04  0.11793775527E+04  0.50400001928E-02 0. -1.
    10030    2    1    2    0    0  0.00000000000E+00  0.00000000000E+00 -0.26402291387E+03  0.20947321915E+04  0.20780266733E+04 0.  0.
        4    1    3    3  502    0 -0.51623026382E+03  0.34634683642E+03 -0.97122887239E+03  0.11531422080E+04  0.12699999809E+01 0. -1.
       -4    1    3    3    0  502  0.51623026382E+03 -0.34634683642E+03  0.70720595852E+03  0.94158998351E+03  0.12699999809E+01 0.  1.
</event>
<event>
 5   0  0.1680258E-04  0.2069378E+04  0.7818609E-02  0.8574854E-01
       -2   -1    0    0    0  501  0.00000000000E+00  0.00000000000E+00  0.96715132622E+03  0.96715132623E+03  0.25500000920E-02 0. -1.
        2   -1    0    0  501    0  0.00000000000E+00  0.00000000000E+00 -0.11069424827E+04  0.11069424827E+04  0.25500000920E-02 0.  1.
    10030    2    1    2    0    0  0.00000000000E+00  0.00000000000E+00 -0.13979115652E+03  0.20740938090E+04  0.20693775782E+04 0.  0.
        5    1    3    3  502    0 -0.20358999520E+03 -0.78095474936E+03 -0.71884289682E+03  0.10807850883E+04  0.46999998093E+01 0.  1.
       -5    1    3    3    0  502  0.20358999520E+03  0.78095474936E+03  0.57905174030E+03  0.99330872071E+03  0.46999998093E+01 0. -1.
</event>
<event>
 5   0  0.7954459E-05  0.2179534E+04  0.7818609E-02  0.8526995E-01
        1   -1    0    0  501    0  0.00000000000E+00  0.00000000000E+00  0.20524507378E+04  0.20524507378E+04  0.50400001928E-02 0.  1.
       -1   -1    0    0    0  501  0.00000000000E+00  0.00000000000E+00 -0.57862166918E+03  0.57862166920E+03  0.50400001928E-02 0. -1.
    10030    2    1    2    0    0  0.00000000000E+00  0.00000000000E+00  0.14738290686E+04  0.26310724070E+04  0.21795343281E+04 0.  0.
        5    1    3    3  502    0  0.10709646024E+04 -0.29540748349E+02  0.97754038725E+03  0.14503258717E+04  0.46999998093E+01 0.  1.
       -5    1    3    3    0  502 -0.10709646024E+04  0.29540748349E+02  0.49628868134E+03  0.11807465353E+04  0.46999998093E+01 0. -1.
</event>
<event>
 5   0  0.6250625E-05  0.2297471E+04  0.7818609E-02  0.8478919E-01
       -3   -1    0    0    0  501  0.00000000000E+00  0.00000000000E+00  0.10844008116E+04  0.10844008163E+04  0.10100000352E+00 0.  1.
        3   -1    0    0  501    0  0.00000000000E+00  0.00000000000E+00 -0.12168874304E+04  0.12168874346E+04  0.10100000352E+00 0. -1.
    10030    2    1    2    0    0  0.00000000000E+00  0.00000000000E+00 -0.13248661880E+03  0.23012882509E+04  0.22974714165E+04 0.  0.
        4    1    3    3  502    0  0.26003152765E+03 -0.11169692032E+04 -0.13234930099E+03  0.11544498892E+04  0.12699999809E+01 0. -1.
       -4    1    3    3    0  502 -0.26003152765E+03  0.11169692032E+04 -0.13731780541E+00  0.11468383618E+04  0.12699999809E+01 0.  1.
</event>
<event>
 5   0  0.1805501E-04  0.2177063E+04  0.7818609E-02  0.8528036E-01
        2   -1    0    0  501    0  0.00000000000E+00  0.00000000000E+00  0.97379240730E+03  0.97379240730E+03  0.25500000920E-02 0. -1.
       -2   -1    0    0    0  501  0.00000000000E+00  0.00000000000E+00 -0.12167905202E+04  0.12167905202E+04  0.25500000920E-02 0.  1.
    10030    2    1    2    0    0  0.00000000000E+00  0.00000000000E+00 -0.24299811292E+03  0.21905829275E+04  0.21770634992E+04 0.  0.
        2    1    3    3  502    0 -0.26512911435E+02 -0.32441871382E+03  0.92367699438E+03  0.97935163568E+03  0.25500000920E-02 0. -1.
       -2    1    3    3    0  502  0.26512911435E+02  0.32441871382E+03 -0.11666751073E+04  0.12112312918E+04  0.25500000920E-02 0.  1.
</event>
<event>
 5   0  0.8602414E-05  0.2233301E+04  0.7818609E-02  0.8504694E-01
       -1   -1    0    0    0  501  0.00000000000E+00  0.00000000000E+00  0.27719084966E+04  0.27719084966E+04  0.50400001928E-02 0. -1.
        1   -1    0    0  501    0  0.00000000000E+00  0.00000000000E+00 -0.44983741930E+03  0.44983741932E+03  0.50400001928E-02 0.  1.
    10030    2    1    2    0    0  0.00000000000E+00  0.00000000000E+00  0.23220710773E+04  0.32217459159E+04  0.22333008438E+04 0.  0.
        3    1    3    3  502    0 -0.18927725534E+03  0.63592481954E+03  0.24567079535E+04  0.25447279294E+04  0.10100000352E+00 0. -1.
       -3    1    3    3    0  502  0.18927725534E+03 -0.63592481954E+03 -0.13463687620E+03  0.67701798656E+03  0.10100000352E+00 0.  1.
</event>
<event>
 5   0  0.1733962E-04  0.2209923E+04  0.7818609E-02  0.8514309E-01
        2   -1    0    0  501    0  0.00000000000E+00  0.00000000000E+00  0.95485019760E+03  0.95485019760E+03  0.25500000920E-02 0.  1.
       -2   -1    0    0    0  501  0.00000000000E+00  0.00000000000E+00 -0.12786721781E+04  0.12786721781E+04  0.25500000920E-02 0. -1.
    10030    2    1    2    0    0  0.00000000000E+00  0.00000000000E+00 -0.32382198046E+03  0.22335223757E+04  0.22099234212E+04 0.  0.
        3    1    3    3  502    0 -0.10917031852E+04 -0.13728472787E+03 -0.26437122755E+03  0.11316161440E+04  0.10100000352E+00 0.  1.
       -3    1    3    3    0  502  0.10917031852E+04  0.13728472787E+03 -0.59450752907E+02  0.11019062317E+04  0.10100000352E+00 0. -1.
</event>
<event>
 5   0  0.1798917E-04  0.2192136E+04  0.7818609E-02  0.8521709E-01
        2   -1    0    0  501    0  0.00000000000E+00  0.00000000000E+00  0.10786852026E+04  0.10786852026E+04  0.25500000920E-02 0.  1.
       -2   -1    0    0    0  501  0.00000000000E+00  0.00000000000E+00 -0.11137306786E+04  0.11137306786E+04  0.25500000920E-02 0. -1.
    10030    2    1    2    0    0  0.00000000000E+00  0.00000000000E+00 -0.35045475932E+02  0.21924158812E+04  0.21921357647E+04 0.  0.
        4    1    3    3  502    0 -0.85159843735E+03 -0.68668296892E+03  0.50381383081E+02  0.10951225023E+04  0.12699999809E+01 0. -1.
       -4    1    3    3    0  502  0.85159843735E+03  0.68668296892E+03 -0.85426859013E+02  0.10972933789E+04  0.12699999809E+01 0.  1.
</event>
<event>
 5   0  0.1798917E-04  0.2159557E+04  0.7818609E-02  0.8535453E-01
       -2   -1    0    0    0  501  0.00000000000E+00  0.00000000000E+00  0.73954139719E+03  0.73954139719E+03  0.25500000920E-02 0.  1.
        2   -1    0    0  501    0  0.00000000000E+00  0.00000000000E+00 -0.15765460824E+04  0.15765460824E+04  0.25500000920E-02 0. -1.
    10030    2    1    2    0    0  0.00000000000E+00  0.00000000000E+00 -0.83700468526E+03  0.23160874796E+04  0.21595565216E+04 0.  0.
        4    1    3    3  502    0 -0.60345219161E+02 -0.71985561221E+03  0.44221837493E+03  0.84699017227E+03  0.12699999809E+01 0. -1.
       -4    1    3    3    0  502  0.60345219161E+02  0.71985561221E+03 -0.12792230602E+04  0.14690973074E+04  0.12699999809E+01 0.  1.
</event>
<event>
 5   0  0.8470971E-05  0.2187127E+04  0.7818609E-02  0.8523805E-01
       -1   -1    0    0    0  501  0.00000000000E+00  0.00000000000E+00  0.99291608785E+03  0.99291608786E+03  0.50400001928E-02 0.  1.
        1   -1    0    0  501    0  0.00000000000E+00  0.00000000000E+00 -0.12044131347E+04  0.12044131347E+04  0.50400001928E-02 0. -1.
    10030    2    1    2    0    0  0.00000000000E+00  0.00000000000E+00 -0.21149704681E+03  0.21973292225E+04  0.21871270451E+04 0.  0.
        2    1    3    3  502    0  0.36622372615E+03 -0.90650310186E+03 -0.59794550204E+03  0.11460394909E+04  0.25500000920E-02 0. -1.
       -2    1    3    3    0  502 -0.36622372615E+03  0.90650310186E+03  0.38644845523E+03  0.10512897316E+04  0.25500000920E-02 0.  1.
</event>
<event>
 5   0  0.1754356E-04  0.2164115E+04  0.7818609E-02  0.8533515E-01
       -2   -1    0    0    0  501  0.00000000000E+00  0.00000000000E+00  0.66980893887E+03  0.66980893888E+03  0.25500000920E-02 0.  1.
        2   -1    0    0  501    0  0.00000000000E+00  0.00000000000E+00 -0.17480330856E+04  0.17480330856E+04  0.25500000920E-02 0. -1.
    10030    2    1    2    0    0  0.00000000000E+00  0.00000000000E+00 -0.10782241467E+04  0.24178420244E+04  0.21641147716E+04 0.  0.
        1    1    3    3  502    0 -0.91142703992E+03 -0.34810553143E+03 -0.10619190871E+04  0.14420640963E+04  0.50400001928E-02 0. -1.
       -1    1    3    3    0  502  0.91142703992E+03  0.34810553143E+03 -0.16305059552E+02  0.97577792817E+03  0.50400001928E-02 0.  1.
</event>
<event>
 5   0  0.8306787E-05  0.2228988E+04  0.7818609E-02  0.8506459E-01
       -1   -1    0    0    0  501  0.00000000000E+00  0.00000000000E+00  0.94051310738E+03  0.94051310740E+03  0.50400001928E-02 0. -1.
        1   -1    0    0  501    0  0.00000000000E+00  0.00000000000E+00 -0.13206584232E+04  0.13206584233E+04  0.50400001928E-02 0.  1.
    10030    2    1    2    0    0  0.00000000000E+00  0.00000000000E+00 -0.38014531586E+03  0.22611715307E+04  0.22289877142E+04 0.  0.
        1    1    3    3  502    0 -0.33263007305E+02  0.58617187711E+03  0.77091340828E+03  0.96902599566E+03  0.50400001928E-02 0. -1.
       -1    1    3    3    0  502  0.33263007305E+02 -0.58617187711E+03 -0.11510587241E+04  0.12921455350E+04  0.50400001928E-02 0.  1.
</event>
<event>
 5   0  0.7954459E-05  0.2244622E+04  0.7818609E-02  0.8500082E-01
        1   -1    0    0  501    0  0.00000000000E+00  0.00000000000E+00  0.45818297672E+03  0.45818297675E+03  0.50400001928E-02 0.  1.
       -1   -1    0    0    0  501  0.00000000000E+00  0.00000000000E+00 -0.27490813683E+04  0.27490813683E+04  0.50400001928E-02 0. -1.
    10030    2    1    2    0    0  0.00000000000E+00  0.00000000000E+00 -0.22908983916E+04  0.32072643450E+04  0.22446222708E+04 0.  0.
        5    1    3    3  502    0 -0.60442771615E+03  0.61614208069E+03 -0.12044697968E+03  0.87148923835E+03  0.46999998093E+01 0.  1.
       -5    1    3    3    0  502  0.60442771615E+03 -0.61614208069E+03 -0.21704514119E+04  0.23357751067E+04  0.46999998093E+01 0. -1.
</event>
<event>
 5   0  0.1754356E-04  0.2196476E+04  0.7818609E-02  0.8519896E-01
        2   -1    0    0  501    0  0.00000000000E+00  0.00000000000E+00  0.98367522114E+03  0.98367522114E+03  0.25500000920E-02 0.  1.
       -2   -1    0    0    0  501  0.00000000000E+00  0.00000000000E+00 -0.12261432404E+04  0.12261432404E+04  0.25500000920E-02 0. -1.
    10030    2    1    2    0    0  0.00000000000E+00  0.00000000000E+00 -0.24246801929E+03  0.22098184616E+04  0.21964760169E+04 0.  0.
        1    1    3    3  502    0  0.79582274702E+03  0.20568113891E+03  0.61153648588E+03  0.10245074178E+04  0.50400001928E-02 0.  1.
       -1    1    3    3    0  502 -0.79582274702E+03 -0.20568113891E+03 -0.85400450517E+03  0.11853110438E+04  0.50400001928E-02 0. -1.
</event>
<event>
 5   0  0.7954459E-05  0.2246456E+04  0.7818609E-02  0.8499337E-01
        1   -1    0    0  501    0  0.00000000000E+00  0.00000000000E+00  0.98279677933E+03  0.98279677934E+03  0.50400001928E-02 0. -1.
       -1   -1    0    0    0  501  0.00000000000E+00  0.00000000000E+00 -0.12837255764E+04  0.12837255764E+04  0.50400001928E-02 0.  1.
    10030    2    1    2    0    0  0.00000000000E+00  0.00000000000E+00 -0.30092879702E+03  0.22665223557E+04  0.22464561977E+04 0.  0.
        5    1    3    3  502    0 -0.77676598849E+03 -0.53402141492E+03 -0.76671892982E+03  0.12150820054E+04  0.46999998093E+01 0.  1.
       -5    1    3    3    0  502  0.77676598849E+03  0.53402141492E+03  0.46579013279E+03  0.10514403503E+04  0.46999998093E+01 0. -1.
</event>
<event>
 5   0  0.7954459E-05  0.1810945E+04  0.7818609E-02  0.8700501E-01
       -1   -1    0    0    0  501  0.00000000000E+00  0.00000000000E+00  0.32234666696E+03  0.32234666699E+03  0.50400001928E-02 0. -1.
        1   -1    0    0  501    0  0.00000000000E+00  0.00000000000E+00 -0.25434729229E+04  0.25434729229E+04  0.50400001928E-02 0.  1.
    10030    2    1    2    0    0  0.00000000000E+00  0.00000000000E+00 -0.22211262559E+04  0.28658195899E+04  0.18109445262E+04 0.  0.
        5    1    3    3  502    0  0.45147371364E+03  0.86410755491E+01 -0.23525531401E+04  0.23955023585E+04  0.46999998093E+01 0.  1.
       -5    1    3    3    0  502 -0.45147371364E+03 -0.86410755491E+01  0.13142688419E+03  0.47031723143E+03  0.46999998093E+01 0. -1.
</event>
<event>
 5   0  0.8784659E-05  0.2094993E+04  0.7818609E-02  0.8563452E-01
        1   -1    0    0  501    0  0.00000000000E+00  0.00000000000E+00  0.14762303006E+04  0.14762303006E+04  0.50400001928E-02 0. -1.
       -1   -1    0    0    0  501  0.00000000000E+00  0.00000000000E+00 -0.74327730147E+03  0.74327730149E+03  0.50400001928E-02 0.  1.
    10030    2    1    2    0    0  0.00000000000E+00  0.00000000000E+00  0.73295299909E+03  0.22195076021E+04  0.20949925768E+04 0.  0.
        4    1    3    3  502    0  0.67203988525E+03  0.72290610563E+03  0.73805876479E+03  0.12324622502E+04  0.12699999809E+01 0. -1.
       -4    1    3    3    0  502 -0.67203988525E+03 -0.72290610563E+03 -0.51057656986E+01  0.98704535188E+03  0.12699999809E+01 0.  1.
</event>
<event>
 5   0  0.1680258E-04  0.2217041E+04  0.7818609E-02  0.8511369E-01
        2   -1    0    0  501    0  0.00000000000E+00  0.00000000000E+00  0.10920651324E+04  0.10920651324E+04  0.25500000920E-02 0.  1.
       -2   -1    0    0    0  501  0.00000000000E+00  0.00000000000E+00 -0.11252237994E+04  0.11252237994E+04  0.25500000920E-02 0. -1.
    10030    2    1    2    0    0  0.00000000000E+00  0.00000000000E+00 -0.33158666945E+02  0.22172889318E+04  0.22170409806E+04 0.  0.
        5    1    3    3  502    0 -0.46278006955E+03 -0.58631640619E+03 -0.83573336781E+03  0.11208945860E+04  0.46999998093E+01 0. -1.
       -5    1    3    3    0  502  0.46278006955E+03  0.58631640619E+03  0.80257470086E+03  0.10963943458E+04  0.46999998093E+01 0.  1.
</event>
<event>
 5   0  0.1754356E-04  0.2221564E+04  0.7818609E-02  0.8509506E-01
       -2   -1    0    0    0  501  0.00000000000E+00  0.00000000000E+00  0.94106752174E+03  0.94106752175E+03  0.25500000920E-02 0. -1.
        2   -1    0    0  501    0  0.00000000000E+00  0.00000000000E+00 -0.13111028213E+04  0.13111028213E+04  0.25500000920E-02 0.  1.
    10030    2    1    2    0    0  0.00000000000E+00  0.00000000000E+00 -0.37003529960E+03  0.22521703431E+04  0.22215636681E+04 0.  0.
        1    1    3    3  502    0 -0.17068365057E+03 -0.89943316847E+03 -0.82274979648E+03  0.12308656144E+04  0.50400001928E-02 0.  1.
       -1    1    3    3    0  502  0.17068365057E+03  0.89943316847E+03  0.45271449688E+03  0.10213047287E+04  0.50400001928E-02 0. -1.
</event>
<event>
 5   0  0.8470971E-05  0.2220722E+04  0.7818609E-02  0.8509852E-01
       -1   -1    0    0    0  501  0.00000000000E+00  0.00000000000E+00  0.12665464181E+04  0.12665464181E+04  0.50400001928E-02 0.  1.
        1   -1    0    0  501    0  0.00000000000E+00  0.00000000000E+00 -0.97343557270E+03  0.97343557271E+03  0.50400001928E-02 0. -1.
    10030    2    1    2    0    0  0.00000000000E+00  0.00000000000E+00  0.29311084539E+03  0.22399819908E+04  0.22207218087E+04 0.  0.
        2    1    3    3  502    0  0.17670555069E+03 -0.70399013792E+03  0.99412545577E+03  0.12308990161E+04  0.25500000920E-02 0. -1.
       -2    1    3    3    0  502 -0.17670555069E+03  0.70399013792E+03 -0.70101461039E+03  0.10090829747E+04  0.25500000920E-02 0.  1.
</event>
<event>
 5   0  0.7954459E-05  0.2197858E+04  0.7818609E-02  0.8519320E-01
       -1   -1    0    0    0  501  0.00000000000E+00  0.00000000000E+00  0.20894033639E+04  0.20894033639E+04  0.50400001928E-02 0.  1.
        1   -1    0    0  501    0  0.00000000000E+00  0.00000000000E+00 -0.57798577892E+03  0.57798577894E+03  0.50400001928E-02 0. -1.
    10030    2    1    2    0    0  0.00000000000E+00  0.00000000000E+00  0.15114175849E+04  0.26673891428E+04  0.21978584402E+04 0.  0.
        5    1    3    3  502    0  0.51987539802E+03  0.77591822278E+03  0.14584669809E+04  0.17318970935E+04  0.46999998093E+01 0.  1.
       -5    1    3    3    0  502 -0.51987539802E+03 -0.77591822278E+03  0.52950604011E+02  0.93549204934E+03  0.46999998093E+01 0. -1.
</event>
<event>
 5   0  0.1733962E-04  0.2246979E+04  0.7818609E-02  0.8499125E-01
       -2   -1    0    0    0  501  0.00000000000E+00  0.00000000000E+00  0.14200075869E+04  0.14200075870E+04  0.25500000920E-02 0.  1.
        2   -1    0    0  501    0  0.00000000000E+00  0.00000000000E+00 -0.88888886104E+03  0.88888886104E+03  0.25500000920E-02 0. -1.
    10030    2    1    2    0    0  0.00000000000E+00  0.00000000000E+00  0.53111872591E+03  0.23088964480E+04  0.22469792403E+04 0.  0.
        3    1    3    3  502    0  0.78185365090E+03  0.40227967910E+03 -0.45307234901E+03  0.98914035166E+03  0.10100000352E+00 0. -1.
       -3    1    3    3    0  502 -0.78185365090E+03 -0.40227967910E+03  0.98419107493E+03  0.13197560963E+04  0.10100000352E+00 0.  1.
</event>
<event>
 5   0  0.1754356E-04  0.2052742E+04  0.7818609E-02  0.8582351E-01
       -2   -1    0    0    0  501  0.00000000000E+00  0.00000000000E+00  0.14699886719E+04  0.14699886719E+04  0.25500000920E-02 0.  1.
        2   -1    0    0  501    0  0.00000000000E+00  0.00000000000E+00 -0.71662995528E+03  0.71662995528E+03  0.25500000920E-02 0. -1.
    10030    2    1    2    0    0  0.00000000000E+00  0.00000000000E+00  0.75335871663E+03  0.21866186272E+04  0.20527424741E+04 0.  0.
        1    1    3    3  502    0  0.89455041510E+03  0.24179140043E+03 -0.93411929527E+02  0.93134811702E+03  0.50400001928E-02 0.  1.
       -1    1    3    3    0  502 -0.89455041510E+03 -0.24179140043E+03  0.84677064616E+03  0.12552705102E+04  0.50400001928E-02 0. -1.
</event>
<event>
 5   0  0.6250625E-05  0.2230631E+04  0.7818609E-02  0.8505786E-01
        3   -1    0    0  501    0  0.00000000000E+00  0.00000000000E+00  0.18704968881E+04  0.18704968908E+04  0.10100000352E+00 0.  1.
       -3   -1    0    0    0  501  0.00000000000E+00  0.00000000000E+00 -0.66502589565E+03  0.66502590332E+03  0.10100000352E+00 0. -1.
    10030    2    1    2    0    0  0.00000000000E+00  0.00000000000E+00  0.12054709924E+04  0.25355227941E+04  0.22306311945E+04 0.  0.
        1    1    3    3  502    0  0.77108941914E+03  0.54853843298E+03 -0.68250501805E+02  0.94875256827E+03  0.50400001928E-02 0. -1.
       -1    1    3    3    0  502 -0.77108941914E+03 -0.54853843298E+03  0.12737214942E+04  0.15867702259E+04  0.50400001928E-02 0.  1.
</event>
<event>
 5   0  0.8470971E-05  0.2172796E+04  0.7818609E-02  0.8529837E-01
       -1   -1    0    0    0  501  0.00000000000E+00  0.00000000000E+00  0.91432569176E+03  0.91432569177E+03  0.50400001928E-02 0. -1.
        1   -1    0    0  501    0  0.00000000000E+00  0.00000000000E+00 -0.12908539384E+04  0.12908539384E+04  0.50400001928E-02 0.  1.
    10030    2    1    2    0    0  0.00000000000E+00  0.00000000000E+00 -0.37652824663E+03  0.22051796302E+04  0.21727962815E+04 0.  0.
        2    1    3    3  502    0 -0.42730482011E+02 -0.34896311771E+03  0.85499585913E+03  0.92445609455E+03  0.25500000920E-02 0. -1.
       -2    1    3    3    0  502  0.42730482011E+02  0.34896311771E+03 -0.12315241058E+04  0.12807235356E+04  0.25500000920E-02 0.  1.
</event>
<event>
 5   0  0.7954459E-05  0.2177577E+04  0.7818609E-02  0.8527819E-01
       -1   -1    0    0    0  501  0.00000000000E+00  0.00000000000E+00  0.76080424708E+03  0.76080424710E+03  0.50400001928E-02 0.  1.
        1   -1    0    0  501    0  0.00000000000E+00  0.00000000000E+00 -0.15581673699E+04  0.15581673699E+04  0.50400001928E-02 0. -1.
    10030    2    1    2    0    0  0.00000000000E+00  0.00000000000E+00 -0.79736312280E+03  0.23189716170E+04  0.21775769586E+04 0.  0.
        5    1    3    3  502    0  0.16834868395E+03 -0.10303337959E+04 -0.69568859853E+02  0.10463225729E+04  0.46999998093E+01 0.  1.
       -5    1    3    3    0  502 -0.16834868395E+03  0.10303337959E+04 -0.72779426295E+03  0.12726490441E+04  0.46999998093E+01 0. -1.
</event>
<event>
 5   0  0.8470971E-05  0.2213057E+04  0.7818609E-02  0.8513013E-01
        1   -1    0    0  501    0  0.00000000000E+00  0.00000000000E+00  0.12814766110E+04  0.12814766110E+04  0.50400001928E-02 0.  1.
       -1   -1    0    0    0  501  0.00000000000E+00  0.00000000000E+00 -0.95546424335E+03  0.95546424336E+03  0.50400001928E-02 0. -1.
    10030    2    1    2    0    0  0.00000000000E+00  0.00000000000E+00  0.32601236766E+03  0.22369408544E+04  0.22130567824E+04 0.  0.
        2    1    3    3  502    0 -0.54273157051E+03 -0.17544164525E+03 -0.79541886233E+03  0.97878930066E+03  0.25500000920E-02 0. -1.
       -2    1    3    3    0  502  0.54273157051E+03  0.17544164525E+03  0.11214312300E+04  0.12581515537E+04  0.25500000920E-02 0.  1.
</event>
<event>
 5   0  0.7954459E-05  0.2102253E+04  0.7818609E-02  0.8560251E-01
        1   -1    0    0  501    0  0.00000000000E+00  0.00000000000E+00  0.12574731559E+04  0.12574731559E+04  0.50400001928E-02 0.  1.
       -1   -1    0    0    0  501  0.00000000000E+00  0.00000000000E+00 -0.87864097704E+03  0.87864097706E+03  0.50400001928E-02 0. -1.
    10030    2    1    2    0    0  0.00000000000E+00  0.00000000000E+00  0.37883217884E+03  0.21361141330E+04  0.21022534979E+04 0.  0.
        5    1    3    3  502    0  0.58164495646E+03 -0.44068735147E+03  0.95812568920E+03  0.12043849565E+04  0.46999998093E+01 0.  1.
       -5    1    3    3    0  502 -0.58164495646E+03  0.44068735147E+03 -0.57929351036E+03  0.93172917646E+03  0.46999998093E+01 0. -1.
</event>
<event>
 5   0  0.8470971E-05  0.2293895E+04  0.7818609E-02  0.8480332E-01
       -1   -1    0    0    0  501  0.00000000000E+00  0.00000000000E+00  0.80787340414E+03  0.80787340415E+03  0.50400001928E-02 0. -1.
        1   -1    0    0  501    0  0.00000000000E+00  0.00000000000E+00 -0.16283353537E+04  0.16283353537E+04  0.50400001928E-02 0.  1.
    10030    2    1    2    0    0  0.00000000000E+00  0.00000000000E+00 -0.82046194955E+03  0.24362087579E+04  0.22938952245E+04 0.  0.
        2    1    3    3  502    0 -0.67565411753E+03 -0.47892244249E+03 -0.12529406582E+04  0.15019106117E+04  0.25500000920E-02 0.  1.
       -2    1    3    3    0  502  0.67565411753E+03  0.47892244249E+03  0.43247870868E+03  0.93429814616E+03  0.25500000920E-02 0. -1.
</event>
<event>
 5   0  0.1733962E-04  0.2281368E+04  0.7818609E-02  0.8485304E-01
        2   -1    0    0  501    0  0.00000000000E+00  0.00000000000E+00  0.13037446172E+04  0.13037446172E+04  0.25500000920E-02 0.  1.
       -2   -1    0    0    0  501  0.00000000000E+00  0.00000000000E+00 -0.99801783025E+03  0.99801783025E+03  0.25500000920E-02 0. -1.
    10030    2    1    2    0    0  0.00000000000E+00  0.00000000000E+00  0.30572678690E+03  0.23017624474E+04  0.22813683385E+04 0.  0.
        3    1    3    3  502    0 -0.81990867482E+03  0.29294174462E+02  0.95244516548E+03  0.12570840016E+04  0.10100000352E+00 0.  1.
       -3    1    3    3    0  502  0.81990867482E+03 -0.29294174462E+02 -0.64671837857E+03  0.10446784458E+04  0.10100000352E+00 0. -1.
</event>
<event>
 5   0  0.1805501E-04  0.2221656E+04  0.7818609E-02  0.8509468E-01
       -2   -1    0    0    0  501  0.00000000000E+00  0.00000000000E+00  0.94165400218E+03  0.94165400219E+03  0.25500000920E-02 0. -1.
        2   -1    0    0  501    0  0.00000000000E+00  0.00000000000E+00 -0.13103948936E+04  0.13103948936E+04  0.25500000920E-02 0.  1.
    10030    2    1    2    0    0  0.00000000000E+00  0.00000000000E+00 -0.36874089141E+03  0.22520488958E+04  0.22216557753E+04 0.  0.
        2    1    3    3  502    0  0.24864833663E+03 -0.43793477785E+02 -0.12809246766E+04  0.13055695658E+04  0.25500000920E-02 0.  1.
       -2    1    3    3    0  502 -0.24864833663E+03  0.43793477785E+02  0.91218378522E+03  0.94647932996E+03  0.25500000920E-02 0. -1.
</event>
<event>
 5   0  0.1754356E-04  0.2042245E+04  0.7818609E-02  0.8587121E-01
       -2   -1    0    0    0  501  0.00000000000E+00  0.00000000000E+00  0.12343356803E+04  0.12343356803E+04  0.25500000920E-02 0. -1.
        2   -1    0    0  501    0  0.00000000000E+00  0.00000000000E+00 -0.84473835257E+03  0.84473835257E+03  0.25500000920E-02 0.  1.
    10030    2    1    2    0    0  0.00000000000E+00  0.00000000000E+00  0.38959732771E+03  0.20790740328E+04  0.20422445388E+04 0.  0.
        1    1    3    3  502    0 -0.13902584846E+03 -0.34022829324E+03  0.11646634242E+04  0.12212798081E+04  0.50400001928E-02 0. -1.
       -1    1    3    3    0  502  0.13902584846E+03  0.34022829324E+03 -0.77506609647E+03  0.85779422473E+03  0.50400001928E-02 0.  1.
</event>
<event>
 5   0  0.8470971E-05  0.2231591E+04  0.7818609E-02  0.8505393E-01
       -1   -1    0    0    0  501  0.00000000000E+00  0.00000000000E+00  0.63745987754E+03  0.63745987756E+03  0.50400001928E-02 0. -1.
        1   -1    0    0  501    0  0.00000000000E+00  0.00000000000E+00 -0.19530635152E+04  0.19530635152E+04  0.50400001928E-02 0.  1.
    10030    2    1    2    0    0  0.00000000000E+00  0.00000000000E+00 -0.13156036376E+04  0.25905233927E+04  0.22315910282E+04 0.  0.
        2    1    3    3  502    0  0.10696458314E+04  0.24152493599E+03 -0.89718052931E+03  0.14168307597E+04  0.25500000920E-02 0. -1.
       -2    1    3    3    0  502 -0.10696458314E+04 -0.24152493599E+03 -0.41842310832E+03  0.11736926331E+04  0.25500000920E-02 0.  1.
</event>
<event>
 5   0  0.1798917E-04  0.1917726E+04  0.7818609E-02  0.8646083E-01
       -2   -1    0    0    0  501  0.00000000000E+00  0.00000000000E+00  0.20380897904E+04  0.20380897904E+04  0.25500000920E-02 0. -1.
        2   -1    0    0  501    0  0.00000000000E+00  0.00000000000E+00 -0.45111748489E+03  0.45111748490E+03  0.25500000920E-02 0.  1.
    10030    2    1    2    0    0  0.00000000000E+00  0.00000000000E+00  0.15869723055E+04  0.24892072753E+04  0.19177256741E+04 0.  0.
        4    1    3    3  502    0  0.91322069728E+02  0.48178118866E+03  0.18630280229E+04  0.19264806932E+04  0.12699999809E+01 0. -1.
       -4    1    3    3    0  502 -0.91322069728E+02 -0.48178118866E+03 -0.27605571743E+03  0.56272658209E+03  0.12699999809E+01 0.  1.
</event>
<event>
 5   0  0.8306787E-05  0.2229447E+04  0.7818609E-02  0.8506271E-01
        1   -1    0    0  501    0  0.00000000000E+00  0.00000000000E+00  0.19828814886E+04  0.19828814886E+04  0.50400001928E-02 0. -1.
       -1   -1    0    0    0  501  0.00000000000E+00  0.00000000000E+00 -0.62666819936E+03  0.62666819939E+03  0.50400001928E-02 0.  1.
    10030    2    1    2    0    0  0.00000000000E+00  0.00000000000E+00  0.13562132893E+04  0.26095496880E+04  0.22294472607E+04 0.  0.
        1    1    3    3  502    0 -0.11513425095E+03 -0.38817491967E+03  0.18937699092E+04  0.19365691655E+04  0.50400001928E-02 0. -1.
       -1    1    3    3    0  502  0.11513425095E+03  0.38817491967E+03 -0.53755661991E+03  0.67298052248E+03  0.50400001928E-02 0.  1.
</event>
<event>
 5   0  0.8784659E-05  0.2089844E+04  0.7818609E-02  0.8565731E-01
       -1   -1    0    0    0  501  0.00000000000E+00  0.00000000000E+00  0.10984351411E+04  0.10984351411E+04  0.50400001928E-02 0.  1.
        1   -1    0    0  501    0  0.00000000000E+00  0.00000000000E+00 -0.99401544133E+03  0.99401544134E+03  0.50400001928E-02 0. -1.
    10030    2    1    2    0    0  0.00000000000E+00  0.00000000000E+00  0.10441969979E+03  0.20924505825E+04  0.20898435268E+04 0.  0.
        4    1    3    3  502    0  0.78267850131E+03  0.36239828906E+03  0.64281155190E+03  0.10756981270E+04  0.12699999809E+01 0.  1.
       -4    1    3    3    0  502 -0.78267850131E+03 -0.36239828906E+03 -0.53839185211E+03  0.10167524554E+04  0.12699999809E+01 0. -1.
</event>
<event>
 5   0  0.1733962E-04  0.2280779E+04  0.7818609E-02  0.8485539E-01
        2   -1    0    0  501    0  0.00000000000E+00  0.00000000000E+00  0.15402235034E+04  0.15402235034E+04  0.25500000920E-02 0.  1.
       -2   -1    0    0    0  501  0.00000000000E+00  0.00000000000E+00 -0.84435015198E+03  0.84435015198E+03  0.25500000920E-02 0. -1.
    10030    2    1    2    0    0  0.00000000000E+00  0.00000000000E+00  0.69587335140E+03  0.23845736554E+04  0.22807787698E+04 0.  0.
        3    1    3    3  502    0  0.29443480351E+03 -0.60619627642E+03  0.13097602913E+04  0.14729690458E+04  0.10100000352E+00 0.  1.
       -3    1    3    3    0  502 -0.29443480351E+03  0.60619627642E+03 -0.61388693987E+03  0.91160460958E+03  0.10100000352E+00 0. -1.
</event>
<event>
 5   0  0.7954459E-05  0.1097318E+04  0.7818609E-02  0.9207810E-01
       -1   -1    0    0    0  501  0.00000000000E+00  0.00000000000E+00  0.31850043472E+03  0.31850043476E+03  0.50400001928E-02 0.  1.
        1   -1    0    0  501    0  0.00000000000E+00  0.00000000000E+00 -0.94513741244E+03  0.94513741245E+03  0.50400001928E-02 0. -1.
    10030    2    1    2    0    0  0.00000000000E+00  0.00000000000E+00 -0.62663697772E+03  0.12636378472E+04  0.10973179608E+04 0.  0.
        5    1    3    3  502    0 -0.22217556900E+03 -0.79799978996E+02 -0.88363559202E+03  0.91463870987E+03  0.46999998093E+01 0. -1.
       -5    1    3    3    0  502  0.22217556900E+03  0.79799978996E+02  0.25699861430E+03  0.34899913734E+03  0.46999998093E+01 0.  1.
</event>
<event>
 5   0  0.1733962E-04  0.2182051E+04  0.7818609E-02  0.8525936E-01
        2   -1    0    0  501    0  0.00000000000E+00  0.00000000000E+00  0.13332338781E+04  0.13332338781E+04  0.25500000920E-02 0.  1.
       -2   -1    0    0    0  501  0.00000000000E+00  0.00000000000E+00 -0.89281874925E+03  0.89281874925E+03  0.25500000920E-02 0. -1.
    10030    2    1    2    0    0  0.00000000000E+00  0.00000000000E+00  0.44041512884E+03  0.22260526273E+04  0.21820505984E+04 0.  0.
        3    1    3    3  502    0 -0.88044036096E+03  0.53165035264E+03 -0.15115068872E+03  0.10395546487E+04  0.10100000352E+00 0.  1.
       -3    1    3    3    0  502  0.88044036096E+03 -0.53165035264E+03  0.59156581757E+03  0.11864979787E+04  0.10100000352E+00 0. -1.
</event>
<event>
 5   0  0.8784659E-05  0.2101367E+04  0.7818609E-02  0.8560641E-01
        1   -1    0    0  501    0  0.00000000000E+00  0.00000000000E+00  0.98924940217E+03  0.98924940219E+03  0.50400001928E-02 0.  1.
       -1   -1    0    0    0  501  0.00000000000E+00  0.00000000000E+00 -0.11159328837E+04  0.11159328837E+04  0.50400001928E-02 0. -1.
    10030    2    1    2    0    0  0.00000000000E+00  0.00000000000E+00 -0.12668348154E+03  0.21051822859E+04  0.21013671151E+04 0.  0.
        4    1    3    3  502    0  0.57254468578E+03  0.28680052593E+03 -0.89784410491E+03  0.11028089628E+04  0.12699999809E+01 0. -1.
       -4    1    3    3    0  502 -0.57254468578E+03 -0.28680052593E+03  0.77116062337E+03  0.10023733231E+04  0.12699999809E+01 0.  1.
</event>
<event>
 5   0  0.7954459E-05  0.2262095E+04  0.7818609E-02  0.8493018E-01
        1   -1    0    0  501    0  0.00000000000E+00  0.00000000000E+00  0.10333146986E+04  0.10333146986E+04  0.50400001928E-02 0. -1.
       -1   -1    0    0    0  501  0.00000000000E+00  0.00000000000E+00 -0.12380235716E+04  0.12380235716E+04  0.50400001928E-02 0.  1.
    10030    2    1    2    0    0  0.00000000000E+00  0.00000000000E+00 -0.20470887303E+03  0.22713382702E+04  0.22620945636E+04 0.  0.
        5    1    3    3  502    0  0.10006843397E+03 -0.33025362418E+03 -0.11838653071E+04  0.12331424504E+04  0.46999998093E+01 0.  1.
       -5    1    3    3    0  502 -0.10006843397E+03  0.33025362418E+03  0.97915643405E+03  0.10381958197E+04  0.46999998093E+01 0. -1.
</event>
<event>
 5   0  0.1680258E-04  0.2280454E+04  0.7818609E-02  0.8485668E-01
        2   -1    0    0  501    0  0.00000000000E+00  0.00000000000E+00  0.88874319299E+03  0.88874319300E+03  0.25500000920E-02 0. -1.
       -2   -1    0    0    0  501  0.00000000000E+00  0.00000000000E+00 -0.14628716986E+04  0.14628716986E+04  0.25500000920E-02 0.  1.
    10030    2    1    2    0    0  0.00000000000E+00  0.00000000000E+00 -0.57412850558E+03  0.23516148916E+04  0.22804536955E+04 0.  0.
        5    1    3    3  502    0  0.24208334186E+03 -0.23874292487E+03 -0.14093698469E+04  0.14498096372E+04  0.46999998093E+01 0.  1.
       -5    1    3    3    0  502 -0.24208334186E+03  0.23874292487E+03  0.83524134135E+03  0.90180525441E+03  0.46999998093E+01 0. -1.
</event>
<event>
 5   0  0.8306787E-05  0.2166233E+04  0.7818609E-02  0.8532615E-01
        1   -1    0    0  501    0  0.00000000000E+00  0.00000000000E+00  0.15621056683E+04  0.15621056683E+04  0.50400001928E-02 0.  1.
       -1   -1    0    0    0  501  0.00000000000E+00  0.00000000000E+00 -0.75100009820E+03  0.75100009822E+03  0.50400001928E-02 0. -1.
    10030    2    1    2    0    0  0.00000000000E+00  0.00000000000E+00  0.81110557005E+03  0.23131057665E+04  0.21662331456E+04 0.  0.
        1    1    3    3  502    0  0.83173065019E+03  0.22064668003E+03  0.11079358722E+04  0.14028480776E+04  0.50400001928E-02 0.  1.
       -1    1    3    3    0  502 -0.83173065019E+03 -0.22064668003E+03 -0.29683030215E+03  0.91025768888E+03  0.50400001928E-02 0. -1.
</event>
<event>
 5   0  0.1680258E-04  0.2207109E+04  0.7818609E-02  0.8515475E-01
        2   -1    0    0  501    0  0.00000000000E+00  0.00000000000E+00  0.87032848958E+03  0.87032848959E+03  0.25500000920E-02 0.  1.
       -2   -1    0    0    0  501  0.00000000000E+00  0.00000000000E+00 -0.13992786184E+04  0.13992786184E+04  0.25500000920E-02 0. -1.
    10030    2    1    2    0    0  0.00000000000E+00  0.00000000000E+00 -0.52895012879E+03  0.22696071080E+04  0.22071085578E+04 0.  0.
        5    1    3    3  502    0  0.63294498485E+02  0.49119776417E+03 -0.12785689429E+04  0.13711462610E+04  0.46999998093E+01 0. -1.
       -5    1    3    3    0  502 -0.63294498485E+02 -0.49119776417E+03  0.74961881416E+03  0.89846084701E+03  0.46999998093E+01 0.  1.
</event>
<event>
 5   0  0.8470971E-05  0.1325819E+04  0.7818609E-02  0.9009338E-01
       -1   -1    0    0    0  501  0.00000000000E+00  0.00000000000E+00  0.25303415963E+03  0.25303415968E+03  0.50400001928E-02 0.  1.
        1   -1    0    0  501    0  0.00000000000E+00  0.00000000000E+00 -0.17367170890E+04  0.17367170890E+04  0.50400001928E-02 0. -1.
    10030    2    1    2    0    0  0.00000000000E+00  0.00000000000E+00 -0.14836829294E+04  0.19897512487E+04  0.13258186138E+04 0.  0.
        2    1    3    3  502    0 -0.24808191187E+02  0.17029616234E+03  0.21892510265E+03  0.27846800505E+03  0.25500000920E-02 0.  1.
       -2    1    3    3    0  502  0.24808191187E+02 -0.17029616234E+03 -0.17026080321E+04  0.17112832437E+04  0.25500000920E-02 0. -1.
</event>
<event>
 5   0  0.8602414E-05  0.1990379E+04  0.7818609E-02  0.8611132E-01
       -1   -1    0    0    0  501  0.00000000000E+00  0.00000000000E+00  0.55094850532E+03  0.55094850534E+03  0.50400001928E-02 0. -1.
        1   -1    0    0  501    0  0.00000000000E+00  0.00000000000E+00 -0.17976304052E+04  0.17976304052E+04  0.50400001928E-02 0.  1.
    10030    2    1    2    0    0  0.00000000000E+00  0.00000000000E+00 -0.12466818999E+04  0.23485789106E+04  0.19903786423E+04 0.  0.
        3    1    3    3  502    0  0.74488876328E+03 -0.26800095579E+03  0.88285114978E+02  0.79654130696E+03  0.10100000352E+00 0. -1.
       -3    1    3    3    0  502 -0.74488876328E+03  0.26800095579E+03 -0.13349670149E+04  0.15520376036E+04  0.10100000352E+00 0.  1.
</event>
<event>
 5   0  0.7954459E-05  0.2223525E+04  0.7818609E-02  0.8508700E-01
       -1   -1    0    0    0  501  0.00000000000E+00  0.00000000000E+00  0.43786891726E+03  0.43786891729E+03  0.50400001928E-02 0.  1.
        1   -1    0    0  501    0  0.00000000000E+00  0.00000000000E+00 -0.28227978372E+04  0.28227978372E+04  0.50400001928E-02 0. -1.
    10030    2    1    2    0    0  0.00000000000E+00  0.00000000000E+00 -0.23849289199E+04  0.32606667544E+04  0.22235246188E+04 0.  0.
        5    1    3    3  502    0  0.45985039589E+03  0.29445052602E+03 -0.26125892137E+04  0.26690462695E+04  0.46999998093E+01 0. -1.
       -5    1    3    3    0  502 -0.45985039589E+03 -0.29445052602E+03  0.22766029383E+03  0.59162048498E+03  0.46999998093E+01 0.  1.
</event>
<event>
 5   0  0.1805501E-04  0.2027370E+04  0.7818609E-02  0.8593930E-01
        2   -1    0    0  501    0  0.00000000000E+00  0.00000000000E+00  0.87622450854E+03  0.87622450854E+03  0.25500000920E-02 0. -1.
       -2   -1    0    0    0  501  0.00000000000E+00  0.00000000000E+00 -0.11727104868E+04  0.11727104868E+04  0.25500000920E-02 0.  1.
    10030    2    1    2    0    0  0.00000000000E+00  0.00000000000E+00 -0.29648597823E+03  0.20489349953E+04  0.20273703854E+04 0.  0.
        2    1    3    3  502    0  0.62266659147E+03 -0.72748987796E+03 -0.48434993037E+03  0.10731030061E+04  0.25500000920E-02 0.  1.
       -2    1    3    3    0  502 -0.62266659147E+03  0.72748987796E+03  0.18786395214E+03  0.97583198921E+03  0.25500000920E-02 0. -1.
</event>
<event>
 5   0  0.1754356E-04  0.2194215E+04  0.7818609E-02  0.8520840E-01
        2   -1    0    0  501    0  0.00000000000E+00  0.00000000000E+00  0.52330875145E+03  0.52330875146E+03  0.25500000920E-02 0. -1.
       -2   -1    0    0    0  501  0.00000000000E+00  0.00000000000E+00 -0.23000661148E+04  0.23000661148E+04  0.25500000920E-02 0.  1.
    10030    2    1    2    0    0  0.00000000000E+00  0.00000000000E+00 -0.17767573634E+04  0.28233748663E+04  0.21942148726E+04 0.  0.
        1    1    3    3  502    0  0.45809031963E+03  0.75567663286E+03 -0.51752184320E+02  0.88519613815E+03  0.50400001928E-02 0.  1.
       -1    1    3    3    0  502 -0.45809031963E+03 -0.75567663286E+03 -0.17250051790E+04  0.19381787281E+04  0.50400001928E-02 0. -1.
</event>
<event>
 5   0  0.8306787E-05  0.1831153E+04  0.7818609E-02  0.8689906E-01
        1   -1    0    0  501    0  0.00000000000E+00  0.00000000000E+00  0.13152199296E+04  0.13152199297E+04  0.50400001928E-02 0.  1.
       -1   -1    0    0    0  501  0.00000000000E+00  0.00000000000E+00 -0.63736887747E+03  0.63736887749E+03  0.50400001928E-02 0. -1.
    10030    2    1    2    0    0  0.00000000000E+00  0.00000000000E+00  0.67785105218E+03  0.19525888071E+04  0.18311529157E+04 0.  0.
        1    1    3    3  502    0 -0.80909936382E+03  0.37996416219E+03  0.12762874408E+03  0.90294166003E+03  0.50400001928E-02 0. -1.
       -1    1    3    3    0  502  0.80909936382E+03 -0.37996416219E+03  0.55022230810E+03  0.10496471471E+04  0.50400001928E-02 0.  1.
</event>
<event>
 5   0  0.8602414E-05  0.2185110E+04  0.7818609E-02  0.8524651E-01
       -1   -1    0    0    0  501  0.00000000000E+00  0.00000000000E+00  0.14787440829E+04  0.14787440829E+04  0.50400001928E-02 0.  1.
        1   -1    0    0  501    0  0.00000000000E+00  0.00000000000E+00 -0.80722286282E+03  0.80722286283E+03  0.50400001928E-02 0. -1.
    10030    2    1    2    0    0  0.00000000000E+00  0.00000000000E+00  0.67152122006E+03  0.22859669457E+04  0.21851096375E+04 0.  0.
        3    1    3    3  502    0 -0.15966925218E+03 -0.74108496761E+03  0.11588238507E+04  0.13847649354E+04  0.10100000352E+00 0.  1.
       -3    1    3    3    0  502  0.15966925218E+03  0.74108496761E+03 -0.48730263063E+03  0.90120201028E+03  0.10100000352E+00 0. -1.
</event>
<event>
 5   0  0.8602414E-05  0.2100530E+04  0.7818609E-02  0.8561010E-01
        1   -1    0    0  501    0  0.00000000000E+00  0.00000000000E+00  0.14322412538E+04  0.14322412538E+04  0.50400001928E-02 0.  1.
       -1   -1    0    0    0  501  0.00000000000E+00  0.00000000000E+00 -0.77016081411E+03  0.77016081412E+03  0.50400001928E-02 0. -1.
    10030    2    1    2    0    0  0.00000000000E+00  0.00000000000E+00  0.66208043969E+03  0.22024020679E+04  0.21005295428E+04 0.  0.
        3    1    3    3  502    0  0.51326289212E+03 -0.32007889252E+03 -0.56918399720E+03  0.83057794742E+03  0.10100000352E+00 0. -1.
       -3    1    3    3    0  502 -0.51326289212E+03  0.32007889252E+03  0.12312644369E+04  0.13718241205E+04  0.10100000352E+00 0.  1.
</event>
<event>
 5   0  0.8470971E-05  0.2150367E+04  0.7818609E-02  0.8539375E-01
       -1   -1    0    0    0  501  0.00000000000E+00  0.00000000000E+00  0.66703043561E+03  0.66703043562E+03  0.50400001928E-02 0. -1.
        1   -1    0    0  501    0  0.00000000000E+00  0.00000000000E+00 -0.17330829921E+04  0.17330829921E+04  0.50400001928E-02 0.  1.
    10030    2    1    2    0    0  0.00000000000E+00  0.00000000000E+00 -0.10660525565E+04  0.24001134277E+04  0.21503665764E+04 0.  0.
        2    1    3    3  502    0  0.76587278484E+03 -0.68365802780E+03 -0.88961503498E+03  0.13584418766E+04  0.25500000920E-02 0.  1.
       -2    1    3    3    0  502 -0.76587278484E+03  0.68365802780E+03 -0.17643752152E+03  0.10416715512E+04  0.25500000920E-02 0. -1.
</event>
<event>
 5   0  0.1754356E-04  0.1686394E+04  0.7818609E-02  0.8769163E-01
        2   -1    0    0  501    0  0.00000000000E+00  0.00000000000E+00  0.19605370235E+04  0.19605370235E+04  0.25500000920E-02 0. -1.
       -2   -1    0    0    0  501  0.00000000000E+00  0.00000000000E+00 -0.36264608538E+03  0.36264608539E+03  0.25500000920E-02 0.  1.
    10030    2    1    2    0    0  0.00000000000E+00  0.00000000000E+00  0.15978909381E+04  0.23231831089E+04  0.16863938767E+04 0.  0.
        1    1    3    3  502    0  0.77297015795E+03 -0.70961956927E+02  0.12526409517E+04  0.14736444002E+04  0.50400001928E-02 0. -1.
       -1    1    3    3    0  502 -0.77297015795E+03  0.70961956927E+02  0.34524998647E+03  0.84953870871E+03  0.50400001928E-02 0.  1.
</event>
<event>
 5   0  0.1733962E-04  0.2207208E+04  0.7818609E-02  0.8515434E-01
       -2   -1    0    0    0  501  0.00000000000E+00  0.00000000000E+00  0.99501176113E+03  0.99501176113E+03  0.25500000920E-02 0. -1.
        2   -1    0    0  501    0  0.00000000000E+00  0.00000000000E+00 -0.12240481079E+04  0.12240481079E+04  0.25500000920E-02 0.  1.
    10030    2    1    2    0    0  0.00000000000E+00  0.00000000000E+00 -0.22903634679E+03  0.22190598691E+04  0.22072084302E+04 0.  0.
        3    1    3    3  502    0  0.56679995331E+03 -0.60389265317E+03  0.61877717485E+03  0.10338441497E+04  0.10100000352E+00 0. -1.
       -3    1    3    3    0  502 -0.56679995331E+03  0.60389265317E+03 -0.84781352164E+03  0.11852157193E+04  0.10100000352E+00 0.  1.
</event>
<event>
 5   0  0.8602414E-05  0.2216185E+04  0.7818609E-02  0.8511722E-01
       -1   -1    0    0    0  501  0.00000000000E+00  0.00000000000E+00  0.74268630626E+03  0.74268630628E+03  0.50400001928E-02 0.  1.
        1   -1    0    0  501    0  0.00000000000E+00  0.00000000000E+00 -0.16532806607E+04  0.16532806607E+04  0.50400001928E-02 0. -1.
    10030    2    1    2    0    0  0.00000000000E+00  0.00000000000E+00 -0.91059435445E+03  0.23959669670E+04  0.22161849265E+04 0.  0.
        3    1    3    3  502    0  0.45861340027E+03 -0.87107908531E+02  0.63119301636E+03  0.78505966190E+03  0.10100000352E+00 0.  1.
       -3    1    3    3    0  502 -0.45861340027E+03  0.87107908531E+02 -0.15417873708E+04  0.16109073051E+04  0.10100000352E+00 0. -1.
</event>
<event>
 5   0  0.1798917E-04  0.1269731E+04  0.7818609E-02  0.9053919E-01
        2   -1    0    0  501    0  0.00000000000E+00  0.00000000000E+00  0.42371066233E+03  0.42371066234E+03  0.25500000920E-02 0. -1.
       -2   -1    0    0    0  501  0.00000000000E+00  0.00000000000E+00 -0.95124829694E+03  0.95124829694E+03  0.25500000920E-02 0.  1.
    10030    2    1    2    0    0  0.00000000000E+00  0.00000000000E+00 -0.52753763461E+03  0.13749589593E+04  0.12697307525E+04 0.  0.
        4    1    3    3  502    0  0.10791648882E+03  0.15543154110E+03  0.39246335980E+03  0.43569947695E+03  0.12699999809E+01 0. -1.
       -4    1    3    3    0  502 -0.10791648882E+03 -0.15543154110E+03 -0.92000099441E+03  0.93925948233E+03  0.12699999809E+01 0.  1.
</event>
<event>
 5   0  0.8602414E-05  0.2249983E+04  0.7818609E-02  0.8497907E-01
        1   -1    0    0  501    0  0.00000000000E+00  0.00000000000E+00  0.17674120535E+04  0.17674120535E+04  0.50400001928E-02 0.  1.
       -1   -1    0    0    0  501  0.00000000000E+00  0.00000000000E+00 -0.71607859734E+03  0.71607859736E+03  0.50400001928E-02 0. -1.
    10030    2    1    2    0    0  0.00000000000E+00  0.00000000000E+00  0.10513334561E+04  0.24834906508E+04  0.22499830614E+04 0.  0.
        3    1    3    3  502    0  0.77927937176E+03  0.80438628033E+03  0.40837304741E+03  0.11920915163E+04  0.10100000352E+00 0.  1.
       -3    1    3    3    0  502 -0.77927937176E+03 -0.80438628033E+03  0.64296040871E+03  0.12913991345E+04  0.10100000352E+00 0. -1.
</event>
<event>
 5   0  0.8602414E-05  0.2159395E+04  0.7818609E-02  0.8535522E-01
        1   -1    0    0  501    0  0.00000000000E+00  0.00000000000E+00  0.12004028416E+04  0.12004028416E+04  0.50400001928E-02 0.  1.
       -1   -1    0    0    0  501  0.00000000000E+00  0.00000000000E+00 -0.97112928793E+03  0.97112928794E+03  0.50400001928E-02 0. -1.
    10030    2    1    2    0    0  0.00000000000E+00  0.00000000000E+00  0.22927355363E+03  0.21715321295E+04  0.21593946900E+04 0.  0.
        3    1    3    3  502    0 -0.56007678530E+03  0.56780015585E+03 -0.61723362070E+03  0.10084941126E+04  0.10100000352E+00 0. -1.
       -3    1    3    3    0  502  0.56007678530E+03 -0.56780015585E+03  0.84650717432E+03  0.11630380169E+04  0.10100000352E+00 0.  1.
</event>
<event>
 5   0  0.1680258E-04  0.2166676E+04  0.7818609E-02  0.8532428E-01
        2   -1    0    0  501    0  0.00000000000E+00  0.00000000000E+00  0.14480458952E+04  0.14480458952E+04  0.25500000920E-02 0.  1.
       -2   -1    0    0    0  501  0.00000000000E+00  0.00000000000E+00 -0.81048645906E+03  0.81048645906E+03  0.25500000920E-02 0. -1.
    10030    2    1    2    0    0  0.00000000000E+00  0.00000000000E+00  0.63755943613E+03  0.22585323543E+04  0.21666763396E+04 0.  0.
        5    1    3    3  502    0 -0.62578770086E+03 -0.59407655862E+03  0.10015780506E+04  0.13220128159E+04  0.46999998093E+01 0.  1.
       -5    1    3    3    0  502  0.62578770086E+03  0.59407655862E+03 -0.36401861443E+03  0.93651953835E+03  0.46999998093E+01 0. -1.
</event>
<event>
 5   0  0.8784659E-05  0.1992175E+04  0.7818609E-02  0.8610288E-01
        1   -1    0    0  501    0  0.00000000000E+00  0.00000000000E+00  0.78651838084E+03  0.78651838086E+03  0.50400001928E-02 0.  1.
       -1   -1    0    0    0  501  0.00000000000E+00  0.00000000000E+00 -0.12614971198E+04  0.12614971198E+04  0.50400001928E-02 0. -1.
    10030    2    1    2    0    0  0.00000000000E+00  0.00000000000E+00 -0.47497873899E+03  0.20480155007E+04  0.19921753659E+04 0.  0.
        4    1    3    3  502    0 -0.11503647063E+03 -0.63461648981E+02 -0.12525500608E+04  0.12594221049E+04  0.12699999809E+01 0. -1.
       -4    1    3    3    0  502  0.11503647063E+03  0.63461648981E+02  0.77757132185E+03  0.78859339582E+03  0.12699999809E+01 0.  1.
</event>
<event>
 5   0  0.8602414E-05  0.2248518E+04  0.7818609E-02  0.8498501E-01
       -1   -1    0    0    0  501  0.00000000000E+00  0.00000000000E+00  0.50651304061E+03  0.50651304063E+03  0.50400001928E-02 0. -1.
        1   -1    0    0  501    0  0.00000000000E+00  0.00000000000E+00 -0.24954105400E+04  0.24954105400E+04  0.50400001928E-02 0.  1.
    10030    2    1    2    0    0  0.00000000000E+00  0.00000000000E+00 -0.19888974994E+04  0.30019235806E+04  0.22485177164E+04 0.  0.
        3    1    3    3  502    0  0.23346399545E+03  0.10906523931E+04 -0.11829246260E+04  0.16258347889E+04  0.10100000352E+00 0.  1.
       -3    1    3    3    0  502 -0.23346399545E+03 -0.10906523931E+04 -0.80597287332E+03  0.13760887917E+04  0.10100000352E+00 0. -1.
</event>
<event>
 5   0  0.1805501E-04  0.2175423E+04  0.7818609E-02  0.8528728E-01
        2   -1    0    0  501    0  0.00000000000E+00  0.00000000000E+00  0.13177905747E+04  0.13177905747E+04  0.25500000920E-02 0. -1.
       -2   -1    0    0    0  501  0.00000000000E+00  0.00000000000E+00 -0.89780310698E+03  0.89780310698E+03  0.25500000920E-02 0.  1.
    10030    2    1    2    0    0  0.00000000000E+00  0.00000000000E+00  0.41998746771E+03  0.22155936817E+04  0.21754231518E+04 0.  0.
        2    1    3    3  502    0 -0.40306304560E+03  0.36705221683E+03  0.11686124638E+04  0.12895124037E+04  0.25500000920E-02 0. -1.
       -2    1    3    3    0  502  0.40306304560E+03 -0.36705221683E+03 -0.74862499613E+03  0.92608127799E+03  0.25500000920E-02 0.  1.
</event>
<event>
 5   0  0.8784659E-05  0.2317625E+04  0.7818609E-02  0.8471004E-01
        1   -1    0    0  501    0  0.00000000000E+00  0.00000000000E+00  0.17612459761E+04  0.17612459761E+04  0.50400001928E-02 0.  1.
       -1   -1    0    0    0  501  0.00000000000E+00  0.00000000000E+00 -0.76244116088E+03  0.76244116089E+03  0.50400001928E-02 0. -1.
    10030    2    1    2    0    0  0.00000000000E+00  0.00000000000E+00  0.99880481524E+03  0.25236871370E+04  0.23176250142E+04 0.  0.
        4    1    3    3  502    0  0.20845102791E+03 -0.11255009904E+04  0.30267232765E+03  0.11839833027E+04  0.12699999809E+01 0. -1.
       -4    1    3    3    0  502 -0.20845102791E+03  0.11255009904E+04  0.69613248759E+03  0.13397038343E+04  0.12699999809E+01 0.  1.
</event>
<event>
 5   0  0.1754356E-04  0.2183525E+04  0.7818609E-02  0.8525317E-01
       -2   -1    0    0    0  501  0.00000000000E+00  0.00000000000E+00  0.13960821672E+04  0.13960821672E+04  0.25500000920E-02 0. -1.
        2   -1    0    0  501    0  0.00000000000E+00  0.00000000000E+00 -0.85377855619E+03  0.85377855619E+03  0.25500000920E-02 0.  1.
    10030    2    1    2    0    0  0.00000000000E+00  0.00000000000E+00  0.54230361099E+03  0.22498607234E+04  0.21835246891E+04 0.  0.
        1    1    3    3  502    0  0.11665146795E+03 -0.95767486165E+03 -0.25544842765E+03  0.99799930101E+03  0.50400001928E-02 0.  1.
       -1    1    3    3    0  502 -0.11665146795E+03  0.95767486165E+03  0.79775203865E+03  0.12518614224E+04  0.50400001928E-02 0. -1.
</event>
<event>
 5   0  0.8470971E-05  0.2278573E+04  0.7818609E-02  0.8486418E-01
        1   -1    0    0  501    0  0.00000000000E+00  0.00000000000E+00  0.21305089333E+04  0.21305089334E+04  0.50400001928E-02 0.  1.
       -1   -1    0    0    0  501  0.00000000000E+00  0.00000000000E+00 -0.60923183786E+03  0.60923183788E+03  0.50400001928E-02 0. -1.
    10030    2    1    2    0    0  0.00000000000E+00  0.00000000000E+00  0.15212770955E+04  0.27397407712E+04  0.22785731264E+04 0.  0.
        2    1    3    3  502    0 -0.38355684312E+03 -0.10178499878E+04  0.11681051367E+04  0.15961215680E+04  0.25500000920E-02 0.  1.
       -2    1    3    3    0  502  0.38355684312E+03  0.10178499878E+04  0.35317195882E+03  0.11436192032E+04  0.25500000920E-02 0. -1.
</event>
<event>
 5   0  0.8784659E-05  0.2160424E+04  0.7818609E-02  0.8535084E-01
        1   -1    0    0  501    0  0.00000000000E+00  0.00000000000E+00  0.10730043705E+04  0.10730043706E+04  0.50400001928E-02 0.  1.
       -1   -1    0    0    0  501  0.00000000000E+00  0.00000000000E+00 -0.10874675525E+04  0.10874675525E+04  0.50400001928E-02 0. -1.
    10030    2    1    2    0    0  0.00000000000E+00  0.00000000000E+00 -0.14463181937E+02  0.21604719230E+04  0.21604235109E+04 0.  0.
        4    1    3    3  502    0 -0.16991173460E+03  0.50710666533E+03  0.93131416334E+03  0.10739529093E+04  0.12699999809E+01 0.  1.
       -4    1    3    3    0  502  0.16991173460E+03 -0.50710666533E+03 -0.94577734527E+03  0.10865190138E+04  0.12699999809E+01 0. -1.
</event>
<event>
 5   0  0.1733962E-04  0.2340873E+04  0.7818609E-02  0.8461978E-01
        2   -1    0    0  501    0  0.00000000000E+00  0.00000000000E+00  0.95314398883E+03  0.95314398883E+03  0.25500000920E-02 0. -1.
       -2   -1    0    0    0  501  0.00000000000E+00  0.00000000000E+00 -0.14372657078E+04  0.14372657078E+04  0.25500000920E-02 0.  1.
    10030    2    1    2    0    0  0.00000000000E+00  0.00000000000E+00 -0.48412171901E+03  0.23904096967E+04  0.23408726320E+04 0.  0.
        3    1    3    3  502    0 -0.38018705964E+03  0.54718052903E+03 -0.12246989282E+04  0.13942152655E+04  0.10100000352E+00 0.  1.
       -3    1    3    3    0  502  0.38018705964E+03 -0.54718052903E+03  0.74057720920E+03  0.99619443115E+03  0.10100000352E+00 0. -1.
</event>
<event>
 5   0  0.8602414E-05  0.2127829E+04  0.7818609E-02  0.8549082E-01
       -1   -1    0    0    0  501  0.00000000000E+00  0.00000000000E+00  0.10079683150E+04  0.10079683150E+04  0.50400001928E-02 0.  1.
        1   -1    0    0  501    0  0.00000000000E+00  0.00000000000E+00 -0.11229663067E+04  0.11229663067E+04  0.50400001928E-02 0. -1.
    10030    2    1    2    0    0  0.00000000000E+00  0.00000000000E+00 -0.11499799169E+03  0.21309346217E+04  0.21278293691E+04 0.  0.
        3    1    3    3  502    0 -0.85197824007E+03 -0.44581712337E+03 -0.51345961908E+03  0.10900736763E+04  0.10100000352E+00 0. -1.
       -3    1    3    3    0  502  0.85197824007E+03  0.44581712337E+03  0.39846162739E+03  0.10408609454E+04  0.10100000352E+00 0.  1.
</event>
<event>
 5   0  0.1805501E-04  0.2214820E+04  0.7818609E-02  0.8512285E-01
       -2   -1    0    0    0  501  0.00000000000E+00  0.00000000000E+00  0.10038241591E+04  0.10038241591E+04  0.25500000920E-02 0.  1.
        2   -1    0    0  501    0  0.00000000000E+00  0.00000000000E+00 -0.12216850590E+04  0.12216850591E+04  0.25500000920E-02 0. -1.
    10030    2    1    2    0    0  0.00000000000E+00  0.00000000000E+00 -0.21786089998E+03  0.22255092181E+04  0.22148200623E+04 0.  0.
        2    1    3    3  502    0  0.10805980538E+04 -0.10560651105E+03 -0.32795510601E+03  0.11341955037E+04  0.25500000920E-02 0. -1.
       -2    1    3    3    0  502 -0.10805980538E+04  0.10560651105E+03  0.11009420602E+03  0.10913137144E+04  0.25500000920E-02 0.  1.
</event>
<event>
 5   0  0.1733962E-04  0.2211179E+04  0.7818609E-02  0.8513790E-01
       -2   -1    0    0    0  501  0.00000000000E+00  0.00000000000E+00  0.49207714067E+03  0.49207714067E+03  0.25500000920E-02 0.  1.
        2   -1    0    0  501    0  0.00000000000E+00  0.00000000000E+00 -0.24840165039E+04  0.24840165039E+04  0.25500000920E-02 0. -1.
    10030    2    1    2    0    0  0.00000000000E+00  0.00000000000E+00 -0.19919393632E+04  0.29760936446E+04  0.22111786347E+04 0.  0.
        3    1    3    3  502    0  0.96120164579E+03  0.63077136890E+02 -0.17263035854E+04  0.19768690924E+04  0.10100000352E+00 0. -1.
       -3    1    3    3    0  502 -0.96120164579E+03 -0.63077136890E+02 -0.26563577780E+03  0.99922455220E+03  0.10100000352E+00 0.  1.
</event>
<event>
 5   0  0.1805501E-04  0.2271355E+04  0.7818609E-02  0.8489302E-01
       -2   -1    0    0    0  501  0.00000000000E+00  0.00000000000E+00  0.10722343824E+04  0.10722343824E+04  0.25500000920E-02 0. -1.
        2   -1    0    0  501    0  0.00000000000E+00  0.00000000000E+00 -0.12028742624E+04  0.12028742624E+04  0.25500000920E-02 0.  1.
    10030    2    1    2    0    0  0.00000000000E+00  0.00000000000E+00 -0.13063988008E+03  0.22751086448E+04  0.22713547868E+04 0.  0.
        2    1    3    3  502    0 -0.19222593099E+03 -0.56800544705E+02 -0.11850162449E+04  0.12018488304E+04  0.25500000920E-02 0.  1.
       -2    1    3    3    0  502  0.19222593099E+03  0.56800544705E+02  0.10543763648E+04  0.10732598144E+04  0.25500000920E-02 0. -1.
</event>
<event>
 5   0  0.1805501E-04  0.2185402E+04  0.7818609E-02  0.8524529E-01
        2   -1    0    0  501    0  0.00000000000E+00  0.00000000000E+00  0.12233811849E+04  0.12233811849E+04  0.25500000920E-02 0. -1.
       -2   -1    0    0    0  501  0.00000000000E+00  0.00000000000E+00 -0.97598008890E+03  0.97598008890E+03  0.25500000920E-02 0.  1.
    10030    2    1    2    0    0  0.00000000000E+00  0.00000000000E+00  0.24740109605E+03  0.21993612738E+04  0.21854021851E+04 0.  0.
        2    1    3    3  502    0  0.20630571993E+03  0.96418700093E+03  0.59764070348E+03  0.11529930760E+04  0.25500000920E-02 0. -1.
       -2    1    3    3    0  502 -0.20630571993E+03 -0.96418700093E+03 -0.35023960743E+03  0.10463681978E+04  0.25500000920E-02 0.  1.
</event>
<event>
 5   0  0.7954459E-05  0.2196138E+04  0.7818609E-02  0.8520037E-01
        1   -1    0    0  501    0  0.00000000000E+00  0.00000000000E+00  0.26830118890E+04  0.26830118890E+04  0.50400001928E-02 0. -1.
       -1   -1    0    0    0  501  0.00000000000E+00  0.00000000000E+00 -0.44940352503E+03  0.44940352505E+03  0.50400001928E-02 0.  1.
    10030    2    1    2    0    0  0.00000000000E+00  0.00000000000E+00  0.22336083640E+04  0.31324154141E+04  0.21961375191E+04 0.  0.
        5    1    3    3  502    0  0.13910866714E+03 -0.12457821528E+03 -0.42657510918E+03  0.46568161523E+03  0.46999998093E+01 0.  1.
       -5    1    3    3    0  502 -0.13910866714E+03  0.12457821528E+03  0.26601834732E+04  0.26667337989E+04  0.46999998093E+01 0. -1.
</event>
<event>
 5   0  0.8306787E-05  0.1603136E+04  0.7818609E-02  0.8818624E-01
        1   -1    0    0  501    0  0.00000000000E+00  0.00000000000E+00  0.18896970325E+04  0.18896970325E+04  0.50400001928E-02 0. -1.
       -1   -1    0    0    0  501  0.00000000000E+00  0.00000000000E+00 -0.34000734472E+03  0.34000734476E+03  0.50400001928E-02 0.  1.
    10030    2    1    2    0    0  0.00000000000E+00  0.00000000000E+00  0.15496896877E+04  0.22297043772E+04  0.16031355157E+04 0.  0.
        1    1    3    3  502    0  0.11369435434E+03  0.71609169958E+03  0.12501725821E+04  0.14452145908E+04  0.50400001928E-02 0. -1.
       -1    1    3    3    0  502 -0.11369435434E+03 -0.71609169958E+03  0.29951710563E+03  0.78448978642E+03  0.50400001928E-02 0.  1.
</event>
<event>
 5   0  0.1805501E-04  0.2048326E+04  0.7818609E-02  0.8584354E-01
        2   -1    0    0  501    0  0.00000000000E+00  0.00000000000E+00  0.24995556053E+04  0.24995556053E+04  0.25500000920E-02 0. -1.
       -2   -1    0    0    0  501  0.00000000000E+00  0.00000000000E+00 -0.41963844629E+03  0.41963844629E+03  0.25500000920E-02 0.  1.
    10030    2    1    2    0    0  0.00000000000E+00  0.00000000000E+00  0.20799171590E+04  0.29191940516E+04  0.20483257852E+04 0.  0.
        2    1    3    3  502    0 -0.70589371059E+03  0.22412443879E+03  0.20480944888E+04  0.21778908902E+04  0.25500000920E-02 0. -1.
       -2    1    3    3    0  502  0.70589371059E+03 -0.22412443879E+03  0.31822670223E+02  0.74130316137E+03  0.25500000920E-02 0.  1.
</event>
<event>
 5   0  0.1805501E-04  0.2176509E+04  0.7818609E-02  0.8528270E-01
       -2   -1    0    0    0  501  0.00000000000E+00  0.00000000000E+00  0.13651317392E+04  0.13651317392E+04  0.25500000920E-02 0. -1.
        2   -1    0    0  501    0  0.00000000000E+00  0.00000000000E+00 -0.86753372096E+03  0.86753372096E+03  0.25500000920E-02 0.  1.
    10030    2    1    2    0    0  0.00000000000E+00  0.00000000000E+00  0.49759801822E+03  0.22326654601E+04  0.21765089637E+04 0.  0.
        2    1    3    3  502    0 -0.70080020214E+03  0.15649120963E+03 -0.59003255134E+03  0.92938088728E+03  0.25500000920E-02 0.  1.
       -2    1    3    3    0  502  0.70080020214E+03 -0.15649120963E+03  0.10876305696E+04  0.13032845729E+04  0.25500000920E-02 0. -1.
</event>
<event>
 5   0  0.1733962E-04  0.2171766E+04  0.7818609E-02  0.8530272E-01
        2   -1    0    0  501    0  0.00000000000E+00  0.00000000000E+00  0.17114598143E+04  0.17114598143E+04  0.25500000920E-02 0.  1.
       -2   -1    0    0    0  501  0.00000000000E+00  0.00000000000E+00 -0.68896858405E+03  0.68896858406E+03  0.25500000920E-02 0. -1.
    10030    2    1    2    0    0  0.00000000000E+00  0.00000000000E+00  0.10224912303E+04  0.24004283984E+04  0.21717661430E+04 0.  0.
        3    1    3    3  502    0  0.30071696015E+03  0.92926861610E+03  0.10357294450E+04  0.14236243691E+04  0.10100000352E+00 0.  1.
       -3    1    3    3    0  502 -0.30071696015E+03 -0.92926861610E+03 -0.13238214736E+02  0.97680402923E+03  0.10100000352E+00 0. -1.
</event>
<event>
 5   0  0.6250625E-05  0.2002311E+04  0.7818609E-02  0.8605541E-01
        4   -1    0    0  501    0  0.00000000000E+00  0.00000000000E+00  0.11521803322E+04  0.11521810321E+04  0.12699999809E+01 0. -1.
       -4   -1    0    0    0  501  0.00000000000E+00  0.00000000000E+00 -0.86992534743E+03  0.86992627446E+03  0.12699999809E+01 0.  1.
    10030    2    1    2    0    0  0.00000000000E+00  0.00000000000E+00  0.28225498476E+03  0.20221073066E+04  0.20023111853E+04 0.  0.
        5    1    3    3  502    0 -0.17494495782E+03 -0.24455162083E+03 -0.82323715038E+03  0.87644322650E+03  0.46999998093E+01 0.  1.
       -5    1    3    3    0  502  0.17494495782E+03  0.24455162083E+03  0.11054921351E+04  0.11456640801E+04  0.46999998093E+01 0. -1.
</event>
<event>
 5   0  0.8306787E-05  0.2248306E+04  0.7818609E-02  0.8498587E-01
       -1   -1    0    0    0  501  0.00000000000E+00  0.00000000000E+00  0.75705827621E+03  0.75705827623E+03  0.50400001928E-02 0. -1.
        1   -1    0    0  501    0  0.00000000000E+00  0.00000000000E+00 -0.16692499540E+04  0.16692499540E+04  0.50400001928E-02 0.  1.
    10030    2    1    2    0    0  0.00000000000E+00  0.00000000000E+00 -0.91219167781E+03  0.24263082303E+04  0.22483055778E+04 0.  0.
        1    1    3    3  502    0  0.82005457315E+03  0.24036273244E+03 -0.12443020131E+04  0.15094870804E+04  0.50400001928E-02 0.  1.
       -1    1    3    3    0  502 -0.82005457315E+03 -0.24036273244E+03  0.33211033524E+03  0.91682114989E+03  0.50400001928E-02 0. -1.
</event>
<event>
 5   0  0.1805501E-04  0.2035436E+04  0.7818609E-02  0.8590230E-01
       -2   -1    0    0    0  501  0.00000000000E+00  0.00000000000E+00  0.40505711168E+03  0.40505711169E+03  0.25500000920E-02 0. -1.
        2   -1    0    0  501    0  0.00000000000E+00  0.00000000000E+00 -0.25570472621E+04  0.25570472621E+04  0.25500000920E-02 0.  1.
    10030    2    1    2    0    0  0.00000000000E+00  0.00000000000E+00 -0.21519901504E+04  0.29621043738E+04  0.20354362466E+04 0.  0.
        2    1    3    3  502    0 -0.51706194611E+02 -0.85383173729E+03 -0.18784376036E+04  0.20640324602E+04  0.25500000920E-02 0. -1.
       -2    1    3    3    0  502  0.51706194611E+02  0.85383173729E+03 -0.27355254688E+03  0.89807191364E+03  0.25500000920E-02 0.  1.
</event>
<event>
 5   0  0.1680258E-04  0.1960789E+04  0.7818609E-02  0.8625176E-01
       -2   -1    0    0    0  501  0.00000000000E+00  0.00000000000E+00  0.51115709019E+03  0.51115709020E+03  0.25500000920E-02 0. -1.
        2   -1    0    0  501    0  0.00000000000E+00  0.00000000000E+00 -0.18803873346E+04  0.18803873346E+04  0.25500000920E-02 0.  1.
    10030    2    1    2    0    0  0.00000000000E+00  0.00000000000E+00 -0.13692302445E+04  0.23915444248E+04  0.19607889417E+04 0.  0.
        5    1    3    3  502    0  0.38863441488E+03 -0.44893124662E+03  0.26687601830E+03  0.65101526231E+03  0.46999998093E+01 0. -1.
       -5    1    3    3    0  502 -0.38863441488E+03  0.44893124662E+03 -0.16361062628E+04  0.17405291625E+04  0.46999998093E+01 0.  1.
</event>
<event>
 5   0  0.6250625E-05  0.1451342E+04  0.7818609E-02  0.8917471E-01
        4   -1    0    0  501    0  0.00000000000E+00  0.00000000000E+00  0.45937641864E+03  0.45937817417E+03  0.12699999809E+01 0. -1.
       -4   -1    0    0    0  501  0.00000000000E+00  0.00000000000E+00 -0.11463287905E+04  0.11463294940E+04  0.12699999809E+01 0.  1.
    10030    2    1    2    0    0  0.00000000000E+00  0.00000000000E+00 -0.68695237184E+03  0.16057076682E+04  0.14513419840E+04 0.  0.
        3    1    3    3  502    0 -0.69811388397E+03  0.19183460998E+03 -0.28888352795E+03  0.77949805356E+03  0.10100000352E+00 0.  1.
       -3    1    3    3    0  502  0.69811388397E+03 -0.19183460998E+03 -0.39806884389E+03  0.82620961460E+03  0.10100000352E+00 0. -1.
</event>
<event>
 5   0  0.7954459E-05  0.2305032E+04  0.7818609E-02  0.8475940E-01
       -1   -1    0    0    0  501  0.00000000000E+00  0.00000000000E+00  0.73147643466E+03  0.73147643467E+03  0.50400001928E-02 0.  1.
        1   -1    0    0  501    0  0.00000000000E+00  0.00000000000E+00 -0.18159068035E+04  0.18159068035E+04  0.50400001928E-02 0. -1.
    10030    2    1    2    0    0  0.00000000000E+00  0.00000000000E+00 -0.10844303689E+04  0.25473832382E+04  0.23050319168E+04 0.  0.
        5    1    3    3  502    0  0.69844168368E+03  0.22926282043E+03  0.43874139506E+03  0.85609481255E+03  0.46999998093E+01 0.  1.
       -5    1    3    3    0  502 -0.69844168368E+03 -0.22926282043E+03 -0.15231717639E+04  0.16912884257E+04  0.46999998093E+01 0. -1.
</event>
<event>
 5   0  0.1798917E-04  0.1897544E+04  0.7818609E-02  0.8656080E-01
       -2   -1    0    0    0  501  0.00000000000E+00  0.00000000000E+00  0.60682181363E+03  0.60682181363E+03  0.25500000920E-02 0.  1.
        2   -1    0    0  501    0  0.00000000000E+00  0.00000000000E+00 -0.14834146902E+04  0.14834146902E+04  0.25500000920E-02 0. -1.
    10030    2    1    2    0    0  0.00000000000E+00  0.00000000000E+00 -0.87659287661E+03  0.20902365039E+04  0.18975440893E+04 0.  0.
        4    1    3    3  502    0 -0.43240498006E+03  0.74634468563E+03 -0.87359946135E+03  0.12276734453E+04  0.12699999809E+01 0. -1.
       -4    1    3    3    0  502  0.43240498006E+03 -0.74634468563E+03 -0.29934152613E+01  0.86256305856E+03  0.12699999809E+01 0.  1.
</event>
<event>
 5   0  0.8602414E-05  0.2214135E+04  0.7818609E-02  0.8512568E-01
        1   -1    0    0  501    0  0.00000000000E+00  0.00000000000E+00  0.96454368507E+03  0.96454368509E+03  0.50400001928E-02 0. -1.
       -1   -1    0    0    0  501  0.00000000000E+00  0.00000000000E+00 -0.12706511575E+04  0.12706511575E+04  0.50400001928E-02 0.  1.
    10030    2    1    2    0    0  0.00000000000E+00  0.00000000000E+00 -0.30610747239E+03  0.22351948426E+04  0.22141350906E+04 0.  0.
        3    1    3    3  502    0 -0.91530720453E+03  0.62056745509E+03 -0.20558030578E+03  0.11247908771E+04  0.10100000352E+00 0. -1.
       -3    1    3    3    0  502  0.91530720453E+03 -0.62056745509E+03 -0.10052716661E+03  0.11104039654E+04  0.10100000352E+00 0.  1.
</event>
<event>
 5   0  0.8470971E-05  0.2173374E+04  0.7818609E-02  0.8529593E-01
       -1   -1    0    0    0  501  0.00000000000E+00  0.00000000000E+00  0.88346640626E+03  0.88346640627E+03  0.50400001928E-02 0.  1.
        1   -1    0    0  501    0  0.00000000000E+00  0.00000000000E+00 -0.13366536977E+04  0.13366536977E+04  0.50400001928E-02 0. -1.
    10030    2    1    2    0    0  0.00000000000E+00  0.00000000000E+00 -0.45318729146E+03  0.22201201040E+04  0.21733740026E+04 0.  0.
        2    1    3    3  502    0 -0.96754384781E+03  0.49420346653E+03 -0.24967329687E+03  0.11147712406E+04  0.25500000920E-02 0. -1.
       -2    1    3    3    0  502  0.96754384781E+03 -0.49420346653E+03 -0.20351399459E+03  0.11053488634E+04  0.25500000920E-02 0.  1.
</event>
<event>
 5   0  0.1805501E-04  0.2177757E+04  0.7818609E-02  0.8527744E-01
        2   -1    0    0  501    0  0.00000000000E+00  0.00000000000E+00  0.19126506131E+04  0.19126506131E+04  0.25500000920E-02 0.  1.
       -2   -1    0    0    0  501  0.00000000000E+00  0.00000000000E+00 -0.61990207470E+03  0.61990207471E+03  0.25500000920E-02 0. -1.
    10030    2    1    2    0    0  0.00000000000E+00  0.00000000000E+00  0.12927485384E+04  0.25325526878E+04  0.21777567204E+04 0.  0.
        2    1    3    3  502    0  0.64094658352E+03 -0.36883307573E+03 -0.28309176897E+03  0.79182782873E+03  0.25500000920E-02 0. -1.
       -2    1    3    3    0  502 -0.64094658352E+03  0.36883307573E+03  0.15758403074E+04  0.17407248591E+04  0.25500000920E-02 0.  1.
</event>
<event>
 5   0  0.1680258E-04  0.2180173E+04  0.7818609E-02  0.8526726E-01
        2   -1    0    0  501    0  0.00000000000E+00  0.00000000000E+00  0.18640366419E+04  0.18640366419E+04  0.25500000920E-02 0. -1.
       -2   -1    0    0    0  501  0.00000000000E+00  0.00000000000E+00 -0.63748110568E+03  0.63748110568E+03  0.25500000920E-02 0.  1.
    10030    2    1    2    0    0  0.00000000000E+00  0.00000000000E+00  0.12265555362E+04  0.25015177476E+04  0.21801725982E+04 0.  0.
        5    1    3    3  502    0 -0.37988647386E+03 -0.43019358767E+03  0.16766380170E+04  0.17721504976E+04  0.46999998093E+01 0. -1.
       -5    1    3    3    0  502  0.37988647386E+03  0.43019358767E+03 -0.45008248079E+03  0.72936725003E+03  0.46999998093E+01 0.  1.
</event>
<event>
 5   0  0.8784659E-05  0.2159717E+04  0.7818609E-02  0.8535384E-01
        1   -1    0    0  501    0  0.00000000000E+00  0.00000000000E+00  0.10664447048E+04  0.10664447048E+04  0.50400001928E-02 0. -1.
       -1   -1    0    0    0  501  0.00000000000E+00  0.00000000000E+00 -0.10934407121E+04  0.10934407121E+04  0.50400001928E-02 0.  1.
    10030    2    1    2    0    0  0.00000000000E+00  0.00000000000E+00 -0.26996007319E+02  0.21598854169E+04  0.21597167012E+04 0.  0.
        4    1    3    3  502    0  0.38450623218E+03 -0.34225623224E+02 -0.10220786506E+04  0.10925487709E+04  0.12699999809E+01 0.  1.
       -4    1    3    3    0  502 -0.38450623218E+03  0.34225623224E+02  0.99508264331E+03  0.10673366460E+04  0.12699999809E+01 0. -1.
</event>
<event>
 5   0  0.1680258E-04  0.2307467E+04  0.7818609E-02  0.8474983E-01
       -2   -1    0    0    0  501  0.00000000000E+00  0.00000000000E+00  0.10643420276E+04  0.10643420276E+04  0.25500000920E-02 0.  1.
        2   -1    0    0  501    0  0.00000000000E+00  0.00000000000E+00 -0.12506327467E+04  0.12506327467E+04  0.25500000920E-02 0. -1.
    10030    2    1    2    0    0  0.00000000000E+00  0.00000000000E+00 -0.18629071907E+03  0.23149747742E+04  0.23074670037E+04 0.  0.
        5    1    3    3  502    0 -0.14465351457E+03  0.87413761034E+03 -0.83449328872E+03  0.12171451598E+04  0.46999998093E+01 0. -1.
       -5    1    3    3    0  502  0.14465351457E+03 -0.87413761034E+03  0.64820256965E+03  0.10978296145E+04  0.46999998093E+01 0.  1.
</event>
<event>
 5   0  0.8602414E-05  0.2214843E+04  0.7818609E-02  0.8512275E-01
       -1   -1    0    0    0  501  0.00000000000E+00  0.00000000000E+00  0.97559941209E+03  0.97559941211E+03  0.50400001928E-02 0. -1.
        1   -1    0    0  501    0  0.00000000000E+00  0.00000000000E+00 -0.12570553779E+04  0.12570553779E+04  0.50400001928E-02 0.  1.
    10030    2    1    2    0    0  0.00000000000E+00  0.00000000000E+00 -0.28145596583E+03  0.22326547900E+04  0.22148430985E+04 0.  0.
        3    1    3    3  502    0  0.50103821936E+03 -0.18580578054E+03 -0.11184868039E+04  0.12395869578E+04  0.10100000352E+00 0.  1.
       -3    1    3    3    0  502 -0.50103821936E+03  0.18580578054E+03  0.83703083805E+03  0.99306783222E+03  0.10100000352E+00 0. -1.
</event>
<event>
 5   0  0.1805501E-04  0.2105918E+04  0.7818609E-02  0.8558641E-01
       -2   -1    0    0    0  501  0.00000000000E+00  0.00000000000E+00  0.53024155280E+03  0.53024155280E+03  0.25500000920E-02 0. -1.
        2   -1    0    0  501    0  0.00000000000E+00  0.00000000000E+00 -0.20909775356E+04  0.20909775356E+04  0.25500000920E-02 0.  1.
    10030    2    1    2    0    0  0.00000000000E+00  0.00000000000E+00 -0.15607359828E+04  0.26212190884E+04  0.21059184936E+04 0.  0.
        2    1    3    3  502    0 -0.10388370176E+03  0.14135776009E+03  0.51192484848E+03  0.54114775276E+03  0.25500000920E-02 0. -1.
       -2    1    3    3    0  502  0.10388370176E+03 -0.14135776009E+03 -0.20726608313E+04  0.20800713357E+04  0.25500000920E-02 0.  1.
</event>
<event>
 5   0  0.1733962E-04  0.2194621E+04  0.7818609E-02  0.8520670E-01
       -2   -1    0    0    0  501  0.00000000000E+00  0.00000000000E+00  0.99469185143E+03  0.99469185143E+03  0.25500000920E-02 0. -1.
        2   -1    0    0  501    0  0.00000000000E+00  0.00000000000E+00 -0.12105157705E+04  0.12105157705E+04  0.25500000920E-02 0.  1.
    10030    2    1    2    0    0  0.00000000000E+00  0.00000000000E+00 -0.21582391906E+03  0.22052076219E+04  0.21946208538E+04 0.  0.
        3    1    3    3  502    0  0.43738868025E+03 -0.10048057335E+04 -0.51545518067E+02  0.10970872210E+04  0.10100000352E+00 0. -1.
       -3    1    3    3    0  502 -0.43738868025E+03  0.10048057335E+04 -0.16427840100E+03  0.11081204010E+04  0.10100000352E+00 0.  1.
</event>
<event>
 5   0  0.1754356E-04  0.2225898E+04  0.7818609E-02  0.8507725E-01
        2   -1    0    0  501    0  0.00000000000E+00  0.00000000000E+00  0.23913606541E+04  0.23913606541E+04  0.25500000920E-02 0.  1.
       -2   -1    0    0    0  501  0.00000000000E+00  0.00000000000E+00 -0.51797118495E+03  0.51797118496E+03  0.25500000920E-02 0. -1.
    10030    2    1    2    0    0  0.00000000000E+00  0.00000000000E+00  0.18733894691E+04  0.29093318390E+04  0.22258983909E+04 0.  0.
        1    1    3    3  502    0 -0.26649560239E+03 -0.89637156476E+03  0.14796088306E+03  0.94678102598E+03  0.50400001928E-02 0. -1.
       -1    1    3    3    0  502  0.26649560239E+03  0.89637156476E+03  0.17254285861E+04  0.19625508130E+04  0.50400001928E-02 0.  1.
</event>
<event>
 5   0  0.8306787E-05  0.2189044E+04  0.7818609E-02  0.8523002E-01
        1   -1    0    0  501    0  0.00000000000E+00  0.00000000000E+00  0.11923994642E+04  0.11923994642E+04  0.50400001928E-02 0. -1.
       -1   -1    0    0    0  501  0.00000000000E+00  0.00000000000E+00 -0.10046788401E+04  0.10046788401E+04  0.50400001928E-02 0.  1.
    10030    2    1    2    0    0  0.00000000000E+00  0.00000000000E+00  0.18772062414E+03  0.21970783043E+04  0.21890440934E+04 0.  0.
        1    1    3    3  502    0  0.42246647686E+03 -0.42961034435E+02  0.11063516064E+04  0.11850474470E+04  0.50400001928E-02 0. -1.
       -1    1    3    3    0  502 -0.42246647686E+03  0.42961034435E+02 -0.91863098230E+03  0.10120308573E+04  0.50400001928E-02 0.  1.
</event>
<event>
 5   0  0.1733962E-04  0.2179928E+04  0.7818609E-02  0.8526829E-01
        2   -1    0    0  501    0  0.00000000000E+00  0.00000000000E+00  0.14842578053E+04  0.14842578053E+04  0.25500000920E-02 0. -1.
       -2   -1    0    0    0  501  0.00000000000E+00  0.00000000000E+00 -0.80041454070E+03  0.80041454071E+03  0.25500000920E-02 0.  1.
    10030    2    1    2    0    0  0.00000000000E+00  0.00000000000E+00  0.68384326457E+03  0.22846723460E+04  0.21799280075E+04 0.  0.
        3    1    3    3  502    0  0.54538468364E+03  0.10147398101E+03  0.13252356157E+04  0.14366596219E+04  0.10100000352E+00 0. -1.
       -3    1    3    3    0  502 -0.54538468364E+03 -0.10147398101E+03 -0.64139235109E+03  0.84801272408E+03  0.10100000352E+00 0.  1.
</event>
<event>
 5   0  0.8784659E-05  0.2188953E+04  0.7818609E-02  0.8523040E-01
       -1   -1    0    0    0  501  0.00000000000E+00  0.00000000000E+00  0.71673208613E+03  0.71673208615E+03  0.50400001928E-02 0. -1.
        1   -1    0    0  501    0  0.00000000000E+00  0.00000000000E+00 -0.16713058980E+04  0.16713058980E+04  0.50400001928E-02 0.  1.
    10030    2    1    2    0    0  0.00000000000E+00  0.00000000000E+00 -0.95457381187E+03  0.23880379842E+04  0.21889527751E+04 0.  0.
        4    1    3    3  502    0 -0.17123971507E+03 -0.10946796159E+03  0.69596407669E+03  0.72503371203E+03  0.12699999809E+01 0. -1.
       -4    1    3    3    0  502  0.17123971507E+03  0.10946796159E+03 -0.16505378886E+04  0.16630042721E+04  0.12699999809E+01 0.  1.
</event>
<event>
 5   0  0.1680258E-04  0.2350268E+04  0.7818609E-02  0.8458361E-01
        2   -1    0    0  501    0  0.00000000000E+00  0.00000000000E+00  0.16447849520E+04  0.16447849520E+04  0.25500000920E-02 0.  1.
       -2   -1    0    0    0  501  0.00000000000E+00  0.00000000000E+00 -0.83958687352E+03  0.83958687352E+03  0.25500000920E-02 0. -1.
    10030    2    1    2    0    0  0.00000000000E+00  0.00000000000E+00  0.80519807847E+03  0.24843718255E+04  0.23502679468E+04 0.  0.
        5    1    3    3  502    0  0.37404854909E+03  0.10120606857E+04 -0.89516826093E+02  0.10826885521E+04  0.46999998093E+01 0. -1.
       -5    1    3    3    0  502 -0.37404854909E+03 -0.10120606857E+04  0.89471490456E+03  0.14016832734E+04  0.46999998093E+01 0.  1.
</event>
<event>
 5   0  0.8784659E-05  0.2067826E+04  0.7818609E-02  0.8575550E-01
       -1   -1    0    0    0  501  0.00000000000E+00  0.00000000000E+00  0.59312426041E+03  0.59312426043E+03  0.50400001928E-02 0.  1.
        1   -1    0    0  501    0  0.00000000000E+00  0.00000000000E+00 -0.18022808358E+04  0.18022808359E+04  0.50400001928E-02 0. -1.
    10030    2    1    2    0    0  0.00000000000E+00  0.00000000000E+00 -0.12091565754E+04  0.23954050963E+04  0.20678263833E+04 0.  0.
        4    1    3    3  502    0 -0.21824783795E+01 -0.46280290044E+03  0.46643037680E+03  0.65707701008E+03  0.12699999809E+01 0.  1.
       -4    1    3    3    0  502  0.21824783795E+01  0.46280290044E+03 -0.16755869522E+04  0.17383280862E+04  0.12699999809E+01 0. -1.
</event>
<event>
 5   0  0.7954459E-05  0.2209221E+04  0.7818609E-02  0.8514600E-01
        1   -1    0    0  501    0  0.00000000000E+00  0.00000000000E+00  0.11546410096E+04  0.11546410096E+04  0.50400001928E-02 0. -1.
       -1   -1    0    0    0  501  0.00000000000E+00  0.00000000000E+00 -0.10567476361E+04  0.10567476361E+04  0.50400001928E-02 0.  1.
    10030    2    1    2    0    0  0.00000000000E+00  0.00000000000E+00  0.97893373418E+02  0.22113886457E+04  0.22092208196E+04 0.  0.
        5    1    3    3  502    0 -0.76659314342E+03  0.36190882269E+03 -0.65991416810E+03  0.10743145921E+04  0.46999998093E+01 0.  1.
       -5    1    3    3    0  502  0.76659314342E+03 -0.36190882269E+03  0.75780754152E+03  0.11370740536E+04  0.46999998093E+01 0. -1.
</event>
<event>
 5   0  0.1754356E-04  0.2081291E+04  0.7818609E-02  0.8569530E-01
        2   -1    0    0  501    0  0.00000000000E+00  0.00000000000E+00  0.10225164415E+04  0.10225164415E+04  0.25500000920E-02 0. -1.
       -2   -1    0    0    0  501  0.00000000000E+00  0.00000000000E+00 -0.10590960094E+04  0.10590960094E+04  0.25500000920E-02 0.  1.
    10030    2    1    2    0    0  0.00000000000E+00  0.00000000000E+00 -0.36579567885E+02  0.20816124510E+04  0.20812910251E+04 0.  0.
        1    1    3    3  502    0 -0.40083811944E+02 -0.34337456813E+03  0.96340664367E+03  0.10235551608E+04  0.50400001928E-02 0. -1.
       -1    1    3    3    0  502  0.40083811944E+02  0.34337456813E+03 -0.99998621156E+03  0.10580572902E+04  0.50400001928E-02 0.  1.
</event>
<event>
 5   0  0.1798917E-04  0.2145920E+04  0.7818609E-02  0.8541281E-01
       -2   -1    0    0    0  501  0.00000000000E+00  0.00000000000E+00  0.83574173221E+03  0.83574173221E+03  0.25500000920E-02 0.  1.
        2   -1    0    0  501    0  0.00000000000E+00  0.00000000000E+00 -0.13775103175E+04  0.13775103175E+04  0.25500000920E-02 0. -1.
    10030    2    1    2    0    0  0.00000000000E+00  0.00000000000E+00 -0.54176858531E+03  0.22132520497E+04  0.21459197179E+04 0.  0.
        4    1    3    3  502    0 -0.23241234836E+03  0.89178470533E+03 -0.83762171556E+03  0.12453542515E+04  0.12699999809E+01 0. -1.
       -4    1    3    3    0  502  0.23241234836E+03 -0.89178470533E+03  0.29585313025E+03  0.96789779828E+03  0.12699999809E+01 0.  1.
</event>
<event>
 5   0  0.1733962E-04  0.2210161E+04  0.7818609E-02  0.8514211E-01
       -2   -1    0    0    0  501  0.00000000000E+00  0.00000000000E+00  0.13630153509E+04  0.13630153509E+04  0.25500000920E-02 0.  1.
        2   -1    0    0  501    0  0.00000000000E+00  0.00000000000E+00 -0.89595683317E+03  0.89595683317E+03  0.25500000920E-02 0. -1.
    10030    2    1    2    0    0  0.00000000000E+00  0.00000000000E+00  0.46705851772E+03  0.22589721841E+04  0.22101610053E+04 0.  0.
        3    1    3    3  502    0  0.64775067961E+03  0.75641392158E+03  0.72312813489E+03  0.12307141315E+04  0.10100000352E+00 0.  1.
       -3    1    3    3    0  502 -0.64775067961E+03 -0.75641392158E+03 -0.25606961717E+03  0.10282580526E+04  0.10100000352E+00 0. -1.
</event>
<event>
 5   0  0.8784659E-05  0.2216359E+04  0.7818609E-02  0.8511650E-01
        1   -1    0    0  501    0  0.00000000000E+00  0.00000000000E+00  0.13916255886E+04  0.13916255886E+04  0.50400001928E-02 0. -1.
       -1   -1    0    0    0  501  0.00000000000E+00  0.00000000000E+00 -0.88246602529E+03  0.88246602531E+03  0.50400001928E-02 0.  1.
    10030    2    1    2    0    0  0.00000000000E+00  0.00000000000E+00  0.50915956333E+03  0.22740916139E+04  0.22163594491E+04 0.  0.
        4    1    3    3  502    0  0.68733634077E+02 -0.25729413407E+03 -0.84914294050E+03  0.88992692407E+03  0.12699999809E+01 0.  1.
       -4    1    3    3    0  502 -0.68733634077E+02  0.25729413407E+03  0.13583025038E+04  0.13841646899E+04  0.12699999809E+01 0. -1.
</event>
<event>
 5   0  0.8470971E-05  0.1513740E+04  0.7818609E-02  0.8875367E-01
        1   -1    0    0  501    0  0.00000000000E+00  0.00000000000E+00  0.10938283634E+04  0.10938283634E+04  0.50400001928E-02 0. -1.
       -1   -1    0    0    0  501  0.00000000000E+00  0.00000000000E+00 -0.52371309762E+03  0.52371309765E+03  0.50400001928E-02 0.  1.
    10030    2    1    2    0    0  0.00000000000E+00  0.00000000000E+00  0.57011526581E+03  0.16175414611E+04  0.15137400576E+04 0.  0.
        2    1    3    3  502    0 -0.66644728807E+03  0.32906290013E+03  0.43774715429E+03  0.86258735854E+03  0.25500000920E-02 0. -1.
       -2    1    3    3    0  502  0.66644728807E+03 -0.32906290013E+03  0.13236811152E+03  0.75495410256E+03  0.25500000920E-02 0.  1.
</event>
<event>
 5   0  0.1680258E-04  0.2195304E+04  0.7818609E-02  0.8520385E-01
       -2   -1    0    0    0  501  0.00000000000E+00  0.00000000000E+00  0.12663633319E+04  0.12663633320E+04  0.25500000920E-02 0.  1.
        2   -1    0    0  501    0  0.00000000000E+00  0.00000000000E+00 -0.95141727714E+03  0.95141727714E+03  0.25500000920E-02 0. -1.
    10030    2    1    2    0    0  0.00000000000E+00  0.00000000000E+00  0.31494605481E+03  0.22177806091E+04  0.21953040365E+04 0.  0.
        5    1    3    3  502    0  0.87673472898E+03  0.60268984055E+03 -0.11532696892E+03  0.10701500963E+04  0.46999998093E+01 0. -1.
       -5    1    3    3    0  502 -0.87673472898E+03 -0.60268984055E+03  0.43027302373E+03  0.11476305128E+04  0.46999998093E+01 0.  1.
</event>
<event>
 5   0  0.8306787E-05  0.2220438E+04  0.7818609E-02  0.8509969E-01
        1   -1    0    0  501    0  0.00000000000E+00  0.00000000000E+00  0.11383012012E+04  0.11383012012E+04  0.50400001928E-02 0.  1.
       -1   -1    0    0    0  501  0.00000000000E+00  0.00000000000E+00 -0.10828297598E+04  0.10828297598E+04  0.50400001928E-02 0. -1.
    10030    2    1    2    0    0  0.00000000000E+00  0.00000000000E+00  0.55471441411E+02  0.22211309610E+04  0.22204381696E+04 0.  0.
        1    1    3    3  502    0  0.76517822393E+03 -0.30459268648E+02 -0.77635644483E+03  0.10904837508E+04  0.50400001928E-02 0. -1.
       -1    1    3    3    0  502 -0.76517822393E+03  0.30459268648E+02  0.83182788624E+03  0.11306472101E+04  0.50400001928E-02 0.  1.
</event>
<event>
 5   0  0.1733962E-04  0.2244505E+04  0.7818609E-02  0.8500129E-01
       -2   -1    0    0    0  501  0.00000000000E+00  0.00000000000E+00  0.72943661855E+03  0.72943661855E+03  0.25500000920E-02 0.  1.
        2   -1    0    0  501    0  0.00000000000E+00  0.00000000000E+00 -0.17266071297E+04  0.17266071297E+04  0.25500000920E-02 0. -1.
    10030    2    1    2    0    0  0.00000000000E+00  0.00000000000E+00 -0.99717051116E+03  0.24560437483E+04  0.22445048151E+04 0.  0.
        3    1    3    3  502    0  0.74845653014E+03  0.34626063534E+03  0.33431381695E+03  0.88985917060E+03  0.10100000352E+00 0.  1.
       -3    1    3    3    0  502 -0.74845653014E+03 -0.34626063534E+03 -0.13314843281E+04  0.15661845777E+04  0.10100000352E+00 0. -1.
</event>
<event>
 5   0  0.8470971E-05  0.2215327E+04  0.7818609E-02  0.8512075E-01
        1   -1    0    0  501    0  0.00000000000E+00  0.00000000000E+00  0.18588918451E+04  0.18588918451E+04  0.50400001928E-02 0. -1.
       -1   -1    0    0    0  501  0.00000000000E+00  0.00000000000E+00 -0.66002702202E+03  0.66002702204E+03  0.50400001928E-02 0.  1.
    10030    2    1    2    0    0  0.00000000000E+00  0.00000000000E+00  0.11988648231E+04  0.25189188672E+04  0.22153273788E+04 0.  0.
        2    1    3    3  502    0  0.13199207274E+02 -0.89856591594E+03 -0.13686128982E+03  0.90902471750E+03  0.25500000920E-02 0.  1.
       -2    1    3    3    0  502 -0.13199207274E+02  0.89856591594E+03  0.13357261129E+04  0.16098941497E+04  0.25500000920E-02 0. -1.
</event>
<event>
 5   0  0.8784659E-05  0.2208965E+04  0.7818609E-02  0.8514706E-01
       -1   -1    0    0    0  501  0.00000000000E+00  0.00000000000E+00  0.92319139566E+03  0.92319139567E+03  0.50400001928E-02 0.  1.
        1   -1    0    0  501    0  0.00000000000E+00  0.00000000000E+00 -0.13213740892E+04  0.13213740892E+04  0.50400001928E-02 0. -1.
    10030    2    1    2    0    0  0.00000000000E+00  0.00000000000E+00 -0.39818269356E+03  0.22445654849E+04  0.22089646350E+04 0.  0.
        4    1    3    3  502    0 -0.58332287845E+03 -0.91349567833E+03  0.16793704982E+02  0.10839850443E+04  0.12699999809E+01 0.  1.
       -4    1    3    3    0  502  0.58332287845E+03  0.91349567833E+03 -0.41497639854E+03  0.11605804406E+04  0.12699999809E+01 0. -1.
</event>
<event>
 5   0  0.6250625E-05  0.1668842E+04  0.7818609E-02  0.8779337E-01
       -3   -1    0    0    0  501  0.00000000000E+00  0.00000000000E+00  0.72566229175E+03  0.72566229878E+03  0.10100000352E+00 0.  1.
        3   -1    0    0  501    0  0.00000000000E+00  0.00000000000E+00 -0.95947942585E+03  0.95947943117E+03  0.10100000352E+00 0. -1.
    10030    2    1    2    0    0  0.00000000000E+00  0.00000000000E+00 -0.23381713410E+03  0.16851417299E+04  0.16688415736E+04 0.  0.
        3    1    3    3  502    0 -0.46023532450E+03 -0.52762804264E+03  0.34145255485E+03  0.77897224772E+03  0.10100000352E+00 0.  1.
       -3    1    3    3    0  502  0.46023532450E+03  0.52762804264E+03 -0.57526968895E+03  0.90616948223E+03  0.10100000352E+00 0. -1.
</event>
<event>
 5   0  0.1798917E-04  0.2282665E+04  0.7818609E-02  0.8484787E-01
       -2   -1    0    0    0  501  0.00000000000E+00  0.00000000000E+00  0.78392166559E+03  0.78392166559E+03  0.25500000920E-02 0. -1.
        2   -1    0    0  501    0  0.00000000000E+00  0.00000000000E+00 -0.16616971373E+04  0.16616971373E+04  0.25500000920E-02 0.  1.
    10030    2    1    2    0    0  0.00000000000E+00  0.00000000000E+00 -0.87777547174E+03  0.24456188029E+04  0.22826654486E+04 0.  0.
        4    1    3    3  502    0  0.81295402366E+03 -0.68476125641E+03  0.65395932923E+01  0.10629377226E+04  0.12699999809E+01 0. -1.
       -4    1    3    3    0  502 -0.81295402366E+03  0.68476125641E+03 -0.88431506504E+03  0.13826810804E+04  0.12699999809E+01 0.  1.
</event>
<event>
 5   0  0.7954459E-05  0.2345056E+04  0.7818609E-02  0.8460365E-01
        1   -1    0    0  501    0  0.00000000000E+00  0.00000000000E+00  0.10264625809E+04  0.10264625810E+04  0.50400001928E-02 0. -1.
       -1   -1    0    0    0  501  0.00000000000E+00  0.00000000000E+00 -0.13393782049E+04  0.13393782049E+04  0.50400001928E-02 0.  1.
    10030    2    1    2    0    0  0.00000000000E+00  0.00000000000E+00 -0.31291562394E+03  0.23658407858E+04  0.23450557427E+04 0.  0.
        5    1    3    3  502    0 -0.37198986035E+03  0.86586652096E+03 -0.86027882330E+03  0.12760105925E+04  0.46999998093E+01 0. -1.
       -5    1    3    3    0  502  0.37198986035E+03 -0.86586652096E+03  0.54736319936E+03  0.10898301934E+04  0.46999998093E+01 0.  1.
</event>
<event>
 5   0  0.1805501E-04  0.2227673E+04  0.7818609E-02  0.8506997E-01
       -2   -1    0    0    0  501  0.00000000000E+00  0.00000000000E+00  0.11600753434E+04  0.11600753434E+04  0.25500000920E-02 0.  1.
        2   -1    0    0  501    0  0.00000000000E+00  0.00000000000E+00 -0.10694407192E+04  0.10694407192E+04  0.25500000920E-02 0. -1.
    10030    2    1    2    0    0  0.00000000000E+00  0.00000000000E+00  0.90634624159E+02  0.22295160626E+04  0.22276730546E+04 0.  0.
        2    1    3    3  502    0 -0.81898105510E+03 -0.72981194920E+03 -0.14791328729E+03  0.11069027917E+04  0.25500000920E-02 0.  1.
       -2    1    3    3    0  502  0.81898105510E+03  0.72981194920E+03  0.23854791144E+03  0.11226132708E+04  0.25500000920E-02 0. -1.
</event>
<event>
 5   0  0.8470971E-05  0.2122542E+04  0.7818609E-02  0.8551378E-01
       -1   -1    0    0    0  501  0.00000000000E+00  0.00000000000E+00  0.72540333428E+03  0.72540333430E+03  0.50400001928E-02 0. -1.
        1   -1    0    0  501    0  0.00000000000E+00  0.00000000000E+00 -0.15526477059E+04  0.15526477059E+04  0.50400001928E-02 0.  1.
    10030    2    1    2    0    0  0.00000000000E+00  0.00000000000E+00 -0.82724437158E+03  0.22780510402E+04  0.21225417054E+04 0.  0.
        2    1    3    3  502    0  0.90559361202E+03 -0.50096421701E+03 -0.66585304705E+03  0.12306198508E+04  0.25500000920E-02 0.  1.
       -2    1    3    3    0  502 -0.90559361202E+03  0.50096421701E+03 -0.16139132453E+03  0.10474311894E+04  0.25500000920E-02 0. -1.
</event>
<event>
 5   0  0.8306787E-05  0.2202525E+04  0.7818609E-02  0.8517378E-01
       -1   -1    0    0    0  501  0.00000000000E+00  0.00000000000E+00  0.90788367450E+03  0.90788367451E+03  0.50400001928E-02 0. -1.
        1   -1    0    0  501    0  0.00000000000E+00  0.00000000000E+00 -0.13358313363E+04  0.13358313363E+04  0.50400001928E-02 0.  1.
    10030    2    1    2    0    0  0.00000000000E+00  0.00000000000E+00 -0.42794766176E+03  0.22437150108E+04  0.22025253343E+04 0.  0.
        1    1    3    3  502    0 -0.19100488421E+03  0.85076028068E+03 -0.89923760209E+03  0.12525590549E+04  0.50400001928E-02 0.  1.
       -1    1    3    3    0  502  0.19100488421E+03 -0.85076028068E+03  0.47128994033E+03  0.99115595587E+03  0.50400001928E-02 0. -1.
</event>
<event>
 5   0  0.1805501E-04  0.2124940E+04  0.7818609E-02  0.8550336E-01
        2   -1    0    0  501    0  0.00000000000E+00  0.00000000000E+00  0.86628098827E+03  0.86628098828E+03  0.25500000920E-02 0. -1.
       -2   -1    0    0    0  501  0.00000000000E+00  0.00000000000E+00 -0.13030903438E+04  0.13030903438E+04  0.25500000920E-02 0.  1.
    10030    2    1    2    0    0  0.00000000000E+00  0.00000000000E+00 -0.43680935550E+03  0.21693713321E+04  0.21249398964E+04 0.  0.
        2    1    3    3  502    0  0.41058337837E+03  0.97845826888E+03 -0.16358748144E+03  0.10736480609E+04  0.25500000920E-02 0. -1.
       -2    1    3    3    0  502 -0.41058337837E+03 -0.97845826888E+03 -0.27322187406E+03  0.10957232712E+04  0.25500000920E-02 0.  1.
</event>
<event>
 5   0  0.1754356E-04  0.1502107E+04  0.7818609E-02  0.8883053E-01
       -2   -1    0    0    0  501  0.00000000000E+00  0.00000000000E+00  0.34118852900E+03  0.34118852901E+03  0.25500000920E-02 0. -1.
        2   -1    0    0  501    0  0.00000000000E+00  0.00000000000E+00 -0.16532828398E+04  0.16532828398E+04  0.25500000920E-02 0.  1.
    10030    2    1    2    0    0  0.00000000000E+00  0.00000000000E+00 -0.13120943108E+04  0.19944713688E+04  0.15021067074E+04 0.  0.
        1    1    3    3  502    0  0.68310652870E+03  0.22626309461E+03 -0.94160264090E+03  0.11850928448E+04  0.50400001928E-02 0.  1.
       -1    1    3    3    0  502 -0.68310652870E+03 -0.22626309461E+03 -0.37049166986E+03  0.80937852392E+03  0.50400001928E-02 0. -1.
</event>
<event>
 5   0  0.8470971E-05  0.2124018E+04  0.7818609E-02  0.8550737E-01
        1   -1    0    0  501    0  0.00000000000E+00  0.00000000000E+00  0.14122848923E+04  0.14122848923E+04  0.50400001928E-02 0.  1.
       -1   -1    0    0    0  501  0.00000000000E+00  0.00000000000E+00 -0.79860843847E+03  0.79860843849E+03  0.50400001928E-02 0. -1.
    10030    2    1    2    0    0  0.00000000000E+00  0.00000000000E+00  0.61367645384E+03  0.22108933308E+04  0.21240175447E+04 0.  0.
        2    1    3    3  502    0 -0.57490770379E+03  0.49433650189E+03  0.10808766370E+04  0.13202960840E+04  0.25500000920E-02 0.  1.
       -2    1    3    3    0  502  0.57490770379E+03 -0.49433650189E+03 -0.46720018312E+03  0.89059724685E+03  0.25500000920E-02 0. -1.
</event>
<event>
 5   0  0.8306787E-05  0.2190700E+04  0.7818609E-02  0.8522309E-01
        1   -1    0    0  501    0  0.00000000000E+00  0.00000000000E+00  0.87555730775E+03  0.87555730777E+03  0.50400001928E-02 0. -1.
       -1   -1    0    0    0  501  0.00000000000E+00  0.00000000000E+00 -0.13703175879E+04  0.13703175879E+04  0.50400001928E-02 0.  1.
    10030    2    1    2    0    0  0.00000000000E+00  0.00000000000E+00 -0.49476028015E+03  0.22458748957E+04  0.21906999594E+04 0.  0.
        1    1    3    3  502    0 -0.10780903951E+03  0.11257623492E+03 -0.13588894989E+04  0.13678000102E+04  0.50400001928E-02 0.  1.
       -1    1    3    3    0  502  0.10780903951E+03 -0.11257623492E+03  0.86412921878E+03  0.87807488544E+03  0.50400001928E-02 0. -1.
</event>
<event>
 5   0  0.8306787E-05  0.2213610E+04  0.7818609E-02  0.8512785E-01
       -1   -1    0    0    0  501  0.00000000000E+00  0.00000000000E+00  0.79186061585E+03  0.79186061586E+03  0.50400001928E-02 0. -1.
        1   -1    0    0  501    0  0.00000000000E+00  0.00000000000E+00 -0.15470106406E+04  0.15470106406E+04  0.50400001928E-02 0.  1.
    10030    2    1    2    0    0  0.00000000000E+00  0.00000000000E+00 -0.75515002472E+03  0.23388712564E+04  0.22136095397E+04 0.  0.
        1    1    3    3  502    0  0.84276574557E+03 -0.64670240566E+03 -0.49286254154E+02  0.10634412246E+04  0.50400001928E-02 0. -1.
       -1    1    3    3    0  502 -0.84276574557E+03  0.64670240566E+03 -0.70586377057E+03  0.12754300318E+04  0.50400001928E-02 0.  1.
</event>
<event>
 5   0  0.1798917E-04  0.2218723E+04  0.7818609E-02  0.8510675E-01
        2   -1    0    0  501    0  0.00000000000E+00  0.00000000000E+00  0.18975356840E+04  0.18975356840E+04  0.25500000920E-02 0.  1.
       -2   -1    0    0    0  501  0.00000000000E+00  0.00000000000E+00 -0.64856923514E+03  0.64856923514E+03  0.25500000920E-02 0. -1.
    10030    2    1    2    0    0  0.00000000000E+00  0.00000000000E+00  0.12489664488E+04  0.25461049191E+04  0.22187232970E+04 0.  0.
        4    1    3    3  502    0 -0.66074042613E+03  0.20682635788E+03  0.16191727283E+04  0.17609875042E+04  0.12699999809E+01 0.  1.
       -4    1    3    3    0  502  0.66074042613E+03 -0.20682635788E+03 -0.37020627942E+03  0.78511741495E+03  0.12699999809E+01 0. -1.
</event>
<event>
 5   0  0.8602414E-05  0.2085322E+04  0.7818609E-02  0.8567737E-01
       -1   -1    0    0    0  501  0.00000000000E+00  0.00000000000E+00  0.32232695973E+04  0.32232695973E+04  0.50400001928E-02 0. -1.
        1   -1    0    0  501    0  0.00000000000E+00  0.00000000000E+00 -0.33727936227E+03  0.33727936231E+03  0.50400001928E-02 0.  1.
    10030    2    1    2    0    0  0.00000000000E+00  0.00000000000E+00  0.28859902351E+04  0.35605489597E+04  0.20853223389E+04 0.  0.
        3    1    3    3  502    0  0.13359349499E+03 -0.22910990342E+03  0.31647143573E+04  0.31758078568E+04  0.10100000352E+00 0. -1.
       -3    1    3    3    0  502 -0.13359349499E+03  0.22910990342E+03 -0.27872412220E+03  0.38474110288E+03  0.10100000352E+00 0.  1.
</event>
<event>
 5   0  0.8306787E-05  0.2070648E+04  0.7818609E-02  0.8574285E-01
       -1   -1    0    0    0  501  0.00000000000E+00  0.00000000000E+00  0.16391354781E+04  0.16391354781E+04  0.50400001928E-02 0. -1.
        1   -1    0    0  501    0  0.00000000000E+00  0.00000000000E+00 -0.65393955775E+03  0.65393955777E+03  0.50400001928E-02 0.  1.
    10030    2    1    2    0    0  0.00000000000E+00  0.00000000000E+00  0.98519592038E+03  0.22930750359E+04  0.20706477534E+04 0.  0.
        1    1    3    3  502    0 -0.47421531307E+03 -0.19589211612E+03 -0.50324324617E+03  0.71868466600E+03  0.50400001928E-02 0.  1.
       -1    1    3    3    0  502  0.47421531307E+03  0.19589211612E+03  0.14884391666E+04  0.15743903699E+04  0.50400001928E-02 0. -1.
</event>
<event>
 5   0  0.8306787E-05  0.1600181E+04  0.7818609E-02  0.8820437E-01
       -1   -1    0    0    0  501  0.00000000000E+00  0.00000000000E+00  0.63171633403E+03  0.63171633405E+03  0.50400001928E-02 0. -1.
        1   -1    0    0  501    0  0.00000000000E+00  0.00000000000E+00 -0.10133425635E+04  0.10133425635E+04  0.50400001928E-02 0.  1.
    10030    2    1    2    0    0  0.00000000000E+00  0.00000000000E+00 -0.38162622946E+03  0.16450588976E+04  0.16001813014E+04 0.  0.
        1    1    3    3  502    0  0.14714237322E+03 -0.24604734238E+03 -0.95872572447E+03  0.10006723677E+04  0.50400001928E-02 0.  1.
       -1    1    3    3    0  502 -0.14714237322E+03  0.24604734238E+03  0.57709949501E+03  0.64438652985E+03  0.50400001928E-02 0. -1.
</event>
<event>
 5   0  0.1798917E-04  0.2146476E+04  0.7818609E-02  0.8541042E-01
        2   -1    0    0  501    0  0.00000000000E+00  0.00000000000E+00  0.13551959506E+04  0.13551959506E+04  0.25500000920E-02 0.  1.
       -2   -1    0    0    0  501  0.00000000000E+00  0.00000000000E+00 -0.84994361602E+03  0.84994361603E+03  0.25500000920E-02 0. -1.
    10030    2    1    2    0    0  0.00000000000E+00  0.00000000000E+00  0.50525233458E+03  0.22051395666E+04  0.21464763187E+04 0.  0.
        4    1    3    3  502    0  0.10492541672E+03 -0.21598447831E+03  0.13272447490E+04  0.13487916349E+04  0.12699999809E+01 0.  1.
       -4    1    3    3    0  502 -0.10492541672E+03  0.21598447831E+03 -0.82199241437E+03  0.85634793170E+03  0.12699999809E+01 0. -1.
</event>
<event>
 5   0  0.1733962E-04  0.2133926E+04  0.7818609E-02  0.8546444E-01
        2   -1    0    0  501    0  0.00000000000E+00  0.00000000000E+00  0.13902864725E+04  0.13902864725E+04  0.25500000920E-02 0.  1.
       -2   -1    0    0    0  501  0.00000000000E+00  0.00000000000E+00 -0.81883114255E+03  0.81883114255E+03  0.25500000920E-02 0. -1.
    10030    2    1    2    0    0  0.00000000000E+00  0.00000000000E+00  0.57145532998E+03  0.22091176151E+04  0.21339258289E+04 0.  0.
        3    1    3    3  502    0 -0.62145465202E+03 -0.21898574867E+03  0.11544934371E+04  0.13292914463E+04  0.10100000352E+00 0.  1.
       -3    1    3    3    0  502  0.62145465202E+03  0.21898574867E+03 -0.58303810717E+03  0.87982616876E+03  0.10100000352E+00 0. -1.
</event>
<event>
 5   0  0.1680258E-04  0.1205625E+04  0.7818609E-02  0.9107947E-01
        2   -1    0    0  501    0  0.00000000000E+00  0.00000000000E+00  0.45314309552E+03  0.45314309553E+03  0.25500000920E-02 0.  1.
       -2   -1    0    0    0  501  0.00000000000E+00  0.00000000000E+00 -0.80191640848E+03  0.80191640848E+03  0.25500000920E-02 0. -1.
    10030    2    1    2    0    0  0.00000000000E+00  0.00000000000E+00 -0.34877331295E+03  0.12550595040E+04  0.12056249561E+04 0.  0.
        5    1    3    3  502    0  0.76245633114E+02 -0.20678737058E+02 -0.79648499940E+03  0.80040705332E+03  0.46999998093E+01 0. -1.
       -5    1    3    3    0  502 -0.76245633114E+02  0.20678737058E+02  0.44771168645E+03  0.45465245069E+03  0.46999998093E+01 0.  1.
</event>
<event>
 5   0  0.1733962E-04  0.1087941E+04  0.7818609E-02  0.9217026E-01
        2   -1    0    0  501    0  0.00000000000E+00  0.00000000000E+00  0.55967371423E+03  0.55967371423E+03  0.25500000920E-02 0. -1.
       -2   -1    0    0    0  501  0.00000000000E+00  0.00000000000E+00 -0.52870742528E+03  0.52870742528E+03  0.25500000920E-02 0.  1.
    10030    2    1    2    0    0  0.00000000000E+00  0.00000000000E+00  0.30966288949E+02  0.10883811395E+04  0.10879405286E+04 0.  0.
        3    1    3    3  502    0  0.50980666031E+03  0.70086399102E+02  0.19187444436E+03  0.54920920134E+03  0.10100000352E+00 0. -1.
       -3    1    3    3    0  502 -0.50980666031E+03 -0.70086399102E+02 -0.16090815541E+03  0.53917193817E+03  0.10100000352E+00 0.  1.
</event>
<event>
 5   0  0.7954459E-05  0.2104712E+04  0.7818609E-02  0.8559170E-01
        1   -1    0    0  501    0  0.00000000000E+00  0.00000000000E+00  0.13883873363E+04  0.13883873363E+04  0.50400001928E-02 0. -1.
       -1   -1    0    0    0  501  0.00000000000E+00  0.00000000000E+00 -0.79765468289E+03  0.79765468291E+03  0.50400001928E-02 0.  1.
    10030    2    1    2    0    0  0.00000000000E+00  0.00000000000E+00  0.59073265340E+03  0.21860420192E+04  0.21047124844E+04 0.  0.
        5    1    3    3  502    0 -0.54704776992E+02  0.30415322475E+03 -0.74945232172E+03  0.81068037430E+03  0.46999998093E+01 0.  1.
       -5    1    3    3    0  502  0.54704776992E+02 -0.30415322475E+03  0.13401849751E+04  0.13753616449E+04  0.46999998093E+01 0. -1.
</event>
<event>
 5   0  0.1680258E-04  0.2177240E+04  0.7818609E-02  0.8527961E-01
       -2   -1    0    0    0  501  0.00000000000E+00  0.00000000000E+00  0.15149326213E+04  0.15149326213E+04  0.25500000920E-02 0. -1.
        2   -1    0    0  501    0  0.00000000000E+00  0.00000000000E+00 -0.78227502997E+03  0.78227502997E+03  0.25500000920E-02 0.  1.
    10030    2    1    2    0    0  0.00000000000E+00  0.00000000000E+00  0.73265759136E+03  0.22972076513E+04  0.21772404201E+04 0.  0.
        5    1    3    3  502    0 -0.78147259373E+03  0.13579236053E+03 -0.42036377844E+03  0.89770082776E+03  0.46999998093E+01 0.  1.
       -5    1    3    3    0  502  0.78147259373E+03 -0.13579236053E+03  0.11530213698E+04  0.13995068235E+04  0.46999998093E+01 0. -1.
</event>
<event>
 5   0  0.1805501E-04  0.1621010E+04  0.7818609E-02  0.8807744E-01
        2   -1    0    0  501    0  0.00000000000E+00  0.00000000000E+00  0.80938371449E+03  0.80938371450E+03  0.25500000920E-02 0.  1.
       -2   -1    0    0    0  501  0.00000000000E+00  0.00000000000E+00 -0.81162805874E+03  0.81162805874E+03  0.25500000920E-02 0. -1.
    10030    2    1    2    0    0  0.00000000000E+00  0.00000000000E+00 -0.22443442455E+01  0.16210117732E+04  0.16210102196E+04 0.  0.
        2    1    3    3  502    0  0.30877290566E+02  0.76103723219E+03 -0.27822793587E+03  0.81088954868E+03  0.25500000920E-02 0.  1.
       -2    1    3    3    0  502 -0.30877290566E+02 -0.76103723219E+03  0.27598359163E+03  0.81012222455E+03  0.25500000920E-02 0. -1.
</event>
<event>
 5   0  0.1680258E-04  0.1159585E+04  0.7818609E-02  0.9148986E-01
        2   -1    0    0  501    0  0.00000000000E+00  0.00000000000E+00  0.52699351641E+03  0.52699351641E+03  0.25500000920E-02 0. -1.
       -2   -1    0    0    0  501  0.00000000000E+00  0.00000000000E+00 -0.63788161531E+03  0.63788161532E+03  0.25500000920E-02 0.  1.
    10030    2    1    2    0    0  0.00000000000E+00  0.00000000000E+00 -0.11088809891E+03  0.11648751317E+04  0.11595852285E+04 0.  0.
        5    1    3    3  502    0 -0.24673975559E+03  0.35304808174E+03 -0.44530458100E+03  0.61954960647E+03  0.46999998093E+01 0.  1.
       -5    1    3    3    0  502  0.24673975559E+03 -0.35304808174E+03  0.33441648210E+03  0.54532552527E+03  0.46999998093E+01 0. -1.
</event>
<event>
 5   0  0.8306787E-05  0.2224587E+04  0.7818609E-02  0.8508264E-01
        1   -1    0    0  501    0  0.00000000000E+00  0.00000000000E+00  0.97030394326E+03  0.97030394328E+03  0.50400001928E-02 0. -1.
       -1   -1    0    0    0  501  0.00000000000E+00  0.00000000000E+00 -0.12750610468E+04  0.12750610468E+04  0.50400001928E-02 0.  1.
    10030    2    1    2    0    0  0.00000000000E+00  0.00000000000E+00 -0.30475710352E+03  0.22453649901E+04  0.22245869384E+04 0.  0.
        1    1    3    3  502    0 -0.53245265811E+03 -0.34966534605E+03  0.76796319649E+03  0.99776708632E+03  0.50400001928E-02 0. -1.
       -1    1    3    3    0  502  0.53245265811E+03  0.34966534605E+03 -0.10727203000E+04  0.12475979038E+04  0.50400001928E-02 0.  1.
</event>
<event>
 5   0  0.1805501E-04  0.1994756E+04  0.7818609E-02  0.8609077E-01
        2   -1    0    0  501    0  0.00000000000E+00  0.00000000000E+00  0.30035081752E+04  0.30035081752E+04  0.25500000920E-02 0.  1.
       -2   -1    0    0    0  501  0.00000000000E+00  0.00000000000E+00 -0.33120019630E+03  0.33120019631E+03  0.25500000920E-02 0. -1.
    10030    2    1    2    0    0  0.00000000000E+00  0.00000000000E+00  0.26723079789E+04  0.33347083715E+04  0.19947556213E+04 0.  0.
        2    1    3    3  502    0 -0.54262650737E+03  0.72574949413E+03  0.63960553782E+03  0.11091668489E+04  0.25500000920E-02 0. -1.
       -2    1    3    3    0  502  0.54262650737E+03 -0.72574949413E+03  0.20327024410E+04  0.22255415225E+04  0.25500000920E-02 0.  1.
</event>
<event>
 5   0  0.7954459E-05  0.2188766E+04  0.7818609E-02  0.8523119E-01
        1   -1    0    0  501    0  0.00000000000E+00  0.00000000000E+00  0.11639752357E+04  0.11639752357E+04  0.50400001928E-02 0.  1.
       -1   -1    0    0    0  501  0.00000000000E+00  0.00000000000E+00 -0.10289513600E+04  0.10289513600E+04  0.50400001928E-02 0. -1.
    10030    2    1    2    0    0  0.00000000000E+00  0.00000000000E+00  0.13502387569E+03  0.21929265957E+04  0.21887657726E+04 0.  0.
        5    1    3    3  502    0 -0.46982588509E+03 -0.57042756848E+03  0.87621910960E+03  0.11462573844E+04  0.46999998093E+01 0.  1.
       -5    1    3    3    0  502  0.46982588509E+03  0.57042756848E+03 -0.74119523390E+03  0.10466692113E+04  0.46999998093E+01 0. -1.
</event>
<event>
 5   0  0.8602414E-05  0.1372127E+04  0.7818609E-02  0.8974245E-01
        1   -1    0    0  501    0  0.00000000000E+00  0.00000000000E+00  0.59978571170E+03  0.59978571172E+03  0.50400001928E-02 0.  1.
       -1   -1    0    0    0  501  0.00000000000E+00  0.00000000000E+00 -0.78475241322E+03  0.78475241323E+03  0.50400001928E-02 0. -1.
    10030    2    1    2    0    0  0.00000000000E+00  0.00000000000E+00 -0.18496670152E+03  0.13845381250E+04  0.13721272313E+04 0.  0.
        3    1    3    3  502    0  0.13814607567E+03 -0.53898293703E+03  0.31251509710E+03  0.63816349061E+03  0.10100000352E+00 0.  1.
       -3    1    3    3    0  502 -0.13814607567E+03  0.53898293703E+03 -0.49748179862E+03  0.74637463434E+03  0.10100000352E+00 0. -1.
</event>
<event>
 5   0  0.1798917E-04  0.2150290E+04  0.7818609E-02  0.8539408E-01
        2   -1    0    0  501    0  0.00000000000E+00  0.00000000000E+00  0.15915930429E+04  0.15915930429E+04  0.25500000920E-02 0. -1.
       -2   -1    0    0    0  501  0.00000000000E+00  0.00000000000E+00 -0.72627650906E+03  0.72627650907E+03  0.25500000920E-02 0.  1.
    10030    2    1    2    0    0  0.00000000000E+00  0.00000000000E+00  0.86531653385E+03  0.23178695520E+04  0.21502898773E+04 0.  0.
        4    1    3    3  502    0 -0.10562485150E+04 -0.14872968330E+03  0.57789388764E+03  0.12131547315E+04  0.12699999809E+01 0.  1.
       -4    1    3    3    0  502  0.10562485150E+04  0.14872968330E+03  0.28742264622E+03  0.11047148205E+04  0.12699999809E+01 0. -1.
</event>
<event>
 5   0  0.7954459E-05  0.2194970E+04  0.7818609E-02  0.8520525E-01
       -1   -1    0    0    0  501  0.00000000000E+00  0.00000000000E+00  0.77935355108E+03  0.77935355110E+03  0.50400001928E-02 0.  1.
        1   -1    0    0  501    0  0.00000000000E+00  0.00000000000E+00 -0.15454775113E+04  0.15454775113E+04  0.50400001928E-02 0. -1.
    10030    2    1    2    0    0  0.00000000000E+00  0.00000000000E+00 -0.76612396026E+03  0.23248310624E+04  0.21949700559E+04 0.  0.
        5    1    3    3  502    0  0.22594087627E+03 -0.78554808341E+03  0.39260136332E+03  0.90680372264E+03  0.46999998093E+01 0.  1.
       -5    1    3    3    0  502 -0.22594087627E+03  0.78554808341E+03 -0.11587253236E+04  0.14180273398E+04  0.46999998093E+01 0. -1.
</event>
<event>
 5   0  0.8306787E-05  0.2152587E+04  0.7818609E-02  0.8538426E-01
       -1   -1    0    0    0  501  0.00000000000E+00  0.00000000000E+00  0.16656945892E+04  0.16656945892E+04  0.50400001928E-02 0. -1.
        1   -1    0    0  501    0  0.00000000000E+00  0.00000000000E+00 -0.69545021850E+03  0.69545021852E+03  0.50400001928E-02 0.  1.
    10030    2    1    2    0    0  0.00000000000E+00  0.00000000000E+00  0.97024437071E+03  0.23611448077E+04  0.21525869702E+04 0.  0.
        1    1    3    3  502    0 -0.58902741375E+03  0.46609829191E+03 -0.36041109816E+03  0.83312488354E+03  0.50400001928E-02 0.  1.
       -1    1    3    3    0  502  0.58902741375E+03 -0.46609829191E+03  0.13306554689E+04  0.15280199242E+04  0.50400001928E-02 0. -1.
</event>
<event>
 5   0  0.7954459E-05  0.2210062E+04  0.7818609E-02  0.8514252E-01
        1   -1    0    0  501    0  0.00000000000E+00  0.00000000000E+00  0.23717314405E+04  0.23717314406E+04  0.50400001928E-02 0. -1.
       -1   -1    0    0    0  501  0.00000000000E+00  0.00000000000E+00 -0.51485296906E+03  0.51485296908E+03  0.50400001928E-02 0.  1.
    10030    2    1    2    0    0  0.00000000000E+00  0.00000000000E+00  0.18568784715E+04  0.28865844096E+04  0.22100615141E+04 0.  0.
        5    1    3    3  502    0  0.37051312274E+03 -0.84384891008E+03  0.13212958419E+03  0.93104311081E+03  0.46999998093E+01 0.  1.
       -5    1    3    3    0  502 -0.37051312274E+03  0.84384891008E+03  0.17247488873E+04  0.19555412988E+04  0.46999998093E+01 0. -1.
</event>
<event>
 5   0  0.1680258E-04  0.2089310E+04  0.7818609E-02  0.8565967E-01
       -2   -1    0    0    0  501  0.00000000000E+00  0.00000000000E+00  0.12299857751E+04  0.12299857751E+04  0.25500000920E-02 0. -1.
        2   -1    0    0  501    0  0.00000000000E+00  0.00000000000E+00 -0.88724898609E+03  0.88724898609E+03  0.25500000920E-02 0.  1.
    10030    2    1    2    0    0  0.00000000000E+00  0.00000000000E+00  0.34273678898E+03  0.21172347612E+04  0.20893095815E+04 0.  0.
        5    1    3    3  502    0 -0.26348381078E+03  0.16281453102E+03  0.11823749391E+04  0.12222785593E+04  0.46999998093E+01 0. -1.
       -5    1    3    3    0  502  0.26348381078E+03 -0.16281453102E+03 -0.83963815011E+03  0.89495620181E+03  0.46999998093E+01 0.  1.
</event>
<event>
 5   0  0.8306787E-05  0.2360563E+04  0.7818609E-02  0.8454417E-01
        1   -1    0    0  501    0  0.00000000000E+00  0.00000000000E+00  0.12546531985E+04  0.12546531985E+04  0.50400001928E-02 0. -1.
       -1   -1    0    0    0  501  0.00000000000E+00  0.00000000000E+00 -0.11103185913E+04  0.11103185913E+04  0.50400001928E-02 0.  1.
    10030    2    1    2    0    0  0.00000000000E+00  0.00000000000E+00  0.14433460717E+03  0.23649717898E+04  0.23605632988E+04 0.  0.
        1    1    3    3  502    0  0.80588985182E+03  0.85910564825E+03  0.14676308023E+03  0.11870384871E+04  0.50400001928E-02 0. -1.
       -1    1    3    3    0  502 -0.80588985182E+03 -0.85910564825E+03 -0.24284730690E+01  0.11779333027E+04  0.50400001928E-02 0.  1.
</event>
<event>
 5   0  0.6250625E-05  0.2211571E+04  0.7818609E-02  0.8513628E-01
        3   -1    0    0  501    0  0.00000000000E+00  0.00000000000E+00  0.74075275718E+03  0.74075276406E+03  0.10100000352E+00 0.  1.
       -3   -1    0    0    0  501  0.00000000000E+00  0.00000000000E+00 -0.16507006874E+04  0.16507006904E+04  0.10100000352E+00 0. -1.
    10030    2    1    2    0    0  0.00000000000E+00  0.00000000000E+00 -0.90994793017E+03  0.23914534545E+04  0.22115705708E+04 0.  0.
        4    1    3    3  502    0 -0.49402816950E+03 -0.96960903300E+03 -0.24265161485E+03  0.11149380827E+04  0.12699999809E+01 0. -1.
       -4    1    3    3    0  502  0.49402816950E+03  0.96960903300E+03 -0.66729631533E+03  0.12765153718E+04  0.12699999809E+01 0.  1.
</event>
<event>
 5   0  0.1680258E-04  0.2128469E+04  0.7818609E-02  0.8548805E-01
       -2   -1    0    0    0  501  0.00000000000E+00  0.00000000000E+00  0.55607497300E+03  0.55607497300E+03  0.25500000920E-02 0. -1.
        2   -1    0    0  501    0  0.00000000000E+00  0.00000000000E+00 -0.20367660178E+04  0.20367660178E+04  0.25500000920E-02 0.  1.
    10030    2    1    2    0    0  0.00000000000E+00  0.00000000000E+00 -0.14806910448E+04  0.25928409908E+04  0.21284685653E+04 0.  0.
        5    1    3    3  502    0  0.54612945276E+03  0.73019700366E+03 -0.71872577696E+02  0.91467633661E+03  0.46999998093E+01 0. -1.
       -5    1    3    3    0  502 -0.54612945276E+03 -0.73019700366E+03 -0.14088184671E+04  0.16781646542E+04  0.46999998093E+01 0.  1.
</event>
<event>
 5   0  0.7954459E-05  0.2170415E+04  0.7818609E-02  0.8530844E-01
        1   -1    0    0  501    0  0.00000000000E+00  0.00000000000E+00  0.13670410346E+04  0.13670410346E+04  0.50400001928E-02 0. -1.
       -1   -1    0    0    0  501  0.00000000000E+00  0.00000000000E+00 -0.86147736684E+03  0.86147736685E+03  0.50400001928E-02 0.  1.
    10030    2    1    2    0    0  0.00000000000E+00  0.00000000000E+00  0.50556366775E+03  0.22285184015E+04  0.21704146248E+04 0.  0.
        5    1    3    3  502    0 -0.33882397537E+03  0.42157961075E+03  0.12187771659E+04  0.13334057614E+04  0.46999998093E+01 0. -1.
       -5    1    3    3    0  502  0.33882397537E+03 -0.42157961075E+03 -0.71321349812E+03  0.89511264005E+03  0.46999998093E+01 0.  1.
</event>
<event>
 5   0  0.1798917E-04  0.2103297E+04  0.7818609E-02  0.8559793E-01
       -2   -1    0    0    0  501  0.00000000000E+00  0.00000000000E+00  0.10195600295E+04  0.10195600295E+04  0.25500000920E-02 0. -1.
        2   -1    0    0  501    0  0.00000000000E+00  0.00000000000E+00 -0.10847465414E+04  0.10847465414E+04  0.25500000920E-02 0.  1.
    10030    2    1    2    0    0  0.00000000000E+00  0.00000000000E+00 -0.65186511964E+02  0.21043065709E+04  0.21032966655E+04 0.  0.
        4    1    3    3  502    0  0.51269976739E+03  0.32290550171E+03 -0.89256027038E+03  0.10787930588E+04  0.12699999809E+01 0.  1.
       -4    1    3    3    0  502 -0.51269976739E+03 -0.32290550171E+03  0.82737375842E+03  0.10255135121E+04  0.12699999809E+01 0. -1.
</event>
<event>
 5   0  0.8784659E-05  0.2181612E+04  0.7818609E-02  0.8526121E-01
        1   -1    0    0  501    0  0.00000000000E+00  0.00000000000E+00  0.17498754315E+04  0.17498754315E+04  0.50400001928E-02 0. -1.
       -1   -1    0    0    0  501  0.00000000000E+00  0.00000000000E+00 -0.67996698631E+03  0.67996698633E+03  0.50400001928E-02 0.  1.
    10030    2    1    2    0    0  0.00000000000E+00  0.00000000000E+00  0.10699084452E+04  0.24298424178E+04  0.21816118111E+04 0.  0.
        4    1    3    3  502    0 -0.76359290409E+03  0.74031221711E+03  0.80484758850E+03  0.13337606815E+04  0.12699999809E+01 0. -1.
       -4    1    3    3    0  502  0.76359290409E+03 -0.74031221711E+03  0.26506085668E+03  0.10960817363E+04  0.12699999809E+01 0.  1.
</event>
<event>
 5   0  0.8470971E-05  0.2031837E+04  0.7818609E-02  0.8591879E-01
        1   -1    0    0  501    0  0.00000000000E+00  0.00000000000E+00  0.55710653301E+03  0.55710653303E+03  0.50400001928E-02 0.  1.
       -1   -1    0    0    0  501  0.00000000000E+00  0.00000000000E+00 -0.18525902240E+04  0.18525902240E+04  0.50400001928E-02 0. -1.
    10030    2    1    2    0    0  0.00000000000E+00  0.00000000000E+00 -0.12954836910E+04  0.24096967570E+04  0.20318367226E+04 0.  0.
        2    1    3    3  502    0  0.51216742861E+03  0.29227608267E+03  0.33335642954E+03  0.67739744061E+03  0.25500000920E-02 0.  1.
       -2    1    3    3    0  502 -0.51216742861E+03 -0.29227608267E+03 -0.16288401205E+04  0.17322993164E+04  0.25500000920E-02 0. -1.
</event>
<event>
 5   0  0.8602414E-05  0.2121408E+04  0.7818609E-02  0.8551871E-01
        1   -1    0    0  501    0  0.00000000000E+00  0.00000000000E+00  0.94125622840E+03  0.94125622842E+03  0.50400001928E-02 0. -1.
       -1   -1    0    0    0  501  0.00000000000E+00  0.00000000000E+00 -0.11953095342E+04  0.11953095342E+04  0.50400001928E-02 0.  1.
    10030    2    1    2    0    0  0.00000000000E+00  0.00000000000E+00 -0.25405330582E+03  0.21365657627E+04  0.21214075931E+04 0.  0.
        3    1    3    3  502    0  0.36501915323E+03 -0.80322713933E+03 -0.72002892959E+03  0.11387951920E+04  0.10100000352E+00 0.  1.
       -3    1    3    3    0  502 -0.36501915323E+03  0.80322713933E+03  0.46597562377E+03  0.99777057069E+03  0.10100000352E+00 0. -1.
</event>
<event>
 5   0  0.1733962E-04  0.2119673E+04  0.7818609E-02  0.8552626E-01
       -2   -1    0    0    0  501  0.00000000000E+00  0.00000000000E+00  0.77158401889E+03  0.77158401890E+03  0.25500000920E-02 0.  1.
        2   -1    0    0  501    0  0.00000000000E+00  0.00000000000E+00 -0.14557760369E+04  0.14557760369E+04  0.25500000920E-02 0. -1.
    10030    2    1    2    0    0  0.00000000000E+00  0.00000000000E+00 -0.68419201801E+03  0.22273600558E+04  0.21196731117E+04 0.  0.
        3    1    3    3  502    0 -0.90771043614E+03 -0.54520592566E+03 -0.29433611767E+03  0.10990093255E+04  0.10100000352E+00 0.  1.
       -3    1    3    3    0  502  0.90771043614E+03  0.54520592566E+03 -0.38985590034E+03  0.11283507303E+04  0.10100000352E+00 0. -1.
</event>
<event>
 5   0  0.8470971E-05  0.2155956E+04  0.7818609E-02  0.8536987E-01
        1   -1    0    0  501    0  0.00000000000E+00  0.00000000000E+00  0.11382211248E+04  0.11382211248E+04  0.50400001928E-02 0. -1.
       -1   -1    0    0    0  501  0.00000000000E+00  0.00000000000E+00 -0.10209236428E+04  0.10209236428E+04  0.50400001928E-02 0.  1.
    10030    2    1    2    0    0  0.00000000000E+00  0.00000000000E+00  0.11729748202E+03  0.21591447677E+04  0.21559562678E+04 0.  0.
        2    1    3    3  502    0 -0.75056609078E+03 -0.45263395745E+03  0.68711957872E+03  0.11137146275E+04  0.25500000920E-02 0. -1.
       -2    1    3    3    0  502  0.75056609078E+03  0.45263395745E+03 -0.56982209670E+03  0.10454301402E+04  0.25500000920E-02 0.  1.
</event>
<event>
 5   0  0.8470971E-05  0.2029391E+04  0.7818609E-02  0.8593001E-01
       -1   -1    0    0    0  501  0.00000000000E+00  0.00000000000E+00  0.50241526419E+03  0.50241526422E+03  0.50400001928E-02 0. -1.
        1   -1    0    0  501    0  0.00000000000E+00  0.00000000000E+00 -0.20493148855E+04  0.20493148855E+04  0.50400001928E-02 0.  1.
    10030    2    1    2    0    0  0.00000000000E+00  0.00000000000E+00 -0.15468996213E+04  0.25517301497E+04  0.20293911202E+04 0.  0.
        2    1    3    3  502    0  0.19075613110E+03  0.15476330810E+03 -0.20113647781E+04  0.20263089235E+04  0.25500000920E-02 0.  1.
       -2    1    3    3    0  502 -0.19075613110E+03 -0.15476330810E+03  0.46446515677E+03  0.52542122620E+03  0.25500000920E-02 0. -1.
</event>
<event>
 5   0  0.1680258E-04  0.2216663E+04  0.7818609E-02  0.8511524E-01
       -2   -1    0    0    0  501  0.00000000000E+00  0.00000000000E+00  0.73722621081E+03  0.73722621081E+03  0.25500000920E-02 0. -1.
        2   -1    0    0  501    0  0.00000000000E+00  0.00000000000E+00 -0.16662439896E+04  0.16662439896E+04  0.25500000920E-02 0.  1.
    10030    2    1    2    0    0  0.00000000000E+00  0.00000000000E+00 -0.92901777880E+03  0.24034702004E+04  0.22166630260E+04 0.  0.
        5    1    3    3  502    0  0.49351684605E+03 -0.62816201725E+03 -0.12975180906E+04  0.15237196864E+04  0.46999998093E+01 0.  1.
       -5    1    3    3    0  502 -0.49351684605E+03  0.62816201725E+03  0.36850031176E+03  0.87975051407E+03  0.46999998093E+01 0. -1.
</event>
<event>
 5   0  0.1798917E-04  0.2280159E+04  0.7818609E-02  0.8485785E-01
        2   -1    0    0  501    0  0.00000000000E+00  0.00000000000E+00  0.19379759413E+04  0.19379759413E+04  0.25500000920E-02 0. -1.
       -2   -1    0    0    0  501  0.00000000000E+00  0.00000000000E+00 -0.67069032325E+03  0.67069032326E+03  0.25500000920E-02 0.  1.
    10030    2    1    2    0    0  0.00000000000E+00  0.00000000000E+00  0.12672856181E+04  0.26086662646E+04  0.22801593897E+04 0.  0.
        4    1    3    3  502    0  0.29000681260E+03  0.16949992520E+03 -0.61278974045E+03  0.69881832754E+03  0.12699999809E+01 0.  1.
       -4    1    3    3    0  502 -0.29000681260E+03 -0.16949992520E+03  0.18800753585E+04  0.19098479371E+04  0.12699999809E+01 0. -1.
</event>
<event>
 5   0  0.8470971E-05  0.2159095E+04  0.7818609E-02  0.8535649E-01
        1   -1    0    0  501    0  0.00000000000E+00  0.00000000000E+00  0.17898985313E+04  0.17898985313E+04  0.50400001928E-02 0. -1.
       -1   -1    0    0    0  501  0.00000000000E+00  0.00000000000E+00 -0.65111130072E+03  0.65111130074E+03  0.50400001928E-02 0.  1.
    10030    2    1    2    0    0  0.00000000000E+00  0.00000000000E+00  0.11387872306E+04  0.24410098321E+04  0.21590953299E+04 0.  0.
        2    1    3    3  502    0 -0.50283451627E+03 -0.60190079441E+03  0.14080728804E+04  0.16117680831E+04  0.25500000920E-02 0. -1.
       -2    1    3    3    0  502  0.50283451627E+03  0.60190079441E+03 -0.26928564981E+03  0.82924174899E+03  0.25500000920E-02 0.  1.
</event>
<event>
 5   0  0.8602414E-05  0.2210968E+04  0.7818609E-02  0.8513877E-01
       -1   -1    0    0    0  501  0.00000000000E+00  0.00000000000E+00  0.65739192154E+03  0.65739192156E+03  0.50400001928E-02 0.  1.
        1   -1    0    0  501    0  0.00000000000E+00  0.00000000000E+00 -0.18590054311E+04  0.18590054312E+04  0.50400001928E-02 0. -1.
    10030    2    1    2    0    0  0.00000000000E+00  0.00000000000E+00 -0.12016135096E+04  0.25163973527E+04  0.22109682518E+04 0.  0.
        3    1    3    3  502    0  0.32242587923E+03  0.86247610150E+03 -0.12970968065E+04  0.15906865213E+04  0.10100000352E+00 0. -1.
       -3    1    3    3    0  502 -0.32242587923E+03 -0.86247610150E+03  0.95483296927E+02  0.92571083144E+03  0.10100000352E+00 0.  1.
</event>
<event>
 5   0  0.7954459E-05  0.2123561E+04  0.7818609E-02  0.8550935E-01
        1   -1    0    0  501    0  0.00000000000E+00  0.00000000000E+00  0.98981296406E+03  0.98981296408E+03  0.50400001928E-02 0. -1.
       -1   -1    0    0    0  501  0.00000000000E+00  0.00000000000E+00 -0.11389804172E+04  0.11389804172E+04  0.50400001928E-02 0.  1.
    10030    2    1    2    0    0  0.00000000000E+00  0.00000000000E+00 -0.14916745311E+03  0.21287933813E+04  0.21235607670E+04 0.  0.
        5    1    3    3  502    0  0.30426729773E+03 -0.59030262400E+03  0.75590177653E+03  0.10062034397E+04  0.46999998093E+01 0. -1.
       -5    1    3    3    0  502 -0.30426729773E+03  0.59030262400E+03 -0.90506922964E+03  0.11225899415E+04  0.46999998093E+01 0.  1.
</event>
<event>
 5   0  0.1805501E-04  0.1983163E+04  0.7818609E-02  0.8614533E-01
       -2   -1    0    0    0  501  0.00000000000E+00  0.00000000000E+00  0.33106032417E+03  0.33106032418E+03  0.25500000920E-02 0.  1.
        2   -1    0    0  501    0  0.00000000000E+00  0.00000000000E+00 -0.29699551849E+04  0.29699551849E+04  0.25500000920E-02 0. -1.
    10030    2    1    2    0    0  0.00000000000E+00  0.00000000000E+00 -0.26388948607E+04  0.33010155090E+04  0.19831634590E+04 0.  0.
        2    1    3    3  502    0  0.77031445661E+03  0.59416421817E+03 -0.10000553526E+04  0.13951796259E+04  0.25500000920E-02 0.  1.
       -2    1    3    3    0  502 -0.77031445661E+03 -0.59416421817E+03 -0.16388395081E+04  0.19058358832E+04  0.25500000920E-02 0. -1.
</event>
<event>
 5   0  0.8306787E-05  0.2166146E+04  0.7818609E-02  0.8532652E-01
       -1   -1    0    0    0  501  0.00000000000E+00  0.00000000000E+00  0.10046521005E+04  0.10046521005E+04  0.50400001928E-02 0.  1.
        1   -1    0    0  501    0  0.00000000000E+00  0.00000000000E+00 -0.11676153335E+04  0.11676153335E+04  0.50400001928E-02 0. -1.
    10030    2    1    2    0    0  0.00000000000E+00  0.00000000000E+00 -0.16296323300E+03  0.21722674340E+04  0.21661460683E+04 0.  0.
        1    1    3    3  502    0 -0.17112802753E+03  0.84290984968E+03  0.57860746194E+03  0.10366139163E+04  0.50400001928E-02 0.  1.
       -1    1    3    3    0  502  0.17112802753E+03 -0.84290984968E+03 -0.74157069494E+03  0.11356535176E+04  0.50400001928E-02 0. -1.
</event>
<event>
 5   0  0.1680258E-04  0.2181911E+04  0.7818609E-02  0.8525995E-01
       -2   -1    0    0    0  501  0.00000000000E+00  0.00000000000E+00  0.12430113156E+04  0.12430113156E+04  0.25500000920E-02 0.  1.
        2   -1    0    0  501    0  0.00000000000E+00  0.00000000000E+00 -0.95750041696E+03  0.95750041696E+03  0.25500000920E-02 0. -1.
    10030    2    1    2    0    0  0.00000000000E+00  0.00000000000E+00  0.28551089860E+03  0.22005117325E+04  0.21819109541E+04 0.  0.
        5    1    3    3  502    0 -0.69196271380E+03  0.82495580201E+03  0.31974308177E+03  0.11232195693E+04  0.46999998093E+01 0. -1.
       -5    1    3    3    0  502  0.69196271380E+03 -0.82495580201E+03 -0.34232183170E+02  0.10772921632E+04  0.46999998093E+01 0.  1.
</event>
<event>
 5   0  0.8602414E-05  0.1322844E+04  0.7818609E-02  0.9011643E-01
       -1   -1    0    0    0  501  0.00000000000E+00  0.00000000000E+00  0.26039789685E+03  0.26039789690E+03  0.50400001928E-02 0.  1.
        1   -1    0    0  501    0  0.00000000000E+00  0.00000000000E+00 -0.16800404738E+04  0.16800404739E+04  0.50400001928E-02 0. -1.
    10030    2    1    2    0    0  0.00000000000E+00  0.00000000000E+00 -0.14196425770E+04  0.19404383707E+04  0.13228439153E+04 0.  0.
        3    1    3    3  502    0  0.67553219700E+02 -0.63248724830E+03 -0.44385473164E+03  0.77563560371E+03  0.10100000352E+00 0.  1.
       -3    1    3    3    0  502 -0.67553219700E+02  0.63248724830E+03 -0.97578784535E+03  0.11648027670E+04  0.10100000352E+00 0. -1.
</event>
<event>
 5   0  0.1805501E-04  0.2184537E+04  0.7818609E-02  0.8524892E-01
        2   -1    0    0  501    0  0.00000000000E+00  0.00000000000E+00  0.15297279430E+04  0.15297279430E+04  0.25500000920E-02 0. -1.
       -2   -1    0    0    0  501  0.00000000000E+00  0.00000000000E+00 -0.77991020451E+03  0.77991020451E+03  0.25500000920E-02 0.  1.
    10030    2    1    2    0    0  0.00000000000E+00  0.00000000000E+00  0.74981773851E+03  0.23096381475E+04  0.21845369604E+04 0.  0.
        2    1    3    3  502    0 -0.66548552073E+03  0.85655616019E+03  0.23913755250E+03  0.11107412853E+04  0.25500000920E-02 0.  1.
       -2    1    3    3    0  502  0.66548552073E+03 -0.85655616019E+03  0.51068018601E+03  0.11988968622E+04  0.25500000920E-02 0. -1.
</event>
<event>
 5   0  0.1680258E-04  0.2241783E+04  0.7818609E-02  0.8501236E-01
        2   -1    0    0  501    0  0.00000000000E+00  0.00000000000E+00  0.14576450152E+04  0.14576450152E+04  0.25500000920E-02 0. -1.
       -2   -1    0    0    0  501  0.00000000000E+00  0.00000000000E+00 -0.86193640128E+03  0.86193640128E+03  0.25500000920E-02 0.  1.
    10030    2    1    2    0    0  0.00000000000E+00  0.00000000000E+00  0.59570861390E+03  0.23195814165E+04  0.22417825931E+04 0.  0.
        5    1    3    3  502    0  0.68272363193E+03 -0.57569564503E+02 -0.62003335317E+03  0.92406128660E+03  0.46999998093E+01 0.  1.
       -5    1    3    3    0  502 -0.68272363193E+03  0.57569564503E+02  0.12157419671E+04  0.13955201299E+04  0.46999998093E+01 0. -1.
</event>
<event>
 5   0  0.8306787E-05  0.2129441E+04  0.7818609E-02  0.8548384E-01
       -1   -1    0    0    0  501  0.00000000000E+00  0.00000000000E+00  0.12832233784E+04  0.12832233784E+04  0.50400001928E-02 0. -1.
        1   -1    0    0  501    0  0.00000000000E+00  0.00000000000E+00 -0.88342346147E+03  0.88342346149E+03  0.50400001928E-02 0.  1.
    10030    2    1    2    0    0  0.00000000000E+00  0.00000000000E+00  0.39979991688E+03  0.21666468398E+04  0.21294409020E+04 0.  0.
        1    1    3    3  502    0 -0.43847476010E+03  0.67294668407E+03 -0.51124851227E+03  0.95209894243E+03  0.50400001928E-02 0.  1.
       -1    1    3    3    0  502  0.43847476010E+03 -0.67294668407E+03  0.91104842915E+03  0.12145478974E+04  0.50400001928E-02 0. -1.
</event>
<event>
 5   0  0.8784659E-05  0.1882430E+04  0.7818609E-02  0.8663652E-01
       -1   -1    0    0    0  501  0.00000000000E+00  0.00000000000E+00  0.80659254101E+03  0.80659254103E+03  0.50400001928E-02 0.  1.
        1   -1    0    0  501    0  0.00000000000E+00  0.00000000000E+00 -0.10983064191E+04  0.10983064191E+04  0.50400001928E-02 0. -1.
    10030    2    1    2    0    0  0.00000000000E+00  0.00000000000E+00 -0.29171387807E+03  0.19048989601E+04  0.18824300948E+04 0.  0.
        4    1    3    3  502    0 -0.37451358660E+03 -0.40610616876E+03 -0.91699042662E+03  0.10705399116E+04  0.12699999809E+01 0. -1.
       -4    1    3    3    0  502  0.37451358660E+03  0.40610616876E+03  0.62527654855E+03  0.83435904856E+03  0.12699999809E+01 0.  1.
</event>
<event>
 5   0  0.1733962E-04  0.2215179E+04  0.7818609E-02  0.8512137E-01
       -2   -1    0    0    0  501  0.00000000000E+00  0.00000000000E+00  0.45403420690E+03  0.45403420691E+03  0.25500000920E-02 0. -1.
        2   -1    0    0  501    0  0.00000000000E+00  0.00000000000E+00 -0.27018987717E+04  0.27018987717E+04  0.25500000920E-02 0.  1.
    10030    2    1    2    0    0  0.00000000000E+00  0.00000000000E+00 -0.22478645648E+04  0.31559329786E+04  0.22151789688E+04 0.  0.
        3    1    3    3  502    0  0.71368239638E+02  0.97914293273E+03 -0.18544780065E+04  0.20983095566E+04  0.10100000352E+00 0.  1.
       -3    1    3    3    0  502 -0.71368239638E+02 -0.97914293273E+03 -0.39338655821E+03  0.10576234220E+04  0.10100000352E+00 0. -1.
</event>
<event>
 5   0  0.7954459E-05  0.2163284E+04  0.7818609E-02  0.8533867E-01
       -1   -1    0    0    0  501  0.00000000000E+00  0.00000000000E+00  0.13695575599E+04  0.13695575599E+04  0.50400001928E-02 0. -1.
        1   -1    0    0  501    0  0.00000000000E+00  0.00000000000E+00 -0.85425362687E+03  0.85425362689E+03  0.50400001928E-02 0.  1.
    10030    2    1    2    0    0  0.00000000000E+00  0.00000000000E+00  0.51530393305E+03  0.22238111868E+04  0.21632840893E+04 0.  0.
        5    1    3    3  502    0 -0.73469305681E+03  0.79092985047E+03  0.32724780804E+03  0.11280324171E+04  0.46999998093E+01 0.  1.
       -5    1    3    3    0  502  0.73469305681E+03 -0.79092985047E+03  0.18805612501E+03  0.10957787698E+04  0.46999998093E+01 0. -1.
</event>
<event>
 5   0  0.1754356E-04  0.2241630E+04  0.7818609E-02  0.8501298E-01
       -2   -1    0    0    0  501  0.00000000000E+00  0.00000000000E+00  0.72304908126E+03  0.72304908127E+03  0.25500000920E-02 0.  1.
        2   -1    0    0  501    0  0.00000000000E+00  0.00000000000E+00 -0.17374003825E+04  0.17374003825E+04  0.25500000920E-02 0. -1.
    10030    2    1    2    0    0  0.00000000000E+00  0.00000000000E+00 -0.10143513012E+04  0.24604494637E+04  0.22416295415E+04 0.  0.
        1    1    3    3  502    0  0.10975167332E+04  0.17379745370E+03 -0.66803251470E+03  0.12965400014E+04  0.50400001928E-02 0.  1.
       -1    1    3    3    0  502 -0.10975167332E+04 -0.17379745370E+03 -0.34631878651E+03  0.11639094623E+04  0.50400001928E-02 0. -1.
</event>
<event>
 5   0  0.8306787E-05  0.2067645E+04  0.7818609E-02  0.8575631E-01
       -1   -1    0    0    0  501  0.00000000000E+00  0.00000000000E+00  0.64459986850E+03  0.64459986852E+03  0.50400001928E-02 0. -1.
        1   -1    0    0  501    0  0.00000000000E+00  0.00000000000E+00 -0.16580657697E+04  0.16580657697E+04  0.50400001928E-02 0.  1.
    10030    2    1    2    0    0  0.00000000000E+00  0.00000000000E+00 -0.10134659012E+04  0.23026656382E+04  0.20676450151E+04 0.  0.
        1    1    3    3  502    0  0.80084325784E+03 -0.48183543597E+03 -0.14606462003E+02  0.93473453971E+03  0.50400001928E-02 0. -1.
       -1    1    3    3    0  502 -0.80084325784E+03  0.48183543597E+03 -0.99885943920E+03  0.13679310985E+04  0.50400001928E-02 0.  1.
</event>
<event>
 5   0  0.1805501E-04  0.2006237E+04  0.7818609E-02  0.8603710E-01
       -2   -1    0    0    0  501  0.00000000000E+00  0.00000000000E+00  0.70100688373E+03  0.70100688373E+03  0.25500000920E-02 0. -1.
        2   -1    0    0  501    0  0.00000000000E+00  0.00000000000E+00 -0.14354301356E+04  0.14354301356E+04  0.25500000920E-02 0.  1.
    10030    2    1    2    0    0  0.00000000000E+00  0.00000000000E+00 -0.73442325183E+03  0.21364370193E+04  0.20062366821E+04 0.  0.
        2    1    3    3  502    0 -0.36822284499E+03 -0.91417077002E+03 -0.16812942936E+03  0.99978185888E+03  0.25500000920E-02 0. -1.
       -2    1    3    3    0  502  0.36822284499E+03  0.91417077002E+03 -0.56629382246E+03  0.11366551604E+04  0.25500000920E-02 0.  1.
</event>
<event>
 5   0  0.8602414E-05  0.2043636E+04  0.7818609E-02  0.8586487E-01
        1   -1    0    0  501    0  0.00000000000E+00  0.00000000000E+00  0.56672547915E+03  0.56672547918E+03  0.50400001928E-02 0. -1.
       -1   -1    0    0    0  501  0.00000000000E+00  0.00000000000E+00 -0.18423587291E+04  0.18423587291E+04  0.50400001928E-02 0.  1.
    10030    2    1    2    0    0  0.00000000000E+00  0.00000000000E+00 -0.12756332500E+04  0.24090842083E+04  0.20436356168E+04 0.  0.
        3    1    3    3  502    0  0.62004654392E+03  0.54804654245E+03  0.68787971142E+02  0.83038817699E+03  0.10100000352E+00 0. -1.
       -3    1    3    3    0  502 -0.62004654392E+03 -0.54804654245E+03 -0.13444212211E+04  0.15786960313E+04  0.10100000352E+00 0.  1.
</event>
<event>
 5   0  0.1798917E-04  0.2675747E+04  0.7818609E-02  0.8342917E-01
       -2   -1    0    0    0  501  0.00000000000E+00  0.00000000000E+00  0.12612127255E+04  0.12612127255E+04  0.25500000920E-02 0.  1.
        2   -1    0    0  501    0  0.00000000000E+00  0.00000000000E+00 -0.14191943825E+04  0.14191943825E+04  0.25500000920E-02 0. -1.
    10030    2    1    2    0    0  0.00000000000E+00  0.00000000000E+00 -0.15798165703E+03  0.26804071080E+04  0.26757473836E+04 0.  0.
        4    1    3    3  502    0 -0.97837941399E+03  0.45083952101E+03 -0.87373355029E+03  0.13870452340E+04  0.12699999809E+01 0. -1.
       -4    1    3    3    0  502  0.97837941399E+03 -0.45083952101E+03  0.71575189326E+03  0.12933618740E+04  0.12699999809E+01 0.  1.
</event>
<event>
 5   0  0.1754356E-04  0.2044350E+04  0.7818609E-02  0.8586162E-01
       -2   -1    0    0    0  501  0.00000000000E+00  0.00000000000E+00  0.52928317373E+03  0.52928317374E+03  0.25500000920E-02 0.  1.
        2   -1    0    0  501    0  0.00000000000E+00  0.00000000000E+00 -0.19740690701E+04  0.19740690701E+04  0.25500000920E-02 0. -1.
    10030    2    1    2    0    0  0.00000000000E+00  0.00000000000E+00 -0.14447858964E+04  0.25033522439E+04  0.20443498161E+04 0.  0.
        1    1    3    3  502    0  0.66540254050E+03 -0.75963080393E+03 -0.52861621349E+03  0.11398397257E+04  0.50400001928E-02 0.  1.
       -1    1    3    3    0  502 -0.66540254050E+03  0.75963080393E+03 -0.91616968291E+03  0.13635125181E+04  0.50400001928E-02 0. -1.
</event>
<event>
 5   0  0.8602414E-05  0.2190133E+04  0.7818609E-02  0.8522546E-01
       -1   -1    0    0    0  501  0.00000000000E+00  0.00000000000E+00  0.16543511100E+04  0.16543511100E+04  0.50400001928E-02 0.  1.
        1   -1    0    0  501    0  0.00000000000E+00  0.00000000000E+00 -0.72485869429E+03  0.72485869430E+03  0.50400001928E-02 0. -1.
    10030    2    1    2    0    0  0.00000000000E+00  0.00000000000E+00  0.92949241567E+03  0.23792098043E+04  0.21901331334E+04 0.  0.
        3    1    3    3  502    0 -0.46763950420E+03  0.42243410106E+03  0.14376244250E+04  0.15696819019E+04  0.10100000352E+00 0.  1.
       -3    1    3    3    0  502  0.46763950420E+03 -0.42243410106E+03 -0.50813200931E+03  0.80952790237E+03  0.10100000352E+00 0. -1.
</event>
<event>
 5   0  0.7954459E-05  0.1962734E+04  0.7818609E-02  0.8624245E-01
        1   -1    0    0  501    0  0.00000000000E+00  0.00000000000E+00  0.94188624138E+03  0.94188624139E+03  0.50400001928E-02 0. -1.
       -1   -1    0    0    0  501  0.00000000000E+00  0.00000000000E+00 -0.10225025193E+04  0.10225025193E+04  0.50400001928E-02 0.  1.
    10030    2    1    2    0    0  0.00000000000E+00  0.00000000000E+00 -0.80616277901E+02  0.19643887607E+04  0.19627338635E+04 0.  0.
        5    1    3    3  502    0 -0.37675142112E+03 -0.86544753408E+03  0.22846604538E+03  0.97116419387E+03  0.46999998093E+01 0. -1.
       -5    1    3    3    0  502  0.37675142112E+03  0.86544753408E+03 -0.30908232328E+03  0.99322456682E+03  0.46999998093E+01 0.  1.
</event>
<event>
 5   0  0.8602414E-05  0.2246933E+04  0.7818609E-02  0.8499144E-01
        1   -1    0    0  501    0  0.00000000000E+00  0.00000000000E+00  0.23824086186E+04  0.23824086186E+04  0.50400001928E-02 0. -1.
       -1   -1    0    0    0  501  0.00000000000E+00  0.00000000000E+00 -0.52979036912E+03  0.52979036915E+03  0.50400001928E-02 0.  1.
    10030    2    1    2    0    0  0.00000000000E+00  0.00000000000E+00  0.18526182495E+04  0.29121989878E+04  0.22469331468E+04 0.  0.
        3    1    3    3  502    0  0.42204605470E+02  0.57289524128E+03  0.21776695146E+04  0.22521622302E+04  0.10100000352E+00 0. -1.
       -3    1    3    3    0  502 -0.42204605470E+02 -0.57289524128E+03 -0.32505126509E+03  0.66003675757E+03  0.10100000352E+00 0.  1.
</event>
<event>
 5   0  0.6250625E-05  0.2189278E+04  0.7818609E-02  0.8522904E-01
        3   -1    0    0  501    0  0.00000000000E+00  0.00000000000E+00  0.74431043148E+03  0.74431043833E+03  0.10100000352E+00 0.  1.
       -3   -1    0    0    0  501  0.00000000000E+00  0.00000000000E+00 -0.16098579804E+04  0.16098579836E+04  0.10100000352E+00 0. -1.
    10030    2    1    2    0    0  0.00000000000E+00  0.00000000000E+00 -0.86554754892E+03  0.23541684219E+04  0.21892775976E+04 0.  0.
        4    1    3    3  502    0 -0.90197548304E+03  0.29599739775E+03  0.15330704690E+03  0.96160225406E+03  0.12699999809E+01 0.  1.
       -4    1    3    3    0  502  0.90197548304E+03 -0.29599739775E+03 -0.10188545958E+04  0.13925661678E+04  0.12699999809E+01 0. -1.
</event>
<event>
 5   0  0.1805501E-04  0.2172281E+04  0.7818609E-02  0.8530055E-01
       -2   -1    0    0    0  501  0.00000000000E+00  0.00000000000E+00  0.68486467985E+03  0.68486467985E+03  0.25500000920E-02 0.  1.
        2   -1    0    0  501    0  0.00000000000E+00  0.00000000000E+00 -0.17225318113E+04  0.17225318113E+04  0.25500000920E-02 0. -1.
    10030    2    1    2    0    0  0.00000000000E+00  0.00000000000E+00 -0.10376671314E+04  0.24073964911E+04  0.21722810108E+04 0.  0.
        2    1    3    3  502    0  0.56658147282E+03 -0.34361981959E+03 -0.14725669939E+04  0.16147887469E+04  0.25500000920E-02 0. -1.
       -2    1    3    3    0  502 -0.56658147282E+03  0.34361981959E+03  0.43489986246E+03  0.79260774418E+03  0.25500000920E-02 0.  1.
</event>
<event>
 5   0  0.8602414E-05  0.2197077E+04  0.7818609E-02  0.8519646E-01
        1   -1    0    0  501    0  0.00000000000E+00  0.00000000000E+00  0.12280709076E+04  0.12280709076E+04  0.50400001928E-02 0. -1.
       -1   -1    0    0    0  501  0.00000000000E+00  0.00000000000E+00 -0.98266871457E+03  0.98266871458E+03  0.50400001928E-02 0.  1.
    10030    2    1    2    0    0  0.00000000000E+00  0.00000000000E+00  0.24540219300E+03  0.22107396222E+04  0.21970770220E+04 0.  0.
        3    1    3    3  502    0 -0.10884915686E+04  0.96754134807E+02  0.97013997998E+01  0.10928263288E+04  0.10100000352E+00 0. -1.
       -3    1    3    3    0  502  0.10884915686E+04 -0.96754134807E+02  0.23570079320E+03  0.11179132934E+04  0.10100000352E+00 0.  1.
</event>
<event>
 5   0  0.1754356E-04  0.2242407E+04  0.7818609E-02  0.8500982E-01
        2   -1    0    0  501    0  0.00000000000E+00  0.00000000000E+00  0.81110817829E+03  0.81110817829E+03  0.25500000920E-02 0. -1.
       -2   -1    0    0    0  501  0.00000000000E+00  0.00000000000E+00 -0.15498520161E+04  0.15498520161E+04  0.25500000920E-02 0.  1.
    10030    2    1    2    0    0  0.00000000000E+00  0.00000000000E+00 -0.73874383782E+03  0.23609601944E+04  0.22424073184E+04 0.  0.
        1    1    3    3  502    0 -0.15809295287E+03  0.76768418034E+02 -0.15352596827E+04  0.15452860787E+04  0.50400001928E-02 0.  1.
       -1    1    3    3    0  502  0.15809295287E+03 -0.76768418034E+02  0.79651584490E+03  0.81567411566E+03  0.50400001928E-02 0. -1.
</event>
<event>
 5   0  0.1798917E-04  0.2175391E+04  0.7818609E-02  0.8528741E-01
       -2   -1    0    0    0  501  0.00000000000E+00  0.00000000000E+00  0.70443101680E+03  0.70443101681E+03  0.25500000920E-02 0.  1.
        2   -1    0    0  501    0  0.00000000000E+00  0.00000000000E+00 -0.16794845481E+04  0.16794845481E+04  0.25500000920E-02 0. -1.
    10030    2    1    2    0    0  0.00000000000E+00  0.00000000000E+00 -0.97505353133E+03  0.23839155649E+04  0.21753905470E+04 0.  0.
        4    1    3    3  502    0 -0.10786986786E+04  0.29701886090E+02 -0.33804635919E+03  0.11308182856E+04  0.12699999809E+01 0. -1.
       -4    1    3    3    0  502  0.10786986786E+04 -0.29701886090E+02 -0.63700717214E+03  0.12530972793E+04  0.12699999809E+01 0.  1.
</event>
<event>
 5   0  0.7954459E-05  0.2160459E+04  0.7818609E-02  0.8535068E-01
       -1   -1    0    0    0  501  0.00000000000E+00  0.00000000000E+00  0.83896139815E+03  0.83896139817E+03  0.50400001928E-02 0. -1.
        1   -1    0    0  501    0  0.00000000000E+00  0.00000000000E+00 -0.13908815557E+04  0.13908815557E+04  0.50400001928E-02 0.  1.
    10030    2    1    2    0    0  0.00000000000E+00  0.00000000000E+00 -0.55192015753E+03  0.22298429539E+04  0.21604591499E+04 0.  0.
        5    1    3    3  502    0 -0.10624097132E+03 -0.72415135297E+03  0.54403037297E+03  0.91196132742E+03  0.46999998093E+01 0. -1.
       -5    1    3    3    0  502  0.10624097132E+03  0.72415135297E+03 -0.10959505305E+04  0.13178816264E+04  0.46999998093E+01 0.  1.
</event>
<event>
 5   0  0.1733962E-04  0.2237221E+04  0.7818609E-02  0.8503094E-01
       -2   -1    0    0    0  501  0.00000000000E+00  0.00000000000E+00  0.94462398168E+03  0.94462398168E+03  0.25500000920E-02 0.  1.
        2   -1    0    0  501    0  0.00000000000E+00  0.00000000000E+00 -0.13246428751E+04  0.13246428751E+04  0.25500000920E-02 0. -1.
    10030    2    1    2    0    0  0.00000000000E+00  0.00000000000E+00 -0.38001889341E+03  0.22692668568E+04  0.22372209788E+04 0.  0.
        3    1    3    3  502    0  0.35764371903E+03  0.93330223584E+03 -0.69952662138E+03  0.12199588507E+04  0.10100000352E+00 0. -1.
       -3    1    3    3    0  502 -0.35764371903E+03 -0.93330223584E+03  0.31950772797E+03  0.10493080061E+04  0.10100000352E+00 0.  1.
</event>
<event>
 5   0  0.1733962E-04  0.2209848E+04  0.7818609E-02  0.8514340E-01
        2   -1    0    0  501    0  0.00000000000E+00  0.00000000000E+00  0.10956444804E+04  0.10956444804E+04  0.25500000920E-02 0. -1.
       -2   -1    0    0    0  501  0.00000000000E+00  0.00000000000E+00 -0.11142822187E+04  0.11142822187E+04  0.25500000920E-02 0.  1.
    10030    2    1    2    0    0  0.00000000000E+00  0.00000000000E+00 -0.18637738250E+02  0.22099266991E+04  0.22098481057E+04 0.  0.
        3    1    3    3  502    0  0.88165986619E+03  0.55531586406E+03 -0.37696943386E+03  0.11080639841E+04  0.10100000352E+00 0.  1.
       -3    1    3    3    0  502 -0.88165986619E+03 -0.55531586406E+03  0.35833169561E+03  0.11018627150E+04  0.10100000352E+00 0. -1.
</event>
<event>
 5   0  0.8470971E-05  0.2340282E+04  0.7818609E-02  0.8462206E-01
        1   -1    0    0  501    0  0.00000000000E+00  0.00000000000E+00  0.16601182499E+04  0.16601182499E+04  0.50400001928E-02 0.  1.
       -1   -1    0    0    0  501  0.00000000000E+00  0.00000000000E+00 -0.82477886099E+03  0.82477886101E+03  0.50400001928E-02 0. -1.
    10030    2    1    2    0    0  0.00000000000E+00  0.00000000000E+00  0.83533938894E+03  0.24848971110E+04  0.23402824097E+04 0.  0.
        2    1    3    3  502    0 -0.89294569642E+03 -0.42795545686E+03 -0.24434190061E+03  0.10199023748E+04  0.25500000920E-02 0. -1.
       -2    1    3    3    0  502  0.89294569642E+03  0.42795545686E+03  0.10796812896E+04  0.14649947361E+04  0.25500000920E-02 0.  1.
</event>
<event>
 5   0  0.7954459E-05  0.1659537E+04  0.7818609E-02  0.8784784E-01
       -1   -1    0    0    0  501  0.00000000000E+00  0.00000000000E+00  0.24755372867E+03  0.24755372873E+03  0.50400001928E-02 0. -1.
        1   -1    0    0  501    0  0.00000000000E+00  0.00000000000E+00 -0.27812796950E+04  0.27812796950E+04  0.50400001928E-02 0.  1.
    10030    2    1    2    0    0  0.00000000000E+00  0.00000000000E+00 -0.25337259663E+04  0.30288334237E+04  0.16595374766E+04 0.  0.
        5    1    3    3  502    0 -0.69185933425E+03  0.45794128331E+03 -0.12863934798E+04  0.15307546610E+04  0.46999998093E+01 0.  1.
       -5    1    3    3    0  502  0.69185933425E+03 -0.45794128331E+03 -0.12473324865E+04  0.14980787627E+04  0.46999998093E+01 0. -1.
</event>
<event>
 5   0  0.8306787E-05  0.2169635E+04  0.7818609E-02  0.8531174E-01
       -1   -1    0    0    0  501  0.00000000000E+00  0.00000000000E+00  0.29311614396E+04  0.29311614396E+04  0.50400001928E-02 0.  1.
        1   -1    0    0  501    0  0.00000000000E+00  0.00000000000E+00 -0.40148897258E+03  0.40148897261E+03  0.50400001928E-02 0. -1.
    10030    2    1    2    0    0  0.00000000000E+00  0.00000000000E+00  0.25296724670E+04  0.33326504122E+04  0.21696349877E+04 0.  0.
        1    1    3    3  502    0  0.26477359126E+03 -0.10413409199E+04  0.10352864450E+04  0.14920837742E+04  0.50400001928E-02 0. -1.
       -1    1    3    3    0  502 -0.26477359126E+03  0.10413409199E+04  0.14943860221E+04  0.18405666380E+04  0.50400001928E-02 0.  1.
</event>
<event>
 5   0  0.1680258E-04  0.2191181E+04  0.7818609E-02  0.8522108E-01
        2   -1    0    0  501    0  0.00000000000E+00  0.00000000000E+00  0.31722174395E+04  0.31722174395E+04  0.25500000920E-02 0. -1.
       -2   -1    0    0    0  501  0.00000000000E+00  0.00000000000E+00 -0.37838484101E+03  0.37838484102E+03  0.25500000920E-02 0.  1.
    10030    2    1    2    0    0  0.00000000000E+00  0.00000000000E+00  0.27938325985E+04  0.35506022806E+04  0.21911814088E+04 0.  0.
        5    1    3    3  502    0  0.75576480005E+03 -0.49482455165E+03  0.24013914151E+04  0.25656840391E+04  0.46999998093E+01 0. -1.
       -5    1    3    3    0  502 -0.75576480005E+03  0.49482455165E+03  0.39244118339E+03  0.98491824144E+03  0.46999998093E+01 0.  1.
</event>
<event>
 5   0  0.1733962E-04  0.2148903E+04  0.7818609E-02  0.8540002E-01
        2   -1    0    0  501    0  0.00000000000E+00  0.00000000000E+00  0.17182321176E+04  0.17182321176E+04  0.25500000920E-02 0. -1.
       -2   -1    0    0    0  501  0.00000000000E+00  0.00000000000E+00 -0.67188009681E+03  0.67188009682E+03  0.25500000920E-02 0.  1.
    10030    2    1    2    0    0  0.00000000000E+00  0.00000000000E+00  0.10463520207E+04  0.23901122144E+04  0.21489029401E+04 0.  0.
        3    1    3    3  502    0  0.36384228842E+03  0.51903467848E+03 -0.44177028515E+03  0.77261840734E+03  0.10100000352E+00 0.  1.
       -3    1    3    3    0  502 -0.36384228842E+03 -0.51903467848E+03  0.14881223059E+04  0.16174938070E+04  0.10100000352E+00 0. -1.
</event>
<event>
 5   0  0.1798917E-04  0.2094034E+04  0.7818609E-02  0.8563876E-01
        2   -1    0    0  501    0  0.00000000000E+00  0.00000000000E+00  0.19781415118E+04  0.19781415118E+04  0.25500000920E-02 0.  1.
       -2   -1    0    0    0  501  0.00000000000E+00  0.00000000000E+00 -0.55417922733E+03  0.55417922734E+03  0.25500000920E-02 0. -1.
    10030    2    1    2    0    0  0.00000000000E+00  0.00000000000E+00  0.14239622845E+04  0.25323207391E+04  0.20940343212E+04 0.  0.
        4    1    3    3  502    0 -0.81086743220E+03 -0.18294610316E+03 -0.57868834451E+02  0.83326207412E+03  0.12699999809E+01 0. -1.
       -4    1    3    3    0  502  0.81086743220E+03  0.18294610316E+03  0.14818311189E+04  0.16990586650E+04  0.12699999809E+01 0.  1.
</event>
<event>
 5   0  0.1733962E-04  0.2247241E+04  0.7818609E-02  0.8499019E-01
        2   -1    0    0  501    0  0.00000000000E+00  0.00000000000E+00  0.22723167462E+04  0.22723167462E+04  0.25500000920E-02 0.  1.
       -2   -1    0    0    0  501  0.00000000000E+00  0.00000000000E+00 -0.55561066978E+03  0.55561066979E+03  0.25500000920E-02 0. -1.
    10030    2    1    2    0    0  0.00000000000E+00  0.00000000000E+00  0.17167060764E+04  0.28279274160E+04  0.22472413571E+04 0.  0.
        3    1    3    3  502    0  0.10376025837E+03  0.10597822317E+04  0.13096587699E+04  0.16879308853E+04  0.10100000352E+00 0.  1.
       -3    1    3    3    0  502 -0.10376025837E+03 -0.10597822317E+04  0.40704730651E+03  0.11399965306E+04  0.10100000352E+00 0. -1.
</event>
<event>
 5   0  0.7954459E-05  0.1386345E+04  0.7818609E-02  0.8963762E-01
       -1   -1    0    0    0  501  0.00000000000E+00  0.00000000000E+00  0.63600021422E+03  0.63600021424E+03  0.50400001928E-02 0. -1.
        1   -1    0    0  501    0  0.00000000000E+00  0.00000000000E+00 -0.75548438919E+03  0.75548438920E+03  0.50400001928E-02 0.  1.
    10030    2    1    2    0    0  0.00000000000E+00  0.00000000000E+00 -0.11948417497E+03  0.13914846034E+04  0.13863451711E+04 0.  0.
        5    1    3    3  502    0 -0.22829930977E+03  0.44555238486E+03 -0.54092379137E+03  0.73706047280E+03  0.46999998093E+01 0.  1.
       -5    1    3    3    0  502  0.22829930977E+03 -0.44555238486E+03  0.42143961640E+03  0.65442413064E+03  0.46999998093E+01 0. -1.
</event>
<event>
 5   0  0.8784659E-05  0.2128744E+04  0.7818609E-02  0.8548686E-01
        1   -1    0    0  501    0  0.00000000000E+00  0.00000000000E+00  0.17731803873E+04  0.17731803873E+04  0.50400001928E-02 0. -1.
       -1   -1    0    0    0  501  0.00000000000E+00  0.00000000000E+00 -0.63890187676E+03  0.63890187678E+03  0.50400001928E-02 0.  1.
    10030    2    1    2    0    0  0.00000000000E+00  0.00000000000E+00  0.11342785105E+04  0.24120822641E+04  0.21287444913E+04 0.  0.
        4    1    3    3  502    0  0.39774061121E+03 -0.12509814948E+03  0.16767913338E+04  0.17278535617E+04  0.12699999809E+01 0. -1.
       -4    1    3    3    0  502 -0.39774061121E+03  0.12509814948E+03 -0.54251282327E+03  0.68422870235E+03  0.12699999809E+01 0.  1.
</event>
<event>
 5   0  0.7954459E-05  0.2073853E+04  0.7818609E-02  0.8572850E-01
        1   -1    0    0  501    0  0.00000000000E+00  0.00000000000E+00  0.17269202480E+04  0.17269202480E+04  0.50400001928E-02 0.  1.
       -1   -1    0    0    0  501  0.00000000000E+00  0.00000000000E+00 -0.62262062629E+03  0.62262062631E+03  0.50400001928E-02 0. -1.
    10030    2    1    2    0    0  0.00000000000E+00  0.00000000000E+00  0.11042996217E+04  0.23495408743E+04  0.20738526142E+04 0.  0.
        5    1    3    3  502    0 -0.82363211568E+03  0.30425307604E+03  0.11770684300E+04  0.14684862871E+04  0.46999998093E+01 0.  1.
       -5    1    3    3    0  502  0.82363211568E+03 -0.30425307604E+03 -0.72768808348E+02  0.88105458725E+03  0.46999998093E+01 0. -1.
</event>
<event>
 5   0  0.8784659E-05  0.2209101E+04  0.7818609E-02  0.8514650E-01
       -1   -1    0    0    0  501  0.00000000000E+00  0.00000000000E+00  0.46751911665E+03  0.46751911668E+03  0.50400001928E-02 0.  1.
        1   -1    0    0  501    0  0.00000000000E+00  0.00000000000E+00 -0.26095868582E+04  0.26095868583E+04  0.50400001928E-02 0. -1.
    10030    2    1    2    0    0  0.00000000000E+00  0.00000000000E+00 -0.21420677416E+04  0.30771059749E+04  0.22091009419E+04 0.  0.
        4    1    3    3  502    0 -0.59227215864E+02 -0.10493532950E+04 -0.59789129850E+03  0.12091839473E+04  0.12699999809E+01 0.  1.
       -4    1    3    3    0  502  0.59227215864E+02  0.10493532950E+04 -0.15441764431E+04  0.18679220276E+04  0.12699999809E+01 0. -1.
</event>
<event>
 5   0  0.1733962E-04  0.1991253E+04  0.7818609E-02  0.8610721E-01
       -2   -1    0    0    0  501  0.00000000000E+00  0.00000000000E+00  0.81629091909E+03  0.81629091909E+03  0.25500000920E-02 0.  1.
        2   -1    0    0  501    0  0.00000000000E+00  0.00000000000E+00 -0.12143608471E+04  0.12143608471E+04  0.25500000920E-02 0. -1.
    10030    2    1    2    0    0  0.00000000000E+00  0.00000000000E+00 -0.39806992798E+03  0.20306517662E+04  0.19912526027E+04 0.  0.
        3    1    3    3  502    0  0.59211244374E+03 -0.12376042080E+03  0.60740757597E+03  0.85723845069E+03  0.10100000352E+00 0.  1.
       -3    1    3    3    0  502 -0.59211244374E+03  0.12376042080E+03 -0.10054775040E+04  0.11734133155E+04  0.10100000352E+00 0. -1.
</event>
<event>
 5   0  0.8602414E-05  0.2159689E+04  0.7818609E-02  0.8535396E-01
        1   -1    0    0  501    0  0.00000000000E+00  0.00000000000E+00  0.21109174189E+04  0.21109174189E+04  0.50400001928E-02 0.  1.
       -1   -1    0    0    0  501  0.00000000000E+00  0.00000000000E+00 -0.55239684704E+03  0.55239684706E+03  0.50400001928E-02 0. -1.
    10030    2    1    2    0    0  0.00000000000E+00  0.00000000000E+00  0.15585205719E+04  0.26633142660E+04  0.21596889837E+04 0.  0.
        3    1    3    3  502    0 -0.50162653785E+03  0.10330041196E+03 -0.39309355648E+03  0.64561808597E+03  0.10100000352E+00 0. -1.
       -3    1    3    3    0  502  0.50162653785E+03 -0.10330041196E+03  0.19516141283E+04  0.20176961800E+04  0.10100000352E+00 0.  1.
</event>
<event>
 5   0  0.1680258E-04  0.2099923E+04  0.7818609E-02  0.8561277E-01
       -2   -1    0    0    0  501  0.00000000000E+00  0.00000000000E+00  0.51731618521E+03  0.51731618522E+03  0.25500000920E-02 0.  1.
        2   -1    0    0  501    0  0.00000000000E+00  0.00000000000E+00 -0.21310352559E+04  0.21310352559E+04  0.25500000920E-02 0. -1.
    10030    2    1    2    0    0  0.00000000000E+00  0.00000000000E+00 -0.16137190707E+04  0.26483514411E+04  0.20999228835E+04 0.  0.
        5    1    3    3  502    0 -0.61453616552E+02 -0.10462597223E+04 -0.88623273803E+03  0.13725401668E+04  0.46999998093E+01 0. -1.
       -5    1    3    3    0  502  0.61453616552E+02  0.10462597223E+04 -0.72748633263E+03  0.12758112743E+04  0.46999998093E+01 0.  1.
</event>
<event>
 5   0  0.1733962E-04  0.2266964E+04  0.7818609E-02  0.8491062E-01
        2   -1    0    0  501    0  0.00000000000E+00  0.00000000000E+00  0.13130842767E+04  0.13130842767E+04  0.25500000920E-02 0. -1.
       -2   -1    0    0    0  501  0.00000000000E+00  0.00000000000E+00 -0.97844575998E+03  0.97844575999E+03  0.25500000920E-02 0.  1.
    10030    2    1    2    0    0  0.00000000000E+00  0.00000000000E+00  0.33463851676E+03  0.22915300367E+04  0.22669642636E+04 0.  0.
        3    1    3    3  502    0 -0.67826760034E+03  0.11542433102E+03  0.10778646453E+04  0.12787344985E+04  0.10100000352E+00 0. -1.
       -3    1    3    3    0  502  0.67826760034E+03 -0.11542433102E+03 -0.74322612856E+03  0.10127955382E+04  0.10100000352E+00 0.  1.
</event>
<event>
 5   0  0.8602414E-05  0.2061990E+04  0.7818609E-02  0.8578175E-01
        1   -1    0    0  501    0  0.00000000000E+00  0.00000000000E+00  0.72482541771E+03  0.72482541773E+03  0.50400001928E-02 0.  1.
       -1   -1    0    0    0  501  0.00000000000E+00  0.00000000000E+00 -0.14664916583E+04  0.14664916583E+04  0.50400001928E-02 0. -1.
    10030    2    1    2    0    0  0.00000000000E+00  0.00000000000E+00 -0.74166624063E+03  0.21913170761E+04  0.20619897467E+04 0.  0.
        3    1    3    3  502    0 -0.38625948528E+03 -0.91681591799E+03 -0.83303905413E+02  0.99834231018E+03  0.10100000352E+00 0.  1.
       -3    1    3    3    0  502  0.38625948528E+03  0.91681591799E+03 -0.65836233521E+03  0.11929747659E+04  0.10100000352E+00 0. -1.
</event>
<event>
 5   0  0.1798917E-04  0.1901305E+04  0.7818609E-02  0.8654207E-01
        2   -1    0    0  501    0  0.00000000000E+00  0.00000000000E+00  0.12383085513E+04  0.12383085513E+04  0.25500000920E-02 0.  1.
       -2   -1    0    0    0  501  0.00000000000E+00  0.00000000000E+00 -0.72981822306E+03  0.72981822306E+03  0.25500000920E-02 0. -1.
    10030    2    1    2    0    0  0.00000000000E+00  0.00000000000E+00  0.50849032820E+03  0.19681267743E+04  0.19013049692E+04 0.  0.
        4    1    3    3  502    0  0.48874083347E+03 -0.43773899416E+03  0.96635850684E+03  0.11680468338E+04  0.12699999809E+01 0.  1.
       -4    1    3    3    0  502 -0.48874083347E+03  0.43773899416E+03 -0.45786817864E+03  0.80007994052E+03  0.12699999809E+01 0. -1.
</event>
<event>
 5   0  0.1680258E-04  0.2223010E+04  0.7818609E-02  0.8508911E-01
        2   -1    0    0  501    0  0.00000000000E+00  0.00000000000E+00  0.86635718766E+03  0.86635718767E+03  0.25500000920E-02 0.  1.
       -2   -1    0    0    0  501  0.00000000000E+00  0.00000000000E+00 -0.14260212158E+04  0.14260212158E+04  0.25500000920E-02 0. -1.
    10030    2    1    2    0    0  0.00000000000E+00  0.00000000000E+00 -0.55966402815E+03  0.22923784035E+04  0.22230103284E+04 0.  0.
        5    1    3    3  502    0 -0.48079337753E+03  0.51470292514E+03 -0.11665122085E+04  0.13626643738E+04  0.46999998093E+01 0. -1.
       -5    1    3    3    0  502  0.48079337753E+03 -0.51470292514E+03  0.60684818035E+03  0.92971402970E+03  0.46999998093E+01 0.  1.
</event>
<event>
 5   0  0.8470971E-05  0.2106157E+04  0.7818609E-02  0.8558536E-01
       -1   -1    0    0    0  501  0.00000000000E+00  0.00000000000E+00  0.66919707006E+03  0.66919707008E+03  0.50400001928E-02 0.  1.
        1   -1    0    0  501    0  0.00000000000E+00  0.00000000000E+00 -0.16571713936E+04  0.16571713937E+04  0.50400001928E-02 0. -1.
    10030    2    1    2    0    0  0.00000000000E+00  0.00000000000E+00 -0.98797432359E+03  0.23263684637E+04  0.21061569184E+04 0.  0.
        2    1    3    3  502    0 -0.79610141624E+03  0.59193942389E+03 -0.10377312290E+03  0.99746609343E+03  0.25500000920E-02 0.  1.
       -2    1    3    3    0  502  0.79610141624E+03 -0.59193942389E+03 -0.88420120069E+03  0.13289023703E+04  0.25500000920E-02 0. -1.
</event>
<event>
 5   0  0.8784659E-05  0.2264569E+04  0.7818609E-02  0.8492024E-01
        1   -1    0    0  501    0  0.00000000000E+00  0.00000000000E+00  0.14618383581E+04  0.14618383582E+04  0.50400001928E-02 0. -1.
       -1   -1    0    0    0  501  0.00000000000E+00  0.00000000000E+00 -0.87702429489E+03  0.87702429491E+03  0.50400001928E-02 0.  1.
    10030    2    1    2    0    0  0.00000000000E+00  0.00000000000E+00  0.58481406325E+03  0.23388626531E+04  0.22645686170E+04 0.  0.
        4    1    3    3  502    0  0.10408496907E+04  0.41668136241E+03  0.12886207350E+03  0.11285382064E+04  0.12699999809E+01 0.  1.
       -4    1    3    3    0  502 -0.10408496907E+04 -0.41668136241E+03  0.45595198976E+03  0.12103244467E+04  0.12699999809E+01 0. -1.
</event>
<event>
 5   0  0.8602414E-05  0.2214880E+04  0.7818609E-02  0.8512260E-01
        1   -1    0    0  501    0  0.00000000000E+00  0.00000000000E+00  0.15998217437E+04  0.15998217437E+04  0.50400001928E-02 0.  1.
       -1   -1    0    0    0  501  0.00000000000E+00  0.00000000000E+00 -0.76660026312E+03  0.76660026313E+03  0.50400001928E-02 0. -1.
    10030    2    1    2    0    0  0.00000000000E+00  0.00000000000E+00  0.83322148057E+03  0.23664220068E+04  0.22148803757E+04 0.  0.
        3    1    3    3  502    0 -0.80735437377E+03  0.59051407656E+03 -0.91193120438E+02  0.10044123431E+04  0.10100000352E+00 0. -1.
       -3    1    3    3    0  502  0.80735437377E+03 -0.59051407656E+03  0.92441460101E+03  0.13620096638E+04  0.10100000352E+00 0.  1.
</event>
<event>
 5   0  0.7954459E-05  0.2204042E+04  0.7818609E-02  0.8516748E-01
       -1   -1    0    0    0  501  0.00000000000E+00  0.00000000000E+00  0.14202295078E+04  0.14202295078E+04  0.50400001928E-02 0.  1.
        1   -1    0    0  501    0  0.00000000000E+00  0.00000000000E+00 -0.85510841586E+03  0.85510841588E+03  0.50400001928E-02 0. -1.
    10030    2    1    2    0    0  0.00000000000E+00  0.00000000000E+00  0.56512109195E+03  0.22753379237E+04  0.22040419276E+04 0.  0.
        5    1    3    3  502    0 -0.49096386836E+03 -0.78517228343E+03  0.89928542215E+03  0.12908436757E+04  0.46999998093E+01 0.  1.
       -5    1    3    3    0  502  0.49096386836E+03  0.78517228343E+03 -0.33416433020E+03  0.98449424796E+03  0.46999998093E+01 0. -1.
</event>
<event>
 5   0  0.1733962E-04  0.2135835E+04  0.7818609E-02  0.8545620E-01
        2   -1    0    0  501    0  0.00000000000E+00  0.00000000000E+00  0.13422131130E+04  0.13422131130E+04  0.25500000920E-02 0.  1.
       -2   -1    0    0    0  501  0.00000000000E+00  0.00000000000E+00 -0.84967700378E+03  0.84967700378E+03  0.25500000920E-02 0. -1.
    10030    2    1    2    0    0  0.00000000000E+00  0.00000000000E+00  0.49253610923E+03  0.21918901168E+04  0.21358348403E+04 0.  0.
        3    1    3    3  502    0  0.40715061044E+03 -0.25774774605E+03  0.12242974837E+04  0.13157164813E+04  0.10100000352E+00 0.  1.
       -3    1    3    3    0  502 -0.40715061044E+03  0.25774774605E+03 -0.73176137451E+03  0.87617363553E+03  0.10100000352E+00 0. -1.
</event>
<event>
 5   0  0.8306787E-05  0.2254323E+04  0.7818609E-02  0.8496152E-01
       -1   -1    0    0    0  501  0.00000000000E+00  0.00000000000E+00  0.59598988404E+03  0.59598988406E+03  0.50400001928E-02 0.  1.
        1   -1    0    0  501    0  0.00000000000E+00  0.00000000000E+00 -0.21317360740E+04  0.21317360740E+04  0.50400001928E-02 0. -1.
    10030    2    1    2    0    0  0.00000000000E+00  0.00000000000E+00 -0.15357461900E+04  0.27277259581E+04  0.22543230785E+04 0.  0.
        1    1    3    3  502    0 -0.40669027063E+02 -0.10437933317E+04 -0.25546417637E+03  0.10753699058E+04  0.50400001928E-02 0.  1.
       -1    1    3    3    0  502  0.40669027063E+02  0.10437933317E+04 -0.12802820136E+04  0.16523560522E+04  0.50400001928E-02 0. -1.
</event>
<event>
 5   0  0.1754356E-04  0.1396089E+04  0.7818609E-02  0.8956655E-01
        2   -1    0    0  501    0  0.00000000000E+00  0.00000000000E+00  0.80690393004E+03  0.80690393005E+03  0.25500000920E-02 0. -1.
       -2   -1    0    0    0  501  0.00000000000E+00  0.00000000000E+00 -0.60387116883E+03  0.60387116884E+03  0.25500000920E-02 0.  1.
    10030    2    1    2    0    0  0.00000000000E+00  0.00000000000E+00  0.20303276121E+03  0.14107750989E+04  0.13960888501E+04 0.  0.
        1    1    3    3  502    0 -0.69589161303E+03  0.38762658588E+02  0.62400806808E+02  0.69975820217E+03  0.50400001928E-02 0.  1.
       -1    1    3    3    0  502  0.69589161303E+03 -0.38762658588E+02  0.14063195440E+03  0.71101689671E+03  0.50400001928E-02 0. -1.
</event>
<event>
 5   0  0.8602414E-05  0.2201812E+04  0.7818609E-02  0.8517674E-01
       -1   -1    0    0    0  501  0.00000000000E+00  0.00000000000E+00  0.92540350153E+03  0.92540350154E+03  0.50400001928E-02 0. -1.
        1   -1    0    0  501    0  0.00000000000E+00  0.00000000000E+00 -0.13096927028E+04  0.13096927028E+04  0.50400001928E-02 0.  1.
    10030    2    1    2    0    0  0.00000000000E+00  0.00000000000E+00 -0.38428920125E+03  0.22350962043E+04  0.22018121746E+04 0.  0.
        3    1    3    3  502    0  0.19226715543E+03  0.54122924837E+03  0.76125393468E+03  0.95362640569E+03  0.10100000352E+00 0. -1.
       -3    1    3    3    0  502 -0.19226715543E+03 -0.54122924837E+03 -0.11455431359E+04  0.12814697986E+04  0.10100000352E+00 0.  1.
</event>
<event>
 5   0  0.8470971E-05  0.1402151E+04  0.7818609E-02  0.8952263E-01
        1   -1    0    0  501    0  0.00000000000E+00  0.00000000000E+00  0.13755583478E+04  0.13755583478E+04  0.50400001928E-02 0.  1.
       -1   -1    0    0    0  501  0.00000000000E+00  0.00000000000E+00 -0.35731431780E+03  0.35731431784E+03  0.50400001928E-02 0. -1.
    10030    2    1    2    0    0  0.00000000000E+00  0.00000000000E+00  0.10182440300E+04  0.17328726656E+04  0.14021507660E+04 0.  0.
        2    1    3    3  502    0 -0.54022103147E+03  0.38034664915E+03  0.79897013040E+03  0.10367524322E+04  0.25500000920E-02 0. -1.
       -2    1    3    3    0  502  0.54022103147E+03 -0.38034664915E+03  0.21927389958E+03  0.69612023344E+03  0.25500000920E-02 0.  1.
</event>
<event>
 5   0  0.7954459E-05  0.2235088E+04  0.7818609E-02  0.8503964E-01
        1   -1    0    0  501    0  0.00000000000E+00  0.00000000000E+00  0.12361964279E+04  0.12361964279E+04  0.50400001928E-02 0.  1.
       -1   -1    0    0    0  501  0.00000000000E+00  0.00000000000E+00 -0.10102796618E+04  0.10102796618E+04  0.50400001928E-02 0. -1.
    10030    2    1    2    0    0  0.00000000000E+00  0.00000000000E+00  0.22591676606E+03  0.22464760897E+04  0.22350875679E+04 0.  0.
        5    1    3    3  502    0  0.26940491010E+03 -0.63105757274E+03 -0.77361851902E+03  0.10340794789E+04  0.46999998093E+01 0. -1.
       -5    1    3    3    0  502 -0.26940491010E+03  0.63105757274E+03  0.99953528508E+03  0.12123966108E+04  0.46999998093E+01 0.  1.
</event>
<event>
 5   0  0.1680258E-04  0.2192985E+04  0.7818609E-02  0.8521354E-01
        2   -1    0    0  501    0  0.00000000000E+00  0.00000000000E+00  0.11314029754E+04  0.11314029754E+04  0.25500000920E-02 0.  1.
       -2   -1    0    0    0  501  0.00000000000E+00  0.00000000000E+00 -0.10626591282E+04  0.10626591282E+04  0.25500000920E-02 0. -1.
    10030    2    1    2    0    0  0.00000000000E+00  0.00000000000E+00  0.68743847223E+02  0.21940621036E+04  0.21929849060E+04 0.  0.
        5    1    3    3  502    0 -0.57445837567E+03  0.50423326606E+03  0.82090055716E+03  0.11216743853E+04  0.46999998093E+01 0.  1.
       -5    1    3    3    0  502  0.57445837567E+03 -0.50423326606E+03 -0.75215670994E+03  0.10723877183E+04  0.46999998093E+01 0. -1.
</event>
<event>
 5   0  0.1680258E-04  0.2177382E+04  0.7818609E-02  0.8527902E-01
       -2   -1    0    0    0  501  0.00000000000E+00  0.00000000000E+00  0.13076076231E+04  0.13076076231E+04  0.25500000920E-02 0. -1.
        2   -1    0    0  501    0  0.00000000000E+00  0.00000000000E+00 -0.90642496512E+03  0.90642496512E+03  0.25500000920E-02 0.  1.
    10030    2    1    2    0    0  0.00000000000E+00  0.00000000000E+00  0.40118265794E+03  0.22140325882E+04  0.21773820924E+04 0.  0.
        5    1    3    3  502    0  0.15266072750E+03  0.88772990718E+03 -0.42113861227E+03  0.99435884195E+03  0.46999998093E+01 0.  1.
       -5    1    3    3    0  502 -0.15266072750E+03 -0.88772990718E+03  0.82232127021E+03  0.12196737462E+04  0.46999998093E+01 0. -1.
</event>
<event>
 5   0  0.1680258E-04  0.2107158E+04  0.7818609E-02  0.8558097E-01
       -2   -1    0    0    0  501  0.00000000000E+00  0.00000000000E+00  0.99773148907E+03  0.99773148907E+03  0.25500000920E-02 0. -1.
        2   -1    0    0  501    0  0.00000000000E+00  0.00000000000E+00 -0.11125528083E+04  0.11125528083E+04  0.25500000920E-02 0.  1.
    10030    2    1    2    0    0  0.00000000000E+00  0.00000000000E+00 -0.11482131921E+03  0.21102842973E+04  0.21071582476E+04 0.  0.
        5    1    3    3  502    0 -0.35370316660E+03 -0.76487036234E+03  0.57588359779E+03  0.10206843829E+04  0.46999998093E+01 0. -1.
       -5    1    3    3    0  502  0.35370316660E+03  0.76487036234E+03 -0.69070491700E+03  0.10895999145E+04  0.46999998093E+01 0.  1.
</event>
<event>
 5   0  0.8784659E-05  0.2047055E+04  0.7818609E-02  0.8584932E-01
        1   -1    0    0  501    0  0.00000000000E+00  0.00000000000E+00  0.74690706943E+03  0.74690706944E+03  0.50400001928E-02 0. -1.
       -1   -1    0    0    0  501  0.00000000000E+00  0.00000000000E+00 -0.14025950194E+04  0.14025950194E+04  0.50400001928E-02 0.  1.
    10030    2    1    2    0    0  0.00000000000E+00  0.00000000000E+00 -0.65568794994E+03  0.21495020888E+04  0.20470546017E+04 0.  0.
        4    1    3    3  502    0  0.59996685013E+03 -0.82923725971E+03 -0.32422649438E+03  0.10736475617E+04  0.12699999809E+01 0. -1.
       -4    1    3    3    0  502 -0.59996685013E+03  0.82923725971E+03 -0.33146145556E+03  0.10758545271E+04  0.12699999809E+01 0.  1.
</event>
<event>
 5   0  0.1805501E-04  0.2278801E+04  0.7818609E-02  0.8486327E-01
        2   -1    0    0  501    0  0.00000000000E+00  0.00000000000E+00  0.12149321121E+04  0.12149321121E+04  0.25500000920E-02 0. -1.
       -2   -1    0    0    0  501  0.00000000000E+00  0.00000000000E+00 -0.10685650625E+04  0.10685650625E+04  0.25500000920E-02 0.  1.
    10030    2    1    2    0    0  0.00000000000E+00  0.00000000000E+00  0.14636704958E+03  0.22834971745E+04  0.22788014466E+04 0.  0.
        2    1    3    3  502    0 -0.13428578134E+03  0.67365253551E+02  0.12049635269E+04  0.12142931481E+04  0.25500000920E-02 0. -1.
       -2    1    3    3    0  502  0.13428578134E+03 -0.67365253551E+02 -0.10585964773E+04  0.10692040264E+04  0.25500000920E-02 0.  1.
</event>
<event>
 5   0  0.1733962E-04  0.2163387E+04  0.7818609E-02  0.8533824E-01
        2   -1    0    0  501    0  0.00000000000E+00  0.00000000000E+00  0.18889142957E+04  0.18889142957E+04  0.25500000920E-02 0.  1.
       -2   -1    0    0    0  501  0.00000000000E+00  0.00000000000E+00 -0.61943554790E+03  0.61943554790E+03  0.25500000920E-02 0. -1.
    10030    2    1    2    0    0  0.00000000000E+00  0.00000000000E+00  0.12694787478E+04  0.25083498436E+04  0.21633868463E+04 0.  0.
        3    1    3    3  502    0 -0.67943323882E+02  0.50355450026E+03 -0.47245050454E+03  0.69382484781E+03  0.10100000352E+00 0. -1.
       -3    1    3    3    0  502  0.67943323882E+02 -0.50355450026E+03  0.17419292523E+04  0.18145249958E+04  0.10100000352E+00 0.  1.
</event>
<event>
 5   0  0.8602414E-05  0.1765786E+04  0.7818609E-02  0.8724709E-01
       -1   -1    0    0    0  501  0.00000000000E+00  0.00000000000E+00  0.63773545320E+03  0.63773545322E+03  0.50400001928E-02 0. -1.
        1   -1    0    0  501    0  0.00000000000E+00  0.00000000000E+00 -0.12222935774E+04  0.12222935774E+04  0.50400001928E-02 0.  1.
    10030    2    1    2    0    0  0.00000000000E+00  0.00000000000E+00 -0.58455812419E+03  0.18600290306E+04  0.17657858857E+04 0.  0.
        3    1    3    3  502    0  0.85425016507E+03 -0.84986098604E+02 -0.50952395452E+03  0.99828886195E+03  0.10100000352E+00 0.  1.
       -3    1    3    3    0  502 -0.85425016507E+03  0.84986098604E+02 -0.75034169679E+02  0.86174016867E+03  0.10100000352E+00 0. -1.
</event>
<event>
 5   0  0.1733962E-04  0.2213625E+04  0.7818609E-02  0.8512778E-01
       -2   -1    0    0    0  501  0.00000000000E+00  0.00000000000E+00  0.92410405104E+03  0.92410405105E+03  0.25500000920E-02 0.  1.
        2   -1    0    0  501    0  0.00000000000E+00  0.00000000000E+00 -0.13256453796E+04  0.13256453796E+04  0.25500000920E-02 0. -1.
    10030    2    1    2    0    0  0.00000000000E+00  0.00000000000E+00 -0.40154132860E+03  0.22497494307E+04  0.22136253211E+04 0.  0.
        3    1    3    3  502    0  0.57436481108E+03  0.71165432567E+03 -0.83439272581E+03  0.12379652849E+04  0.10100000352E+00 0.  1.
       -3    1    3    3    0  502 -0.57436481108E+03 -0.71165432567E+03  0.43285139721E+03  0.10117841458E+04  0.10100000352E+00 0. -1.
</event>
<event>
 5   0  0.8784659E-05  0.2218858E+04  0.7818609E-02  0.8510620E-01
       -1   -1    0    0    0  501  0.00000000000E+00  0.00000000000E+00  0.62054785340E+03  0.62054785342E+03  0.50400001928E-02 0.  1.
        1   -1    0    0  501    0  0.00000000000E+00  0.00000000000E+00 -0.19834613397E+04  0.19834613397E+04  0.50400001928E-02 0. -1.
    10030    2    1    2    0    0  0.00000000000E+00  0.00000000000E+00 -0.13629134863E+04  0.26040091931E+04  0.22188579735E+04 0.  0.
        4    1    3    3  502    0 -0.93912363371E+03  0.40152939653E+03 -0.17307538527E+03  0.10359226600E+04  0.12699999809E+01 0.  1.
       -4    1    3    3    0  502  0.93912363371E+03 -0.40152939653E+03 -0.11898381010E+04  0.15680865331E+04  0.12699999809E+01 0. -1.
</event>
<event>
 5   0  0.1680258E-04  0.2173191E+04  0.7818609E-02  0.8529670E-01
        2   -1    0    0  501    0  0.00000000000E+00  0.00000000000E+00  0.11406198316E+04  0.11406198316E+04  0.25500000920E-02 0.  1.
       -2   -1    0    0    0  501  0.00000000000E+00  0.00000000000E+00 -0.10351302213E+04  0.10351302213E+04  0.25500000920E-02 0. -1.
    10030    2    1    2    0    0  0.00000000000E+00  0.00000000000E+00  0.10548961025E+03  0.21757500529E+04  0.21731912559E+04 0.  0.
        5    1    3    3  502    0  0.88154512568E+03 -0.27310665208E+03  0.62696952586E+03  0.11157158816E+04  0.46999998093E+01 0.  1.
       -5    1    3    3    0  502 -0.88154512568E+03  0.27310665208E+03 -0.52147991561E+03  0.10600341713E+04  0.46999998093E+01 0. -1.
</event>
<event>
 5   0  0.8602414E-05  0.2221526E+04  0.7818609E-02  0.8509522E-01
       -1   -1    0    0    0  501  0.00000000000E+00  0.00000000000E+00  0.66816116694E+03  0.66816116696E+03  0.50400001928E-02 0.  1.
        1   -1    0    0  501    0  0.00000000000E+00  0.00000000000E+00 -0.18465514450E+04  0.18465514450E+04  0.50400001928E-02 0. -1.
    10030    2    1    2    0    0  0.00000000000E+00  0.00000000000E+00 -0.11783902780E+04  0.25147126119E+04  0.22215255734E+04 0.  0.
        3    1    3    3  502    0 -0.21835924295E+03 -0.24010114462E+02 -0.18217167607E+04  0.18349139519E+04  0.10100000352E+00 0. -1.
       -3    1    3    3    0  502  0.21835924295E+03  0.24010114462E+02  0.64332648269E+03  0.67979865998E+03  0.10100000352E+00 0.  1.
</event>
<event>
 5   0  0.1805501E-04  0.2166833E+04  0.7818609E-02  0.8532361E-01
       -2   -1    0    0    0  501  0.00000000000E+00  0.00000000000E+00  0.62587453091E+03  0.62587453092E+03  0.25500000920E-02 0.  1.
        2   -1    0    0  501    0  0.00000000000E+00  0.00000000000E+00 -0.18754427339E+04  0.18754427339E+04  0.25500000920E-02 0. -1.
    10030    2    1    2    0    0  0.00000000000E+00  0.00000000000E+00 -0.12495682030E+04  0.25013172648E+04  0.21668334882E+04 0.  0.
        2    1    3    3  502    0 -0.70515449767E+03  0.80743081954E+03 -0.44371262219E+03  0.11602018294E+04  0.25500000920E-02 0. -1.
       -2    1    3    3    0  502  0.70515449767E+03 -0.80743081954E+03 -0.80585558080E+03  0.13411154354E+04  0.25500000920E-02 0.  1.
</event>
<event>
 5   0  0.7954459E-05  0.2169939E+04  0.7818609E-02  0.8531045E-01
       -1   -1    0    0    0  501  0.00000000000E+00  0.00000000000E+00  0.12986803572E+04  0.12986803572E+04  0.50400001928E-02 0.  1.
        1   -1    0    0  501    0  0.00000000000E+00  0.00000000000E+00 -0.90642664247E+03  0.90642664249E+03  0.50400001928E-02 0. -1.
    10030    2    1    2    0    0  0.00000000000E+00  0.00000000000E+00  0.39225371472E+03  0.22051069997E+04  0.21699386866E+04 0.  0.
        5    1    3    3  502    0 -0.23003733030E+03  0.33357239158E+03  0.12188920158E+04  0.12844872712E+04  0.46999998093E+01 0.  1.
       -5    1    3    3    0  502  0.23003733030E+03 -0.33357239158E+03 -0.82663830105E+03  0.92061972850E+03  0.46999998093E+01 0. -1.
</event>
<event>
 5   0  0.8470971E-05  0.2161156E+04  0.7818609E-02  0.8534772E-01
        1   -1    0    0  501    0  0.00000000000E+00  0.00000000000E+00  0.25559001973E+04  0.25559001973E+04  0.50400001928E-02 0.  1.
       -1   -1    0    0    0  501  0.00000000000E+00  0.00000000000E+00 -0.45684431084E+03  0.45684431087E+03  0.50400001928E-02 0. -1.
    10030    2    1    2    0    0  0.00000000000E+00  0.00000000000E+00  0.20990558865E+04  0.30127445082E+04  0.21611556763E+04 0.  0.
        2    1    3    3  502    0 -0.10393812749E+04 -0.13186130973E+03  0.68083677266E+03  0.12494957185E+04  0.25500000920E-02 0.  1.
       -2    1    3    3    0  502  0.10393812749E+04  0.13186130973E+03  0.14182191138E+04  0.17632487897E+04  0.25500000920E-02 0. -1.
</event>
<event>
 5   0  0.7954459E-05  0.1772658E+04  0.7818609E-02  0.8720976E-01
       -1   -1    0    0    0  501  0.00000000000E+00  0.00000000000E+00  0.72972108243E+03  0.72972108245E+03  0.50400001928E-02 0.  1.
        1   -1    0    0  501    0  0.00000000000E+00  0.00000000000E+00 -0.10765474603E+04  0.10765474603E+04  0.50400001928E-02 0. -1.
    10030    2    1    2    0    0  0.00000000000E+00  0.00000000000E+00 -0.34682637788E+03  0.18062685428E+04  0.17726583180E+04 0.  0.
        5    1    3    3  502    0  0.83624193689E+03  0.20621524430E+03 -0.38650015022E+03  0.94404965977E+03  0.46999998093E+01 0.  1.
       -5    1    3    3    0  502 -0.83624193689E+03 -0.20621524430E+03  0.39673772338E+02  0.86221888300E+03  0.46999998093E+01 0. -1.
</event>
<event>
 5   0  0.1680258E-04  0.2143846E+04  0.7818609E-02  0.8542171E-01
       -2   -1    0    0    0  501  0.00000000000E+00  0.00000000000E+00  0.58531651704E+03  0.58531651704E+03  0.25500000920E-02 0.  1.
        2   -1    0    0  501    0  0.00000000000E+00  0.00000000000E+00 -0.19630736632E+04  0.19630736632E+04  0.25500000920E-02 0. -1.
    10030    2    1    2    0    0  0.00000000000E+00  0.00000000000E+00 -0.13777571461E+04  0.25483901802E+04  0.21438464863E+04 0.  0.
        5    1    3    3  502    0 -0.84333139867E+03 -0.29613260407E+03  0.14461208450E+02  0.89394271837E+03  0.46999998093E+01 0.  1.
       -5    1    3    3    0  502  0.84333139867E+03  0.29613260407E+03 -0.13922183546E+04  0.16544474618E+04  0.46999998093E+01 0. -1.
</event>
<event>
 5   0  0.7954459E-05  0.2152813E+04  0.7818609E-02  0.8538329E-01
       -1   -1    0    0    0  501  0.00000000000E+00  0.00000000000E+00  0.12456035100E+04  0.12456035101E+04  0.50400001928E-02 0.  1.
        1   -1    0    0  501    0  0.00000000000E+00  0.00000000000E+00 -0.93019226262E+03  0.93019226263E+03  0.50400001928E-02 0. -1.
    10030    2    1    2    0    0  0.00000000000E+00  0.00000000000E+00  0.31541124742E+03  0.21757957727E+04  0.21528128087E+04 0.  0.
        5    1    3    3  502    0  0.83127983296E+03  0.67907054518E+03  0.23897358109E+03  0.10996787842E+04  0.46999998093E+01 0. -1.
       -5    1    3    3    0  502 -0.83127983296E+03 -0.67907054518E+03  0.76437666336E+02  0.10761169885E+04  0.46999998093E+01 0.  1.
</event>
<event>
 5   0  0.1754356E-04  0.2212240E+04  0.7818609E-02  0.8513351E-01
        2   -1    0    0  501    0  0.00000000000E+00  0.00000000000E+00  0.16228467865E+04  0.16228467865E+04  0.25500000920E-02 0.  1.
       -2   -1    0    0    0  501  0.00000000000E+00  0.00000000000E+00 -0.75392280570E+03  0.75392280570E+03  0.25500000920E-02 0. -1.
    10030    2    1    2    0    0  0.00000000000E+00  0.00000000000E+00  0.86892398077E+03  0.23767695922E+04  0.22122397722E+04 0.  0.
        1    1    3    3  502    0  0.43232154480E+03 -0.64008637281E+02  0.15261546119E+04  0.15874970624E+04  0.50400001928E-02 0.  1.
       -1    1    3    3    0  502 -0.43232154480E+03  0.64008637281E+02 -0.65723063111E+03  0.78927252977E+03  0.50400001928E-02 0. -1.
</event>
<event>
 5   0  0.1680258E-04  0.2214469E+04  0.7818609E-02  0.8512430E-01
       -2   -1    0    0    0  501  0.00000000000E+00  0.00000000000E+00  0.23912963368E+04  0.23912963368E+04  0.25500000920E-02 0. -1.
        2   -1    0    0  501    0  0.00000000000E+00  0.00000000000E+00 -0.51267912155E+03  0.51267912155E+03  0.25500000920E-02 0.  1.
    10030    2    1    2    0    0  0.00000000000E+00  0.00000000000E+00  0.18786172152E+04  0.29039754583E+04  0.22144685189E+04 0.  0.
        5    1    3    3  502    0 -0.50311280599E+03 -0.54255073878E+03 -0.14084653141E+03  0.75322216850E+03  0.46999998093E+01 0.  1.
       -5    1    3    3    0  502  0.50311280599E+03  0.54255073878E+03  0.20194637466E+04  0.21507532898E+04  0.46999998093E+01 0. -1.
</event>
<event>
 5   0  0.1680258E-04  0.2188492E+04  0.7818609E-02  0.8523233E-01
        2   -1    0    0  501    0  0.00000000000E+00  0.00000000000E+00  0.18479417259E+04  0.18479417259E+04  0.25500000920E-02 0. -1.
       -2   -1    0    0    0  501  0.00000000000E+00  0.00000000000E+00 -0.64795010105E+03  0.64795010106E+03  0.25500000920E-02 0.  1.
    10030    2    1    2    0    0  0.00000000000E+00  0.00000000000E+00  0.11999916248E+04  0.24958918269E+04  0.21884917437E+04 0.  0.
        5    1    3    3  502    0  0.67568785487E+03 -0.14820089435E+03  0.15669263116E+04  0.17128332489E+04  0.46999998093E+01 0. -1.
       -5    1    3    3    0  502 -0.67568785487E+03  0.14820089435E+03 -0.36693468681E+03  0.78305857807E+03  0.46999998093E+01 0.  1.
</event>
<event>
 5   0  0.7954459E-05  0.2121213E+04  0.7818609E-02  0.8551956E-01
        1   -1    0    0  501    0  0.00000000000E+00  0.00000000000E+00  0.11824815765E+04  0.11824815765E+04  0.50400001928E-02 0.  1.
       -1   -1    0    0    0  501  0.00000000000E+00  0.00000000000E+00 -0.95129257541E+03  0.95129257543E+03  0.50400001928E-02 0. -1.
    10030    2    1    2    0    0  0.00000000000E+00  0.00000000000E+00  0.23118900110E+03  0.21337741520E+04  0.21212128081E+04 0.  0.
        5    1    3    3  502    0  0.95780992240E+03 -0.21059972624E+03  0.52185710557E+03  0.11109045957E+04  0.46999998093E+01 0.  1.
       -5    1    3    3    0  502 -0.95780992240E+03  0.21059972624E+03 -0.29066810447E+03  0.10228695562E+04  0.46999998093E+01 0. -1.
</event>
<event>
 5   0  0.7954459E-05  0.2140811E+04  0.7818609E-02  0.8543476E-01
       -1   -1    0    0    0  501  0.00000000000E+00  0.00000000000E+00  0.10101627596E+04  0.10101627596E+04  0.50400001928E-02 0. -1.
        1   -1    0    0  501    0  0.00000000000E+00  0.00000000000E+00 -0.11342406579E+04  0.11342406579E+04  0.50400001928E-02 0.  1.
    10030    2    1    2    0    0  0.00000000000E+00  0.00000000000E+00 -0.12407789828E+03  0.21444034175E+04  0.21408107558E+04 0.  0.
        5    1    3    3  502    0 -0.50258239830E+03 -0.36537893819E+03  0.81100547057E+03  0.10216862527E+04  0.46999998093E+01 0. -1.
       -5    1    3    3    0  502  0.50258239830E+03  0.36537893819E+03 -0.93508336885E+03  0.11227171649E+04  0.46999998093E+01 0.  1.
</event>
<event>
 5   0  0.1680258E-04  0.2206883E+04  0.7818609E-02  0.8515569E-01
       -2   -1    0    0    0  501  0.00000000000E+00  0.00000000000E+00  0.26690746613E+04  0.26690746613E+04  0.25500000920E-02 0. -1.
        2   -1    0    0  501    0  0.00000000000E+00  0.00000000000E+00 -0.45618155135E+03  0.45618155135E+03  0.25500000920E-02 0.  1.
    10030    2    1    2    0    0  0.00000000000E+00  0.00000000000E+00  0.22128931099E+04  0.31252562126E+04  0.22068825249E+04 0.  0.
        5    1    3    3  502    0  0.19937060294E+03 -0.77563654790E+03  0.31484888751E+02  0.80148242649E+03  0.46999998093E+01 0.  1.
       -5    1    3    3    0  502 -0.19937060294E+03  0.77563654790E+03  0.21814082212E+04  0.23237737861E+04  0.46999998093E+01 0. -1.
</event>
<event>
 5   0  0.8784659E-05  0.2213013E+04  0.7818609E-02  0.8513031E-01
       -1   -1    0    0    0  501  0.00000000000E+00  0.00000000000E+00  0.69758801417E+03  0.69758801419E+03  0.50400001928E-02 0. -1.
        1   -1    0    0  501    0  0.00000000000E+00  0.00000000000E+00 -0.17551289314E+04  0.17551289314E+04  0.50400001928E-02 0.  1.
    10030    2    1    2    0    0  0.00000000000E+00  0.00000000000E+00 -0.10575409172E+04  0.24527169456E+04  0.22130132452E+04 0.  0.
        4    1    3    3  502    0  0.66338043163E+03  0.68372644225E+03 -0.11525855839E+04  0.14953295911E+04  0.12699999809E+01 0.  1.
       -4    1    3    3    0  502 -0.66338043163E+03 -0.68372644225E+03  0.95044666716E+02  0.95738735446E+03  0.12699999809E+01 0. -1.
</event>
<event>
 5   0  0.1754356E-04  0.2337445E+04  0.7818609E-02  0.8463302E-01
        2   -1    0    0  501    0  0.00000000000E+00  0.00000000000E+00  0.26036534049E+04  0.26036534049E+04  0.25500000920E-02 0.  1.
       -2   -1    0    0    0  501  0.00000000000E+00  0.00000000000E+00 -0.52461378479E+03  0.52461378480E+03  0.25500000920E-02 0. -1.
    10030    2    1    2    0    0  0.00000000000E+00  0.00000000000E+00  0.20790396201E+04  0.31282671897E+04  0.23374451583E+04 0.  0.
        1    1    3    3  502    0 -0.14403765053E+01 -0.76694631732E+03  0.22197575640E+04  0.23485170579E+04  0.50400001928E-02 0.  1.
       -1    1    3    3    0  502  0.14403765053E+01  0.76694631732E+03 -0.14071794386E+03  0.77975013183E+03  0.50400001928E-02 0. -1.
</event>
<event>
 5   0  0.7954459E-05  0.2196195E+04  0.7818609E-02  0.8520014E-01
       -1   -1    0    0    0  501  0.00000000000E+00  0.00000000000E+00  0.16851360223E+04  0.16851360223E+04  0.50400001928E-02 0.  1.
        1   -1    0    0  501    0  0.00000000000E+00  0.00000000000E+00 -0.71556118071E+03  0.71556118073E+03  0.50400001928E-02 0. -1.
    10030    2    1    2    0    0  0.00000000000E+00  0.00000000000E+00  0.96957484155E+03  0.24006972030E+04  0.21961948199E+04 0.  0.
        5    1    3    3  502    0  0.67116698832E+03 -0.22143809963E+03 -0.43388326412E+03  0.82932305833E+03  0.46999998093E+01 0. -1.
       -5    1    3    3    0  502 -0.67116698832E+03  0.22143809963E+03  0.14034581057E+04  0.15713741447E+04  0.46999998093E+01 0.  1.
</event>
<event>
 5   0  0.8306787E-05  0.2173563E+04  0.7818609E-02  0.8529513E-01
        1   -1    0    0  501    0  0.00000000000E+00  0.00000000000E+00  0.10891578475E+04  0.10891578476E+04  0.50400001928E-02 0. -1.
       -1   -1    0    0    0  501  0.00000000000E+00  0.00000000000E+00 -0.10844101239E+04  0.10844101239E+04  0.50400001928E-02 0.  1.
    10030    2    1    2    0    0  0.00000000000E+00  0.00000000000E+00  0.47477236841E+01  0.21735679714E+04  0.21735627862E+04 0.  0.
        1    1    3    3  502    0 -0.58546084750E+03  0.51179571757E+02  0.91654782294E+03  0.10887808155E+04  0.50400001928E-02 0. -1.
       -1    1    3    3    0  502  0.58546084750E+03 -0.51179571757E+02 -0.91180009926E+03  0.10847871559E+04  0.50400001928E-02 0.  1.
</event>
<event>
 5   0  0.8306787E-05  0.1192989E+04  0.7818609E-02  0.9119016E-01
        1   -1    0    0  501    0  0.00000000000E+00  0.00000000000E+00  0.46372236360E+03  0.46372236363E+03  0.50400001928E-02 0. -1.
       -1   -1    0    0    0  501  0.00000000000E+00  0.00000000000E+00 -0.76728138445E+03  0.76728138447E+03  0.50400001928E-02 0.  1.
    10030    2    1    2    0    0  0.00000000000E+00  0.00000000000E+00 -0.30355902086E+03  0.12310037481E+04  0.11929887463E+04 0.  0.
        1    1    3    3  502    0 -0.96090962057E+02 -0.44612163002E+03  0.24457977571E+03  0.51776176806E+03  0.50400001928E-02 0. -1.
       -1    1    3    3    0  502  0.96090962057E+02  0.44612163002E+03 -0.54813879656E+03  0.71324198003E+03  0.50400001928E-02 0.  1.
</event>
<event>
 5   0  0.8784659E-05  0.1870546E+04  0.7818609E-02  0.8669658E-01
       -1   -1    0    0    0  501  0.00000000000E+00  0.00000000000E+00  0.48321780330E+03  0.48321780332E+03  0.50400001928E-02 0. -1.
        1   -1    0    0  501    0  0.00000000000E+00  0.00000000000E+00 -0.18102312099E+04  0.18102312099E+04  0.50400001928E-02 0.  1.
    10030    2    1    2    0    0  0.00000000000E+00  0.00000000000E+00 -0.13270134066E+04  0.22934490132E+04  0.18705463894E+04 0.  0.
        4    1    3    3  502    0 -0.32161427485E+03 -0.32588339146E+03 -0.16634229532E+04  0.17252864286E+04  0.12699999809E+01 0.  1.
       -4    1    3    3    0  502  0.32161427485E+03  0.32588339146E+03  0.33640954660E+03  0.56816258461E+03  0.12699999809E+01 0. -1.
</event>
<event>
 5   0  0.1798917E-04  0.1801344E+04  0.7818609E-02  0.8705585E-01
        2   -1    0    0  501    0  0.00000000000E+00  0.00000000000E+00  0.23823634231E+04  0.23823634232E+04  0.25500000920E-02 0. -1.
       -2   -1    0    0    0  501  0.00000000000E+00  0.00000000000E+00 -0.34050646624E+03  0.34050646625E+03  0.25500000920E-02 0.  1.
    10030    2    1    2    0    0  0.00000000000E+00  0.00000000000E+00  0.20418569569E+04  0.27228698894E+04  0.18013441099E+04 0.  0.
        4    1    3    3  502    0  0.65193981984E+03  0.35708048436E+03  0.25213671048E+03  0.78492454075E+03  0.12699999809E+01 0.  1.
       -4    1    3    3    0  502 -0.65193981984E+03 -0.35708048436E+03  0.17897202464E+04  0.19379453487E+04  0.12699999809E+01 0. -1.
</event>
<event>
 5   0  0.1733962E-04  0.1862760E+04  0.7818609E-02  0.8673619E-01
        2   -1    0    0  501    0  0.00000000000E+00  0.00000000000E+00  0.17340419942E+04  0.17340419942E+04  0.25500000920E-02 0. -1.
       -2   -1    0    0    0  501  0.00000000000E+00  0.00000000000E+00 -0.50025804189E+03  0.50025804189E+03  0.25500000920E-02 0.  1.
    10030    2    1    2    0    0  0.00000000000E+00  0.00000000000E+00  0.12337839523E+04  0.22343000361E+04  0.18627597296E+04 0.  0.
        3    1    3    3  502    0  0.10431941500E+03  0.27972803991E+03  0.16750945272E+04  0.17014911113E+04  0.10100000352E+00 0. -1.
       -3    1    3    3    0  502 -0.10431941500E+03 -0.27972803991E+03 -0.44131057486E+03  0.53280892480E+03  0.10100000352E+00 0.  1.
</event>
<event>
 5   0  0.8784659E-05  0.2179025E+04  0.7818609E-02  0.8527209E-01
       -1   -1    0    0    0  501  0.00000000000E+00  0.00000000000E+00  0.10159284620E+04  0.10159284620E+04  0.50400001928E-02 0.  1.
        1   -1    0    0  501    0  0.00000000000E+00  0.00000000000E+00 -0.11684264676E+04  0.11684264676E+04  0.50400001928E-02 0. -1.
    10030    2    1    2    0    0  0.00000000000E+00  0.00000000000E+00 -0.15249800556E+03  0.21843549296E+04  0.21790251988E+04 0.  0.
        4    1    3    3  502    0 -0.25297813487E+03 -0.19793278207E+03  0.96738375619E+03  0.10193175499E+04  0.12699999809E+01 0.  1.
       -4    1    3    3    0  502  0.25297813487E+03  0.19793278207E+03 -0.11198817617E+04  0.11650373797E+04  0.12699999809E+01 0. -1.
</event>
<event>
 5   0  0.1680258E-04  0.2315456E+04  0.7818609E-02  0.8471852E-01
       -2   -1    0    0    0  501  0.00000000000E+00  0.00000000000E+00  0.10390833355E+04  0.10390833355E+04  0.25500000920E-02 0. -1.
        2   -1    0    0  501    0  0.00000000000E+00  0.00000000000E+00 -0.12899196999E+04  0.12899196999E+04  0.25500000920E-02 0.  1.
    10030    2    1    2    0    0  0.00000000000E+00  0.00000000000E+00 -0.25083636442E+03  0.23290030353E+04  0.23154559501E+04 0.  0.
        5    1    3    3  502    0 -0.68445356862E+02  0.45086795079E+03  0.94492481462E+03  0.10492243188E+04  0.46999998093E+01 0. -1.
       -5    1    3    3    0  502  0.68445356862E+02 -0.45086795079E+03 -0.11957611790E+04  0.12797787165E+04  0.46999998093E+01 0.  1.
</event>
<event>
 5   0  0.1733962E-04  0.2109593E+04  0.7818609E-02  0.8557029E-01
        2   -1    0    0  501    0  0.00000000000E+00  0.00000000000E+00  0.17156120691E+04  0.17156120691E+04  0.25500000920E-02 0.  1.
       -2   -1    0    0    0  501  0.00000000000E+00  0.00000000000E+00 -0.64851229872E+03  0.64851229873E+03  0.25500000920E-02 0. -1.
    10030    2    1    2    0    0  0.00000000000E+00  0.00000000000E+00  0.10670997704E+04  0.23641243679E+04  0.21095928770E+04 0.  0.
        3    1    3    3  502    0 -0.19619990655E+03 -0.64511463224E+01 -0.62786085690E+03  0.65783378330E+03  0.10100000352E+00 0. -1.
       -3    1    3    3    0  502  0.19619990655E+03  0.64511463224E+01  0.16949606273E+04  0.17062905846E+04  0.10100000352E+00 0.  1.
</event>
<event>
 5   0  0.1798917E-04  0.2221534E+04  0.7818609E-02  0.8509518E-01
        2   -1    0    0  501    0  0.00000000000E+00  0.00000000000E+00  0.11503158819E+04  0.11503158819E+04  0.25500000920E-02 0. -1.
       -2   -1    0    0    0  501  0.00000000000E+00  0.00000000000E+00 -0.10725781755E+04  0.10725781755E+04  0.25500000920E-02 0.  1.
    10030    2    1    2    0    0  0.00000000000E+00  0.00000000000E+00  0.77737706450E+02  0.22228940574E+04  0.22215343435E+04 0.  0.
        4    1    3    3  502    0  0.35906912371E+03 -0.36814332016E+03 -0.94628540501E+03  0.10769948098E+04  0.12699999809E+01 0.  1.
       -4    1    3    3    0  502 -0.35906912371E+03  0.36814332016E+03  0.10240231115E+04  0.11458992475E+04  0.12699999809E+01 0. -1.
</event>
<event>
 5   0  0.1805501E-04  0.2217479E+04  0.7818609E-02  0.8511188E-01
        2   -1    0    0  501    0  0.00000000000E+00  0.00000000000E+00  0.17266241405E+04  0.17266241405E+04  0.25500000920E-02 0. -1.
       -2   -1    0    0    0  501  0.00000000000E+00  0.00000000000E+00 -0.71196908110E+03  0.71196908111E+03  0.25500000920E-02 0.  1.
    10030    2    1    2    0    0  0.00000000000E+00  0.00000000000E+00  0.10146550594E+04  0.24385932216E+04  0.22174787509E+04 0.  0.
        2    1    3    3  502    0  0.81164839861E+03  0.41989007166E+02 -0.32203997528E+03  0.87421161361E+03  0.25500000920E-02 0.  1.
       -2    1    3    3    0  502 -0.81164839861E+03 -0.41989007166E+02  0.13366950347E+04  0.15643816080E+04  0.25500000920E-02 0. -1.
</event>
<event>
 5   0  0.1805501E-04  0.2159750E+04  0.7818609E-02  0.8535370E-01
       -2   -1    0    0    0  501  0.00000000000E+00  0.00000000000E+00  0.11967124847E+04  0.11967124847E+04  0.25500000920E-02 0.  1.
        2   -1    0    0  501    0  0.00000000000E+00  0.00000000000E+00 -0.97444454792E+03  0.97444454792E+03  0.25500000920E-02 0. -1.
    10030    2    1    2    0    0  0.00000000000E+00  0.00000000000E+00  0.22226793676E+03  0.21711570326E+04  0.21597499449E+04 0.  0.
        2    1    3    3  502    0  0.33173408887E+03  0.83586695684E+03 -0.48986044349E+03  0.10240528938E+04  0.25500000920E-02 0. -1.
       -2    1    3    3    0  502 -0.33173408887E+03 -0.83586695684E+03  0.71212838025E+03  0.11471041388E+04  0.25500000920E-02 0.  1.
</event>
<event>
 5   0  0.1805501E-04  0.2115031E+04  0.7818609E-02  0.8554651E-01
        2   -1    0    0  501    0  0.00000000000E+00  0.00000000000E+00  0.11357468039E+04  0.11357468039E+04  0.25500000920E-02 0.  1.
       -2   -1    0    0    0  501  0.00000000000E+00  0.00000000000E+00 -0.98467271486E+03  0.98467271487E+03  0.25500000920E-02 0. -1.
    10030    2    1    2    0    0  0.00000000000E+00  0.00000000000E+00  0.15107408903E+03  0.21204195188E+04  0.21150308639E+04 0.  0.
        2    1    3    3  502    0 -0.80036368900E+03  0.38441849655E+03 -0.50036472793E+03  0.10191783338E+04  0.25500000920E-02 0. -1.
       -2    1    3    3    0  502  0.80036368900E+03 -0.38441849655E+03  0.65143881697E+03  0.11012411849E+04  0.25500000920E-02 0.  1.
</event>
<event>
 5   0  0.1733962E-04  0.2277009E+04  0.7818609E-02  0.8487042E-01
        2   -1    0    0  501    0  0.00000000000E+00  0.00000000000E+00  0.19700194282E+04  0.19700194282E+04  0.25500000920E-02 0.  1.
       -2   -1    0    0    0  501  0.00000000000E+00  0.00000000000E+00 -0.65795898974E+03  0.65795898975E+03  0.25500000920E-02 0. -1.
    10030    2    1    2    0    0  0.00000000000E+00  0.00000000000E+00  0.13120604385E+04  0.26279784180E+04  0.22770085575E+04 0.  0.
        3    1    3    3  502    0 -0.12293932631E+02  0.96055988091E+03 -0.49189191314E+02  0.96189709031E+03  0.10100000352E+00 0. -1.
       -3    1    3    3    0  502  0.12293932631E+02 -0.96055988091E+03  0.13612496298E+04  0.16660813277E+04  0.10100000352E+00 0.  1.
</event>
<event>
 5   0  0.1798917E-04  0.2215029E+04  0.7818609E-02  0.8512199E-01
        2   -1    0    0  501    0  0.00000000000E+00  0.00000000000E+00  0.18921116931E+04  0.18921116931E+04  0.25500000920E-02 0.  1.
       -2   -1    0    0    0  501  0.00000000000E+00  0.00000000000E+00 -0.64826438755E+03  0.64826438755E+03  0.25500000920E-02 0. -1.
    10030    2    1    2    0    0  0.00000000000E+00  0.00000000000E+00  0.12438473055E+04  0.25403760806E+04  0.22150292349E+04 0.  0.
        4    1    3    3  502    0 -0.28358675335E+03  0.10705815639E+04  0.62713955362E+03  0.12727419079E+04  0.12699999809E+01 0. -1.
       -4    1    3    3    0  502  0.28358675335E+03 -0.10705815639E+04  0.61670775189E+03  0.12676341727E+04  0.12699999809E+01 0.  1.
</event>
<event>
 5   0  0.1754356E-04  0.2181514E+04  0.7818609E-02  0.8526162E-01
       -2   -1    0    0    0  501  0.00000000000E+00  0.00000000000E+00  0.95662419560E+03  0.95662419561E+03  0.25500000920E-02 0. -1.
        2   -1    0    0  501    0  0.00000000000E+00  0.00000000000E+00 -0.12436971565E+04  0.12436971565E+04  0.25500000920E-02 0.  1.
    10030    2    1    2    0    0  0.00000000000E+00  0.00000000000E+00 -0.28707296094E+03  0.22003213522E+04  0.21815139623E+04 0.  0.
        1    1    3    3  502    0 -0.75145952315E+03 -0.63330434765E+03  0.33381422056E+03  0.10378813735E+04  0.50400001928E-02 0. -1.
       -1    1    3    3    0  502  0.75145952315E+03  0.63330434765E+03 -0.62088718150E+03  0.11624399786E+04  0.50400001928E-02 0.  1.
</event>
<event>
 5   0  0.8306787E-05  0.2199349E+04  0.7818609E-02  0.8518699E-01
        1   -1    0    0  501    0  0.00000000000E+00  0.00000000000E+00  0.11177085133E+04  0.11177085133E+04  0.50400001928E-02 0.  1.
       -1   -1    0    0    0  501  0.00000000000E+00  0.00000000000E+00 -0.10819317354E+04  0.10819317354E+04  0.50400001928E-02 0. -1.
    10030    2    1    2    0    0  0.00000000000E+00  0.00000000000E+00  0.35776777863E+02  0.21996402487E+04  0.21993492778E+04 0.  0.
        1    1    3    3  502    0  0.10152503207E+04 -0.39508201666E+03  0.16777915415E+03  0.11022580724E+04  0.50400001928E-02 0. -1.
       -1    1    3    3    0  502 -0.10152503207E+04  0.39508201666E+03 -0.13200237629E+03  0.10973821763E+04  0.50400001928E-02 0.  1.
</event>
<event>
 5   0  0.8602414E-05  0.2042804E+04  0.7818609E-02  0.8586866E-01
        1   -1    0    0  501    0  0.00000000000E+00  0.00000000000E+00  0.10183650697E+04  0.10183650697E+04  0.50400001928E-02 0.  1.
       -1   -1    0    0    0  501  0.00000000000E+00  0.00000000000E+00 -0.10244482491E+04  0.10244482491E+04  0.50400001928E-02 0. -1.
    10030    2    1    2    0    0  0.00000000000E+00  0.00000000000E+00 -0.60831793483E+01  0.20428133188E+04  0.20428042614E+04 0.  0.
        3    1    3    3  502    0 -0.50933242122E+03  0.34386928519E+03  0.81280312843E+03  0.10189772011E+04  0.10100000352E+00 0.  1.
       -3    1    3    3    0  502  0.50933242122E+03 -0.34386928519E+03 -0.81888630778E+03  0.10238361177E+04  0.10100000352E+00 0. -1.
</event>
<event>
 5   0  0.8306787E-05  0.2211067E+04  0.7818609E-02  0.8513836E-01
       -1   -1    0    0    0  501  0.00000000000E+00  0.00000000000E+00  0.64050283033E+03  0.64050283035E+03  0.50400001928E-02 0. -1.
        1   -1    0    0  501    0  0.00000000000E+00  0.00000000000E+00 -0.19081957532E+04  0.19081957532E+04  0.50400001928E-02 0.  1.
    10030    2    1    2    0    0  0.00000000000E+00  0.00000000000E+00 -0.12676929228E+04  0.25486985835E+04  0.22110674171E+04 0.  0.
        1    1    3    3  502    0  0.11048046705E+04  0.87757710346E+01 -0.67899947227E+03  0.12968078723E+04  0.50400001928E-02 0. -1.
       -1    1    3    3    0  502 -0.11048046705E+04 -0.87757710346E+01 -0.58869345057E+03  0.12518907113E+04  0.50400001928E-02 0.  1.
</event>
<event>
 5   0  0.1798917E-04  0.2214460E+04  0.7818609E-02  0.8512434E-01
        2   -1    0    0  501    0  0.00000000000E+00  0.00000000000E+00  0.79779533576E+03  0.79779533576E+03  0.25500000920E-02 0. -1.
       -2   -1    0    0    0  501  0.00000000000E+00  0.00000000000E+00 -0.15366820235E+04  0.15366820235E+04  0.25500000920E-02 0.  1.
    10030    2    1    2    0    0  0.00000000000E+00  0.00000000000E+00 -0.73888668776E+03  0.23344773593E+04  0.22144595286E+04 0.  0.
        4    1    3    3  502    0 -0.50364675469E+03  0.86617900633E+03  0.12729508740E+03  0.10100157309E+04  0.12699999809E+01 0. -1.
       -4    1    3    3    0  502  0.50364675469E+03 -0.86617900633E+03 -0.86618177516E+03  0.13244616284E+04  0.12699999809E+01 0.  1.
</event>
<event>
 5   0  0.1805501E-04  0.2234195E+04  0.7818609E-02  0.8504329E-01
       -2   -1    0    0    0  501  0.00000000000E+00  0.00000000000E+00  0.64950930467E+03  0.64950930467E+03  0.25500000920E-02 0. -1.
        2   -1    0    0  501    0  0.00000000000E+00  0.00000000000E+00 -0.19213063447E+04  0.19213063447E+04  0.25500000920E-02 0.  1.
    10030    2    1    2    0    0  0.00000000000E+00  0.00000000000E+00 -0.12717970400E+04  0.25708156494E+04  0.22341945734E+04 0.  0.
        2    1    3    3  502    0 -0.79859385765E+03  0.38249782954E+03  0.14778107621E+03  0.89771709662E+03  0.25500000920E-02 0. -1.
       -2    1    3    3    0  502  0.79859385765E+03 -0.38249782954E+03 -0.14195781162E+04  0.16730985527E+04  0.25500000920E-02 0.  1.
</event>
<event>
 5   0  0.1805501E-04  0.2242974E+04  0.7818609E-02  0.8500751E-01
        2   -1    0    0  501    0  0.00000000000E+00  0.00000000000E+00  0.98716194850E+03  0.98716194851E+03  0.25500000920E-02 0.  1.
       -2   -1    0    0    0  501  0.00000000000E+00  0.00000000000E+00 -0.12740900210E+04  0.12740900210E+04  0.25500000920E-02 0. -1.
    10030    2    1    2    0    0  0.00000000000E+00  0.00000000000E+00 -0.28692807246E+03  0.22612519695E+04  0.22429740860E+04 0.  0.
        2    1    3    3  502    0  0.76979178158E+02 -0.57956254354E+03  0.82136908861E+03  0.10081992439E+04  0.25500000920E-02 0.  1.
       -2    1    3    3    0  502 -0.76979178158E+02  0.57956254354E+03 -0.11082971611E+04  0.12530527255E+04  0.25500000920E-02 0. -1.
</event>
<event>
 5   0  0.1754356E-04  0.2187589E+04  0.7818609E-02  0.8523612E-01
        2   -1    0    0  501    0  0.00000000000E+00  0.00000000000E+00  0.18296467434E+04  0.18296467434E+04  0.25500000920E-02 0.  1.
       -2   -1    0    0    0  501  0.00000000000E+00  0.00000000000E+00 -0.65388914776E+03  0.65388914776E+03  0.25500000920E-02 0. -1.
    10030    2    1    2    0    0  0.00000000000E+00  0.00000000000E+00  0.11757575956E+04  0.24835358911E+04  0.21875887637E+04 0.  0.
        1    1    3    3  502    0 -0.84087575746E+03  0.11050626891E+03  0.13720494619E+04  0.16130106636E+04  0.50400001928E-02 0.  1.
       -1    1    3    3    0  502  0.84087575746E+03 -0.11050626891E+03 -0.19629186630E+03  0.87052522752E+03  0.50400001928E-02 0. -1.
</event>
<event>
 5   0  0.1680258E-04  0.2341869E+04  0.7818609E-02  0.8461593E-01
       -2   -1    0    0    0  501  0.00000000000E+00  0.00000000000E+00  0.12191877689E+04  0.12191877689E+04  0.25500000920E-02 0.  1.
        2   -1    0    0  501    0  0.00000000000E+00  0.00000000000E+00 -0.11245905745E+04  0.11245905745E+04  0.25500000920E-02 0. -1.
    10030    2    1    2    0    0  0.00000000000E+00  0.00000000000E+00  0.94597194343E+02  0.23437783434E+04  0.23418685475E+04 0.  0.
        5    1    3    3  502    0  0.90383591818E+03 -0.30514644170E+03  0.72684514818E+03  0.11993163375E+04  0.46999998093E+01 0.  1.
       -5    1    3    3    0  502 -0.90383591818E+03  0.30514644170E+03 -0.63224795384E+03  0.11444620059E+04  0.46999998093E+01 0. -1.
</event>
<event>
 5   0  0.8470971E-05  0.2173221E+04  0.7818609E-02  0.8529657E-01
        1   -1    0    0  501    0  0.00000000000E+00  0.00000000000E+00  0.17854328978E+04  0.17854328978E+04  0.50400001928E-02 0.  1.
       -1   -1    0    0    0  501  0.00000000000E+00  0.00000000000E+00 -0.66130901548E+03  0.66130901550E+03  0.50400001928E-02 0. -1.
    10030    2    1    2    0    0  0.00000000000E+00  0.00000000000E+00  0.11241238823E+04  0.24467419133E+04  0.21732214539E+04 0.  0.
        2    1    3    3  502    0  0.50153033330E+03  0.38811333367E+03 -0.43135080911E+03  0.76696033504E+03  0.25500000920E-02 0. -1.
       -2    1    3    3    0  502 -0.50153033330E+03 -0.38811333367E+03  0.15554746914E+04  0.16797815783E+04  0.25500000920E-02 0.  1.
</event>
<event>
 5   0  0.8602414E-05  0.2147744E+04  0.7818609E-02  0.8540498E-01
        1   -1    0    0  501    0  0.00000000000E+00  0.00000000000E+00  0.11747452848E+04  0.11747452848E+04  0.50400001928E-02 0.  1.
       -1   -1    0    0    0  501  0.00000000000E+00  0.00000000000E+00 -0.98166083239E+03  0.98166083241E+03  0.50400001928E-02 0. -1.
    10030    2    1    2    0    0  0.00000000000E+00  0.00000000000E+00  0.19308445243E+03  0.21564061172E+04  0.21477443369E+04 0.  0.
        3    1    3    3  502    0  0.74519262564E+03 -0.48569148433E+03  0.70062736659E+03  0.11322927997E+04  0.10100000352E+00 0.  1.
       -3    1    3    3    0  502 -0.74519262564E+03  0.48569148433E+03 -0.50754291416E+03  0.10241133175E+04  0.10100000352E+00 0. -1.
</event>
<event>
 5   0  0.8306787E-05  0.2183984E+04  0.7818609E-02  0.8525124E-01
        1   -1    0    0  501    0  0.00000000000E+00  0.00000000000E+00  0.57450100540E+03  0.57450100542E+03  0.50400001928E-02 0.  1.
       -1   -1    0    0    0  501  0.00000000000E+00  0.00000000000E+00 -0.20756207296E+04  0.20756207296E+04  0.50400001928E-02 0. -1.
    10030    2    1    2    0    0  0.00000000000E+00  0.00000000000E+00 -0.15011197242E+04  0.26501217350E+04  0.21839836959E+04 0.  0.
        1    1    3    3  502    0  0.97283396504E+03 -0.20187137273E+03 -0.13003519024E+04  0.16364819109E+04  0.50400001928E-02 0. -1.
       -1    1    3    3    0  502 -0.97283396504E+03  0.20187137273E+03 -0.20076782175E+03  0.10136398241E+04  0.50400001928E-02 0.  1.
</event>
<event>
 5   0  0.8470971E-05  0.2222677E+04  0.7818609E-02  0.8509048E-01
        1   -1    0    0  501    0  0.00000000000E+00  0.00000000000E+00  0.13377515884E+04  0.13377515884E+04  0.50400001928E-02 0. -1.
       -1   -1    0    0    0  501  0.00000000000E+00  0.00000000000E+00 -0.92324593149E+03  0.92324593150E+03  0.50400001928E-02 0.  1.
    10030    2    1    2    0    0  0.00000000000E+00  0.00000000000E+00  0.41450565695E+03  0.22609975199E+04  0.22226774047E+04 0.  0.
        2    1    3    3  502    0  0.23267339912E+03  0.18110445795E+03 -0.88273260075E+03  0.93067318634E+03  0.25500000920E-02 0.  1.
       -2    1    3    3    0  502 -0.23267339912E+03 -0.18110445795E+03  0.12972382577E+04  0.13303243336E+04  0.25500000920E-02 0. -1.
</event>
<event>
 5   0  0.1733962E-04  0.2115813E+04  0.7818609E-02  0.8554310E-01
        2   -1    0    0  501    0  0.00000000000E+00  0.00000000000E+00  0.21409786149E+04  0.21409786149E+04  0.25500000920E-02 0.  1.
       -2   -1    0    0    0  501  0.00000000000E+00  0.00000000000E+00 -0.52273557455E+03  0.52273557456E+03  0.25500000920E-02 0. -1.
    10030    2    1    2    0    0  0.00000000000E+00  0.00000000000E+00  0.16182430404E+04  0.26637141895E+04  0.21158125497E+04 0.  0.
        3    1    3    3  502    0  0.71299786685E+03 -0.78146237144E+03  0.79554579326E+03  0.13236096537E+04  0.10100000352E+00 0.  1.
       -3    1    3    3    0  502 -0.71299786685E+03  0.78146237144E+03  0.82269724711E+03  0.13401045357E+04  0.10100000352E+00 0. -1.
</event>
<event>
 5   0  0.8470971E-05  0.2132473E+04  0.7818609E-02  0.8547072E-01
        1   -1    0    0  501    0  0.00000000000E+00  0.00000000000E+00  0.69721619967E+03  0.69721619969E+03  0.50400001928E-02 0.  1.
       -1   -1    0    0    0  501  0.00000000000E+00  0.00000000000E+00 -0.16305710306E+04  0.16305710307E+04  0.50400001928E-02 0. -1.
    10030    2    1    2    0    0  0.00000000000E+00  0.00000000000E+00 -0.93335483098E+03  0.23277872303E+04  0.21324732470E+04 0.  0.
        2    1    3    3  502    0 -0.42431851995E+03 -0.39384395579E+02 -0.15335712708E+04  0.15916777876E+04  0.25500000920E-02 0. -1.
       -2    1    3    3    0  502  0.42431851995E+03  0.39384395579E+02  0.60021643984E+03  0.73610944271E+03  0.25500000920E-02 0.  1.
</event>
<event>
 5   0  0.1680258E-04  0.1948456E+04  0.7818609E-02  0.8631106E-01
        2   -1    0    0  501    0  0.00000000000E+00  0.00000000000E+00  0.17164858051E+04  0.17164858051E+04  0.25500000920E-02 0.  1.
       -2   -1    0    0    0  501  0.00000000000E+00  0.00000000000E+00 -0.55294400182E+03  0.55294400183E+03  0.25500000920E-02 0. -1.
    10030    2    1    2    0    0  0.00000000000E+00  0.00000000000E+00  0.11635418033E+04  0.22694298070E+04  0.19484563430E+04 0.  0.
        5    1    3    3  502    0 -0.57434332050E+03  0.33206516293E+03  0.14127082748E+04  0.15607383771E+04  0.46999998093E+01 0.  1.
       -5    1    3    3    0  502  0.57434332050E+03 -0.33206516293E+03 -0.24916647146E+03  0.70869142984E+03  0.46999998093E+01 0. -1.
</event>
<event>
 5   0  0.1754356E-04  0.2251845E+04  0.7818609E-02  0.8497154E-01
        2   -1    0    0  501    0  0.00000000000E+00  0.00000000000E+00  0.74564320539E+03  0.74564320539E+03  0.25500000920E-02 0. -1.
       -2   -1    0    0    0  501  0.00000000000E+00  0.00000000000E+00 -0.17001442007E+04  0.17001442007E+04  0.25500000920E-02 0.  1.
    10030    2    1    2    0    0  0.00000000000E+00  0.00000000000E+00 -0.95450099533E+03  0.24457874061E+04  0.22518445519E+04 0.  0.
        1    1    3    3  502    0 -0.41856076240E+03  0.58968388751E+03  0.46008383630E+03  0.85708653908E+03  0.50400001928E-02 0. -1.
       -1    1    3    3    0  502  0.41856076240E+03 -0.58968388751E+03 -0.14145848316E+04  0.15887008670E+04  0.50400001928E-02 0.  1.
</event>
<event>
 5   0  0.7954459E-05  0.2129793E+04  0.7818609E-02  0.8548232E-01
       -1   -1    0    0    0  501  0.00000000000E+00  0.00000000000E+00  0.81934482035E+03  0.81934482036E+03  0.50400001928E-02 0.  1.
        1   -1    0    0  501    0  0.00000000000E+00  0.00000000000E+00 -0.13840378326E+04  0.13840378326E+04  0.50400001928E-02 0. -1.
    10030    2    1    2    0    0  0.00000000000E+00  0.00000000000E+00 -0.56469301224E+03  0.22033826530E+04  0.21297926935E+04 0.  0.
        5    1    3    3  502    0  0.61510623295E+03 -0.84540384411E+03 -0.73073097772E+02  0.10480577775E+04  0.46999998093E+01 0.  1.
       -5    1    3    3    0  502 -0.61510623295E+03  0.84540384411E+03 -0.49161991447E+03  0.11553248754E+04  0.46999998093E+01 0. -1.
</event>
<event>
 5   0  0.8602414E-05  0.2273925E+04  0.7818609E-02  0.8488273E-01
       -1   -1    0    0    0  501  0.00000000000E+00  0.00000000000E+00  0.78322586059E+03  0.78322586061E+03  0.50400001928E-02 0. -1.
        1   -1    0    0  501    0  0.00000000000E+00  0.00000000000E+00 -0.16504614687E+04  0.16504614687E+04  0.50400001928E-02 0.  1.
    10030    2    1    2    0    0  0.00000000000E+00  0.00000000000E+00 -0.86723560809E+03  0.24336873293E+04  0.22739253323E+04 0.  0.
        3    1    3    3  502    0 -0.18253142799E+03 -0.44055384942E+03  0.67102075361E+03  0.82320974145E+03  0.10100000352E+00 0. -1.
       -3    1    3    3    0  502  0.18253142799E+03  0.44055384942E+03 -0.15382563617E+04  0.16104775878E+04  0.10100000352E+00 0.  1.
</event>
<event>
 5   0  0.8306787E-05  0.2217858E+04  0.7818609E-02  0.8511032E-01
       -1   -1    0    0    0  501  0.00000000000E+00  0.00000000000E+00  0.15073796467E+04  0.15073796467E+04  0.50400001928E-02 0. -1.
        1   -1    0    0  501    0  0.00000000000E+00  0.00000000000E+00 -0.81580182966E+03  0.81580182967E+03  0.50400001928E-02 0.  1.
    10030    2    1    2    0    0  0.00000000000E+00  0.00000000000E+00  0.69157781705E+03  0.23231814764E+04  0.22178575913E+04 0.  0.
        1    1    3    3  502    0 -0.77418826987E+03  0.13755004271E+03  0.11648661029E+04  0.14054182755E+04  0.50400001928E-02 0. -1.
       -1    1    3    3    0  502  0.77418826987E+03 -0.13755004271E+03 -0.47328828580E+03  0.91776320091E+03  0.50400001928E-02 0.  1.
</event>
<event>
 5   0  0.7954459E-05  0.2204816E+04  0.7818609E-02  0.8516426E-01
        1   -1    0    0  501    0  0.00000000000E+00  0.00000000000E+00  0.92054810522E+03  0.92054810524E+03  0.50400001928E-02 0.  1.
       -1   -1    0    0    0  501  0.00000000000E+00  0.00000000000E+00 -0.13201956316E+04  0.13201956316E+04  0.50400001928E-02 0. -1.
    10030    2    1    2    0    0  0.00000000000E+00  0.00000000000E+00 -0.39964752633E+03  0.22407437368E+04  0.22048161712E+04 0.  0.
        5    1    3    3  502    0  0.50987523362E+03  0.18675139362E+03  0.77520138190E+03  0.94647139913E+03  0.46999998093E+01 0.  1.
       -5    1    3    3    0  502 -0.50987523362E+03 -0.18675139362E+03 -0.11748489082E+04  0.12942723377E+04  0.46999998093E+01 0. -1.
</event>
<event>
 5   0  0.1805501E-04  0.2172301E+04  0.7818609E-02  0.8530046E-01
        2   -1    0    0  501    0  0.00000000000E+00  0.00000000000E+00  0.12498582907E+04  0.12498582907E+04  0.25500000920E-02 0.  1.
       -2   -1    0    0    0  501  0.00000000000E+00  0.00000000000E+00 -0.94388555184E+03  0.94388555184E+03  0.25500000920E-02 0. -1.
    10030    2    1    2    0    0  0.00000000000E+00  0.00000000000E+00  0.30597273882E+03  0.21937438425E+04  0.21723012520E+04 0.  0.
        2    1    3    3  502    0 -0.42380392789E+03 -0.25335188076E+03 -0.82399588071E+03  0.96060718101E+03  0.25500000920E-02 0. -1.
       -2    1    3    3    0  502  0.42380392789E+03  0.25335188076E+03  0.11299686195E+04  0.12331366615E+04  0.25500000920E-02 0.  1.
</event>
<event>
 5   0  0.8470971E-05  0.2212578E+04  0.7818609E-02  0.8513211E-01
       -1   -1    0    0    0  501  0.00000000000E+00  0.00000000000E+00  0.18122801750E+04  0.18122801750E+04  0.50400001928E-02 0.  1.
        1   -1    0    0  501    0  0.00000000000E+00  0.00000000000E+00 -0.67532329499E+03  0.67532329501E+03  0.50400001928E-02 0. -1.
    10030    2    1    2    0    0  0.00000000000E+00  0.00000000000E+00  0.11369568800E+04  0.24876034700E+04  0.22125776996E+04 0.  0.
        2    1    3    3  502    0 -0.44525545311E+03 -0.37659760346E+03 -0.48848227722E+03  0.76071881049E+03  0.25500000920E-02 0. -1.
       -2    1    3    3    0  502  0.44525545311E+03  0.37659760346E+03  0.16254391572E+04  0.17268846595E+04  0.25500000920E-02 0.  1.
</event>
<event>
 5   0  0.1680258E-04  0.1954561E+04  0.7818609E-02  0.8628165E-01
       -2   -1    0    0    0  501  0.00000000000E+00  0.00000000000E+00  0.10595270321E+04  0.10595270321E+04  0.25500000920E-02 0. -1.
        2   -1    0    0  501    0  0.00000000000E+00  0.00000000000E+00 -0.90141847478E+03  0.90141847479E+03  0.25500000920E-02 0.  1.
    10030    2    1    2    0    0  0.00000000000E+00  0.00000000000E+00  0.15810855730E+03  0.19609455069E+04  0.19545610671E+04 0.  0.
        5    1    3    3  502    0  0.96845020786E+03 -0.10940200568E+03  0.15133506323E+03  0.98630066172E+03  0.46999998093E+01 0. -1.
       -5    1    3    3    0  502 -0.96845020786E+03  0.10940200568E+03  0.67734940668E+01  0.97464484515E+03  0.46999998093E+01 0.  1.
</event>
<event>
 5   0  0.8306787E-05  0.1846679E+04  0.7818609E-02  0.8681863E-01
        1   -1    0    0  501    0  0.00000000000E+00  0.00000000000E+00  0.85341071206E+03  0.85341071208E+03  0.50400001928E-02 0. -1.
       -1   -1    0    0    0  501  0.00000000000E+00  0.00000000000E+00 -0.99899784695E+03  0.99899784696E+03  0.50400001928E-02 0.  1.
    10030    2    1    2    0    0  0.00000000000E+00  0.00000000000E+00 -0.14558713489E+03  0.18524085590E+04  0.18466786011E+04 0.  0.
        1    1    3    3  502    0  0.21431736636E+03 -0.58171250757E+03  0.61360596108E+03  0.87225778901E+03  0.50400001928E-02 0. -1.
       -1    1    3    3    0  502 -0.21431736636E+03  0.58171250757E+03 -0.75919309597E+03  0.98015077003E+03  0.50400001928E-02 0.  1.
</event>
<event>
 5   0  0.1733962E-04  0.1934731E+04  0.7818609E-02  0.8637759E-01
       -2   -1    0    0    0  501  0.00000000000E+00  0.00000000000E+00  0.42430223910E+03  0.42430223910E+03  0.25500000920E-02 0.  1.
        2   -1    0    0  501    0  0.00000000000E+00  0.00000000000E+00 -0.22054936630E+04  0.22054936630E+04  0.25500000920E-02 0. -1.
    10030    2    1    2    0    0  0.00000000000E+00  0.00000000000E+00 -0.17811914239E+04  0.26297959021E+04  0.19347308852E+04 0.  0.
        3    1    3    3  502    0 -0.48313716625E+03  0.48732912070E+03 -0.18173702731E+04  0.19426131661E+04  0.10100000352E+00 0. -1.
       -3    1    3    3    0  502  0.48313716625E+03 -0.48732912070E+03  0.36178849239E+02  0.68718273598E+03  0.10100000352E+00 0.  1.
</event>
<event>
 5   0  0.1680258E-04  0.2139580E+04  0.7818609E-02  0.8544006E-01
       -2   -1    0    0    0  501  0.00000000000E+00  0.00000000000E+00  0.55554816362E+03  0.55554816363E+03  0.25500000920E-02 0.  1.
        2   -1    0    0  501    0  0.00000000000E+00  0.00000000000E+00 -0.20600384350E+04  0.20600384350E+04  0.25500000920E-02 0. -1.
    10030    2    1    2    0    0  0.00000000000E+00  0.00000000000E+00 -0.15044902714E+04  0.26155865987E+04  0.21395799303E+04 0.  0.
        5    1    3    3  502    0  0.63048240734E+02 -0.44166269779E+02  0.55214536699E+03  0.55750545857E+03  0.46999998093E+01 0.  1.
       -5    1    3    3    0  502 -0.63048240734E+02  0.44166269779E+02 -0.20566356384E+04  0.20580811401E+04  0.46999998093E+01 0. -1.
</event>
<event>
 5   0  0.1680258E-04  0.2217414E+04  0.7818609E-02  0.8511215E-01
        2   -1    0    0  501    0  0.00000000000E+00  0.00000000000E+00  0.13853348678E+04  0.13853348678E+04  0.25500000920E-02 0. -1.
       -2   -1    0    0    0  501  0.00000000000E+00  0.00000000000E+00 -0.88731709053E+03  0.88731709054E+03  0.25500000920E-02 0.  1.
    10030    2    1    2    0    0  0.00000000000E+00  0.00000000000E+00  0.49801777725E+03  0.22726519583E+04  0.22174140834E+04 0.  0.
        5    1    3    3  502    0 -0.45742652594E+03  0.23639375448E+03 -0.75733058737E+03  0.91580169379E+03  0.46999998093E+01 0.  1.
       -5    1    3    3    0  502  0.45742652594E+03 -0.23639375448E+03  0.12553483646E+04  0.13568502645E+04  0.46999998093E+01 0. -1.
</event>
<event>
 5   0  0.1733962E-04  0.2097257E+04  0.7818609E-02  0.8562453E-01
       -2   -1    0    0    0  501  0.00000000000E+00  0.00000000000E+00  0.74000337274E+03  0.74000337274E+03  0.25500000920E-02 0. -1.
        2   -1    0    0  501    0  0.00000000000E+00  0.00000000000E+00 -0.14859687096E+04  0.14859687096E+04  0.25500000920E-02 0.  1.
    10030    2    1    2    0    0  0.00000000000E+00  0.00000000000E+00 -0.74596533688E+03  0.22259720824E+04  0.20972571201E+04 0.  0.
        3    1    3    3  502    0  0.54296113354E+03 -0.68917732781E+03  0.23659080456E+03  0.90870644363E+03  0.10100000352E+00 0. -1.
       -3    1    3    3    0  502 -0.54296113354E+03  0.68917732781E+03 -0.98255614144E+03  0.13172656387E+04  0.10100000352E+00 0.  1.
</event>
<event>
 5   0  0.8306787E-05  0.2177600E+04  0.7818609E-02  0.8527810E-01
       -1   -1    0    0    0  501  0.00000000000E+00  0.00000000000E+00  0.77708132162E+03  0.77708132164E+03  0.50400001928E-02 0. -1.
        1   -1    0    0  501    0  0.00000000000E+00  0.00000000000E+00 -0.15255611775E+04  0.15255611775E+04  0.50400001928E-02 0.  1.
    10030    2    1    2    0    0  0.00000000000E+00  0.00000000000E+00 -0.74847985590E+03  0.23026424992E+04  0.21775996841E+04 0.  0.
        1    1    3    3  502    0  0.10360836200E+04 -0.15268342586E+03 -0.59306258024E+02  0.10489512516E+04  0.50400001928E-02 0. -1.
       -1    1    3    3    0  502 -0.10360836200E+04  0.15268342586E+03 -0.68917359787E+03  0.12536912475E+04  0.50400001928E-02 0.  1.
</event>
<event>
 5   0  0.8784659E-05  0.1883906E+04  0.7818609E-02  0.8662909E-01
       -1   -1    0    0    0  501  0.00000000000E+00  0.00000000000E+00  0.32703973352E+03  0.32703973356E+03  0.50400001928E-02 0.  1.
        1   -1    0    0  501    0  0.00000000000E+00  0.00000000000E+00 -0.27130501188E+04  0.27130501188E+04  0.50400001928E-02 0. -1.
    10030    2    1    2    0    0  0.00000000000E+00  0.00000000000E+00 -0.23860103853E+04  0.30400898524E+04  0.18839057173E+04 0.  0.
        4    1    3    3  502    0  0.54991919748E+03  0.50474722448E+03 -0.26586542526E+03  0.79238054092E+03  0.12699999809E+01 0.  1.
       -4    1    3    3    0  502 -0.54991919748E+03 -0.50474722448E+03 -0.21201449600E+04  0.22477093115E+04  0.12699999809E+01 0. -1.
</event>
<event>
 5   0  0.7954459E-05  0.2164462E+04  0.7818609E-02  0.8533367E-01
        1   -1    0    0  501    0  0.00000000000E+00  0.00000000000E+00  0.87447787772E+03  0.87447787774E+03  0.50400001928E-02 0.  1.
       -1   -1    0    0    0  501  0.00000000000E+00  0.00000000000E+00 -0.13393407778E+04  0.13393407778E+04  0.50400001928E-02 0. -1.
    10030    2    1    2    0    0  0.00000000000E+00  0.00000000000E+00 -0.46486290008E+03  0.22138186556E+04  0.21644619479E+04 0.  0.
        5    1    3    3  502    0 -0.36459266359E+03  0.84889248454E+03  0.34403003748E+03  0.98586257528E+03  0.46999998093E+01 0.  1.
       -5    1    3    3    0  502  0.36459266359E+03 -0.84889248454E+03 -0.80889293756E+03  0.12279560803E+04  0.46999998093E+01 0. -1.
</event>
<event>
 5   0  0.1805501E-04  0.2163737E+04  0.7818609E-02  0.8533675E-01
        2   -1    0    0  501    0  0.00000000000E+00  0.00000000000E+00  0.19589258698E+04  0.19589258698E+04  0.25500000920E-02 0.  1.
       -2   -1    0    0    0  501  0.00000000000E+00  0.00000000000E+00 -0.59749051452E+03  0.59749051453E+03  0.25500000920E-02 0. -1.
    10030    2    1    2    0    0  0.00000000000E+00  0.00000000000E+00  0.13614353553E+04  0.25564163844E+04  0.21637371614E+04 0.  0.
        2    1    3    3  502    0  0.82899414649E+03  0.26511182545E+02  0.15014059305E+04  0.17152707967E+04  0.25500000920E-02 0.  1.
       -2    1    3    3    0  502 -0.82899414649E+03 -0.26511182545E+02 -0.13997057523E+03  0.84114558767E+03  0.25500000920E-02 0. -1.
</event>
<event>
 5   0  0.8602414E-05  0.2228045E+04  0.7818609E-02  0.8506845E-01
       -1   -1    0    0    0  501  0.00000000000E+00  0.00000000000E+00  0.10098521194E+04  0.10098521194E+04  0.50400001928E-02 0.  1.
        1   -1    0    0  501    0  0.00000000000E+00  0.00000000000E+00 -0.12289385639E+04  0.12289385640E+04  0.50400001928E-02 0. -1.
    10030    2    1    2    0    0  0.00000000000E+00  0.00000000000E+00 -0.21908644454E+03  0.22387906834E+04  0.22280450744E+04 0.  0.
        3    1    3    3  502    0  0.22005355698E+03  0.10338542818E+04  0.24396020879E+03  0.10848017504E+04  0.10100000352E+00 0.  1.
       -3    1    3    3    0  502 -0.22005355698E+03 -0.10338542818E+04 -0.46304665333E+03  0.11539889330E+04  0.10100000352E+00 0. -1.
</event>
<event>
 5   0  0.8784659E-05  0.2170558E+04  0.7818609E-02  0.8530784E-01
        1   -1    0    0  501    0  0.00000000000E+00  0.00000000000E+00  0.17851301253E+04  0.17851301253E+04  0.50400001928E-02 0. -1.
       -1   -1    0    0    0  501  0.00000000000E+00  0.00000000000E+00 -0.65980066132E+03  0.65980066134E+03  0.50400001928E-02 0.  1.
    10030    2    1    2    0    0  0.00000000000E+00  0.00000000000E+00  0.11253294640E+04  0.24449307867E+04  0.21705575664E+04 0.  0.
        4    1    3    3  502    0  0.66201862417E+03  0.32885609350E+02 -0.40531024498E+03  0.77693508714E+03  0.12699999809E+01 0.  1.
       -4    1    3    3    0  502 -0.66201862417E+03 -0.32885609350E+02  0.15306397090E+04  0.16679956995E+04  0.12699999809E+01 0. -1.
</event>
<event>
 5   0  0.1798917E-04  0.2156048E+04  0.7818609E-02  0.8536948E-01
        2   -1    0    0  501    0  0.00000000000E+00  0.00000000000E+00  0.12125583057E+04  0.12125583057E+04  0.25500000920E-02 0.  1.
       -2   -1    0    0    0  501  0.00000000000E+00  0.00000000000E+00 -0.95841643623E+03  0.95841643623E+03  0.25500000920E-02 0. -1.
    10030    2    1    2    0    0  0.00000000000E+00  0.00000000000E+00  0.25414186946E+03  0.21709747419E+04  0.21560480608E+04 0.  0.
        4    1    3    3  502    0  0.57559666054E+03  0.37240493890E+03 -0.71063664016E+03  0.98742240271E+03  0.12699999809E+01 0. -1.
       -4    1    3    3    0  502 -0.57559666054E+03 -0.37240493890E+03  0.96477850962E+03  0.11835523392E+04  0.12699999809E+01 0.  1.
</event>
<event>
 5   0  0.8784659E-05  0.2332226E+04  0.7818609E-02  0.8465322E-01
        1   -1    0    0  501    0  0.00000000000E+00  0.00000000000E+00  0.21373807662E+04  0.21373807662E+04  0.50400001928E-02 0. -1.
       -1   -1    0    0    0  501  0.00000000000E+00  0.00000000000E+00 -0.63620826262E+03  0.63620826264E+03  0.50400001928E-02 0.  1.
    10030    2    1    2    0    0  0.00000000000E+00  0.00000000000E+00  0.15011725036E+04  0.27735890289E+04  0.23322258071E+04 0.  0.
        4    1    3    3  502    0  0.55077297262E+03  0.46210558756E+03  0.18424439630E+04  0.19777496837E+04  0.12699999809E+01 0. -1.
       -4    1    3    3    0  502 -0.55077297262E+03 -0.46210558756E+03 -0.34127145945E+03  0.79583934519E+03  0.12699999809E+01 0.  1.
</event>
<event>
 5   0  0.8784659E-05  0.2154722E+04  0.7818609E-02  0.8537514E-01
       -1   -1    0    0    0  501  0.00000000000E+00  0.00000000000E+00  0.11026732020E+04  0.11026732020E+04  0.50400001928E-02 0.  1.
        1   -1    0    0  501    0  0.00000000000E+00  0.00000000000E+00 -0.10526298265E+04  0.10526298265E+04  0.50400001928E-02 0. -1.
    10030    2    1    2    0    0  0.00000000000E+00  0.00000000000E+00  0.50043375473E+02  0.21553030286E+04  0.21547219787E+04 0.  0.
        4    1    3    3  502    0 -0.48755350329E+02 -0.96480419864E+02  0.10972340332E+04  0.11025469115E+04  0.12699999809E+01 0.  1.
       -4    1    3    3    0  502  0.48755350329E+02  0.96480419864E+02 -0.10471906577E+04  0.10527561171E+04  0.12699999809E+01 0. -1.
</event>
<event>
 5   0  0.8306787E-05  0.2211506E+04  0.7818609E-02  0.8513654E-01
        1   -1    0    0  501    0  0.00000000000E+00  0.00000000000E+00  0.26968891876E+04  0.26968891876E+04  0.50400001928E-02 0. -1.
       -1   -1    0    0    0  501  0.00000000000E+00  0.00000000000E+00 -0.45337053532E+03  0.45337053535E+03  0.50400001928E-02 0.  1.
    10030    2    1    2    0    0  0.00000000000E+00  0.00000000000E+00  0.22435186523E+04  0.31502597229E+04  0.22115063597E+04 0.  0.
        1    1    3    3  502    0 -0.69066260140E+03  0.60922034550E+03  0.24999506783E+03  0.95428601179E+03  0.50400001928E-02 0.  1.
       -1    1    3    3    0  502  0.69066260140E+03 -0.60922034550E+03  0.19935235844E+04  0.21959737111E+04  0.50400001928E-02 0. -1.
</event>
<event>
 5   0  0.1754356E-04  0.2197634E+04  0.7818609E-02  0.8519413E-01
        2   -1    0    0  501    0  0.00000000000E+00  0.00000000000E+00  0.15158558286E+04  0.15158558286E+04  0.25500000920E-02 0. -1.
       -2   -1    0    0    0  501  0.00000000000E+00  0.00000000000E+00 -0.79651313235E+03  0.79651313235E+03  0.25500000920E-02 0.  1.
    10030    2    1    2    0    0  0.00000000000E+00  0.00000000000E+00  0.71934269629E+03  0.23123689610E+04  0.21976342501E+04 0.  0.
        1    1    3    3  502    0  0.44173621620E+03  0.22411840677E+03 -0.67237234583E+03  0.83513143661E+03  0.50400001928E-02 0.  1.
       -1    1    3    3    0  502 -0.44173621620E+03 -0.22411840677E+03  0.13917150421E+04  0.14772375244E+04  0.50400001928E-02 0. -1.
</event>
<event>
 5   0  0.8602414E-05  0.2408006E+04  0.7818609E-02  0.8436512E-01
       -1   -1    0    0    0  501  0.00000000000E+00  0.00000000000E+00  0.88401915045E+03  0.88401915047E+03  0.50400001928E-02 0.  1.
        1   -1    0    0  501    0  0.00000000000E+00  0.00000000000E+00 -0.16398097684E+04  0.16398097684E+04  0.50400001928E-02 0. -1.
    10030    2    1    2    0    0  0.00000000000E+00  0.00000000000E+00 -0.75579061794E+03  0.25238289189E+04  0.24080060119E+04 0.  0.
        3    1    3    3  502    0  0.96995567006E+03 -0.57003747344E+03 -0.82731661363E+03  0.13964990198E+04  0.10100000352E+00 0. -1.
       -3    1    3    3    0  502 -0.96995567006E+03  0.57003747344E+03  0.71525995681E+02  0.11273298990E+04  0.10100000352E+00 0.  1.
</event>
<event>
 5   0  0.1805501E-04  0.2301015E+04  0.7818609E-02  0.8477521E-01
        2   -1    0    0  501    0  0.00000000000E+00  0.00000000000E+00  0.97782010568E+03  0.97782010569E+03  0.25500000920E-02 0. -1.
       -2   -1    0    0    0  501  0.00000000000E+00  0.00000000000E+00 -0.13536919704E+04  0.13536919704E+04  0.25500000920E-02 0.  1.
    10030    2    1    2    0    0  0.00000000000E+00  0.00000000000E+00 -0.37587186467E+03  0.23315120760E+04  0.23010147549E+04 0.  0.
        2    1    3    3  502    0  0.68180071733E+03  0.80522744863E+03  0.27686357329E+03  0.10908239548E+04  0.25500000920E-02 0. -1.
       -2    1    3    3    0  502 -0.68180071733E+03 -0.80522744863E+03 -0.65273543796E+03  0.12406881212E+04  0.25500000920E-02 0.  1.
</event>
<event>
 5   0  0.1733962E-04  0.2242211E+04  0.7818609E-02  0.8501062E-01
       -2   -1    0    0    0  501  0.00000000000E+00  0.00000000000E+00  0.69650287242E+03  0.69650287242E+03  0.25500000920E-02 0.  1.
        2   -1    0    0  501    0  0.00000000000E+00  0.00000000000E+00 -0.18045541603E+04  0.18045541603E+04  0.25500000920E-02 0. -1.
    10030    2    1    2    0    0  0.00000000000E+00  0.00000000000E+00 -0.11080512879E+04  0.25010570327E+04  0.22422106557E+04 0.  0.
        3    1    3    3  502    0  0.36928442647E+03 -0.81398372735E+03  0.20080562828E+03  0.91611320620E+03  0.10100000352E+00 0.  1.
       -3    1    3    3    0  502 -0.36928442647E+03  0.81398372735E+03 -0.13088569162E+04  0.15849438265E+04  0.10100000352E+00 0. -1.
</event>
<event>
 5   0  0.7954459E-05  0.2107046E+04  0.7818609E-02  0.8558146E-01
        1   -1    0    0  501    0  0.00000000000E+00  0.00000000000E+00  0.16330780980E+04  0.16330780980E+04  0.50400001928E-02 0.  1.
       -1   -1    0    0    0  501  0.00000000000E+00  0.00000000000E+00 -0.67964335056E+03  0.67964335058E+03  0.50400001928E-02 0. -1.
    10030    2    1    2    0    0  0.00000000000E+00  0.00000000000E+00  0.95343474742E+03  0.23127214486E+04  0.21070459608E+04 0.  0.
        5    1    3    3  502    0 -0.13196700740E+03 -0.42278457634E+03 -0.57248056183E+03  0.72382192057E+03  0.46999998093E+01 0. -1.
       -5    1    3    3    0  502  0.13196700740E+03  0.42278457634E+03  0.15259153092E+04  0.15888995280E+04  0.46999998093E+01 0.  1.
</event>
<event>
 5   0  0.1798917E-04  0.2163685E+04  0.7818609E-02  0.8533697E-01
       -2   -1    0    0    0  501  0.00000000000E+00  0.00000000000E+00  0.71734491676E+03  0.71734491676E+03  0.25500000920E-02 0. -1.
        2   -1    0    0  501    0  0.00000000000E+00  0.00000000000E+00 -0.16315487707E+04  0.16315487708E+04  0.25500000920E-02 0.  1.
    10030    2    1    2    0    0  0.00000000000E+00  0.00000000000E+00 -0.91420385399E+03  0.23488936875E+04  0.21636850206E+04 0.  0.
        4    1    3    3  502    0 -0.10205264786E+04  0.82775107642E+02 -0.77832213433E+02  0.10268327411E+04  0.12699999809E+01 0.  1.
       -4    1    3    3    0  502  0.10205264786E+04 -0.82775107642E+02 -0.83637164056E+03  0.13220609464E+04  0.12699999809E+01 0. -1.
</event>
<event>
 5   0  0.1798917E-04  0.2158009E+04  0.7818609E-02  0.8536112E-01
       -2   -1    0    0    0  501  0.00000000000E+00  0.00000000000E+00  0.11163419813E+04  0.11163419813E+04  0.25500000920E-02 0. -1.
        2   -1    0    0  501    0  0.00000000000E+00  0.00000000000E+00 -0.10429154091E+04  0.10429154091E+04  0.25500000920E-02 0.  1.
    10030    2    1    2    0    0  0.00000000000E+00  0.00000000000E+00  0.73426572286E+02  0.21592573904E+04  0.21580085765E+04 0.  0.
        4    1    3    3  502    0  0.10359878544E+04 -0.28052920692E+03  0.14759786047E+03  0.10833993778E+04  0.12699999809E+01 0.  1.
       -4    1    3    3    0  502 -0.10359878544E+04  0.28052920692E+03 -0.74171288182E+02  0.10758580126E+04  0.12699999809E+01 0. -1.
</event>
<event>
 5   0  0.1805501E-04  0.2150489E+04  0.7818609E-02  0.8539323E-01
       -2   -1    0    0    0  501  0.00000000000E+00  0.00000000000E+00  0.83442144230E+03  0.83442144231E+03  0.25500000920E-02 0. -1.
        2   -1    0    0  501    0  0.00000000000E+00  0.00000000000E+00 -0.13855712192E+04  0.13855712192E+04  0.25500000920E-02 0.  1.
    10030    2    1    2    0    0  0.00000000000E+00  0.00000000000E+00 -0.55114977691E+03  0.22199926615E+04  0.21504886283E+04 0.  0.
        2    1    3    3  502    0 -0.27716319747E+02 -0.84935030033E+03  0.40449313111E+03  0.94115823333E+03  0.25500000920E-02 0. -1.
       -2    1    3    3    0  502  0.27716319747E+02  0.84935030033E+03 -0.95564290802E+03  0.12788344282E+04  0.25500000920E-02 0.  1.
</event>
<event>
 5   0  0.7954459E-05  0.2071552E+04  0.7818609E-02  0.8573879E-01
        1   -1    0    0  501    0  0.00000000000E+00  0.00000000000E+00  0.33318427487E+04  0.33318427487E+04  0.50400001928E-02 0.  1.
       -1   -1    0    0    0  501  0.00000000000E+00  0.00000000000E+00 -0.32199360387E+03  0.32199360391E+03  0.50400001928E-02 0. -1.
    10030    2    1    2    0    0  0.00000000000E+00  0.00000000000E+00  0.30098491448E+04  0.36538363526E+04  0.20715521275E+04 0.  0.
        5    1    3    3  502    0  0.15601346971E+03 -0.10222118611E+04  0.16100555775E+04  0.19135198835E+04  0.46999998093E+01 0. -1.
       -5    1    3    3    0  502 -0.15601346971E+03  0.10222118611E+04  0.13997935672E+04  0.17403164691E+04  0.46999998093E+01 0.  1.
</event>
<event>
 5   0  0.1733962E-04  0.2165855E+04  0.7818609E-02  0.8532776E-01
       -2   -1    0    0    0  501  0.00000000000E+00  0.00000000000E+00  0.71740697176E+03  0.71740697177E+03  0.25500000920E-02 0. -1.
        2   -1    0    0  501    0  0.00000000000E+00  0.00000000000E+00 -0.16346810205E+04  0.16346810205E+04  0.25500000920E-02 0.  1.
    10030    2    1    2    0    0  0.00000000000E+00  0.00000000000E+00 -0.91727404876E+03  0.23520879923E+04  0.21658546218E+04 0.  0.
        3    1    3    3  502    0  0.28186641051E+03  0.61782009908E+01 -0.15941260842E+04  0.16188652897E+04  0.10100000352E+00 0.  1.
       -3    1    3    3    0  502 -0.28186641051E+03 -0.61782009908E+01  0.67685203545E+03  0.73322270262E+03  0.10100000352E+00 0. -1.
</event>
<event>
 5   0  0.6250625E-05  0.2516494E+04  0.7818609E-02  0.8397133E-01
        3   -1    0    0  501    0  0.00000000000E+00  0.00000000000E+00  0.10618134743E+04  0.10618134791E+04  0.10100000352E+00 0.  1.
       -3   -1    0    0    0  501  0.00000000000E+00  0.00000000000E+00 -0.14910198488E+04  0.14910198522E+04  0.10100000352E+00 0. -1.
    10030    2    1    2    0    0  0.00000000000E+00  0.00000000000E+00 -0.42920637446E+03  0.25528333314E+04  0.25164935736E+04 0.  0.
        5    1    3    3  502    0  0.77207869892E+03  0.41975264902E+03 -0.11280871677E+04  0.14300001929E+04  0.46999998093E+01 0. -1.
       -5    1    3    3    0  502 -0.77207869892E+03 -0.41975264902E+03  0.69888079325E+03  0.11228331385E+04  0.46999998093E+01 0.  1.
</event>
<event>
 5   0  0.8602414E-05  0.2219405E+04  0.7818609E-02  0.8510395E-01
       -1   -1    0    0    0  501  0.00000000000E+00  0.00000000000E+00  0.74341990566E+03  0.74341990567E+03  0.50400001928E-02 0.  1.
        1   -1    0    0  501    0  0.00000000000E+00  0.00000000000E+00 -0.16564519919E+04  0.16564519919E+04  0.50400001928E-02 0. -1.
    10030    2    1    2    0    0  0.00000000000E+00  0.00000000000E+00 -0.91303208623E+03  0.23998718976E+04  0.22194047703E+04 0.  0.
        3    1    3    3  502    0  0.21622621450E+03 -0.10882918795E+04 -0.47544311908E+03  0.12071367613E+04  0.10100000352E+00 0. -1.
       -3    1    3    3    0  502 -0.21622621450E+03  0.10882918795E+04 -0.43758896715E+03  0.11927351362E+04  0.10100000352E+00 0.  1.
</event>
<event>
 5   0  0.1798917E-04  0.2175337E+04  0.7818609E-02  0.8528764E-01
       -2   -1    0    0    0  501  0.00000000000E+00  0.00000000000E+00  0.50043963920E+03  0.50043963921E+03  0.25500000920E-02 0. -1.
        2   -1    0    0  501    0  0.00000000000E+00  0.00000000000E+00 -0.23639673747E+04  0.23639673747E+04  0.25500000920E-02 0.  1.
    10030    2    1    2    0    0  0.00000000000E+00  0.00000000000E+00 -0.18635277355E+04  0.28644070139E+04  0.21753371969E+04 0.  0.
        4    1    3    3  502    0 -0.17612507295E+03 -0.88910340221E+03 -0.17234630028E+04  0.19472676334E+04  0.12699999809E+01 0.  1.
       -4    1    3    3    0  502  0.17612507295E+03  0.88910340221E+03 -0.14006473276E+03  0.91713938057E+03  0.12699999809E+01 0. -1.
</event>
<event>
 5   0  0.8784659E-05  0.2145684E+04  0.7818609E-02  0.8541382E-01
        1   -1    0    0  501    0  0.00000000000E+00  0.00000000000E+00  0.14715271104E+04  0.14715271104E+04  0.50400001928E-02 0.  1.
       -1   -1    0    0    0  501  0.00000000000E+00  0.00000000000E+00 -0.78217350773E+03  0.78217350775E+03  0.50400001928E-02 0. -1.
    10030    2    1    2    0    0  0.00000000000E+00  0.00000000000E+00  0.68935360271E+03  0.22537006182E+04  0.21456835943E+04 0.  0.
        4    1    3    3  502    0  0.48690783777E+03  0.23710485120E+03  0.13174144058E+04  0.14243876868E+04  0.12699999809E+01 0.  1.
       -4    1    3    3    0  502 -0.48690783777E+03 -0.23710485120E+03 -0.62806080304E+03  0.82931293139E+03  0.12699999809E+01 0. -1.
</event>
<event>
 5   0  0.8602414E-05  0.2187213E+04  0.7818609E-02  0.8523769E-01
       -1   -1    0    0    0  501  0.00000000000E+00  0.00000000000E+00  0.49555298537E+03  0.49555298540E+03  0.50400001928E-02 0. -1.
        1   -1    0    0  501    0  0.00000000000E+00  0.00000000000E+00 -0.24134148602E+04  0.24134148602E+04  0.50400001928E-02 0.  1.
    10030    2    1    2    0    0  0.00000000000E+00  0.00000000000E+00 -0.19178618748E+04  0.29089678456E+04  0.21872127825E+04 0.  0.
        3    1    3    3  502    0  0.94760507510E+03 -0.23739155405E+03 -0.30511638234E+03  0.10234286225E+04  0.10100000352E+00 0. -1.
       -3    1    3    3    0  502 -0.94760507510E+03  0.23739155405E+03 -0.16127454925E+04  0.18855392231E+04  0.10100000352E+00 0.  1.
</event>
<event>
 5   0  0.1805501E-04  0.2206172E+04  0.7818609E-02  0.8515864E-01
       -2   -1    0    0    0  501  0.00000000000E+00  0.00000000000E+00  0.43959005607E+03  0.43959005607E+03  0.25500000920E-02 0. -1.
        2   -1    0    0  501    0  0.00000000000E+00  0.00000000000E+00 -0.27680302602E+04  0.27680302602E+04  0.25500000920E-02 0.  1.
    10030    2    1    2    0    0  0.00000000000E+00  0.00000000000E+00 -0.23284402041E+04  0.32076203163E+04  0.22061718676E+04 0.  0.
        2    1    3    3  502    0 -0.11391592910E+03 -0.60216923767E+03  0.16929164451E+03  0.63580208447E+03  0.25500000920E-02 0. -1.
       -2    1    3    3    0  502  0.11391592910E+03  0.60216923767E+03 -0.24977318487E+04  0.25718182318E+04  0.25500000920E-02 0.  1.
</event>
<event>
 5   0  0.8602414E-05  0.1676145E+04  0.7818609E-02  0.8775088E-01
       -1   -1    0    0    0  501  0.00000000000E+00  0.00000000000E+00  0.60930670718E+03  0.60930670720E+03  0.50400001928E-02 0. -1.
        1   -1    0    0  501    0  0.00000000000E+00  0.00000000000E+00 -0.11527284050E+04  0.11527284050E+04  0.50400001928E-02 0.  1.
    10030    2    1    2    0    0  0.00000000000E+00  0.00000000000E+00 -0.54342169783E+03  0.17620351122E+04  0.16761445627E+04 0.  0.
        3    1    3    3  502    0 -0.39765146683E+03  0.66319072954E+03  0.67982984949E+02  0.77625403655E+03  0.10100000352E+00 0.  1.
       -3    1    3    3    0  502  0.39765146683E+03 -0.66319072954E+03 -0.61140468278E+03  0.98578107567E+03  0.10100000352E+00 0. -1.
</event>
<event>
 5   0  0.1754356E-04  0.2164013E+04  0.7818609E-02  0.8533558E-01
       -2   -1    0    0    0  501  0.00000000000E+00  0.00000000000E+00  0.72835506577E+03  0.72835506577E+03  0.25500000920E-02 0.  1.
        2   -1    0    0  501    0  0.00000000000E+00  0.00000000000E+00 -0.16073732909E+04  0.16073732909E+04  0.25500000920E-02 0. -1.
    10030    2    1    2    0    0  0.00000000000E+00  0.00000000000E+00 -0.87901822509E+03  0.23357283566E+04  0.21640133816E+04 0.  0.
        1    1    3    3  502    0  0.87299585790E+03 -0.62103863581E+03 -0.60294328284E+03  0.12293703093E+04  0.50400001928E-02 0. -1.
       -1    1    3    3    0  502 -0.87299585790E+03  0.62103863581E+03 -0.27607494226E+03  0.11063580473E+04  0.50400001928E-02 0.  1.
</event>
<event>
 5   0  0.1754356E-04  0.2188125E+04  0.7818609E-02  0.8523387E-01
        2   -1    0    0  501    0  0.00000000000E+00  0.00000000000E+00  0.70065733071E+03  0.70065733071E+03  0.25500000920E-02 0.  1.
       -2   -1    0    0    0  501  0.00000000000E+00  0.00000000000E+00 -0.17083575956E+04  0.17083575956E+04  0.25500000920E-02 0. -1.
    10030    2    1    2    0    0  0.00000000000E+00  0.00000000000E+00 -0.10077002649E+04  0.24090149263E+04  0.21881254743E+04 0.  0.
        1    1    3    3  502    0  0.22652490075E+03 -0.41382804643E+01  0.67454746655E+03  0.71157918792E+03  0.50400001928E-02 0.  1.
       -1    1    3    3    0  502 -0.22652490075E+03  0.41382804643E+01 -0.16822477314E+04  0.16974357384E+04  0.50400001928E-02 0. -1.
</event>
<event>
 5   0  0.1733962E-04  0.2196691E+04  0.7818609E-02  0.8519807E-01
       -2   -1    0    0    0  501  0.00000000000E+00  0.00000000000E+00  0.84530463328E+03  0.84530463329E+03  0.25500000920E-02 0.  1.
        2   -1    0    0  501    0  0.00000000000E+00  0.00000000000E+00 -0.14271334352E+04  0.14271334352E+04  0.25500000920E-02 0. -1.
    10030    2    1    2    0    0  0.00000000000E+00  0.00000000000E+00 -0.58182880189E+03  0.22724380685E+04  0.21966906975E+04 0.  0.
        3    1    3    3  502    0 -0.26360632517E+03  0.10569049287E+04 -0.14525363819E+03  0.10989244526E+04  0.10100000352E+00 0. -1.
       -3    1    3    3    0  502  0.26360632517E+03 -0.10569049287E+04 -0.43657516370E+03  0.11735136159E+04  0.10100000352E+00 0.  1.
</event>
<event>
 5   0  0.1733962E-04  0.2219081E+04  0.7818609E-02  0.8510528E-01
        2   -1    0    0  501    0  0.00000000000E+00  0.00000000000E+00  0.12503774928E+04  0.12503774928E+04  0.25500000920E-02 0.  1.
       -2   -1    0    0    0  501  0.00000000000E+00  0.00000000000E+00 -0.98456685731E+03  0.98456685731E+03  0.25500000920E-02 0. -1.
    10030    2    1    2    0    0  0.00000000000E+00  0.00000000000E+00  0.26581063554E+03  0.22349443502E+04  0.22190811059E+04 0.  0.
        3    1    3    3  502    0  0.70246174539E+02 -0.10324368909E+04  0.53604132435E+03  0.11654187104E+04  0.10100000352E+00 0.  1.
       -3    1    3    3    0  502 -0.70246174539E+02  0.10324368909E+04 -0.27023068882E+03  0.10695256398E+04  0.10100000352E+00 0. -1.
</event>
<event>
 5   0  0.1680258E-04  0.2249016E+04  0.7818609E-02  0.8498299E-01
        2   -1    0    0  501    0  0.00000000000E+00  0.00000000000E+00  0.16889222286E+04  0.16889222286E+04  0.25500000920E-02 0.  1.
       -2   -1    0    0    0  501  0.00000000000E+00  0.00000000000E+00 -0.74871341183E+03  0.74871341183E+03  0.25500000920E-02 0. -1.
    10030    2    1    2    0    0  0.00000000000E+00  0.00000000000E+00  0.94020881680E+03  0.24376356405E+04  0.22490164287E+04 0.  0.
        5    1    3    3  502    0 -0.68194698503E+03  0.87211040633E+03  0.25641923019E+03  0.11363983293E+04  0.46999998093E+01 0. -1.
       -5    1    3    3    0  502  0.68194698503E+03 -0.87211040633E+03  0.68378958662E+03  0.13012373112E+04  0.46999998093E+01 0.  1.
</event>
<event>
 5   0  0.8602414E-05  0.2208727E+04  0.7818609E-02  0.8514805E-01
       -1   -1    0    0    0  501  0.00000000000E+00  0.00000000000E+00  0.77320692916E+03  0.77320692918E+03  0.50400001928E-02 0. -1.
        1   -1    0    0  501    0  0.00000000000E+00  0.00000000000E+00 -0.15773503410E+04  0.15773503410E+04  0.50400001928E-02 0.  1.
    10030    2    1    2    0    0  0.00000000000E+00  0.00000000000E+00 -0.80414341185E+03  0.23505572702E+04  0.22087265231E+04 0.  0.
        3    1    3    3  502    0 -0.32633782167E+03 -0.73562136204E+03 -0.12069319331E+04  0.14506274034E+04  0.10100000352E+00 0.  1.
       -3    1    3    3    0  502  0.32633782167E+03  0.73562136204E+03  0.40278852124E+03  0.89992986682E+03  0.10100000352E+00 0. -1.
</event>
<event>
 5   0  0.8784659E-05  0.1534827E+04  0.7818609E-02  0.8861618E-01
       -1   -1    0    0    0  501  0.00000000000E+00  0.00000000000E+00  0.29409171124E+03  0.29409171128E+03  0.50400001928E-02 0.  1.
        1   -1    0    0  501    0  0.00000000000E+00  0.00000000000E+00 -0.20025156438E+04  0.20025156439E+04  0.50400001928E-02 0. -1.
    10030    2    1    2    0    0  0.00000000000E+00  0.00000000000E+00 -0.17084239326E+04  0.22966073551E+04  0.15348267036E+04 0.  0.
        4    1    3    3  502    0 -0.71394098804E+03 -0.27911581224E+03 -0.90825141672E+03  0.11885031005E+04  0.12699999809E+01 0. -1.
       -4    1    3    3    0  502  0.71394098804E+03  0.27911581224E+03 -0.80017251589E+03  0.11081042546E+04  0.12699999809E+01 0.  1.
</event>
<event>
 5   0  0.1798917E-04  0.2185863E+04  0.7818609E-02  0.8524335E-01
        2   -1    0    0  501    0  0.00000000000E+00  0.00000000000E+00  0.75290067447E+03  0.75290067447E+03  0.25500000920E-02 0. -1.
       -2   -1    0    0    0  501  0.00000000000E+00  0.00000000000E+00 -0.15865298052E+04  0.15865298052E+04  0.25500000920E-02 0.  1.
    10030    2    1    2    0    0  0.00000000000E+00  0.00000000000E+00 -0.83362913070E+03  0.23394304796E+04  0.21858630885E+04 0.  0.
        4    1    3    3  502    0  0.15951529704E+03  0.11672803167E+03  0.73361087748E+03  0.75977437165E+03  0.12699999809E+01 0. -1.
       -4    1    3    3    0  502 -0.15951529704E+03 -0.11672803167E+03 -0.15672400082E+04  0.15796561080E+04  0.12699999809E+01 0.  1.
</event>
<event>
 5   0  0.8602414E-05  0.2096133E+04  0.7818609E-02  0.8562949E-01
        1   -1    0    0  501    0  0.00000000000E+00  0.00000000000E+00  0.12525813227E+04  0.12525813227E+04  0.50400001928E-02 0. -1.
       -1   -1    0    0    0  501  0.00000000000E+00  0.00000000000E+00 -0.87694337896E+03  0.87694337898E+03  0.50400001928E-02 0.  1.
    10030    2    1    2    0    0  0.00000000000E+00  0.00000000000E+00  0.37563794374E+03  0.21295247017E+04  0.20961325317E+04 0.  0.
        3    1    3    3  502    0 -0.50298949378E+03 -0.25613565384E+03 -0.70933382328E+03  0.90650890071E+03  0.10100000352E+00 0.  1.
       -3    1    3    3    0  502  0.50298949378E+03  0.25613565384E+03  0.10849717670E+04  0.12230158010E+04  0.10100000352E+00 0. -1.
</event>
<event>
 5   0  0.8470971E-05  0.2206207E+04  0.7818609E-02  0.8515849E-01
        1   -1    0    0  501    0  0.00000000000E+00  0.00000000000E+00  0.11996671832E+04  0.11996671832E+04  0.50400001928E-02 0.  1.
       -1   -1    0    0    0  501  0.00000000000E+00  0.00000000000E+00 -0.10143125943E+04  0.10143125943E+04  0.50400001928E-02 0. -1.
    10030    2    1    2    0    0  0.00000000000E+00  0.00000000000E+00  0.18535458894E+03  0.22139797775E+04  0.22062071824E+04 0.  0.
        2    1    3    3  502    0 -0.30199322181E+03 -0.10474384314E+04  0.26212227199E+03  0.11211758377E+04  0.25500000920E-02 0.  1.
       -2    1    3    3    0  502  0.30199322181E+03  0.10474384314E+04 -0.76767683043E+02  0.10928039398E+04  0.25500000920E-02 0. -1.
</event>
<event>
 5   0  0.7954459E-05  0.1372210E+04  0.7818609E-02  0.8974183E-01
       -1   -1    0    0    0  501  0.00000000000E+00  0.00000000000E+00  0.51215670128E+03  0.51215670130E+03  0.50400001928E-02 0.  1.
        1   -1    0    0  501    0  0.00000000000E+00  0.00000000000E+00 -0.91913336684E+03  0.91913336685E+03  0.50400001928E-02 0. -1.
    10030    2    1    2    0    0  0.00000000000E+00  0.00000000000E+00 -0.40697666556E+03  0.14312900682E+04  0.13722103530E+04 0.  0.
        5    1    3    3  502    0  0.39685024727E+03 -0.53389258411E+03 -0.28370669328E+02  0.66585163137E+03  0.46999998093E+01 0. -1.
       -5    1    3    3    0  502 -0.39685024727E+03  0.53389258411E+03 -0.37860599623E+03  0.76543843678E+03  0.46999998093E+01 0.  1.
</event>
<event>
 5   0  0.8602414E-05  0.2159321E+04  0.7818609E-02  0.8535553E-01
       -1   -1    0    0    0  501  0.00000000000E+00  0.00000000000E+00  0.15790552026E+04  0.15790552026E+04  0.50400001928E-02 0. -1.
        1   -1    0    0  501    0  0.00000000000E+00  0.00000000000E+00 -0.73820521006E+03  0.73820521008E+03  0.50400001928E-02 0.  1.
    10030    2    1    2    0    0  0.00000000000E+00  0.00000000000E+00  0.84084999252E+03  0.23172604127E+04  0.21593209836E+04 0.  0.
        3    1    3    3  502    0 -0.26633370907E+03  0.10206882325E+04  0.66731474929E+03  0.12482175681E+04  0.10100000352E+00 0. -1.
       -3    1    3    3    0  502  0.26633370907E+03 -0.10206882325E+04  0.17353524324E+03  0.10690428445E+04  0.10100000352E+00 0.  1.
</event>
<event>
 5   0  0.7954459E-05  0.2224818E+04  0.7818609E-02  0.8508169E-01
       -1   -1    0    0    0  501  0.00000000000E+00  0.00000000000E+00  0.78384864551E+03  0.78384864553E+03  0.50400001928E-02 0. -1.
        1   -1    0    0  501    0  0.00000000000E+00  0.00000000000E+00 -0.15786892754E+04  0.15786892754E+04  0.50400001928E-02 0.  1.
    10030    2    1    2    0    0  0.00000000000E+00  0.00000000000E+00 -0.79484062991E+03  0.23625379210E+04  0.22248177006E+04 0.  0.
        5    1    3    3  502    0  0.27733722814E+03 -0.16090872542E+03  0.73370390660E+03  0.80071909468E+03  0.46999998093E+01 0. -1.
       -5    1    3    3    0  502 -0.27733722814E+03  0.16090872542E+03 -0.15285445365E+04  0.15618188263E+04  0.46999998093E+01 0.  1.
</event>
<event>
 5   0  0.8470971E-05  0.2279066E+04  0.7818609E-02  0.8486221E-01
        1   -1    0    0  501    0  0.00000000000E+00  0.00000000000E+00  0.11345423244E+04  0.11345423244E+04  0.50400001928E-02 0. -1.
       -1   -1    0    0    0  501  0.00000000000E+00  0.00000000000E+00 -0.11445454769E+04  0.11445454769E+04  0.50400001928E-02 0.  1.
    10030    2    1    2    0    0  0.00000000000E+00  0.00000000000E+00 -0.10003152475E+02  0.22790878013E+04  0.22790658488E+04 0.  0.
        2    1    3    3  502    0 -0.11384303249E+04  0.33237991645E+02  0.32507676916E+02  0.11393792687E+04  0.25500000920E-02 0. -1.
       -2    1    3    3    0  502  0.11384303249E+04 -0.33237991645E+02 -0.42510829391E+02  0.11397085327E+04  0.25500000920E-02 0.  1.
</event>
<event>
 5   0  0.8470971E-05  0.2215592E+04  0.7818609E-02  0.8511966E-01
       -1   -1    0    0    0  501  0.00000000000E+00  0.00000000000E+00  0.75039175863E+03  0.75039175865E+03  0.50400001928E-02 0.  1.
        1   -1    0    0  501    0  0.00000000000E+00  0.00000000000E+00 -0.16354286180E+04  0.16354286180E+04  0.50400001928E-02 0. -1.
    10030    2    1    2    0    0  0.00000000000E+00  0.00000000000E+00 -0.88503685935E+03  0.23858203766E+04  0.22155921617E+04 0.  0.
        2    1    3    3  502    0  0.22544359031E+03 -0.77710489429E+03  0.37224944454E+03  0.89066631131E+03  0.25500000920E-02 0.  1.
       -2    1    3    3    0  502 -0.22544359031E+03  0.77710489429E+03 -0.12572863039E+04  0.14951540653E+04  0.25500000920E-02 0. -1.
</event>
<event>
 5   0  0.1680258E-04  0.1987434E+04  0.7818609E-02  0.8612518E-01
       -2   -1    0    0    0  501  0.00000000000E+00  0.00000000000E+00  0.70364095303E+03  0.70364095303E+03  0.25500000920E-02 0.  1.
        2   -1    0    0  501    0  0.00000000000E+00  0.00000000000E+00 -0.14033769120E+04  0.14033769120E+04  0.25500000920E-02 0. -1.
    10030    2    1    2    0    0  0.00000000000E+00  0.00000000000E+00 -0.69973595894E+03  0.21070178650E+04  0.19874339917E+04 0.  0.
        5    1    3    3  502    0 -0.23178554613E+03 -0.53475877031E+03 -0.12031302310E+04  0.13368754334E+04  0.46999998093E+01 0. -1.
       -5    1    3    3    0  502  0.23178554613E+03  0.53475877031E+03  0.50339427203E+03  0.77014243158E+03  0.46999998093E+01 0.  1.
</event>
<event>
 5   0  0.8602414E-05  0.2214695E+04  0.7818609E-02  0.8512336E-01
       -1   -1    0    0    0  501  0.00000000000E+00  0.00000000000E+00  0.12695153890E+04  0.12695153891E+04  0.50400001928E-02 0. -1.
        1   -1    0    0  501    0  0.00000000000E+00  0.00000000000E+00 -0.96589532516E+03  0.96589532518E+03  0.50400001928E-02 0.  1.
    10030    2    1    2    0    0  0.00000000000E+00  0.00000000000E+00  0.30362006388E+03  0.22354107142E+04  0.22146954459E+04 0.  0.
        3    1    3    3  502    0 -0.10561712115E+04 -0.30807752029E+03  0.27872227489E+03  0.11349429516E+04  0.10100000352E+00 0. -1.
       -3    1    3    3    0  502  0.10561712115E+04  0.30807752029E+03  0.24897788981E+02  0.11004677627E+04  0.10100000352E+00 0.  1.
</event>
<event>
 5   0  0.1680258E-04  0.2205917E+04  0.7818609E-02  0.8515969E-01
       -2   -1    0    0    0  501  0.00000000000E+00  0.00000000000E+00  0.12065893706E+04  0.12065893706E+04  0.25500000920E-02 0. -1.
        2   -1    0    0  501    0  0.00000000000E+00  0.00000000000E+00 -0.10082286273E+04  0.10082286273E+04  0.25500000920E-02 0.  1.
    10030    2    1    2    0    0  0.00000000000E+00  0.00000000000E+00  0.19836074327E+03  0.22148179979E+04  0.22059174462E+04 0.  0.
        5    1    3    3  502    0 -0.10297336298E+04 -0.21410309940E+03  0.43264144706E+03  0.11372740203E+04  0.46999998093E+01 0. -1.
       -5    1    3    3    0  502  0.10297336298E+04  0.21410309940E+03 -0.23428070380E+03  0.10775439776E+04  0.46999998093E+01 0.  1.
</event>
<event>
 5   0  0.8602414E-05  0.2141370E+04  0.7818609E-02  0.8543235E-01
       -1   -1    0    0    0  501  0.00000000000E+00  0.00000000000E+00  0.11995792536E+04  0.11995792536E+04  0.50400001928E-02 0. -1.
        1   -1    0    0  501    0  0.00000000000E+00  0.00000000000E+00 -0.95564043318E+03  0.95564043320E+03  0.50400001928E-02 0.  1.
    10030    2    1    2    0    0  0.00000000000E+00  0.00000000000E+00  0.24393882040E+03  0.21552196868E+04  0.21413700638E+04 0.  0.
        3    1    3    3  502    0  0.58198108056E+03 -0.33847606256E+03  0.95987920654E+03  0.11724487726E+04  0.10100000352E+00 0. -1.
       -3    1    3    3    0  502 -0.58198108056E+03  0.33847606256E+03 -0.71594038614E+03  0.98277091418E+03  0.10100000352E+00 0.  1.
</event>
<event>
 5   0  0.1798917E-04  0.2139695E+04  0.7818609E-02  0.8543956E-01
       -2   -1    0    0    0  501  0.00000000000E+00  0.00000000000E+00  0.59155251293E+03  0.59155251293E+03  0.25500000920E-02 0.  1.
        2   -1    0    0  501    0  0.00000000000E+00  0.00000000000E+00 -0.19348644138E+04  0.19348644138E+04  0.25500000920E-02 0. -1.
    10030    2    1    2    0    0  0.00000000000E+00  0.00000000000E+00 -0.13433119009E+04  0.25264169267E+04  0.21396952177E+04 0.  0.
        4    1    3    3  502    0 -0.94991256114E+03  0.45320654009E+03 -0.89829053678E+03  0.13837115101E+04  0.12699999809E+01 0.  1.
       -4    1    3    3    0  502  0.94991256114E+03 -0.45320654009E+03 -0.44502136407E+03  0.11427054166E+04  0.12699999809E+01 0. -1.
</event>
<event>
 5   0  0.8784659E-05  0.2155647E+04  0.7818609E-02  0.8537119E-01
        1   -1    0    0  501    0  0.00000000000E+00  0.00000000000E+00  0.94096497613E+03  0.94096497615E+03  0.50400001928E-02 0. -1.
       -1   -1    0    0    0  501  0.00000000000E+00  0.00000000000E+00 -0.12345877099E+04  0.12345877099E+04  0.50400001928E-02 0.  1.
    10030    2    1    2    0    0  0.00000000000E+00  0.00000000000E+00 -0.29362273373E+03  0.21755526860E+04  0.21556472763E+04 0.  0.
        4    1    3    3  502    0 -0.39099073048E+03  0.93511248848E+01  0.86682396281E+03  0.95097139298E+03  0.12699999809E+01 0. -1.
       -4    1    3    3    0  502  0.39099073048E+03 -0.93511248848E+01 -0.11604466965E+04  0.12245812930E+04  0.12699999809E+01 0.  1.
</event>
<event>
 5   0  0.1798917E-04  0.2213011E+04  0.7818609E-02  0.8513032E-01
        2   -1    0    0  501    0  0.00000000000E+00  0.00000000000E+00  0.14071452739E+04  0.14071452739E+04  0.25500000920E-02 0. -1.
       -2   -1    0    0    0  501  0.00000000000E+00  0.00000000000E+00 -0.87009842961E+03  0.87009842961E+03  0.25500000920E-02 0.  1.
    10030    2    1    2    0    0  0.00000000000E+00  0.00000000000E+00  0.53704684432E+03  0.22772437035E+04  0.22130114262E+04 0.  0.
        4    1    3    3  502    0 -0.37547910544E+03  0.46811702719E+03 -0.68810178799E+03  0.91301905418E+03  0.12699999809E+01 0.  1.
       -4    1    3    3    0  502  0.37547910544E+03 -0.46811702719E+03  0.12251486323E+04  0.13642246494E+04  0.12699999809E+01 0. -1.
</event>
<event>
 5   0  0.1805501E-04  0.2164542E+04  0.7818609E-02  0.8533333E-01
       -2   -1    0    0    0  501  0.00000000000E+00  0.00000000000E+00  0.65452550459E+03  0.65452550459E+03  0.25500000920E-02 0.  1.
        2   -1    0    0  501    0  0.00000000000E+00  0.00000000000E+00 -0.17895563687E+04  0.17895563687E+04  0.25500000920E-02 0. -1.
    10030    2    1    2    0    0  0.00000000000E+00  0.00000000000E+00 -0.11350308641E+04  0.24440818733E+04  0.21645417854E+04 0.  0.
        2    1    3    3  502    0 -0.49628759545E+03  0.72778836440E+03  0.14244036955E+03  0.89233768252E+03  0.25500000920E-02 0.  1.
       -2    1    3    3    0  502  0.49628759545E+03 -0.72778836440E+03 -0.12774712336E+04  0.15517441907E+04  0.25500000920E-02 0. -1.
</event>
<event>
 5   0  0.8306787E-05  0.1260147E+04  0.7818609E-02  0.9061780E-01
        1   -1    0    0  501    0  0.00000000000E+00  0.00000000000E+00  0.80519792691E+03  0.80519792693E+03  0.50400001928E-02 0.  1.
       -1   -1    0    0    0  501  0.00000000000E+00  0.00000000000E+00 -0.49303717031E+03  0.49303717033E+03  0.50400001928E-02 0. -1.
    10030    2    1    2    0    0  0.00000000000E+00  0.00000000000E+00  0.31216075661E+03  0.12982350973E+04  0.12601468287E+04 0.  0.
        1    1    3    3  502    0  0.22939216881E+03  0.27886526093E+03  0.68802580385E+03  0.77702387843E+03  0.50400001928E-02 0.  1.
       -1    1    3    3    0  502 -0.22939216881E+03 -0.27886526093E+03 -0.37586504725E+03  0.52121121883E+03  0.50400001928E-02 0. -1.
</event>
<event>
 5   0  0.8306787E-05  0.2332058E+04  0.7818609E-02  0.8465387E-01
        1   -1    0    0  501    0  0.00000000000E+00  0.00000000000E+00  0.23076543246E+04  0.23076543246E+04  0.50400001928E-02 0.  1.
       -1   -1    0    0    0  501  0.00000000000E+00  0.00000000000E+00 -0.58918016386E+03  0.58918016388E+03  0.50400001928E-02 0. -1.
    10030    2    1    2    0    0  0.00000000000E+00  0.00000000000E+00  0.17184741608E+04  0.28968344885E+04  0.23320584497E+04 0.  0.
        1    1    3    3  502    0 -0.55337270718E+03 -0.14303561478E+02 -0.41555485384E+03  0.69217900973E+03  0.50400001928E-02 0. -1.
       -1    1    3    3    0  502  0.55337270718E+03  0.14303561478E+02  0.21340290146E+04  0.22046554788E+04  0.50400001928E-02 0.  1.
</event>
<event>
 5   0  0.1680258E-04  0.1138347E+04  0.7818609E-02  0.9168602E-01
        2   -1    0    0  501    0  0.00000000000E+00  0.00000000000E+00  0.90949834093E+03  0.90949834094E+03  0.25500000920E-02 0.  1.
       -2   -1    0    0    0  501  0.00000000000E+00  0.00000000000E+00 -0.35619461687E+03  0.35619461688E+03  0.25500000920E-02 0. -1.
    10030    2    1    2    0    0  0.00000000000E+00  0.00000000000E+00  0.55330372406E+03  0.12656929578E+04  0.11383468946E+04 0.  0.
        5    1    3    3  502    0 -0.91575527082E+02  0.26554744212E+03  0.82703817091E+03  0.87345048361E+03  0.46999998093E+01 0.  1.
       -5    1    3    3    0  502  0.91575527082E+02 -0.26554744212E+03 -0.27373444685E+03  0.39224247420E+03  0.46999998093E+01 0. -1.
</event>
<event>
 5   0  0.1733962E-04  0.2165217E+04  0.7818609E-02  0.8533047E-01
        2   -1    0    0  501    0  0.00000000000E+00  0.00000000000E+00  0.14018923654E+04  0.14018923654E+04  0.25500000920E-02 0. -1.
       -2   -1    0    0    0  501  0.00000000000E+00  0.00000000000E+00 -0.83604206812E+03  0.83604206813E+03  0.25500000920E-02 0.  1.
    10030    2    1    2    0    0  0.00000000000E+00  0.00000000000E+00  0.56585029730E+03  0.22379344336E+04  0.21652168413E+04 0.  0.
        3    1    3    3  502    0  0.85245192486E+03  0.17855724556E+03  0.94754807888E+03  0.12870137319E+04  0.10100000352E+00 0.  1.
       -3    1    3    3    0  502 -0.85245192486E+03 -0.17855724556E+03 -0.38169778158E+03  0.95092070164E+03  0.10100000352E+00 0. -1.
</event>
<event>
 5   0  0.1680258E-04  0.1191235E+04  0.7818609E-02  0.9120563E-01
       -2   -1    0    0    0  501  0.00000000000E+00  0.00000000000E+00  0.21239233451E+03  0.21239233452E+03  0.25500000920E-02 0. -1.
        2   -1    0    0  501    0  0.00000000000E+00  0.00000000000E+00 -0.16703070504E+04  0.16703070504E+04  0.25500000920E-02 0.  1.
    10030    2    1    2    0    0  0.00000000000E+00  0.00000000000E+00 -0.14579147159E+04  0.18826993849E+04  0.11912353484E+04 0.  0.
        5    1    3    3  502    0  0.42526423216E+03 -0.39791564980E+03 -0.53186325419E+03  0.78872501080E+03  0.46999998093E+01 0. -1.
       -5    1    3    3    0  502 -0.42526423216E+03  0.39791564980E+03 -0.92605146169E+03  0.10939743741E+04  0.46999998093E+01 0.  1.
</event>
<event>
 5   0  0.8470971E-05  0.2163376E+04  0.7818609E-02  0.8533828E-01
        1   -1    0    0  501    0  0.00000000000E+00  0.00000000000E+00  0.77611217364E+03  0.77611217366E+03  0.50400001928E-02 0. -1.
       -1   -1    0    0    0  501  0.00000000000E+00  0.00000000000E+00 -0.15075772486E+04  0.15075772486E+04  0.50400001928E-02 0.  1.
    10030    2    1    2    0    0  0.00000000000E+00  0.00000000000E+00 -0.73146507492E+03  0.22836894222E+04  0.21633761165E+04 0.  0.
        2    1    3    3  502    0  0.10192343362E+04 -0.26749609564E+02  0.15598143039E+02  0.10197046022E+04  0.25500000920E-02 0. -1.
       -2    1    3    3    0  502 -0.10192343362E+04  0.26749609564E+02 -0.74706321796E+03  0.12639848200E+04  0.25500000920E-02 0.  1.
</event>
<event>
 5   0  0.1798917E-04  0.1171523E+04  0.7818609E-02  0.9138154E-01
       -2   -1    0    0    0  501  0.00000000000E+00  0.00000000000E+00  0.64400227799E+03  0.64400227800E+03  0.25500000920E-02 0. -1.
        2   -1    0    0  501    0  0.00000000000E+00  0.00000000000E+00 -0.53278806968E+03  0.53278806968E+03  0.25500000920E-02 0.  1.
    10030    2    1    2    0    0  0.00000000000E+00  0.00000000000E+00  0.11121420832E+03  0.11767903477E+04  0.11715233341E+04 0.  0.
        4    1    3    3  502    0  0.33495980816E+02  0.58298401341E+03  0.93263587061E+01  0.58402134763E+03  0.12699999809E+01 0.  1.
       -4    1    3    3    0  502 -0.33495980816E+02 -0.58298401341E+03  0.10188784961E+03  0.59276900005E+03  0.12699999809E+01 0. -1.
</event>
<event>
 5   0  0.8602414E-05  0.2270769E+04  0.7818609E-02  0.8489536E-01
       -1   -1    0    0    0  501  0.00000000000E+00  0.00000000000E+00  0.79158993635E+03  0.79158993636E+03  0.50400001928E-02 0.  1.
        1   -1    0    0  501    0  0.00000000000E+00  0.00000000000E+00 -0.16284923452E+04  0.16284923452E+04  0.50400001928E-02 0. -1.
    10030    2    1    2    0    0  0.00000000000E+00  0.00000000000E+00 -0.83690240883E+03  0.24200822815E+04  0.22707691665E+04 0.  0.
        3    1    3    3  502    0  0.20110268262E+03 -0.63929837803E+03 -0.13952041939E+04  0.15478176437E+04  0.10100000352E+00 0. -1.
       -3    1    3    3    0  502 -0.20110268262E+03  0.63929837803E+03  0.55830178507E+03  0.87226463790E+03  0.10100000352E+00 0.  1.
</event>
<event>
 5   0  0.1733962E-04  0.2117995E+04  0.7818609E-02  0.8553358E-01
       -2   -1    0    0    0  501  0.00000000000E+00  0.00000000000E+00  0.65100095755E+03  0.65100095755E+03  0.25500000920E-02 0. -1.
        2   -1    0    0  501    0  0.00000000000E+00  0.00000000000E+00 -0.17226945491E+04  0.17226945491E+04  0.25500000920E-02 0.  1.
    10030    2    1    2    0    0  0.00000000000E+00  0.00000000000E+00 -0.10716935915E+04  0.23736955066E+04  0.21179950907E+04 0.  0.
        3    1    3    3  502    0  0.44412940626E+03  0.41279814052E+03  0.43720200755E+03  0.74752848771E+03  0.10100000352E+00 0. -1.
       -3    1    3    3    0  502 -0.44412940626E+03 -0.41279814052E+03 -0.15088955991E+04  0.16261670189E+04  0.10100000352E+00 0.  1.
</event>
<event>
 5   0  0.8306787E-05  0.2193933E+04  0.7818609E-02  0.8520958E-01
        1   -1    0    0  501    0  0.00000000000E+00  0.00000000000E+00  0.20555017344E+04  0.20555017344E+04  0.50400001928E-02 0.  1.
       -1   -1    0    0    0  501  0.00000000000E+00  0.00000000000E+00 -0.58542178184E+03  0.58542178186E+03  0.50400001928E-02 0. -1.
    10030    2    1    2    0    0  0.00000000000E+00  0.00000000000E+00  0.14700799526E+04  0.26409235163E+04  0.21939329871E+04 0.  0.
        1    1    3    3  502    0 -0.74458154067E+03 -0.51777231661E+03  0.14778999573E+04  0.17339775449E+04  0.50400001928E-02 0.  1.
       -1    1    3    3    0  502  0.74458154067E+03  0.51777231661E+03 -0.78200046570E+01  0.90694597141E+03  0.50400001928E-02 0. -1.
</event>
<event>
 5   0  0.1680258E-04  0.2182663E+04  0.7818609E-02  0.8525679E-01
       -2   -1    0    0    0  501  0.00000000000E+00  0.00000000000E+00  0.67813721461E+03  0.67813721462E+03  0.25500000920E-02 0. -1.
        2   -1    0    0  501    0  0.00000000000E+00  0.00000000000E+00 -0.17562880026E+04  0.17562880026E+04  0.25500000920E-02 0.  1.
    10030    2    1    2    0    0  0.00000000000E+00  0.00000000000E+00 -0.10781507879E+04  0.24344252172E+04  0.21826628270E+04 0.  0.
        5    1    3    3  502    0  0.88556563295E+03  0.63692392479E+03 -0.57579025242E+03  0.12334727727E+04  0.46999998093E+01 0. -1.
       -5    1    3    3    0  502 -0.88556563295E+03 -0.63692392479E+03 -0.50236053552E+03  0.12009524445E+04  0.46999998093E+01 0.  1.
</event>
<event>
 5   0  0.8784659E-05  0.1934192E+04  0.7818609E-02  0.8638022E-01
       -1   -1    0    0    0  501  0.00000000000E+00  0.00000000000E+00  0.36076258550E+03  0.36076258553E+03  0.50400001928E-02 0.  1.
        1   -1    0    0  501    0  0.00000000000E+00  0.00000000000E+00 -0.25924933277E+04  0.25924933277E+04  0.50400001928E-02 0. -1.
    10030    2    1    2    0    0  0.00000000000E+00  0.00000000000E+00 -0.22317307422E+04  0.29532559132E+04  0.19341919200E+04 0.  0.
        4    1    3    3  502    0 -0.19964125795E+03 -0.67474180169E+03 -0.10289471669E+03  0.71114138288E+03  0.12699999809E+01 0.  1.
       -4    1    3    3    0  502  0.19964125795E+03  0.67474180169E+03 -0.21288360255E+04  0.22421145304E+04  0.12699999809E+01 0. -1.
</event>
<event>
 5   0  0.1805501E-04  0.2175107E+04  0.7818609E-02  0.8528861E-01
        2   -1    0    0  501    0  0.00000000000E+00  0.00000000000E+00  0.16061696643E+04  0.16061696643E+04  0.25500000920E-02 0.  1.
       -2   -1    0    0    0  501  0.00000000000E+00  0.00000000000E+00 -0.73639365836E+03  0.73639365837E+03  0.25500000920E-02 0. -1.
    10030    2    1    2    0    0  0.00000000000E+00  0.00000000000E+00  0.86977600592E+03  0.23425633227E+04  0.21751074962E+04 0.  0.
        2    1    3    3  502    0 -0.35008671346E+03  0.59395539158E+03  0.13407294312E+04  0.15076137177E+04  0.25500000920E-02 0.  1.
       -2    1    3    3    0  502  0.35008671346E+03 -0.59395539158E+03 -0.47095342523E+03  0.83494960499E+03  0.25500000920E-02 0. -1.
</event>
<event>
 5   0  0.1733962E-04  0.2258576E+04  0.7818609E-02  0.8494435E-01
        2   -1    0    0  501    0  0.00000000000E+00  0.00000000000E+00  0.17674987738E+04  0.17674987738E+04  0.25500000920E-02 0.  1.
       -2   -1    0    0    0  501  0.00000000000E+00  0.00000000000E+00 -0.72152336790E+03  0.72152336791E+03  0.25500000920E-02 0. -1.
    10030    2    1    2    0    0  0.00000000000E+00  0.00000000000E+00  0.10459754059E+04  0.24890221417E+04  0.22585762489E+04 0.  0.
        3    1    3    3  502    0  0.42264785928E+02  0.39676866519E+03 -0.64125000304E+03  0.75525708365E+03  0.10100000352E+00 0. -1.
       -3    1    3    3    0  502 -0.42264785928E+02 -0.39676866519E+03  0.16872254089E+04  0.17337650580E+04  0.10100000352E+00 0.  1.
</event>
<event>
 5   0  0.7954459E-05  0.2221567E+04  0.7818609E-02  0.8509505E-01
        1   -1    0    0  501    0  0.00000000000E+00  0.00000000000E+00  0.20651029174E+04  0.20651029174E+04  0.50400001928E-02 0.  1.
       -1   -1    0    0    0  501  0.00000000000E+00  0.00000000000E+00 -0.59747153439E+03  0.59747153442E+03  0.50400001928E-02 0. -1.
    10030    2    1    2    0    0  0.00000000000E+00  0.00000000000E+00  0.14676313830E+04  0.26625744518E+04  0.22215672025E+04 0.  0.
        5    1    3    3  502    0  0.18858698883E+03  0.77221043580E+03  0.16636817373E+04  0.18438364956E+04  0.46999998093E+01 0.  1.
       -5    1    3    3    0  502 -0.18858698883E+03 -0.77221043580E+03 -0.19605035430E+03  0.81873795621E+03  0.46999998093E+01 0. -1.
</event>
<event>
 5   0  0.1680258E-04  0.2109998E+04  0.7818609E-02  0.8556852E-01
       -2   -1    0    0    0  501  0.00000000000E+00  0.00000000000E+00  0.53702324843E+03  0.53702324844E+03  0.25500000920E-02 0. -1.
        2   -1    0    0  501    0  0.00000000000E+00  0.00000000000E+00 -0.20725784642E+04  0.20725784642E+04  0.25500000920E-02 0.  1.
    10030    2    1    2    0    0  0.00000000000E+00  0.00000000000E+00 -0.15355552158E+04  0.26096017127E+04  0.21099979332E+04 0.  0.
        5    1    3    3  502    0 -0.74966337339E+02 -0.50711411524E+03  0.37262144742E+03  0.63376139886E+03  0.46999998093E+01 0. -1.
       -5    1    3    3    0  502  0.74966337339E+02  0.50711411524E+03 -0.19081766632E+04  0.19758403138E+04  0.46999998093E+01 0.  1.
</event>
<event>
 5   0  0.1754356E-04  0.1602835E+04  0.7818609E-02  0.8818808E-01
        2   -1    0    0  501    0  0.00000000000E+00  0.00000000000E+00  0.15035268145E+04  0.15035268145E+04  0.25500000920E-02 0. -1.
       -2   -1    0    0    0  501  0.00000000000E+00  0.00000000000E+00 -0.42717582813E+03  0.42717582814E+03  0.25500000920E-02 0.  1.
    10030    2    1    2    0    0  0.00000000000E+00  0.00000000000E+00  0.10763509864E+04  0.19307026427E+04  0.16028353778E+04 0.  0.
        1    1    3    3  502    0  0.73148231206E+03  0.30750406076E+03  0.40272232019E+03  0.88983728144E+03  0.50400001928E-02 0. -1.
       -1    1    3    3    0  502 -0.73148231206E+03 -0.30750406076E+03  0.67362866619E+03  0.10408653612E+04  0.50400001928E-02 0.  1.
</event>
<event>
 5   0  0.1805501E-04  0.2161637E+04  0.7818609E-02  0.8534567E-01
        2   -1    0    0  501    0  0.00000000000E+00  0.00000000000E+00  0.17478467644E+04  0.17478467644E+04  0.25500000920E-02 0. -1.
       -2   -1    0    0    0  501  0.00000000000E+00  0.00000000000E+00 -0.66834756108E+03  0.66834756109E+03  0.25500000920E-02 0.  1.
    10030    2    1    2    0    0  0.00000000000E+00  0.00000000000E+00  0.10794992034E+04  0.24161943255E+04  0.21616374554E+04 0.  0.
        2    1    3    3  502    0  0.61157866059E+03 -0.67876847521E+03 -0.10566818965E+03  0.91973956495E+03  0.25500000920E-02 0.  1.
       -2    1    3    3    0  502 -0.61157866059E+03  0.67876847521E+03  0.11851673930E+04  0.14964547606E+04  0.25500000920E-02 0. -1.
</event>
<event>
 5   0  0.8470971E-05  0.2139504E+04  0.7818609E-02  0.8544039E-01
       -1   -1    0    0    0  501  0.00000000000E+00  0.00000000000E+00  0.63377536358E+03  0.63377536360E+03  0.50400001928E-02 0. -1.
        1   -1    0    0  501    0  0.00000000000E+00  0.00000000000E+00 -0.18056383283E+04  0.18056383283E+04  0.50400001928E-02 0.  1.
    10030    2    1    2    0    0  0.00000000000E+00  0.00000000000E+00 -0.11718629647E+04  0.24394136919E+04  0.21395037630E+04 0.  0.
        2    1    3    3  502    0 -0.87471521600E+02  0.22181159489E+03  0.60309223352E+03  0.64851514466E+03  0.25500000920E-02 0. -1.
       -2    1    3    3    0  502  0.87471521600E+02 -0.22181159489E+03 -0.17749551982E+04  0.17908985472E+04  0.25500000920E-02 0.  1.
</event>
<event>
 5   0  0.1798917E-04  0.2130613E+04  0.7818609E-02  0.8547877E-01
        2   -1    0    0  501    0  0.00000000000E+00  0.00000000000E+00  0.22241651720E+04  0.22241651720E+04  0.25500000920E-02 0.  1.
       -2   -1    0    0    0  501  0.00000000000E+00  0.00000000000E+00 -0.51024888648E+03  0.51024888649E+03  0.25500000920E-02 0. -1.
    10030    2    1    2    0    0  0.00000000000E+00  0.00000000000E+00  0.17139162856E+04  0.27344140585E+04  0.21306128718E+04 0.  0.
        4    1    3    3  502    0 -0.72841457489E+03 -0.76914279678E+03  0.10016333602E+04  0.14578886912E+04  0.12699999809E+01 0.  1.
       -4    1    3    3    0  502  0.72841457489E+03  0.76914279678E+03  0.71228292533E+03  0.12765253673E+04  0.12699999809E+01 0. -1.
</event>
<event>
 5   0  0.1680258E-04  0.2201843E+04  0.7818609E-02  0.8517661E-01
       -2   -1    0    0    0  501  0.00000000000E+00  0.00000000000E+00  0.48308552319E+03  0.48308552320E+03  0.25500000920E-02 0.  1.
        2   -1    0    0  501    0  0.00000000000E+00  0.00000000000E+00 -0.25089313247E+04  0.25089313247E+04  0.25500000920E-02 0. -1.
    10030    2    1    2    0    0  0.00000000000E+00  0.00000000000E+00 -0.20258458015E+04  0.29920168479E+04  0.22018432293E+04 0.  0.
        5    1    3    3  502    0 -0.83962950641E+03 -0.58508090464E+03 -0.46143470012E+03  0.11226047592E+04  0.46999998093E+01 0.  1.
       -5    1    3    3    0  502  0.83962950641E+03  0.58508090464E+03 -0.15644111014E+04  0.18694120887E+04  0.46999998093E+01 0. -1.
</event>
<event>
 5   0  0.1798917E-04  0.2299594E+04  0.7818609E-02  0.8478081E-01
       -2   -1    0    0    0  501  0.00000000000E+00  0.00000000000E+00  0.14528622724E+04  0.14528622724E+04  0.25500000920E-02 0.  1.
        2   -1    0    0  501    0  0.00000000000E+00  0.00000000000E+00 -0.90995072721E+03  0.90995072721E+03  0.25500000920E-02 0. -1.
    10030    2    1    2    0    0  0.00000000000E+00  0.00000000000E+00  0.54291154517E+03  0.23628129996E+04  0.22995939479E+04 0.  0.
        4    1    3    3  502    0 -0.96766112658E+03 -0.37929420970E+03 -0.23379353576E+03  0.10653136551E+04  0.12699999809E+01 0. -1.
       -4    1    3    3    0  502  0.96766112658E+03  0.37929420970E+03  0.77670508093E+03  0.12974993445E+04  0.12699999809E+01 0.  1.
</event>
<event>
 5   0  0.1805501E-04  0.2149297E+04  0.7818609E-02  0.8539833E-01
       -2   -1    0    0    0  501  0.00000000000E+00  0.00000000000E+00  0.73069131979E+03  0.73069131979E+03  0.25500000920E-02 0.  1.
        2   -1    0    0  501    0  0.00000000000E+00  0.00000000000E+00 -0.15805163745E+04  0.15805163745E+04  0.25500000920E-02 0. -1.
    10030    2    1    2    0    0  0.00000000000E+00  0.00000000000E+00 -0.84982505474E+03  0.23112076943E+04  0.21492971834E+04 0.  0.
        2    1    3    3  502    0  0.99895455069E+03  0.30499237476E+03 -0.15300226202E+03  0.10556231502E+04  0.25500000920E-02 0.  1.
       -2    1    3    3    0  502 -0.99895455069E+03 -0.30499237476E+03 -0.69682279273E+03  0.12555845441E+04  0.25500000920E-02 0. -1.
</event>
<event>
 5   0  0.1680258E-04  0.2485247E+04  0.7818609E-02  0.8408260E-01
       -2   -1    0    0    0  501  0.00000000000E+00  0.00000000000E+00  0.17953244992E+04  0.17953244992E+04  0.25500000920E-02 0. -1.
        2   -1    0    0  501    0  0.00000000000E+00  0.00000000000E+00 -0.86007478538E+03  0.86007478538E+03  0.25500000920E-02 0.  1.
    10030    2    1    2    0    0  0.00000000000E+00  0.00000000000E+00  0.93524971385E+03  0.26553992846E+04  0.24852471373E+04 0.  0.
        5    1    3    3  502    0  0.10433648470E+04 -0.67341958057E+03  0.41999591003E+03  0.13109244028E+04  0.46999998093E+01 0.  1.
       -5    1    3    3    0  502 -0.10433648470E+04  0.67341958057E+03  0.51525380381E+03  0.13444748818E+04  0.46999998093E+01 0. -1.
</event>
<event>
 5   0  0.8306787E-05  0.2204771E+04  0.7818609E-02  0.8516445E-01
        1   -1    0    0  501    0  0.00000000000E+00  0.00000000000E+00  0.16174801229E+04  0.16174801229E+04  0.50400001928E-02 0. -1.
       -1   -1    0    0    0  501  0.00000000000E+00  0.00000000000E+00 -0.75132539982E+03  0.75132539984E+03  0.50400001928E-02 0.  1.
    10030    2    1    2    0    0  0.00000000000E+00  0.00000000000E+00  0.86615472303E+03  0.23688055227E+04  0.22047710993E+04 0.  0.
        1    1    3    3  502    0 -0.73347432669E+03 -0.12049215731E+03  0.13077410146E+04  0.15042238893E+04  0.50400001928E-02 0. -1.
       -1    1    3    3    0  502  0.73347432669E+03  0.12049215731E+03 -0.44158629156E+03  0.86458163340E+03  0.50400001928E-02 0.  1.
</event>
<event>
 5   0  0.1733962E-04  0.2190684E+04  0.7818609E-02  0.8522316E-01
        2   -1    0    0  501    0  0.00000000000E+00  0.00000000000E+00  0.94656439789E+03  0.94656439789E+03  0.25500000920E-02 0. -1.
       -2   -1    0    0    0  501  0.00000000000E+00  0.00000000000E+00 -0.12675040555E+04  0.12675040555E+04  0.25500000920E-02 0.  1.
    10030    2    1    2    0    0  0.00000000000E+00  0.00000000000E+00 -0.32093965760E+03  0.22140684534E+04  0.21906841060E+04 0.  0.
        3    1    3    3  502    0 -0.40322544977E+03 -0.25223712207E+03 -0.11576935935E+04  0.12515865115E+04  0.10100000352E+00 0.  1.
       -3    1    3    3    0  502  0.40322544977E+03  0.25223712207E+03  0.83675393588E+03  0.96248194191E+03  0.10100000352E+00 0. -1.
</event>
<event>
 5   0  0.8306787E-05  0.2171502E+04  0.7818609E-02  0.8530384E-01
        1   -1    0    0  501    0  0.00000000000E+00  0.00000000000E+00  0.10395521027E+04  0.10395521027E+04  0.50400001928E-02 0.  1.
       -1   -1    0    0    0  501  0.00000000000E+00  0.00000000000E+00 -0.11340033832E+04  0.11340033832E+04  0.50400001928E-02 0. -1.
    10030    2    1    2    0    0  0.00000000000E+00  0.00000000000E+00 -0.94451280438E+02  0.21735554859E+04  0.21715023385E+04 0.  0.
        1    1    3    3  502    0 -0.99890077177E+03 -0.66066695011E+02  0.37351455891E+03  0.10684945886E+04  0.50400001928E-02 0.  1.
       -1    1    3    3    0  502  0.99890077177E+03  0.66066695011E+02 -0.46796583935E+03  0.11050608974E+04  0.50400001928E-02 0. -1.
</event>
<event>
 5   0  0.1805501E-04  0.2227708E+04  0.7818609E-02  0.8506983E-01
       -2   -1    0    0    0  501  0.00000000000E+00  0.00000000000E+00  0.67037548310E+03  0.67037548310E+03  0.25500000920E-02 0.  1.
        2   -1    0    0  501    0  0.00000000000E+00  0.00000000000E+00 -0.18507100802E+04  0.18507100802E+04  0.25500000920E-02 0. -1.
    10030    2    1    2    0    0  0.00000000000E+00  0.00000000000E+00 -0.11803345971E+04  0.25210855633E+04  0.22277079378E+04 0.  0.
        2    1    3    3  502    0 -0.56340882794E+03 -0.90955341938E+03 -0.94072561366E+03  0.14246689476E+04  0.25500000920E-02 0. -1.
       -2    1    3    3    0  502  0.56340882794E+03  0.90955341938E+03 -0.23960898339E+03  0.10964166156E+04  0.25500000920E-02 0.  1.
</event>
<event>
 5   0  0.1680258E-04  0.2037598E+04  0.7818609E-02  0.8589241E-01
        2   -1    0    0  501    0  0.00000000000E+00  0.00000000000E+00  0.34765689470E+03  0.34765689471E+03  0.25500000920E-02 0.  1.
       -2   -1    0    0    0  501  0.00000000000E+00  0.00000000000E+00 -0.29855625817E+04  0.29855625817E+04  0.25500000920E-02 0. -1.
    10030    2    1    2    0    0  0.00000000000E+00  0.00000000000E+00 -0.26379056870E+04  0.33332194764E+04  0.20375980135E+04 0.  0.
        5    1    3    3  502    0 -0.28324230256E+03  0.30193683947E+03  0.20383368218E+03  0.46147840359E+03  0.46999998093E+01 0.  1.
       -5    1    3    3    0  502  0.28324230256E+03 -0.30193683947E+03 -0.28417393692E+04  0.28717410728E+04  0.46999998093E+01 0. -1.
</event>
<event>
 5   0  0.8602414E-05  0.2111718E+04  0.7818609E-02  0.8556099E-01
        1   -1    0    0  501    0  0.00000000000E+00  0.00000000000E+00  0.15605538050E+04  0.15605538050E+04  0.50400001928E-02 0.  1.
       -1   -1    0    0    0  501  0.00000000000E+00  0.00000000000E+00 -0.71438651529E+03  0.71438651530E+03  0.50400001928E-02 0. -1.
    10030    2    1    2    0    0  0.00000000000E+00  0.00000000000E+00  0.84616728972E+03  0.22749403203E+04  0.21117183474E+04 0.  0.
        3    1    3    3  502    0 -0.13942566502E+03 -0.48905104174E+02 -0.70319424333E+03  0.71854949679E+03  0.10100000352E+00 0. -1.
       -3    1    3    3    0  502  0.13942566502E+03  0.48905104174E+02  0.15493615331E+04  0.15563908235E+04  0.10100000352E+00 0.  1.
</event>
<event>
 5   0  0.8306787E-05  0.2054882E+04  0.7818609E-02  0.8581383E-01
        1   -1    0    0  501    0  0.00000000000E+00  0.00000000000E+00  0.14359018362E+04  0.14359018362E+04  0.50400001928E-02 0. -1.
       -1   -1    0    0    0  501  0.00000000000E+00  0.00000000000E+00 -0.73517206854E+03  0.73517206855E+03  0.50400001928E-02 0.  1.
    10030    2    1    2    0    0  0.00000000000E+00  0.00000000000E+00  0.70072976764E+03  0.21710739047E+04  0.20548819169E+04 0.  0.
        1    1    3    3  502    0  0.78363430880E+03  0.50389635677E+03 -0.10730381085E+03  0.93782107896E+03  0.50400001928E-02 0.  1.
       -1    1    3    3    0  502 -0.78363430880E+03 -0.50389635677E+03  0.80803357849E+03  0.12332528258E+04  0.50400001928E-02 0. -1.
</event>
<event>
 5   0  0.7954459E-05  0.2210167E+04  0.7818609E-02  0.8514208E-01
        1   -1    0    0  501    0  0.00000000000E+00  0.00000000000E+00  0.16566996282E+04  0.16566996282E+04  0.50400001928E-02 0. -1.
       -1   -1    0    0    0  501  0.00000000000E+00  0.00000000000E+00 -0.73713363751E+03  0.73713363753E+03  0.50400001928E-02 0.  1.
    10030    2    1    2    0    0  0.00000000000E+00  0.00000000000E+00  0.91956599071E+03  0.23938332658E+04  0.22101665306E+04 0.  0.
        5    1    3    3  502    0 -0.25738201228E+03  0.92784351284E+03  0.10471072052E+04  0.14225310800E+04  0.46999998093E+01 0. -1.
       -5    1    3    3    0  502  0.25738201228E+03 -0.92784351284E+03 -0.12754121447E+03  0.97130218570E+03  0.46999998093E+01 0.  1.
</event>
<event>
 5   0  0.6250625E-05  0.2121927E+04  0.7818609E-02  0.8551645E-01
        3   -1    0    0  501    0  0.00000000000E+00  0.00000000000E+00  0.17084860949E+04  0.17084860979E+04  0.10100000352E+00 0. -1.
       -3   -1    0    0    0  501  0.00000000000E+00  0.00000000000E+00 -0.65885452961E+03  0.65885453735E+03  0.10100000352E+00 0.  1.
    10030    2    1    2    0    0  0.00000000000E+00  0.00000000000E+00  0.10496315653E+04  0.23673406352E+04  0.21219272514E+04 0.  0.
        5    1    3    3  502    0 -0.57411481732E+03  0.19291996920E+03  0.14966511901E+04  0.16145627311E+04  0.46999998093E+01 0. -1.
       -5    1    3    3    0  502  0.57411481732E+03 -0.19291996920E+03 -0.44701962479E+03  0.75277790411E+03  0.46999998093E+01 0.  1.
</event>
<event>
 5   0  0.8602414E-05  0.2218517E+04  0.7818609E-02  0.8510760E-01
        1   -1    0    0  501    0  0.00000000000E+00  0.00000000000E+00  0.19909958836E+04  0.19909958837E+04  0.50400001928E-02 0.  1.
       -1   -1    0    0    0  501  0.00000000000E+00  0.00000000000E+00 -0.61800977613E+03  0.61800977615E+03  0.50400001928E-02 0. -1.
    10030    2    1    2    0    0  0.00000000000E+00  0.00000000000E+00  0.13729861075E+04  0.26090056598E+04  0.22185174512E+04 0.  0.
        3    1    3    3  502    0  0.18339995326E+03  0.25675951745E+03 -0.56412042780E+03  0.64636898124E+03  0.10100000352E+00 0. -1.
       -3    1    3    3    0  502 -0.18339995326E+03 -0.25675951745E+03  0.19371065353E+04  0.19626366786E+04  0.10100000352E+00 0.  1.
</event>
<event>
 5   0  0.1680258E-04  0.2227741E+04  0.7818609E-02  0.8506970E-01
       -2   -1    0    0    0  501  0.00000000000E+00  0.00000000000E+00  0.97425464142E+03  0.97425464142E+03  0.25500000920E-02 0. -1.
        2   -1    0    0  501    0  0.00000000000E+00  0.00000000000E+00 -0.12734934952E+04  0.12734934952E+04  0.25500000920E-02 0.  1.
    10030    2    1    2    0    0  0.00000000000E+00  0.00000000000E+00 -0.29923885383E+03  0.22477481367E+04  0.22277405132E+04 0.  0.
        5    1    3    3  502    0  0.12960520053E+03  0.50843231229E+03  0.84174441997E+03  0.99189549991E+03  0.46999998093E+01 0. -1.
       -5    1    3    3    0  502 -0.12960520053E+03 -0.50843231229E+03 -0.11409832738E+04  0.12558526368E+04  0.46999998093E+01 0.  1.
</event>
<event>
 5   0  0.6250625E-05  0.2218724E+04  0.7818609E-02  0.8510675E-01
        3   -1    0    0  501    0  0.00000000000E+00  0.00000000000E+00  0.10202006908E+04  0.10202006958E+04  0.10100000352E+00 0. -1.
       -3   -1    0    0    0  501  0.00000000000E+00  0.00000000000E+00 -0.12063153414E+04  0.12063153456E+04  0.10100000352E+00 0.  1.
    10030    2    1    2    0    0  0.00000000000E+00  0.00000000000E+00 -0.18611465051E+03  0.22265160414E+04  0.22187237366E+04 0.  0.
        5    1    3    3  502    0  0.10892738827E+04  0.20191298762E+03 -0.15135799747E+03  0.11181313785E+04  0.46999998093E+01 0. -1.
       -5    1    3    3    0  502 -0.10892738827E+04 -0.20191298762E+03 -0.34756653038E+02  0.11083846629E+04  0.46999998093E+01 0.  1.
</event>
<event>
 5   0  0.1680258E-04  0.2105752E+04  0.7818609E-02  0.8558714E-01
       -2   -1    0    0    0  501  0.00000000000E+00  0.00000000000E+00  0.85999117796E+03  0.85999117796E+03  0.25500000920E-02 0.  1.
        2   -1    0    0  501    0  0.00000000000E+00  0.00000000000E+00 -0.12890218883E+04  0.12890218883E+04  0.25500000920E-02 0. -1.
    10030    2    1    2    0    0  0.00000000000E+00  0.00000000000E+00 -0.42903071031E+03  0.21490130662E+04  0.21057516018E+04 0.  0.
        5    1    3    3  502    0 -0.26230862583E+03 -0.93236346032E+03  0.20678279535E+03  0.99039822889E+03  0.46999998093E+01 0.  1.
       -5    1    3    3    0  502  0.26230862583E+03  0.93236346032E+03 -0.63581350566E+03  0.11586148373E+04  0.46999998093E+01 0. -1.
</event>
<event>
 5   0  0.8306787E-05  0.2173698E+04  0.7818609E-02  0.8529456E-01
        1   -1    0    0  501    0  0.00000000000E+00  0.00000000000E+00  0.10719943037E+04  0.10719943037E+04  0.50400001928E-02 0. -1.
       -1   -1    0    0    0  501  0.00000000000E+00  0.00000000000E+00 -0.11019091729E+04  0.11019091730E+04  0.50400001928E-02 0.  1.
    10030    2    1    2    0    0  0.00000000000E+00  0.00000000000E+00 -0.29914869289E+02  0.21739034766E+04  0.21736976391E+04 0.  0.
        1    1    3    3  502    0 -0.66656853072E+03 -0.39114836494E+03 -0.77918273014E+03  0.10974681665E+04  0.50400001928E-02 0.  1.
       -1    1    3    3    0  502  0.66656853072E+03  0.39114836494E+03  0.74926786085E+03  0.10764353101E+04  0.50400001928E-02 0. -1.
</event>
<event>
 5   0  0.7954459E-05  0.2167477E+04  0.7818609E-02  0.8532088E-01
        1   -1    0    0  501    0  0.00000000000E+00  0.00000000000E+00  0.12875028711E+04  0.12875028711E+04  0.50400001928E-02 0. -1.
       -1   -1    0    0    0  501  0.00000000000E+00  0.00000000000E+00 -0.91222232843E+03  0.91222232844E+03  0.50400001928E-02 0.  1.
    10030    2    1    2    0    0  0.00000000000E+00  0.00000000000E+00  0.37528054271E+03  0.21997251996E+04  0.21674767514E+04 0.  0.
        5    1    3    3  502    0  0.19812886490E+03 -0.96810646971E+03  0.63921163100E+03  0.11769021977E+04  0.46999998093E+01 0.  1.
       -5    1    3    3    0  502 -0.19812886490E+03  0.96810646971E+03 -0.26393108829E+03  0.10228230019E+04  0.46999998093E+01 0. -1.
</event>
<event>
 5   0  0.1733962E-04  0.2176017E+04  0.7818609E-02  0.8528477E-01
        2   -1    0    0  501    0  0.00000000000E+00  0.00000000000E+00  0.92616826457E+03  0.92616826458E+03  0.25500000920E-02 0.  1.
       -2   -1    0    0    0  501  0.00000000000E+00  0.00000000000E+00 -0.12781290082E+04  0.12781290082E+04  0.25500000920E-02 0. -1.
    10030    2    1    2    0    0  0.00000000000E+00  0.00000000000E+00 -0.35196074364E+03  0.22042972728E+04  0.21760170270E+04 0.  0.
        3    1    3    3  502    0  0.73336635623E+03 -0.80370142847E+03 -0.17655041386E+03  0.11022396552E+04  0.10100000352E+00 0.  1.
       -3    1    3    3    0  502 -0.73336635623E+03  0.80370142847E+03 -0.17541032978E+03  0.11020576176E+04  0.10100000352E+00 0. -1.
</event>
<event>
 5   0  0.1680258E-04  0.2209944E+04  0.7818609E-02  0.8514300E-01
        2   -1    0    0  501    0  0.00000000000E+00  0.00000000000E+00  0.84160443649E+03  0.84160443650E+03  0.25500000920E-02 0.  1.
       -2   -1    0    0    0  501  0.00000000000E+00  0.00000000000E+00 -0.14507570308E+04  0.14507570308E+04  0.25500000920E-02 0. -1.
    10030    2    1    2    0    0  0.00000000000E+00  0.00000000000E+00 -0.60915259433E+03  0.22923614673E+04  0.22099443915E+04 0.  0.
        5    1    3    3  502    0  0.42620066333E+03  0.97463461991E+02  0.74805726591E+03  0.86646286414E+03  0.46999998093E+01 0.  1.
       -5    1    3    3    0  502 -0.42620066333E+03 -0.97463461991E+02 -0.13572098602E+04  0.14258986032E+04  0.46999998093E+01 0. -1.
</event>
<event>
 5   0  0.1798917E-04  0.2288422E+04  0.7818609E-02  0.8482500E-01
        2   -1    0    0  501    0  0.00000000000E+00  0.00000000000E+00  0.17639088538E+04  0.17639088538E+04  0.25500000920E-02 0.  1.
       -2   -1    0    0    0  501  0.00000000000E+00  0.00000000000E+00 -0.74222620657E+03  0.74222620657E+03  0.25500000920E-02 0. -1.
    10030    2    1    2    0    0  0.00000000000E+00  0.00000000000E+00  0.10216826472E+04  0.25061350604E+04  0.22884224936E+04 0.  0.
        4    1    3    3  502    0  0.35091267326E+03  0.82001949889E+03 -0.27403323893E+03  0.93309566056E+03  0.12699999809E+01 0. -1.
       -4    1    3    3    0  502 -0.35091267326E+03 -0.82001949889E+03  0.12957158862E+04  0.15730393998E+04  0.12699999809E+01 0.  1.
</event>
<event>
 5   0  0.8602414E-05  0.1388709E+04  0.7818609E-02  0.8962032E-01
        1   -1    0    0  501    0  0.00000000000E+00  0.00000000000E+00  0.11159653937E+04  0.11159653938E+04  0.50400001928E-02 0.  1.
       -1   -1    0    0    0  501  0.00000000000E+00  0.00000000000E+00 -0.43202779697E+03  0.43202779700E+03  0.50400001928E-02 0. -1.
    10030    2    1    2    0    0  0.00000000000E+00  0.00000000000E+00  0.68393759678E+03  0.15479931908E+04  0.13887088544E+04 0.  0.
        3    1    3    3  502    0  0.55043971408E+03  0.33529356959E+03  0.62990328421E+03  0.90121241354E+03  0.10100000352E+00 0.  1.
       -3    1    3    3    0  502 -0.55043971408E+03 -0.33529356959E+03  0.54034312570E+02  0.64678077722E+03  0.10100000352E+00 0. -1.
</event>
<event>
 5   0  0.8784659E-05  0.2245263E+04  0.7818609E-02  0.8499821E-01
       -1   -1    0    0    0  501  0.00000000000E+00  0.00000000000E+00  0.69125139385E+03  0.69125139387E+03  0.50400001928E-02 0.  1.
        1   -1    0    0  501    0  0.00000000000E+00  0.00000000000E+00 -0.18232170703E+04  0.18232170703E+04  0.50400001928E-02 0. -1.
    10030    2    1    2    0    0  0.00000000000E+00  0.00000000000E+00 -0.11319656764E+04  0.25144684642E+04  0.22452628721E+04 0.  0.
        4    1    3    3  502    0 -0.16436850320E+03 -0.39836349981E+03  0.59493168203E+03  0.73461268843E+03  0.12699999809E+01 0.  1.
       -4    1    3    3    0  502  0.16436850320E+03  0.39836349981E+03 -0.17268973585E+04  0.17798557757E+04  0.12699999809E+01 0. -1.
</event>
<event>
 5   0  0.8784659E-05  0.2162676E+04  0.7818609E-02  0.8534126E-01
       -1   -1    0    0    0  501  0.00000000000E+00  0.00000000000E+00  0.86515173543E+03  0.86515173545E+03  0.50400001928E-02 0.  1.
        1   -1    0    0  501    0  0.00000000000E+00  0.00000000000E+00 -0.13515450299E+04  0.13515450299E+04  0.50400001928E-02 0. -1.
    10030    2    1    2    0    0  0.00000000000E+00  0.00000000000E+00 -0.48639329450E+03  0.22166967654E+04  0.21626756837E+04 0.  0.
        4    1    3    3  502    0  0.56786457732E+03 -0.82681434775E+03 -0.65726496537E+03  0.11992043160E+04  0.12699999809E+01 0. -1.
       -4    1    3    3    0  502 -0.56786457732E+03  0.82681434775E+03  0.17087167087E+03  0.10174924494E+04  0.12699999809E+01 0.  1.
</event>
<event>
 5   0  0.8784659E-05  0.2201886E+04  0.7818609E-02  0.8517643E-01
       -1   -1    0    0    0  501  0.00000000000E+00  0.00000000000E+00  0.79672406783E+03  0.79672406784E+03  0.50400001928E-02 0. -1.
        1   -1    0    0  501    0  0.00000000000E+00  0.00000000000E+00 -0.15213242191E+04  0.15213242191E+04  0.50400001928E-02 0.  1.
    10030    2    1    2    0    0  0.00000000000E+00  0.00000000000E+00 -0.72460015130E+03  0.23180482870E+04  0.22018861191E+04 0.  0.
        4    1    3    3  502    0 -0.85599023699E+03 -0.66108543841E+03 -0.57887310854E+03  0.12267228421E+04  0.12699999809E+01 0. -1.
       -4    1    3    3    0  502  0.85599023699E+03  0.66108543841E+03 -0.14572704276E+03  0.10913254449E+04  0.12699999809E+01 0.  1.
</event>
<event>
 5   0  0.8306787E-05  0.2226159E+04  0.7818609E-02  0.8507618E-01
        1   -1    0    0  501    0  0.00000000000E+00  0.00000000000E+00  0.74074838919E+03  0.74074838921E+03  0.50400001928E-02 0. -1.
       -1   -1    0    0    0  501  0.00000000000E+00  0.00000000000E+00 -0.16725604124E+04  0.16725604124E+04  0.50400001928E-02 0.  1.
    10030    2    1    2    0    0  0.00000000000E+00  0.00000000000E+00 -0.93181202316E+03  0.24133088016E+04  0.22261594115E+04 0.  0.
        1    1    3    3  502    0  0.54398406603E+03 -0.36642503274E+03 -0.14408206527E+04  0.15830824748E+04  0.50400001928E-02 0.  1.
       -1    1    3    3    0  502 -0.54398406603E+03  0.36642503274E+03  0.50900862954E+03  0.83022632678E+03  0.50400001928E-02 0. -1.
</event>
<event>
 5   0  0.7954459E-05  0.2408605E+04  0.7818609E-02  0.8436289E-01
       -1   -1    0    0    0  501  0.00000000000E+00  0.00000000000E+00  0.13836257136E+04  0.13836257136E+04  0.50400001928E-02 0. -1.
        1   -1    0    0  501    0  0.00000000000E+00  0.00000000000E+00 -0.10482199779E+04  0.10482199780E+04  0.50400001928E-02 0.  1.
    10030    2    1    2    0    0  0.00000000000E+00  0.00000000000E+00  0.33540573561E+03  0.24318456915E+04  0.24086046707E+04 0.  0.
        5    1    3    3  502    0  0.36928084240E+03  0.45307619317E+03  0.12307995041E+04  0.13625475722E+04  0.46999998093E+01 0. -1.
       -5    1    3    3    0  502 -0.36928084240E+03 -0.45307619317E+03 -0.89539376844E+03  0.10692981193E+04  0.46999998093E+01 0.  1.
</event>
<event>
 5   0  0.1798917E-04  0.2198523E+04  0.7818609E-02  0.8519043E-01
        2   -1    0    0  501    0  0.00000000000E+00  0.00000000000E+00  0.15045956736E+04  0.15045956736E+04  0.25500000920E-02 0. -1.
       -2   -1    0    0    0  501  0.00000000000E+00  0.00000000000E+00 -0.80312323294E+03  0.80312323294E+03  0.25500000920E-02 0.  1.
    10030    2    1    2    0    0  0.00000000000E+00  0.00000000000E+00  0.70147244065E+03  0.23077189065E+04  0.21985229056E+04 0.  0.
        4    1    3    3  502    0  0.83133844788E+03  0.59878890172E+03 -0.67424863506E+02  0.10267519120E+04  0.12699999809E+01 0.  1.
       -4    1    3    3    0  502 -0.83133844788E+03 -0.59878890172E+03  0.76889730416E+03  0.12809669945E+04  0.12699999809E+01 0. -1.
</event>
<event>
 5   0  0.7954459E-05  0.2195241E+04  0.7818609E-02  0.8520411E-01
        1   -1    0    0  501    0  0.00000000000E+00  0.00000000000E+00  0.21621959505E+04  0.21621959505E+04  0.50400001928E-02 0.  1.
       -1   -1    0    0    0  501  0.00000000000E+00  0.00000000000E+00 -0.55719795399E+03  0.55719795402E+03  0.50400001928E-02 0. -1.
    10030    2    1    2    0    0  0.00000000000E+00  0.00000000000E+00  0.16049979965E+04  0.27193939045E+04  0.21952413624E+04 0.  0.
        5    1    3    3  502    0 -0.93238349651E+03 -0.60574964079E+02  0.89006748996E+02  0.93859075331E+03  0.46999998093E+01 0. -1.
       -5    1    3    3    0  502  0.93238349651E+03  0.60574964079E+02  0.15159912475E+04  0.17808031512E+04  0.46999998093E+01 0.  1.
</event>
<event>
 5   0  0.1798917E-04  0.2185724E+04  0.7818609E-02  0.8524394E-01
       -2   -1    0    0    0  501  0.00000000000E+00  0.00000000000E+00  0.89165596692E+03  0.89165596692E+03  0.25500000920E-02 0. -1.
        2   -1    0    0  501    0  0.00000000000E+00  0.00000000000E+00 -0.13394713009E+04  0.13394713009E+04  0.25500000920E-02 0.  1.
    10030    2    1    2    0    0  0.00000000000E+00  0.00000000000E+00 -0.44781533399E+03  0.22311272678E+04  0.21857242076E+04 0.  0.
        4    1    3    3  502    0 -0.85337677054E+03  0.52406494645E+03 -0.67054667417E+03  0.12052097061E+04  0.12699999809E+01 0.  1.
       -4    1    3    3    0  502  0.85337677054E+03 -0.52406494645E+03  0.22273134018E+03  0.10259175617E+04  0.12699999809E+01 0. -1.
</event>
<event>
 5   0  0.8306787E-05  0.1839194E+04  0.7818609E-02  0.8685730E-01
       -1   -1    0    0    0  501  0.00000000000E+00  0.00000000000E+00  0.91993489404E+03  0.91993489405E+03  0.50400001928E-02 0. -1.
        1   -1    0    0  501    0  0.00000000000E+00  0.00000000000E+00 -0.91925964601E+03  0.91925964603E+03  0.50400001928E-02 0.  1.
    10030    2    1    2    0    0  0.00000000000E+00  0.00000000000E+00  0.67524802427E+00  0.18391945401E+04  0.18391944161E+04 0.  0.
        1    1    3    3  502    0 -0.84500514748E+03  0.47398407146E+02 -0.35935493113E+03  0.91946521131E+03  0.50400001928E-02 0. -1.
       -1    1    3    3    0  502  0.84500514748E+03 -0.47398407146E+02  0.36003017915E+03  0.91972932876E+03  0.50400001928E-02 0.  1.
</event>
<event>
 5   0  0.1754356E-04  0.2164579E+04  0.7818609E-02  0.8533318E-01
       -2   -1    0    0    0  501  0.00000000000E+00  0.00000000000E+00  0.72235332303E+03  0.72235332304E+03  0.25500000920E-02 0.  1.
        2   -1    0    0  501    0  0.00000000000E+00  0.00000000000E+00 -0.16215753388E+04  0.16215753388E+04  0.25500000920E-02 0. -1.
    10030    2    1    2    0    0  0.00000000000E+00  0.00000000000E+00 -0.89922201576E+03  0.23439286618E+04  0.21645787900E+04 0.  0.
        1    1    3    3  502    0 -0.88383444374E+03 -0.11706850471E+03  0.21480958676E+03  0.91706680090E+03  0.50400001928E-02 0.  1.
       -1    1    3    3    0  502  0.88383444374E+03  0.11706850471E+03 -0.11140316025E+04  0.14268618609E+04  0.50400001928E-02 0. -1.
</event>
<event>
 5   0  0.8602414E-05  0.2204854E+04  0.7818609E-02  0.8516411E-01
        1   -1    0    0  501    0  0.00000000000E+00  0.00000000000E+00  0.76098857706E+03  0.76098857708E+03  0.50400001928E-02 0. -1.
       -1   -1    0    0    0  501  0.00000000000E+00  0.00000000000E+00 -0.15970604425E+04  0.15970604425E+04  0.50400001928E-02 0.  1.
    10030    2    1    2    0    0  0.00000000000E+00  0.00000000000E+00 -0.83607186540E+03  0.23580490196E+04  0.22048535132E+04 0.  0.
        3    1    3    3  502    0 -0.73883740106E+03 -0.13755951527E+03  0.44456627254E+03  0.87317953842E+03  0.10100000352E+00 0. -1.
       -3    1    3    3    0  502  0.73883740106E+03  0.13755951527E+03 -0.12806381379E+04  0.14848694811E+04  0.10100000352E+00 0.  1.
</event>
<event>
 5   0  0.1805501E-04  0.1950579E+04  0.7818609E-02  0.8630082E-01
       -2   -1    0    0    0  501  0.00000000000E+00  0.00000000000E+00  0.48717241456E+03  0.48717241456E+03  0.25500000920E-02 0. -1.
        2   -1    0    0  501    0  0.00000000000E+00  0.00000000000E+00 -0.19524694766E+04  0.19524694766E+04  0.25500000920E-02 0.  1.
    10030    2    1    2    0    0  0.00000000000E+00  0.00000000000E+00 -0.14652970620E+04  0.24396418912E+04  0.19505786519E+04 0.  0.
        2    1    3    3  502    0  0.45617166009E+03  0.59730770742E+03  0.44736757045E+02  0.75290800119E+03  0.25500000920E-02 0. -1.
       -2    1    3    3    0  502 -0.45617166009E+03 -0.59730770742E+03 -0.15100338191E+04  0.16867338900E+04  0.25500000920E-02 0.  1.
</event>
<event>
 5   0  0.8306787E-05  0.2201318E+04  0.7818609E-02  0.8517880E-01
        1   -1    0    0  501    0  0.00000000000E+00  0.00000000000E+00  0.90894734659E+03  0.90894734660E+03  0.50400001928E-02 0.  1.
       -1   -1    0    0    0  501  0.00000000000E+00  0.00000000000E+00 -0.13328060568E+04  0.13328060568E+04  0.50400001928E-02 0. -1.
    10030    2    1    2    0    0  0.00000000000E+00  0.00000000000E+00 -0.42385871023E+03  0.22417534034E+04  0.22013182677E+04 0.  0.
        1    1    3    3  502    0  0.60434943298E+03 -0.77160807745E+03  0.29810281168E+03  0.10244425551E+04  0.50400001928E-02 0.  1.
       -1    1    3    3    0  502 -0.60434943298E+03  0.77160807745E+03 -0.72196152191E+03  0.12173108483E+04  0.50400001928E-02 0. -1.
</event>
<event>
 5   0  0.7954459E-05  0.2072770E+04  0.7818609E-02  0.8573334E-01
        1   -1    0    0  501    0  0.00000000000E+00  0.00000000000E+00  0.12041316446E+04  0.12041316446E+04  0.50400001928E-02 0. -1.
       -1   -1    0    0    0  501  0.00000000000E+00  0.00000000000E+00 -0.89200709617E+03  0.89200709619E+03  0.50400001928E-02 0.  1.
    10030    2    1    2    0    0  0.00000000000E+00  0.00000000000E+00  0.31212454845E+03  0.20961387408E+04  0.20727700999E+04 0.  0.
        5    1    3    3  502    0 -0.36528103951E+03  0.65528993639E+03  0.87913156842E+03  0.11557376619E+04  0.46999998093E+01 0. -1.
       -5    1    3    3    0  502  0.36528103951E+03 -0.65528993639E+03 -0.56700701996E+03  0.94040107892E+03  0.46999998093E+01 0.  1.
</event>
<event>
 5   0  0.8306787E-05  0.2234384E+04  0.7818609E-02  0.8504252E-01
        1   -1    0    0  501    0  0.00000000000E+00  0.00000000000E+00  0.72824207881E+03  0.72824207882E+03  0.50400001928E-02 0. -1.
       -1   -1    0    0    0  501  0.00000000000E+00  0.00000000000E+00 -0.17138772921E+04  0.17138772921E+04  0.50400001928E-02 0.  1.
    10030    2    1    2    0    0  0.00000000000E+00  0.00000000000E+00 -0.98563521332E+03  0.24421193710E+04  0.22343836395E+04 0.  0.
        1    1    3    3  502    0  0.96725749612E+03 -0.54908543723E+03 -0.60763527210E+03  0.12673998994E+04  0.50400001928E-02 0.  1.
       -1    1    3    3    0  502 -0.96725749612E+03  0.54908543723E+03 -0.37799994122E+03  0.11747194715E+04  0.50400001928E-02 0. -1.
</event>
<event>
 5   0  0.1680258E-04  0.2247859E+04  0.7818609E-02  0.8498768E-01
        2   -1    0    0  501    0  0.00000000000E+00  0.00000000000E+00  0.15337805125E+04  0.15337805125E+04  0.25500000920E-02 0.  1.
       -2   -1    0    0    0  501  0.00000000000E+00  0.00000000000E+00 -0.82359750705E+03  0.82359750706E+03  0.25500000920E-02 0. -1.
    10030    2    1    2    0    0  0.00000000000E+00  0.00000000000E+00  0.71018300547E+03  0.23573780196E+04  0.22478592540E+04 0.  0.
        5    1    3    3  502    0 -0.70050489281E+03  0.15174638638E+03 -0.55280181773E+03  0.90517733639E+03  0.46999998093E+01 0. -1.
       -5    1    3    3    0  502  0.70050489281E+03 -0.15174638638E+03  0.12629848232E+04  0.14522006832E+04  0.46999998093E+01 0.  1.
</event>
<event>
 5   0  0.1733962E-04  0.2032108E+04  0.7818609E-02  0.8591754E-01
       -2   -1    0    0    0  501  0.00000000000E+00  0.00000000000E+00  0.56315010962E+03  0.56315010962E+03  0.25500000920E-02 0.  1.
        2   -1    0    0  501    0  0.00000000000E+00  0.00000000000E+00 -0.18331985640E+04  0.18331985640E+04  0.25500000920E-02 0. -1.
    10030    2    1    2    0    0  0.00000000000E+00  0.00000000000E+00 -0.12700484544E+04  0.23963486736E+04  0.20321082376E+04 0.  0.
        3    1    3    3  502    0  0.81718196692E+03 -0.43865851602E+03 -0.11243151480E+04  0.14574951880E+04  0.10100000352E+00 0.  1.
       -3    1    3    3    0  502 -0.81718196692E+03  0.43865851602E+03 -0.14573330638E+03  0.93885348565E+03  0.10100000352E+00 0. -1.
</event>
<event>
 5   0  0.1754356E-04  0.2245037E+04  0.7818609E-02  0.8499913E-01
       -2   -1    0    0    0  501  0.00000000000E+00  0.00000000000E+00  0.99250488946E+03  0.99250488946E+03  0.25500000920E-02 0.  1.
        2   -1    0    0  501    0  0.00000000000E+00  0.00000000000E+00 -0.12695628716E+04  0.12695628716E+04  0.25500000920E-02 0. -1.
    10030    2    1    2    0    0  0.00000000000E+00  0.00000000000E+00 -0.27705798210E+03  0.22620677610E+04  0.22450366211E+04 0.  0.
        1    1    3    3  502    0  0.11200875105E+04 -0.68613545825E+02 -0.11105479916E+03  0.11276688424E+04  0.50400001928E-02 0. -1.
       -1    1    3    3    0  502 -0.11200875105E+04  0.68613545825E+02 -0.16600318294E+03  0.11343989186E+04  0.50400001928E-02 0.  1.
</event>
<event>
 5   0  0.8470971E-05  0.2189238E+04  0.7818609E-02  0.8522921E-01
       -1   -1    0    0    0  501  0.00000000000E+00  0.00000000000E+00  0.10444345280E+04  0.10444345280E+04  0.50400001928E-02 0.  1.
        1   -1    0    0  501    0  0.00000000000E+00  0.00000000000E+00 -0.11472144467E+04  0.11472144467E+04  0.50400001928E-02 0. -1.
    10030    2    1    2    0    0  0.00000000000E+00  0.00000000000E+00 -0.10277991869E+03  0.21916489748E+04  0.21892376566E+04 0.  0.
        2    1    3    3  502    0 -0.93926236345E+03  0.51803030599E+03 -0.26985312703E+03  0.11060695708E+04  0.25500000920E-02 0. -1.
       -2    1    3    3    0  502  0.93926236345E+03 -0.51803030599E+03  0.16707320835E+03  0.10855794039E+04  0.25500000920E-02 0.  1.
</event>
<event>
 5   0  0.8306787E-05  0.2217955E+04  0.7818609E-02  0.8510992E-01
       -1   -1    0    0    0  501  0.00000000000E+00  0.00000000000E+00  0.78525628715E+03  0.78525628717E+03  0.50400001928E-02 0. -1.
        1   -1    0    0  501    0  0.00000000000E+00  0.00000000000E+00 -0.15661525238E+04  0.15661525238E+04  0.50400001928E-02 0.  1.
    10030    2    1    2    0    0  0.00000000000E+00  0.00000000000E+00 -0.78089623667E+03  0.23514088110E+04  0.22179550185E+04 0.  0.
        1    1    3    3  502    0 -0.35676273817E+03 -0.56331914455E+03  0.54899808318E+03  0.86371697061E+03  0.50400001928E-02 0. -1.
       -1    1    3    3    0  502  0.35676273817E+03  0.56331914455E+03 -0.13298943198E+04  0.14876918404E+04  0.50400001928E-02 0.  1.
</event>
<event>
 5   0  0.1680258E-04  0.2140267E+04  0.7818609E-02  0.8543710E-01
       -2   -1    0    0    0  501  0.00000000000E+00  0.00000000000E+00  0.10864310774E+04  0.10864310774E+04  0.25500000920E-02 0.  1.
        2   -1    0    0  501    0  0.00000000000E+00  0.00000000000E+00 -0.10540804946E+04  0.10540804946E+04  0.25500000920E-02 0. -1.
    10030    2    1    2    0    0  0.00000000000E+00  0.00000000000E+00  0.32350582795E+02  0.21405115719E+04  0.21402670930E+04 0.  0.
        5    1    3    3  502    0  0.80733805477E+03  0.37452927667E+03  0.61046265913E+03  0.10792375373E+04  0.46999998093E+01 0.  1.
       -5    1    3    3    0  502 -0.80733805477E+03 -0.37452927667E+03 -0.57811207634E+03  0.10612740346E+04  0.46999998093E+01 0. -1.
</event>
<event>
 5   0  0.7954459E-05  0.2171578E+04  0.7818609E-02  0.8530352E-01
       -1   -1    0    0    0  501  0.00000000000E+00  0.00000000000E+00  0.10924549341E+04  0.10924549341E+04  0.50400001928E-02 0. -1.
        1   -1    0    0  501    0  0.00000000000E+00  0.00000000000E+00 -0.10791640290E+04  0.10791640290E+04  0.50400001928E-02 0.  1.
    10030    2    1    2    0    0  0.00000000000E+00  0.00000000000E+00  0.13290905115E+02  0.21716189631E+04  0.21715782907E+04 0.  0.
        5    1    3    3  502    0  0.59548811386E+03 -0.50693860558E+03  0.75986811954E+03  0.10904194114E+04  0.46999998093E+01 0. -1.
       -5    1    3    3    0  502 -0.59548811386E+03  0.50693860558E+03 -0.74657721442E+03  0.10811995517E+04  0.46999998093E+01 0.  1.
</event>
<event>
 5   0  0.8784659E-05  0.2231073E+04  0.7818609E-02  0.8505605E-01
        1   -1    0    0  501    0  0.00000000000E+00  0.00000000000E+00  0.16088140349E+04  0.16088140349E+04  0.50400001928E-02 0.  1.
       -1   -1    0    0    0  501  0.00000000000E+00  0.00000000000E+00 -0.77350274987E+03  0.77350274988E+03  0.50400001928E-02 0. -1.
    10030    2    1    2    0    0  0.00000000000E+00  0.00000000000E+00  0.83531128499E+03  0.23823167847E+04  0.22310733560E+04 0.  0.
        4    1    3    3  502    0 -0.49408768551E+03  0.19451490479E+03 -0.62990073829E+03  0.82385389612E+03  0.12699999809E+01 0. -1.
       -4    1    3    3    0  502  0.49408768551E+03 -0.19451490479E+03  0.14652120233E+04  0.15584628886E+04  0.12699999809E+01 0.  1.
</event>
<event>
 5   0  0.1680258E-04  0.2462266E+04  0.7818609E-02  0.8416553E-01
       -2   -1    0    0    0  501  0.00000000000E+00  0.00000000000E+00  0.13290395824E+04  0.13290395824E+04  0.25500000920E-02 0. -1.
        2   -1    0    0  501    0  0.00000000000E+00  0.00000000000E+00 -0.11404385720E+04  0.11404385720E+04  0.25500000920E-02 0.  1.
    10030    2    1    2    0    0  0.00000000000E+00  0.00000000000E+00  0.18860101036E+03  0.24694781544E+04  0.24622656262E+04 0.  0.
        5    1    3    3  502    0 -0.24108159893E+01 -0.11920774210E+04  0.40279136777E+03  0.12582993943E+04  0.46999998093E+01 0. -1.
       -5    1    3    3    0  502  0.24108159893E+01  0.11920774210E+04 -0.21419035741E+03  0.12111787601E+04  0.46999998093E+01 0.  1.
</event>
<event>
 5   0  0.6250625E-05  0.2197602E+04  0.7818609E-02  0.8519427E-01
        3   -1    0    0  501    0  0.00000000000E+00  0.00000000000E+00  0.15116061116E+04  0.15116061150E+04  0.10100000352E+00 0. -1.
       -3   -1    0    0    0  501  0.00000000000E+00  0.00000000000E+00 -0.79872924113E+03  0.79872924752E+03  0.10100000352E+00 0.  1.
    10030    2    1    2    0    0  0.00000000000E+00  0.00000000000E+00  0.71287687047E+03  0.23103353625E+04  0.21976023423E+04 0.  0.
        1    1    3    3  502    0 -0.75169915834E+03 -0.44255156892E+03  0.10588917009E+04  0.13719165974E+04  0.50400001928E-02 0. -1.
       -1    1    3    3    0  502  0.75169915834E+03  0.44255156892E+03 -0.34601483046E+03  0.93841876512E+03  0.50400001928E-02 0.  1.
</event>
<event>
 5   0  0.1680258E-04  0.2244908E+04  0.7818609E-02  0.8499966E-01
        2   -1    0    0  501    0  0.00000000000E+00  0.00000000000E+00  0.10459547267E+04  0.10459547267E+04  0.25500000920E-02 0.  1.
       -2   -1    0    0    0  501  0.00000000000E+00  0.00000000000E+00 -0.12045481165E+04  0.12045481165E+04  0.25500000920E-02 0. -1.
    10030    2    1    2    0    0  0.00000000000E+00  0.00000000000E+00 -0.15859338979E+03  0.22505028432E+04  0.22449078342E+04 0.  0.
        5    1    3    3  502    0 -0.61781088877E+02 -0.78980511645E+03 -0.87643359916E+03  0.11814258202E+04  0.46999998093E+01 0. -1.
       -5    1    3    3    0  502  0.61781088877E+02  0.78980511645E+03  0.71784020937E+03  0.10690770230E+04  0.46999998093E+01 0.  1.
</event>
<event>
 5   0  0.1798917E-04  0.2088859E+04  0.7818609E-02  0.8566167E-01
       -2   -1    0    0    0  501  0.00000000000E+00  0.00000000000E+00  0.66198337597E+03  0.66198337597E+03  0.25500000920E-02 0.  1.
        2   -1    0    0  501    0  0.00000000000E+00  0.00000000000E+00 -0.16478260714E+04  0.16478260714E+04  0.25500000920E-02 0. -1.
    10030    2    1    2    0    0  0.00000000000E+00  0.00000000000E+00 -0.98584269538E+03  0.23098094473E+04  0.20888594646E+04 0.  0.
        4    1    3    3  502    0 -0.52398016026E+02 -0.10064699527E+04 -0.79596138597E+03  0.12842443142E+04  0.12699999809E+01 0. -1.
       -4    1    3    3    0  502  0.52398016026E+02  0.10064699527E+04 -0.18988130941E+03  0.10255651331E+04  0.12699999809E+01 0.  1.
</event>
<event>
 5   0  0.1754356E-04  0.2114646E+04  0.7818609E-02  0.8554819E-01
        2   -1    0    0  501    0  0.00000000000E+00  0.00000000000E+00  0.74479318354E+03  0.74479318355E+03  0.25500000920E-02 0.  1.
       -2   -1    0    0    0  501  0.00000000000E+00  0.00000000000E+00 -0.15009958811E+04  0.15009958811E+04  0.25500000920E-02 0. -1.
    10030    2    1    2    0    0  0.00000000000E+00  0.00000000000E+00 -0.75620269758E+03  0.22457890647E+04  0.21146455975E+04 0.  0.
        1    1    3    3  502    0  0.96286144245E+03 -0.43616895652E+03 -0.40380971842E+03  0.11315510615E+04  0.50400001928E-02 0. -1.
       -1    1    3    3    0  502 -0.96286144245E+03  0.43616895652E+03 -0.35239297916E+03  0.11142380032E+04  0.50400001928E-02 0.  1.
</event>
<event>
 5   0  0.1754356E-04  0.2181937E+04  0.7818609E-02  0.8525984E-01
        2   -1    0    0  501    0  0.00000000000E+00  0.00000000000E+00  0.10549873832E+04  0.10549873832E+04  0.25500000920E-02 0. -1.
       -2   -1    0    0    0  501  0.00000000000E+00  0.00000000000E+00 -0.11281763726E+04  0.11281763726E+04  0.25500000920E-02 0.  1.
    10030    2    1    2    0    0  0.00000000000E+00  0.00000000000E+00 -0.73188989453E+02  0.21831637558E+04  0.21819366069E+04 0.  0.
        1    1    3    3  502    0 -0.36601148888E+02  0.10700390454E+04 -0.24620846655E+03  0.10986090351E+04  0.50400001928E-02 0.  1.
       -1    1    3    3    0  502  0.36601148888E+02 -0.10700390454E+04  0.17301947710E+03  0.10845547208E+04  0.50400001928E-02 0. -1.
</event>
<event>
 5   0  0.8470971E-05  0.2241811E+04  0.7818609E-02  0.8501224E-01
       -1   -1    0    0    0  501  0.00000000000E+00  0.00000000000E+00  0.10494222799E+04  0.10494222799E+04  0.50400001928E-02 0.  1.
        1   -1    0    0  501    0  0.00000000000E+00  0.00000000000E+00 -0.11972574754E+04  0.11972574754E+04  0.50400001928E-02 0. -1.
    10030    2    1    2    0    0  0.00000000000E+00  0.00000000000E+00 -0.14783519552E+03  0.22466797553E+04  0.22418105803E+04 0.  0.
        2    1    3    3  502    0 -0.58099403315E+03  0.84630937326E+03  0.37721014848E+03  0.10936549355E+04  0.25500000920E-02 0. -1.
       -2    1    3    3    0  502  0.58099403315E+03 -0.84630937326E+03 -0.52504534400E+03  0.11530248198E+04  0.25500000920E-02 0.  1.
</event>
<event>
 5   0  0.1754356E-04  0.1692932E+04  0.7818609E-02  0.8765406E-01
       -2   -1    0    0    0  501  0.00000000000E+00  0.00000000000E+00  0.50892420718E+03  0.50892420718E+03  0.25500000920E-02 0.  1.
        2   -1    0    0  501    0  0.00000000000E+00  0.00000000000E+00 -0.14078816807E+04  0.14078816808E+04  0.25500000920E-02 0. -1.
    10030    2    1    2    0    0  0.00000000000E+00  0.00000000000E+00 -0.89895747357E+03  0.19168058879E+04  0.16929324478E+04 0.  0.
        1    1    3    3  502    0  0.53297284271E+03 -0.34050485691E+03  0.18750209595E+03  0.65966707107E+03  0.50400001928E-02 0.  1.
       -1    1    3    3    0  502 -0.53297284271E+03  0.34050485691E+03 -0.10864595695E+04  0.12571388169E+04  0.50400001928E-02 0. -1.
</event>
<event>
 5   0  0.7954459E-05  0.2241024E+04  0.7818609E-02  0.8501544E-01
        1   -1    0    0  501    0  0.00000000000E+00  0.00000000000E+00  0.21683824138E+04  0.21683824138E+04  0.50400001928E-02 0.  1.
       -1   -1    0    0    0  501  0.00000000000E+00  0.00000000000E+00 -0.57902478881E+03  0.57902478884E+03  0.50400001928E-02 0. -1.
    10030    2    1    2    0    0  0.00000000000E+00  0.00000000000E+00  0.15893576250E+04  0.27474072026E+04  0.22410240242E+04 0.  0.
        5    1    3    3  502    0  0.61970583976E+03  0.82341652487E+03  0.25543034050E+03  0.10617517837E+04  0.46999998093E+01 0. -1.
       -5    1    3    3    0  502 -0.61970583976E+03 -0.82341652487E+03  0.13339272845E+04  0.16856554190E+04  0.46999998093E+01 0.  1.
</event>
<event>
 5   0  0.8602414E-05  0.1417614E+04  0.7818609E-02  0.8941166E-01
       -1   -1    0    0    0  501  0.00000000000E+00  0.00000000000E+00  0.60609077594E+03  0.60609077596E+03  0.50400001928E-02 0. -1.
        1   -1    0    0  501    0  0.00000000000E+00  0.00000000000E+00 -0.82893131055E+03  0.82893131056E+03  0.50400001928E-02 0.  1.
    10030    2    1    2    0    0  0.00000000000E+00  0.00000000000E+00 -0.22284053461E+03  0.14350220865E+04  0.14176143640E+04 0.  0.
        3    1    3    3  502    0  0.32564155637E+03  0.49959281559E+03 -0.49923329294E+03  0.77773343480E+03  0.10100000352E+00 0.  1.
       -3    1    3    3    0  502 -0.32564155637E+03 -0.49959281559E+03  0.27639275833E+03  0.65728865172E+03  0.10100000352E+00 0. -1.
</event>
<event>
 5   0  0.1798917E-04  0.2176601E+04  0.7818609E-02  0.8528231E-01
       -2   -1    0    0    0  501  0.00000000000E+00  0.00000000000E+00  0.13162378369E+04  0.13162378369E+04  0.25500000920E-02 0. -1.
        2   -1    0    0  501    0  0.00000000000E+00  0.00000000000E+00 -0.89983593248E+03  0.89983593249E+03  0.25500000920E-02 0.  1.
    10030    2    1    2    0    0  0.00000000000E+00  0.00000000000E+00  0.41640190440E+03  0.22160737694E+04  0.21766011131E+04 0.  0.
        4    1    3    3  502    0 -0.22077790538E+03  0.93870381792E+02 -0.87257798115E+03  0.90495772176E+03  0.12699999809E+01 0.  1.
       -4    1    3    3    0  502  0.22077790538E+03 -0.93870381792E+02  0.12889798855E+04  0.13111160476E+04  0.12699999809E+01 0. -1.
</event>
<event>
 5   0  0.8306787E-05  0.2257456E+04  0.7818609E-02  0.8494887E-01
        1   -1    0    0  501    0  0.00000000000E+00  0.00000000000E+00  0.99241335357E+03  0.99241335358E+03  0.50400001928E-02 0.  1.
       -1   -1    0    0    0  501  0.00000000000E+00  0.00000000000E+00 -0.12837661705E+04  0.12837661705E+04  0.50400001928E-02 0. -1.
    10030    2    1    2    0    0  0.00000000000E+00  0.00000000000E+00 -0.29135281689E+03  0.22761795240E+04  0.22574558161E+04 0.  0.
        1    1    3    3  502    0  0.21121109664E+03  0.10344203077E+04 -0.54822601836E+03  0.11896164371E+04  0.50400001928E-02 0. -1.
       -1    1    3    3    0  502 -0.21121109664E+03 -0.10344203077E+04  0.25687320147E+03  0.10865630869E+04  0.50400001928E-02 0.  1.
</event>
<event>
 5   0  0.1733962E-04  0.1411709E+04  0.7818609E-02  0.8945386E-01
       -2   -1    0    0    0  501  0.00000000000E+00  0.00000000000E+00  0.37694959030E+03  0.37694959031E+03  0.25500000920E-02 0.  1.
        2   -1    0    0  501    0  0.00000000000E+00  0.00000000000E+00 -0.13217434912E+04  0.13217434912E+04  0.25500000920E-02 0. -1.
    10030    2    1    2    0    0  0.00000000000E+00  0.00000000000E+00 -0.94479390089E+03  0.16986930815E+04  0.14117091308E+04 0.  0.
        3    1    3    3  502    0  0.20398209728E+03  0.22252013626E+03 -0.12401540587E+04  0.12763643706E+04  0.10100000352E+00 0. -1.
       -3    1    3    3    0  502 -0.20398209728E+03 -0.22252013626E+03  0.29536015779E+03  0.42232871092E+03  0.10100000352E+00 0.  1.
</event>
<event>
 5   0  0.1733962E-04  0.2194432E+04  0.7818609E-02  0.8520749E-01
       -2   -1    0    0    0  501  0.00000000000E+00  0.00000000000E+00  0.83075728602E+03  0.83075728602E+03  0.25500000920E-02 0. -1.
        2   -1    0    0  501    0  0.00000000000E+00  0.00000000000E+00 -0.14491392303E+04  0.14491392303E+04  0.25500000920E-02 0.  1.
    10030    2    1    2    0    0  0.00000000000E+00  0.00000000000E+00 -0.61838194432E+03  0.22798965164E+04  0.21944320213E+04 0.  0.
        3    1    3    3  502    0 -0.41984751786E+03 -0.80625015819E+03 -0.94759074729E+03  0.13131030007E+04  0.10100000352E+00 0.  1.
       -3    1    3    3    0  502  0.41984751786E+03  0.80625015819E+03  0.32920880296E+03  0.96679351569E+03  0.10100000352E+00 0. -1.
</event>
<event>
 5   0  0.1733962E-04  0.2311159E+04  0.7818609E-02  0.8473534E-01
        2   -1    0    0  501    0  0.00000000000E+00  0.00000000000E+00  0.14870613973E+04  0.14870613973E+04  0.25500000920E-02 0. -1.
       -2   -1    0    0    0  501  0.00000000000E+00  0.00000000000E+00 -0.89798843800E+03  0.89798843801E+03  0.25500000920E-02 0.  1.
    10030    2    1    2    0    0  0.00000000000E+00  0.00000000000E+00  0.58907295928E+03  0.23850498353E+04  0.23111589659E+04 0.  0.
        3    1    3    3  502    0 -0.40893811055E+03  0.10527261593E+04  0.41964392923E+02  0.11301432498E+04  0.10100000352E+00 0. -1.
       -3    1    3    3    0  502  0.40893811055E+03 -0.10527261593E+04  0.54710856636E+03  0.12549065855E+04  0.10100000352E+00 0.  1.
</event>
<event>
 5   0  0.8470971E-05  0.2224802E+04  0.7818609E-02  0.8508175E-01
        1   -1    0    0  501    0  0.00000000000E+00  0.00000000000E+00  0.27467308891E+04  0.27467308891E+04  0.50400001928E-02 0. -1.
       -1   -1    0    0    0  501  0.00000000000E+00  0.00000000000E+00 -0.45051228947E+03  0.45051228949E+03  0.50400001928E-02 0.  1.
    10030    2    1    2    0    0  0.00000000000E+00  0.00000000000E+00  0.22962185997E+04  0.31972431786E+04  0.22248020330E+04 0.  0.
        2    1    3    3  502    0  0.10233410687E+04  0.11114888235E+03  0.54204689912E+03  0.11633554305E+04  0.25500000920E-02 0.  1.
       -2    1    3    3    0  502 -0.10233410687E+04 -0.11114888235E+03  0.17541717005E+04  0.20338877481E+04  0.25500000920E-02 0. -1.
</event>
<event>
 5   0  0.1680258E-04  0.1550556E+04  0.7818609E-02  0.8851512E-01
        2   -1    0    0  501    0  0.00000000000E+00  0.00000000000E+00  0.30018550687E+04  0.30018550687E+04  0.25500000920E-02 0.  1.
       -2   -1    0    0    0  501  0.00000000000E+00  0.00000000000E+00 -0.20022827762E+03  0.20022827763E+03  0.25500000920E-02 0. -1.
    10030    2    1    2    0    0  0.00000000000E+00  0.00000000000E+00  0.28016267911E+04  0.32020833463E+04  0.15505563777E+04 0.  0.
        5    1    3    3  502    0 -0.17993058352E+03 -0.52656991509E+03  0.28606362576E+03  0.62570390629E+03  0.46999998093E+01 0. -1.
       -5    1    3    3    0  502  0.17993058352E+03  0.52656991509E+03  0.25155631653E+04  0.25763794400E+04  0.46999998093E+01 0.  1.
</event>
<event>
 5   0  0.1680258E-04  0.2190312E+04  0.7818609E-02  0.8522471E-01
        2   -1    0    0  501    0  0.00000000000E+00  0.00000000000E+00  0.19587038457E+04  0.19587038457E+04  0.25500000920E-02 0.  1.
       -2   -1    0    0    0  501  0.00000000000E+00  0.00000000000E+00 -0.61232677923E+03  0.61232677923E+03  0.25500000920E-02 0. -1.
    10030    2    1    2    0    0  0.00000000000E+00  0.00000000000E+00  0.13463770665E+04  0.25710306249E+04  0.21903121397E+04 0.  0.
        5    1    3    3  502    0 -0.66182014647E+03  0.66763323560E+03  0.13326249993E+04  0.16308438068E+04  0.46999998093E+01 0.  1.
       -5    1    3    3    0  502  0.66182014647E+03 -0.66763323560E+03  0.13752067160E+02  0.94018681808E+03  0.46999998093E+01 0. -1.
</event>
<event>
 5   0  0.1798917E-04  0.2127388E+04  0.7818609E-02  0.8549274E-01
       -2   -1    0    0    0  501  0.00000000000E+00  0.00000000000E+00  0.61822961202E+03  0.61822961203E+03  0.25500000920E-02 0. -1.
        2   -1    0    0  501    0  0.00000000000E+00  0.00000000000E+00 -0.18301378220E+04  0.18301378220E+04  0.25500000920E-02 0.  1.
    10030    2    1    2    0    0  0.00000000000E+00  0.00000000000E+00 -0.12119082100E+04  0.24483674341E+04  0.21273884419E+04 0.  0.
        4    1    3    3  502    0 -0.96816815827E+03  0.12966959417E+03 -0.12138059834E+03  0.98432649507E+03  0.12699999809E+01 0. -1.
       -4    1    3    3    0  502  0.96816815827E+03 -0.12966959417E+03 -0.10905276117E+04  0.14640409390E+04  0.12699999809E+01 0.  1.
</event>
<event>
 5   0  0.1798917E-04  0.2301962E+04  0.7818609E-02  0.8477148E-01
        2   -1    0    0  501    0  0.00000000000E+00  0.00000000000E+00  0.23269889203E+04  0.23269889203E+04  0.25500000920E-02 0. -1.
       -2   -1    0    0    0  501  0.00000000000E+00  0.00000000000E+00 -0.56930092373E+03  0.56930092374E+03  0.25500000920E-02 0.  1.
    10030    2    1    2    0    0  0.00000000000E+00  0.00000000000E+00  0.17576879965E+04  0.28962898440E+04  0.23019617215E+04 0.  0.
        4    1    3    3  502    0  0.89755199136E+03 -0.52016901403E+03  0.15061464294E+04  0.18288395392E+04  0.12699999809E+01 0. -1.
       -4    1    3    3    0  502 -0.89755199136E+03  0.52016901403E+03  0.25154156712E+03  0.10674503048E+04  0.12699999809E+01 0.  1.
</event>
<event>
 5   0  0.8470971E-05  0.2123685E+04  0.7818609E-02  0.8550881E-01
       -1   -1    0    0    0  501  0.00000000000E+00  0.00000000000E+00  0.11107145464E+04  0.11107145464E+04  0.50400001928E-02 0.  1.
        1   -1    0    0  501    0  0.00000000000E+00  0.00000000000E+00 -0.10151205740E+04  0.10151205740E+04  0.50400001928E-02 0. -1.
    10030    2    1    2    0    0  0.00000000000E+00  0.00000000000E+00  0.95593972454E+02  0.21258351204E+04  0.21236847110E+04 0.  0.
        2    1    3    3  502    0  0.10966123207E+02 -0.57410189823E+03  0.94189565615E+03  0.11031231447E+04  0.25500000920E-02 0.  1.
       -2    1    3    3    0  502 -0.10966123207E+02  0.57410189823E+03 -0.84630168369E+03  0.10227119757E+04  0.25500000920E-02 0. -1.
</event>
<event>
 5   0  0.1733962E-04  0.2178049E+04  0.7818609E-02  0.8527620E-01
        2   -1    0    0  501    0  0.00000000000E+00  0.00000000000E+00  0.93130818641E+03  0.93130818642E+03  0.25500000920E-02 0.  1.
       -2   -1    0    0    0  501  0.00000000000E+00  0.00000000000E+00 -0.12734500066E+04  0.12734500066E+04  0.25500000920E-02 0. -1.
    10030    2    1    2    0    0  0.00000000000E+00  0.00000000000E+00 -0.34214182023E+03  0.22047581931E+04  0.21780490501E+04 0.  0.
        3    1    3    3  502    0 -0.10119874661E+03  0.10752784372E+04 -0.31246016420E+03  0.11243203583E+04  0.10100000352E+00 0. -1.
       -3    1    3    3    0  502  0.10119874661E+03 -0.10752784372E+04 -0.29681656038E+02  0.10804378347E+04  0.10100000352E+00 0.  1.
</event>
<event>
 5   0  0.8784659E-05  0.1177144E+04  0.7818609E-02  0.9133101E-01
        1   -1    0    0  501    0  0.00000000000E+00  0.00000000000E+00  0.13352794674E+04  0.13352794674E+04  0.50400001928E-02 0. -1.
       -1   -1    0    0    0  501  0.00000000000E+00  0.00000000000E+00 -0.25943424447E+03  0.25943424452E+03  0.50400001928E-02 0.  1.
    10030    2    1    2    0    0  0.00000000000E+00  0.00000000000E+00  0.10758452230E+04  0.15947137120E+04  0.11771443749E+04 0.  0.
        4    1    3    3  502    0  0.29005119264E+03 -0.41359932423E+03  0.94709058108E+03  0.10733947443E+04  0.12699999809E+01 0. -1.
       -4    1    3    3    0  502 -0.29005119264E+03  0.41359932423E+03  0.12875464188E+03  0.52131896768E+03  0.12699999809E+01 0.  1.
</event>
<event>
 5   0  0.1754356E-04  0.2236005E+04  0.7818609E-02  0.8503590E-01
        2   -1    0    0  501    0  0.00000000000E+00  0.00000000000E+00  0.73361805597E+03  0.73361805598E+03  0.25500000920E-02 0.  1.
       -2   -1    0    0    0  501  0.00000000000E+00  0.00000000000E+00 -0.17037875242E+04  0.17037875242E+04  0.25500000920E-02 0. -1.
    10030    2    1    2    0    0  0.00000000000E+00  0.00000000000E+00 -0.97016946818E+03  0.24374055801E+04  0.22360047328E+04 0.  0.
        1    1    3    3  502    0  0.78228712173E+03 -0.42250758825E+03 -0.12239600073E+04  0.15128000206E+04  0.50400001928E-02 0. -1.
       -1    1    3    3    0  502 -0.78228712173E+03  0.42250758825E+03  0.25379053908E+03  0.92460555952E+03  0.50400001928E-02 0.  1.
</event>
<event>
 5   0  0.1805501E-04  0.2118484E+04  0.7818609E-02  0.8553145E-01
        2   -1    0    0  501    0  0.00000000000E+00  0.00000000000E+00  0.73020617232E+03  0.73020617233E+03  0.25500000920E-02 0.  1.
       -2   -1    0    0    0  501  0.00000000000E+00  0.00000000000E+00 -0.15365429608E+04  0.15365429608E+04  0.25500000920E-02 0. -1.
    10030    2    1    2    0    0  0.00000000000E+00  0.00000000000E+00 -0.80633678850E+03  0.22667491332E+04  0.21184835652E+04 0.  0.
        2    1    3    3  502    0 -0.85669209899E+03 -0.41747125534E+03 -0.89790221258E+03  0.13093631982E+04  0.25500000920E-02 0. -1.
       -2    1    3    3    0  502  0.85669209899E+03  0.41747125534E+03  0.91565424079E+02  0.95738593493E+03  0.25500000920E-02 0.  1.
</event>
<event>
 5   0  0.8784659E-05  0.2145704E+04  0.7818609E-02  0.8541373E-01
       -1   -1    0    0    0  501  0.00000000000E+00  0.00000000000E+00  0.93311824667E+03  0.93311824668E+03  0.50400001928E-02 0.  1.
        1   -1    0    0  501    0  0.00000000000E+00  0.00000000000E+00 -0.12335110017E+04  0.12335110017E+04  0.50400001928E-02 0. -1.
    10030    2    1    2    0    0  0.00000000000E+00  0.00000000000E+00 -0.30039275498E+03  0.21666292483E+04  0.21457041950E+04 0.  0.
        4    1    3    3  502    0  0.36339690656E+02 -0.97267080006E+03 -0.60581834309E+03  0.11464844247E+04  0.12699999809E+01 0. -1.
       -4    1    3    3    0  502 -0.36339690656E+02  0.97267080006E+03  0.30542558811E+03  0.10201448236E+04  0.12699999809E+01 0.  1.
</event>
<event>
 5   0  0.8470971E-05  0.2199565E+04  0.7818609E-02  0.8518609E-01
        1   -1    0    0  501    0  0.00000000000E+00  0.00000000000E+00  0.19144916121E+04  0.19144916121E+04  0.50400001928E-02 0.  1.
       -1   -1    0    0    0  501  0.00000000000E+00  0.00000000000E+00 -0.63177165947E+03  0.63177165949E+03  0.50400001928E-02 0. -1.
    10030    2    1    2    0    0  0.00000000000E+00  0.00000000000E+00  0.12827199527E+04  0.25462632716E+04  0.21995649960E+04 0.  0.
        2    1    3    3  502    0  0.10464619441E+04 -0.29868366274E+03  0.45749482928E+03  0.11805066919E+04  0.25500000920E-02 0. -1.
       -2    1    3    3    0  502 -0.10464619441E+04  0.29868366274E+03  0.82522512338E+03  0.13657565797E+04  0.25500000920E-02 0.  1.
</event>
<event>
 5   0  0.1798917E-04  0.2178135E+04  0.7818609E-02  0.8527584E-01
        2   -1    0    0  501    0  0.00000000000E+00  0.00000000000E+00  0.15828477462E+04  0.15828477462E+04  0.25500000920E-02 0.  1.
       -2   -1    0    0    0  501  0.00000000000E+00  0.00000000000E+00 -0.74932543663E+03  0.74932543663E+03  0.25500000920E-02 0. -1.
    10030    2    1    2    0    0  0.00000000000E+00  0.00000000000E+00  0.83352230953E+03  0.23321731828E+04  0.21781350541E+04 0.  0.
        4    1    3    3  502    0 -0.69115247181E+03 -0.81069583513E+03  0.65891202250E+03  0.12526316868E+04  0.12699999809E+01 0.  1.
       -4    1    3    3    0  502  0.69115247181E+03  0.81069583513E+03  0.17461028703E+03  0.10795414960E+04  0.12699999809E+01 0. -1.
</event>
<event>
 5   0  0.1798917E-04  0.2201316E+04  0.7818609E-02  0.8517880E-01
        2   -1    0    0  501    0  0.00000000000E+00  0.00000000000E+00  0.16351988165E+04  0.16351988165E+04  0.25500000920E-02 0.  1.
       -2   -1    0    0    0  501  0.00000000000E+00  0.00000000000E+00 -0.74085700060E+03  0.74085700061E+03  0.25500000920E-02 0. -1.
    10030    2    1    2    0    0  0.00000000000E+00  0.00000000000E+00  0.89434181585E+03  0.23760558171E+04  0.22013164157E+04 0.  0.
        4    1    3    3  502    0 -0.11593384283E+03 -0.94004955941E+03  0.10523102256E+04  0.14158009231E+04  0.12699999809E+01 0.  1.
       -4    1    3    3    0  502  0.11593384283E+03  0.94004955941E+03 -0.15796840971E+03  0.96025489399E+03  0.12699999809E+01 0. -1.
</event>
<event>
 5   0  0.8784659E-05  0.2220617E+04  0.7818609E-02  0.8509896E-01
       -1   -1    0    0    0  501  0.00000000000E+00  0.00000000000E+00  0.89898784156E+03  0.89898784158E+03  0.50400001928E-02 0. -1.
        1   -1    0    0  501    0  0.00000000000E+00  0.00000000000E+00 -0.13713033609E+04  0.13713033609E+04  0.50400001928E-02 0.  1.
    10030    2    1    2    0    0  0.00000000000E+00  0.00000000000E+00 -0.47231551931E+03  0.22702912025E+04  0.22206170751E+04 0.  0.
        4    1    3    3  502    0  0.70079895350E+03 -0.82515464893E+03  0.15901566870E+02  0.10827067196E+04  0.12699999809E+01 0. -1.
       -4    1    3    3    0  502 -0.70079895350E+03  0.82515464893E+03 -0.48821708618E+03  0.11875844829E+04  0.12699999809E+01 0.  1.
</event>
<event>
 5   0  0.8470971E-05  0.2184640E+04  0.7818609E-02  0.8524849E-01
        1   -1    0    0  501    0  0.00000000000E+00  0.00000000000E+00  0.12565495022E+04  0.12565495022E+04  0.50400001928E-02 0. -1.
       -1   -1    0    0    0  501  0.00000000000E+00  0.00000000000E+00 -0.94955471231E+03  0.94955471232E+03  0.50400001928E-02 0.  1.
    10030    2    1    2    0    0  0.00000000000E+00  0.00000000000E+00  0.30699478991E+03  0.22061042146E+04  0.21846395594E+04 0.  0.
        2    1    3    3  502    0  0.69045357033E+03 -0.69113596217E+03  0.64693675804E+03  0.11717176366E+04  0.25500000920E-02 0.  1.
       -2    1    3    3    0  502 -0.69045357033E+03  0.69113596217E+03 -0.33994196814E+03  0.10343865780E+04  0.25500000920E-02 0. -1.
</event>
<event>
 5   0  0.1680258E-04  0.2147002E+04  0.7818609E-02  0.8540817E-01
       -2   -1    0    0    0  501  0.00000000000E+00  0.00000000000E+00  0.81472601106E+03  0.81472601106E+03  0.25500000920E-02 0.  1.
        2   -1    0    0  501    0  0.00000000000E+00  0.00000000000E+00 -0.14144680410E+04  0.14144680410E+04  0.25500000920E-02 0. -1.
    10030    2    1    2    0    0  0.00000000000E+00  0.00000000000E+00 -0.59974202992E+03  0.22291940520E+04  0.21470015415E+04 0.  0.
        5    1    3    3  502    0  0.50082201223E+03 -0.10012255076E+03 -0.12802288432E+04  0.13783523475E+04  0.46999998093E+01 0. -1.
       -5    1    3    3    0  502 -0.50082201223E+03  0.10012255076E+03  0.68048681325E+03  0.85084170449E+03  0.46999998093E+01 0.  1.
</event>
<event>
 5   0  0.1680258E-04  0.2154841E+04  0.7818609E-02  0.8537463E-01
        2   -1    0    0  501    0  0.00000000000E+00  0.00000000000E+00  0.11517890443E+04  0.11517890443E+04  0.25500000920E-02 0.  1.
       -2   -1    0    0    0  501  0.00000000000E+00  0.00000000000E+00 -0.10078541865E+04  0.10078541865E+04  0.25500000920E-02 0. -1.
    10030    2    1    2    0    0  0.00000000000E+00  0.00000000000E+00  0.14393485773E+03  0.21596432308E+04  0.21548414422E+04 0.  0.
        5    1    3    3  502    0  0.70976384048E+03 -0.54769794498E+03 -0.52692216005E+03  0.10399071117E+04  0.46999998093E+01 0. -1.
       -5    1    3    3    0  502 -0.70976384048E+03  0.54769794498E+03  0.67085701778E+03  0.11197361191E+04  0.46999998093E+01 0.  1.
</event>
<event>
 5   0  0.7954459E-05  0.2147131E+04  0.7818609E-02  0.8540762E-01
       -1   -1    0    0    0  501  0.00000000000E+00  0.00000000000E+00  0.95188675361E+03  0.95188675363E+03  0.50400001928E-02 0. -1.
        1   -1    0    0  501    0  0.00000000000E+00  0.00000000000E+00 -0.12107977735E+04  0.12107977735E+04  0.50400001928E-02 0.  1.
    10030    2    1    2    0    0  0.00000000000E+00  0.00000000000E+00 -0.25891101991E+03  0.21626845272E+04  0.21471305149E+04 0.  0.
        5    1    3    3  502    0 -0.43899465868E+03 -0.13179078084E+03 -0.11072790026E+04  0.11984047730E+04  0.46999998093E+01 0.  1.
       -5    1    3    3    0  502  0.43899465868E+03  0.13179078084E+03  0.84836798270E+03  0.96427975419E+03  0.46999998093E+01 0. -1.
</event>
<event>
 5   0  0.1805501E-04  0.2156694E+04  0.7818609E-02  0.8536672E-01
       -2   -1    0    0    0  501  0.00000000000E+00  0.00000000000E+00  0.16836716069E+04  0.16836716069E+04  0.25500000920E-02 0. -1.
        2   -1    0    0  501    0  0.00000000000E+00  0.00000000000E+00 -0.69065278158E+03  0.69065278158E+03  0.25500000920E-02 0.  1.
    10030    2    1    2    0    0  0.00000000000E+00  0.00000000000E+00  0.99301882530E+03  0.23743243885E+04  0.21566942097E+04 0.  0.
        2    1    3    3  502    0 -0.85960815198E+03 -0.38532938442E+03  0.10742796758E+04  0.14288043013E+04  0.25500000920E-02 0. -1.
       -2    1    3    3    0  502  0.85960815198E+03  0.38532938442E+03 -0.81260850509E+02  0.94552008719E+03  0.25500000920E-02 0.  1.
</event>
<event>
 5   0  0.8784659E-05  0.2185854E+04  0.7818609E-02  0.8524339E-01
       -1   -1    0    0    0  501  0.00000000000E+00  0.00000000000E+00  0.81844917561E+03  0.81844917563E+03  0.50400001928E-02 0.  1.
        1   -1    0    0  501    0  0.00000000000E+00  0.00000000000E+00 -0.14594547011E+04  0.14594547011E+04  0.50400001928E-02 0. -1.
    10030    2    1    2    0    0  0.00000000000E+00  0.00000000000E+00 -0.64100552545E+03  0.22779038767E+04  0.21858540637E+04 0.  0.
        4    1    3    3  502    0  0.72857196740E+03 -0.25384811521E+03  0.48619656545E+03  0.91194555234E+03  0.12699999809E+01 0.  1.
       -4    1    3    3    0  502 -0.72857196740E+03  0.25384811521E+03 -0.11272020909E+04  0.13659583244E+04  0.12699999809E+01 0. -1.
</event>
<event>
 5   0  0.1733962E-04  0.2126975E+04  0.7818609E-02  0.8549453E-01
        2   -1    0    0  501    0  0.00000000000E+00  0.00000000000E+00  0.72726634545E+03  0.72726634546E+03  0.25500000920E-02 0. -1.
       -2   -1    0    0    0  501  0.00000000000E+00  0.00000000000E+00 -0.15551462993E+04  0.15551462993E+04  0.25500000920E-02 0.  1.
    10030    2    1    2    0    0  0.00000000000E+00  0.00000000000E+00 -0.82787995381E+03  0.22824126447E+04  0.21269749088E+04 0.  0.
        3    1    3    3  502    0  0.24454016835E+03 -0.64351812978E+03  0.45590979265E+03  0.82569317941E+03  0.10100000352E+00 0. -1.
       -3    1    3    3    0  502 -0.24454016835E+03  0.64351812978E+03 -0.12837897465E+04  0.14567194653E+04  0.10100000352E+00 0.  1.
</event>
<event>
 5   0  0.1680258E-04  0.2067501E+04  0.7818609E-02  0.8575696E-01
        2   -1    0    0  501    0  0.00000000000E+00  0.00000000000E+00  0.11262565936E+04  0.11262565936E+04  0.25500000920E-02 0.  1.
       -2   -1    0    0    0  501  0.00000000000E+00  0.00000000000E+00 -0.94884288618E+03  0.94884288618E+03  0.25500000920E-02 0. -1.
    10030    2    1    2    0    0  0.00000000000E+00  0.00000000000E+00  0.17741370746E+03  0.20750994798E+04  0.20675014456E+04 0.  0.
        5    1    3    3  502    0  0.34308380508E+03  0.27223908350E+03  0.10285228614E+04  0.11179007033E+04  0.46999998093E+01 0.  1.
       -5    1    3    3    0  502 -0.34308380508E+03 -0.27223908350E+03 -0.85110915396E+03  0.95719877656E+03  0.46999998093E+01 0. -1.
</event>
<event>
 5   0  0.1805501E-04  0.2091277E+04  0.7818609E-02  0.8565096E-01
        2   -1    0    0  501    0  0.00000000000E+00  0.00000000000E+00  0.20746013381E+04  0.20746013382E+04  0.25500000920E-02 0. -1.
       -2   -1    0    0    0  501  0.00000000000E+00  0.00000000000E+00 -0.52702162193E+03  0.52702162193E+03  0.25500000920E-02 0.  1.
    10030    2    1    2    0    0  0.00000000000E+00  0.00000000000E+00  0.15475797162E+04  0.26016229601E+04  0.20912768942E+04 0.  0.
        2    1    3    3  502    0  0.74238968069E+03  0.70107734376E+03  0.49365280629E+03  0.11341714919E+04  0.25500000920E-02 0.  1.
       -2    1    3    3    0  502 -0.74238968069E+03 -0.70107734376E+03  0.10539269099E+04  0.14674514682E+04  0.25500000920E-02 0. -1.
</event>
<event>
 5   0  0.8602414E-05  0.1992854E+04  0.7818609E-02  0.8609969E-01
       -1   -1    0    0    0  501  0.00000000000E+00  0.00000000000E+00  0.15805717798E+04  0.15805717798E+04  0.50400001928E-02 0. -1.
        1   -1    0    0  501    0  0.00000000000E+00  0.00000000000E+00 -0.62816922759E+03  0.62816922761E+03  0.50400001928E-02 0.  1.
    10030    2    1    2    0    0  0.00000000000E+00  0.00000000000E+00  0.95240255225E+03  0.22087410075E+04  0.19928537870E+04 0.  0.
        3    1    3    3  502    0 -0.52330787784E+03  0.83811475776E+03  0.61890960894E+03  0.11659059123E+04  0.10100000352E+00 0.  1.
       -3    1    3    3    0  502  0.52330787784E+03 -0.83811475776E+03  0.33349294331E+03  0.10428350951E+04  0.10100000352E+00 0. -1.
</event>
<event>
 5   0  0.1805501E-04  0.2025107E+04  0.7818609E-02  0.8594972E-01
        2   -1    0    0  501    0  0.00000000000E+00  0.00000000000E+00  0.12300129006E+04  0.12300129006E+04  0.25500000920E-02 0.  1.
       -2   -1    0    0    0  501  0.00000000000E+00  0.00000000000E+00 -0.83353942337E+03  0.83353942337E+03  0.25500000920E-02 0. -1.
    10030    2    1    2    0    0  0.00000000000E+00  0.00000000000E+00  0.39647347720E+03  0.20635523239E+04  0.20251066578E+04 0.  0.
        2    1    3    3  502    0 -0.58556224143E+03  0.82469670589E+03  0.14983284418E+03  0.10224762474E+04  0.25500000920E-02 0.  1.
       -2    1    3    3    0  502  0.58556224143E+03 -0.82469670589E+03  0.24664063302E+03  0.10410760765E+04  0.25500000920E-02 0. -1.
</event>
<event>
 5   0  0.7954459E-05  0.2209341E+04  0.7818609E-02  0.8514550E-01
       -1   -1    0    0    0  501  0.00000000000E+00  0.00000000000E+00  0.13855578220E+04  0.13855578220E+04  0.50400001928E-02 0. -1.
        1   -1    0    0  501    0  0.00000000000E+00  0.00000000000E+00 -0.88072605909E+03  0.88072605910E+03  0.50400001928E-02 0.  1.
    10030    2    1    2    0    0  0.00000000000E+00  0.00000000000E+00  0.50483176289E+03  0.22662838811E+04  0.22093409698E+04 0.  0.
        5    1    3    3  502    0  0.20317284947E+03 -0.10831478507E+04  0.17438748689E+03  0.11157605294E+04  0.46999998093E+01 0.  1.
       -5    1    3    3    0  502 -0.20317284947E+03  0.10831478507E+04  0.33044427600E+03  0.11505233517E+04  0.46999998093E+01 0. -1.
</event>
<event>
 5   0  0.8784659E-05  0.2248545E+04  0.7818609E-02  0.8498490E-01
       -1   -1    0    0    0  501  0.00000000000E+00  0.00000000000E+00  0.16764934380E+04  0.16764934380E+04  0.50400001928E-02 0.  1.
        1   -1    0    0  501    0  0.00000000000E+00  0.00000000000E+00 -0.75394773182E+03  0.75394773184E+03  0.50400001928E-02 0. -1.
    10030    2    1    2    0    0  0.00000000000E+00  0.00000000000E+00  0.92254570621E+03  0.24304411699E+04  0.22485447961E+04 0.  0.
        4    1    3    3  502    0 -0.50645218933E+03  0.99250723962E+03  0.29941851662E+03  0.11537839927E+04  0.12699999809E+01 0. -1.
       -4    1    3    3    0  502  0.50645218933E+03 -0.99250723962E+03  0.62312718959E+03  0.12766571772E+04  0.12699999809E+01 0.  1.
</event>
<event>
 5   0  0.1733962E-04  0.2231434E+04  0.7818609E-02  0.8505457E-01
        2   -1    0    0  501    0  0.00000000000E+00  0.00000000000E+00  0.94403644175E+03  0.94403644175E+03  0.25500000920E-02 0.  1.
       -2   -1    0    0    0  501  0.00000000000E+00  0.00000000000E+00 -0.13186192647E+04  0.13186192647E+04  0.25500000920E-02 0. -1.
    10030    2    1    2    0    0  0.00000000000E+00  0.00000000000E+00 -0.37458282296E+03  0.22626557065E+04  0.22314341923E+04 0.  0.
        3    1    3    3  502    0 -0.15574771508E+03 -0.10973359466E+04 -0.57353617895E+02  0.11098166417E+04  0.10100000352E+00 0. -1.
       -3    1    3    3    0  502  0.15574771508E+03  0.10973359466E+04 -0.31722920506E+03  0.11528390648E+04  0.10100000352E+00 0.  1.
</event>
<event>
 5   0  0.8602414E-05  0.2215036E+04  0.7818609E-02  0.8512196E-01
       -1   -1    0    0    0  501  0.00000000000E+00  0.00000000000E+00  0.83923059625E+03  0.83923059626E+03  0.50400001928E-02 0. -1.
        1   -1    0    0  501    0  0.00000000000E+00  0.00000000000E+00 -0.14615716224E+04  0.14615716224E+04  0.50400001928E-02 0.  1.
    10030    2    1    2    0    0  0.00000000000E+00  0.00000000000E+00 -0.62234102615E+03  0.23008022187E+04  0.22150355520E+04 0.  0.
        3    1    3    3  502    0 -0.17852047244E+03 -0.97041972501E+03  0.21130845535E+03  0.10090764467E+04  0.10100000352E+00 0. -1.
       -3    1    3    3    0  502  0.17852047244E+03  0.97041972501E+03 -0.83364948150E+03  0.12917257720E+04  0.10100000352E+00 0.  1.
</event>
<event>
 5   0  0.8470971E-05  0.1252131E+04  0.7818609E-02  0.9068411E-01
       -1   -1    0    0    0  501  0.00000000000E+00  0.00000000000E+00  0.40481076155E+03  0.40481076158E+03  0.50400001928E-02 0.  1.
        1   -1    0    0  501    0  0.00000000000E+00  0.00000000000E+00 -0.96825034413E+03  0.96825034415E+03  0.50400001928E-02 0. -1.
    10030    2    1    2    0    0  0.00000000000E+00  0.00000000000E+00 -0.56343958258E+03  0.13730611057E+04  0.12521312379E+04 0.  0.
        2    1    3    3  502    0 -0.11821279509E+03 -0.60615540266E+03 -0.39440376319E+03  0.73277074555E+03  0.25500000920E-02 0.  1.
       -2    1    3    3    0  502  0.11821279509E+03  0.60615540266E+03 -0.16903581939E+03  0.64029036018E+03  0.25500000920E-02 0. -1.
</event>
<event>
 5   0  0.8470971E-05  0.2164366E+04  0.7818609E-02  0.8533408E-01
        1   -1    0    0  501    0  0.00000000000E+00  0.00000000000E+00  0.17355548734E+04  0.17355548735E+04  0.50400001928E-02 0.  1.
       -1   -1    0    0    0  501  0.00000000000E+00  0.00000000000E+00 -0.67478158570E+03  0.67478158572E+03  0.50400001928E-02 0. -1.
    10030    2    1    2    0    0  0.00000000000E+00  0.00000000000E+00  0.10607732877E+04  0.24103364592E+04  0.21643663919E+04 0.  0.
        2    1    3    3  502    0 -0.10123617585E+04  0.20793794395E+03  0.17296730546E+03  0.10478703199E+04  0.25500000920E-02 0. -1.
       -2    1    3    3    0  502  0.10123617585E+04 -0.20793794395E+03  0.88780598228E+03  0.13624661393E+04  0.25500000920E-02 0.  1.
</event>
<event>
 5   0  0.1798917E-04  0.2266793E+04  0.7818609E-02  0.8491130E-01
       -2   -1    0    0    0  501  0.00000000000E+00  0.00000000000E+00  0.67830907575E+03  0.67830907576E+03  0.25500000920E-02 0. -1.
        2   -1    0    0  501    0  0.00000000000E+00  0.00000000000E+00 -0.18938086401E+04  0.18938086401E+04  0.25500000920E-02 0.  1.
    10030    2    1    2    0    0  0.00000000000E+00  0.00000000000E+00 -0.12154995643E+04  0.25721177158E+04  0.22667929666E+04 0.  0.
        4    1    3    3  502    0  0.71807526128E+03  0.62527067499E+03 -0.13053705708E+04  0.16157318583E+04  0.12699999809E+01 0.  1.
       -4    1    3    3    0  502 -0.71807526128E+03 -0.62527067499E+03  0.89871006453E+02  0.95638585757E+03  0.12699999809E+01 0. -1.
</event>
<event>
 5   0  0.8306787E-05  0.2214297E+04  0.7818609E-02  0.8512501E-01
        1   -1    0    0  501    0  0.00000000000E+00  0.00000000000E+00  0.10794123292E+04  0.10794123292E+04  0.50400001928E-02 0. -1.
       -1   -1    0    0    0  501  0.00000000000E+00  0.00000000000E+00 -0.11355970631E+04  0.11355970631E+04  0.50400001928E-02 0.  1.
    10030    2    1    2    0    0  0.00000000000E+00  0.00000000000E+00 -0.56184733885E+02  0.22150093924E+04  0.22142967019E+04 0.  0.
        1    1    3    3  502    0  0.94364278748E+03  0.25420074925E+03 -0.54854603493E+03  0.11207062433E+04  0.50400001928E-02 0.  1.
       -1    1    3    3    0  502 -0.94364278748E+03 -0.25420074925E+03  0.49236130104E+03  0.10943031491E+04  0.50400001928E-02 0. -1.
</event>
<event>
 5   0  0.8306787E-05  0.1840774E+04  0.7818609E-02  0.8684912E-01
       -1   -1    0    0    0  501  0.00000000000E+00  0.00000000000E+00  0.62088155030E+03  0.62088155032E+03  0.50400001928E-02 0.  1.
        1   -1    0    0  501    0  0.00000000000E+00  0.00000000000E+00 -0.13643706717E+04  0.13643706717E+04  0.50400001928E-02 0. -1.
    10030    2    1    2    0    0  0.00000000000E+00  0.00000000000E+00 -0.74348912142E+03  0.19852522220E+04  0.18407743782E+04 0.  0.
        1    1    3    3  502    0 -0.29268033479E+03 -0.68181120073E+03 -0.95908404633E+03  0.12125883472E+04  0.50400001928E-02 0. -1.
       -1    1    3    3    0  502  0.29268033479E+03  0.68181120073E+03  0.21559492491E+03  0.77266387485E+03  0.50400001928E-02 0.  1.
</event>
<event>
 5   0  0.1680258E-04  0.2167911E+04  0.7818609E-02  0.8531904E-01
        2   -1    0    0  501    0  0.00000000000E+00  0.00000000000E+00  0.72485653347E+03  0.72485653347E+03  0.25500000920E-02 0.  1.
       -2   -1    0    0    0  501  0.00000000000E+00  0.00000000000E+00 -0.16209552056E+04  0.16209552056E+04  0.25500000920E-02 0. -1.
    10030    2    1    2    0    0  0.00000000000E+00  0.00000000000E+00 -0.89609867217E+03  0.23458117391E+04  0.21679114108E+04 0.  0.
        5    1    3    3  502    0  0.40545016580E+03  0.79483547167E+03 -0.11140087936E+04  0.14273019814E+04  0.46999998093E+01 0. -1.
       -5    1    3    3    0  502 -0.40545016580E+03 -0.79483547167E+03  0.21791012142E+03  0.91850975769E+03  0.46999998093E+01 0.  1.
</event>
<event>
 5   0  0.1754356E-04  0.2195201E+04  0.7818609E-02  0.8520428E-01
        2   -1    0    0  501    0  0.00000000000E+00  0.00000000000E+00  0.11551158391E+04  0.11551158391E+04  0.25500000920E-02 0. -1.
       -2   -1    0    0    0  501  0.00000000000E+00  0.00000000000E+00 -0.10429492309E+04  0.10429492309E+04  0.25500000920E-02 0.  1.
    10030    2    1    2    0    0  0.00000000000E+00  0.00000000000E+00  0.11216660820E+03  0.21980650700E+04  0.21952012900E+04 0.  0.
        1    1    3    3  502    0 -0.87697509837E+03  0.40527519881E+03 -0.46555107843E+03  0.10724136872E+04  0.50400001928E-02 0.  1.
       -1    1    3    3    0  502  0.87697509837E+03 -0.40527519881E+03  0.57771768663E+03  0.11256513827E+04  0.50400001928E-02 0. -1.
</event>
<event>
 5   0  0.1754356E-04  0.1331645E+04  0.7818609E-02  0.9004840E-01
       -2   -1    0    0    0  501  0.00000000000E+00  0.00000000000E+00  0.31827266498E+03  0.31827266499E+03  0.25500000920E-02 0. -1.
        2   -1    0    0  501    0  0.00000000000E+00  0.00000000000E+00 -0.13928923118E+04  0.13928923118E+04  0.25500000920E-02 0.  1.
    10030    2    1    2    0    0  0.00000000000E+00  0.00000000000E+00 -0.10746196468E+04  0.17111649768E+04  0.13316449198E+04 0.  0.
        1    1    3    3  502    0  0.49518713217E+03 -0.76799420939E+02 -0.11006784780E+04  0.12093806509E+04  0.50400001928E-02 0.  1.
       -1    1    3    3    0  502 -0.49518713217E+03  0.76799420939E+02  0.26058831215E+02  0.50178432581E+03  0.50400001928E-02 0. -1.
</event>
<event>
 5   0  0.8602414E-05  0.2212202E+04  0.7818609E-02  0.8513367E-01
       -1   -1    0    0    0  501  0.00000000000E+00  0.00000000000E+00  0.15087050028E+04  0.15087050028E+04  0.50400001928E-02 0. -1.
        1   -1    0    0  501    0  0.00000000000E+00  0.00000000000E+00 -0.81093313896E+03  0.81093313898E+03  0.50400001928E-02 0.  1.
    10030    2    1    2    0    0  0.00000000000E+00  0.00000000000E+00  0.69777186387E+03  0.23196381418E+04  0.22122015132E+04 0.  0.
        3    1    3    3  502    0  0.86932743671E+03 -0.66843673684E+03  0.50055146000E+03  0.12054416774E+04  0.10100000352E+00 0.  1.
       -3    1    3    3    0  502 -0.86932743671E+03  0.66843673684E+03  0.19722040387E+03  0.11141964644E+04  0.10100000352E+00 0. -1.
</event>
<event>
 5   0  0.1680258E-04  0.2185321E+04  0.7818609E-02  0.8524563E-01
       -2   -1    0    0    0  501  0.00000000000E+00  0.00000000000E+00  0.15659607747E+04  0.15659607747E+04  0.25500000920E-02 0. -1.
        2   -1    0    0  501    0  0.00000000000E+00  0.00000000000E+00 -0.76241173141E+03  0.76241173141E+03  0.25500000920E-02 0.  1.
    10030    2    1    2    0    0  0.00000000000E+00  0.00000000000E+00  0.80354904329E+03  0.23283725061E+04  0.21853209060E+04 0.  0.
        5    1    3    3  502    0 -0.65702271377E+03 -0.25516378179E+03 -0.48780333758E+03  0.85718235405E+03  0.46999998093E+01 0.  1.
       -5    1    3    3    0  502  0.65702271377E+03  0.25516378179E+03  0.12913523809E+04  0.14711901521E+04  0.46999998093E+01 0. -1.
</event>
<event>
 5   0  0.1805501E-04  0.1132271E+04  0.7818609E-02  0.9174297E-01
       -2   -1    0    0    0  501  0.00000000000E+00  0.00000000000E+00  0.33441353851E+03  0.33441353852E+03  0.25500000920E-02 0. -1.
        2   -1    0    0  501    0  0.00000000000E+00  0.00000000000E+00 -0.95842301631E+03  0.95842301632E+03  0.25500000920E-02 0.  1.
    10030    2    1    2    0    0  0.00000000000E+00  0.00000000000E+00 -0.62400947780E+03  0.12928365548E+04  0.11322714026E+04 0.  0.
        2    1    3    3  502    0  0.39034706337E+02  0.22426880716E+03 -0.90386389763E+03  0.93208913286E+03  0.25500000920E-02 0.  1.
       -2    1    3    3    0  502 -0.39034706337E+02 -0.22426880716E+03  0.27985441982E+03  0.36074742198E+03  0.25500000920E-02 0. -1.
</event>
<event>
 5   0  0.7954459E-05  0.2162363E+04  0.7818609E-02  0.8534259E-01
        1   -1    0    0  501    0  0.00000000000E+00  0.00000000000E+00  0.94090889665E+03  0.94090889667E+03  0.50400001928E-02 0.  1.
       -1   -1    0    0    0  501  0.00000000000E+00  0.00000000000E+00 -0.12423667958E+04  0.12423667959E+04  0.50400001928E-02 0. -1.
    10030    2    1    2    0    0  0.00000000000E+00  0.00000000000E+00 -0.30145789919E+03  0.21832756925E+04  0.21623634950E+04 0.  0.
        5    1    3    3  502    0 -0.42687364350E+03 -0.95862313492E+03 -0.41353926600E+03  0.11279256344E+04  0.46999998093E+01 0. -1.
       -5    1    3    3    0  502  0.42687364350E+03  0.95862313492E+03  0.11208136681E+03  0.10553500581E+04  0.46999998093E+01 0.  1.
</event>
<event>
 5   0  0.1754356E-04  0.1948714E+04  0.7818609E-02  0.8630981E-01
       -2   -1    0    0    0  501  0.00000000000E+00  0.00000000000E+00  0.49224644791E+03  0.49224644791E+03  0.25500000920E-02 0. -1.
        2   -1    0    0  501    0  0.00000000000E+00  0.00000000000E+00 -0.19286513799E+04  0.19286513799E+04  0.25500000920E-02 0.  1.
    10030    2    1    2    0    0  0.00000000000E+00  0.00000000000E+00 -0.14364049320E+04  0.24208978278E+04  0.19487142336E+04 0.  0.
        1    1    3    3  502    0 -0.78132853266E+03 -0.57421864488E+03 -0.59923617192E+03  0.11398619731E+04  0.50400001928E-02 0. -1.
       -1    1    3    3    0  502  0.78132853266E+03  0.57421864488E+03 -0.83716876008E+03  0.12810358547E+04  0.50400001928E-02 0.  1.
</event>
<event>
 5   0  0.1798917E-04  0.2153711E+04  0.7818609E-02  0.8537945E-01
       -2   -1    0    0    0  501  0.00000000000E+00  0.00000000000E+00  0.70122595587E+03  0.70122595587E+03  0.25500000920E-02 0.  1.
        2   -1    0    0  501    0  0.00000000000E+00  0.00000000000E+00 -0.16537009134E+04  0.16537009134E+04  0.25500000920E-02 0. -1.
    10030    2    1    2    0    0  0.00000000000E+00  0.00000000000E+00 -0.95247495749E+03  0.23549268692E+04  0.21537112190E+04 0.  0.
        4    1    3    3  502    0 -0.45610865272E+03 -0.47885287970E+03  0.45303507899E+03  0.80160936819E+03  0.12699999809E+01 0.  1.
       -4    1    3    3    0  502  0.45610865272E+03  0.47885287970E+03 -0.14055100365E+04  0.15533175010E+04  0.12699999809E+01 0. -1.
</event>
<event>
 5   0  0.1754356E-04  0.2110187E+04  0.7818609E-02  0.8556769E-01
       -2   -1    0    0    0  501  0.00000000000E+00  0.00000000000E+00  0.12736727208E+04  0.12736727208E+04  0.25500000920E-02 0.  1.
        2   -1    0    0  501    0  0.00000000000E+00  0.00000000000E+00 -0.87402500757E+03  0.87402500757E+03  0.25500000920E-02 0. -1.
    10030    2    1    2    0    0  0.00000000000E+00  0.00000000000E+00  0.39964771324E+03  0.21476977284E+04  0.21101865410E+04 0.  0.
        1    1    3    3  502    0 -0.53440666937E+03 -0.48655416834E+03  0.98218625124E+03  0.12194323594E+04  0.50400001928E-02 0.  1.
       -1    1    3    3    0  502  0.53440666937E+03  0.48655416834E+03 -0.58253853800E+03  0.92826536899E+03  0.50400001928E-02 0. -1.
</event>
<event>
 5   0  0.1805501E-04  0.1173680E+04  0.7818609E-02  0.9136211E-01
       -2   -1    0    0    0  501  0.00000000000E+00  0.00000000000E+00  0.53673886375E+03  0.53673886376E+03  0.25500000920E-02 0. -1.
        2   -1    0    0  501    0  0.00000000000E+00  0.00000000000E+00 -0.64161827473E+03  0.64161827474E+03  0.25500000920E-02 0.  1.
    10030    2    1    2    0    0  0.00000000000E+00  0.00000000000E+00 -0.10487941098E+03  0.11783571385E+04  0.11736804740E+04 0.  0.
        2    1    3    3  502    0 -0.36702104462E+03  0.21936620707E+03  0.35110152104E+03  0.55326147352E+03  0.25500000920E-02 0. -1.
       -2    1    3    3    0  502  0.36702104462E+03 -0.21936620707E+03 -0.45598093202E+03  0.62509566497E+03  0.25500000920E-02 0.  1.
</event>
<event>
 5   0  0.8470971E-05  0.2211570E+04  0.7818609E-02  0.8513628E-01
        1   -1    0    0  501    0  0.00000000000E+00  0.00000000000E+00  0.12395787391E+04  0.12395787391E+04  0.50400001928E-02 0. -1.
       -1   -1    0    0    0  501  0.00000000000E+00  0.00000000000E+00 -0.98643188923E+03  0.98643188924E+03  0.50400001928E-02 0.  1.
    10030    2    1    2    0    0  0.00000000000E+00  0.00000000000E+00  0.25314684989E+03  0.22260106284E+04  0.22115695761E+04 0.  0.
        2    1    3    3  502    0  0.10482427168E+03  0.93527624888E+03 -0.45776041897E+03  0.10465535776E+04  0.25500000920E-02 0.  1.
       -2    1    3    3    0  502 -0.10482427168E+03 -0.93527624888E+03  0.71090726886E+03  0.11794570508E+04  0.25500000920E-02 0. -1.
</event>
<event>
 5   0  0.8470971E-05  0.2237349E+04  0.7818609E-02  0.8503042E-01
       -1   -1    0    0    0  501  0.00000000000E+00  0.00000000000E+00  0.17847335954E+04  0.17847335954E+04  0.50400001928E-02 0. -1.
        1   -1    0    0  501    0  0.00000000000E+00  0.00000000000E+00 -0.70118711561E+03  0.70118711563E+03  0.50400001928E-02 0.  1.
    10030    2    1    2    0    0  0.00000000000E+00  0.00000000000E+00  0.10835464798E+04  0.24859207111E+04  0.22373486111E+04 0.  0.
        2    1    3    3  502    0  0.10942533116E+04 -0.23226356849E+03  0.53091358691E+03  0.12382269227E+04  0.25500000920E-02 0. -1.
       -2    1    3    3    0  502 -0.10942533116E+04  0.23226356849E+03  0.55263289291E+03  0.12476937884E+04  0.25500000920E-02 0.  1.
</event>
<event>
 5   0  0.1754356E-04  0.1839159E+04  0.7818609E-02  0.8685748E-01
       -2   -1    0    0    0  501  0.00000000000E+00  0.00000000000E+00  0.65537164880E+03  0.65537164881E+03  0.25500000920E-02 0.  1.
        2   -1    0    0  501    0  0.00000000000E+00  0.00000000000E+00 -0.12903006905E+04  0.12903006905E+04  0.25500000920E-02 0. -1.
    10030    2    1    2    0    0  0.00000000000E+00  0.00000000000E+00 -0.63492904169E+03  0.19456723393E+04  0.18391590372E+04 0.  0.
        1    1    3    3  502    0  0.48584454543E+03 -0.10608037361E+03 -0.11357790697E+04  0.12398758257E+04  0.50400001928E-02 0. -1.
       -1    1    3    3    0  502 -0.48584454543E+03  0.10608037361E+03  0.50085002802E+03  0.70579651358E+03  0.50400001928E-02 0.  1.
</event>
<event>
 5   0  0.8306787E-05  0.2218102E+04  0.7818609E-02  0.8510931E-01
        1   -1    0    0  501    0  0.00000000000E+00  0.00000000000E+00  0.18691177441E+04  0.18691177441E+04  0.50400001928E-02 0.  1.
       -1   -1    0    0    0  501  0.00000000000E+00  0.00000000000E+00 -0.65806110392E+03  0.65806110394E+03  0.50400001928E-02 0. -1.
    10030    2    1    2    0    0  0.00000000000E+00  0.00000000000E+00  0.12110566402E+04  0.25271788480E+04  0.22181016082E+04 0.  0.
        1    1    3    3  502    0  0.23170918170E+02  0.34749411367E+03 -0.59414354252E+03  0.68869122227E+03  0.50400001928E-02 0. -1.
       -1    1    3    3    0  502 -0.23170918170E+02 -0.34749411367E+03  0.18052001827E+04  0.18384876258E+04  0.50400001928E-02 0.  1.
</event>
<event>
 5   0  0.7954459E-05  0.2321374E+04  0.7818609E-02  0.8469541E-01
       -1   -1    0    0    0  501  0.00000000000E+00  0.00000000000E+00  0.10786705370E+04  0.10786705370E+04  0.50400001928E-02 0. -1.
        1   -1    0    0  501    0  0.00000000000E+00  0.00000000000E+00 -0.12489399268E+04  0.12489399269E+04  0.50400001928E-02 0.  1.
    10030    2    1    2    0    0  0.00000000000E+00  0.00000000000E+00 -0.17026938984E+03  0.23276104639E+04  0.23213743357E+04 0.  0.
        5    1    3    3  502    0  0.62804257536E+03  0.78760726622E+03 -0.66323355924E+03  0.12060943273E+04  0.46999998093E+01 0.  1.
       -5    1    3    3    0  502 -0.62804257536E+03 -0.78760726622E+03  0.49296416940E+03  0.11215161366E+04  0.46999998093E+01 0. -1.
</event>
<event>
 5   0  0.1733962E-04  0.2168835E+04  0.7818609E-02  0.8531513E-01
       -2   -1    0    0    0  501  0.00000000000E+00  0.00000000000E+00  0.82550427962E+03  0.82550427962E+03  0.25500000920E-02 0. -1.
        2   -1    0    0  501    0  0.00000000000E+00  0.00000000000E+00 -0.14245363012E+04  0.14245363012E+04  0.25500000920E-02 0.  1.
    10030    2    1    2    0    0  0.00000000000E+00  0.00000000000E+00 -0.59903202160E+03  0.22500405808E+04  0.21688345378E+04 0.  0.
        3    1    3    3  502    0  0.49782889388E+03 -0.31589283613E+03 -0.12437246327E+04  0.13763985120E+04  0.10100000352E+00 0.  1.
       -3    1    3    3    0  502 -0.49782889388E+03  0.31589283613E+03  0.64469261111E+03  0.87364206888E+03  0.10100000352E+00 0. -1.
</event>
<event>
 5   0  0.8784659E-05  0.2220680E+04  0.7818609E-02  0.8509870E-01
       -1   -1    0    0    0  501  0.00000000000E+00  0.00000000000E+00  0.10513247218E+04  0.10513247219E+04  0.50400001928E-02 0. -1.
        1   -1    0    0  501    0  0.00000000000E+00  0.00000000000E+00 -0.11726680535E+04  0.11726680535E+04  0.50400001928E-02 0.  1.
    10030    2    1    2    0    0  0.00000000000E+00  0.00000000000E+00 -0.12134333163E+03  0.22239927753E+04  0.22206799996E+04 0.  0.
        4    1    3    3  502    0 -0.63273186741E+03 -0.50883960100E+03  0.69781271520E+03  0.10706127003E+04  0.12699999809E+01 0. -1.
       -4    1    3    3    0  502  0.63273186741E+03  0.50883960100E+03 -0.81915604683E+03  0.11533800751E+04  0.12699999809E+01 0.  1.
</event>
<event>
 5   0  0.1805501E-04  0.2138067E+04  0.7818609E-02  0.8544657E-01
        2   -1    0    0  501    0  0.00000000000E+00  0.00000000000E+00  0.12987793813E+04  0.12987793813E+04  0.25500000920E-02 0.  1.
       -2   -1    0    0    0  501  0.00000000000E+00  0.00000000000E+00 -0.87992861385E+03  0.87992861386E+03  0.25500000920E-02 0. -1.
    10030    2    1    2    0    0  0.00000000000E+00  0.00000000000E+00  0.41885076748E+03  0.21787079952E+04  0.21380674832E+04 0.  0.
        2    1    3    3  502    0 -0.24495787684E+03 -0.38240513434E+03 -0.77674863689E+03  0.89976468764E+03  0.25500000920E-02 0. -1.
       -2    1    3    3    0  502  0.24495787684E+03  0.38240513434E+03  0.11955994044E+04  0.12789433076E+04  0.25500000920E-02 0.  1.
</event>
<event>
 5   0  0.8784659E-05  0.1345724E+04  0.7818609E-02  0.8994071E-01
       -1   -1    0    0    0  501  0.00000000000E+00  0.00000000000E+00  0.93590223323E+03  0.93590223324E+03  0.50400001928E-02 0. -1.
        1   -1    0    0  501    0  0.00000000000E+00  0.00000000000E+00 -0.48375065361E+03  0.48375065364E+03  0.50400001928E-02 0.  1.
    10030    2    1    2    0    0  0.00000000000E+00  0.00000000000E+00  0.45215157962E+03  0.14196528869E+04  0.13457240684E+04 0.  0.
        4    1    3    3  502    0  0.66174705851E+03  0.11965222680E+03  0.25003652943E+03  0.71745780627E+03  0.12699999809E+01 0.  1.
       -4    1    3    3    0  502 -0.66174705851E+03 -0.11965222680E+03  0.20211505019E+03  0.70219508061E+03  0.12699999809E+01 0. -1.
</event>
<event>
 5   0  0.8306787E-05  0.1083564E+04  0.7818609E-02  0.9221361E-01
       -1   -1    0    0    0  501  0.00000000000E+00  0.00000000000E+00  0.19784391715E+03  0.19784391721E+03  0.50400001928E-02 0. -1.
        1   -1    0    0  501    0  0.00000000000E+00  0.00000000000E+00 -0.14836334043E+04  0.14836334043E+04  0.50400001928E-02 0.  1.
    10030    2    1    2    0    0  0.00000000000E+00  0.00000000000E+00 -0.12857894872E+04  0.16814773215E+04  0.10835642009E+04 0.  0.
        1    1    3    3  502    0 -0.26296876886E+03 -0.25555461598E+03 -0.12618034046E+04  0.13140047820E+04  0.50400001928E-02 0.  1.
       -1    1    3    3    0  502  0.26296876886E+03  0.25555461598E+03 -0.23986082552E+02  0.36747253955E+03  0.50400001928E-02 0. -1.
</event>
<event>
 5   0  0.1680258E-04  0.2103381E+04  0.7818609E-02  0.8559755E-01
        2   -1    0    0  501    0  0.00000000000E+00  0.00000000000E+00  0.13257116306E+04  0.13257116306E+04  0.25500000920E-02 0.  1.
       -2   -1    0    0    0  501  0.00000000000E+00  0.00000000000E+00 -0.83430884345E+03  0.83430884345E+03  0.25500000920E-02 0. -1.
    10030    2    1    2    0    0  0.00000000000E+00  0.00000000000E+00  0.49140278711E+03  0.21600204740E+04  0.21033810280E+04 0.  0.
        5    1    3    3  502    0  0.24521089650E+03  0.36329340651E+03 -0.73603319548E+03  0.85666646825E+03  0.46999998093E+01 0. -1.
       -5    1    3    3    0  502 -0.24521089650E+03 -0.36329340651E+03  0.12274359826E+04  0.13033540058E+04  0.46999998093E+01 0.  1.
</event>
<event>
 5   0  0.8602414E-05  0.2131852E+04  0.7818609E-02  0.8547341E-01
       -1   -1    0    0    0  501  0.00000000000E+00  0.00000000000E+00  0.76530899659E+03  0.76530899660E+03  0.50400001928E-02 0. -1.
        1   -1    0    0  501    0  0.00000000000E+00  0.00000000000E+00 -0.14846270227E+04  0.14846270227E+04  0.50400001928E-02 0.  1.
    10030    2    1    2    0    0  0.00000000000E+00  0.00000000000E+00 -0.71931802607E+03  0.22499360193E+04  0.21318521685E+04 0.  0.
        3    1    3    3  502    0  0.33396391581E+03 -0.55410326115E+03  0.53439800616E+03  0.83913262377E+03  0.10100000352E+00 0. -1.
       -3    1    3    3    0  502 -0.33396391581E+03  0.55410326115E+03 -0.12537160322E+04  0.14108033955E+04  0.10100000352E+00 0.  1.
</event>
<event>
 5   0  0.7954459E-05  0.2210833E+04  0.7818609E-02  0.8513933E-01
       -1   -1    0    0    0  501  0.00000000000E+00  0.00000000000E+00  0.98952767955E+03  0.98952767956E+03  0.50400001928E-02 0. -1.
        1   -1    0    0  501    0  0.00000000000E+00  0.00000000000E+00 -0.12348775882E+04  0.12348775882E+04  0.50400001928E-02 0.  1.
    10030    2    1    2    0    0  0.00000000000E+00  0.00000000000E+00 -0.24534990862E+03  0.22244052677E+04  0.22108329239E+04 0.  0.
        5    1    3    3  502    0 -0.10532658442E+03  0.69599892309E+03 -0.98020723020E+03  0.12067876758E+04  0.46999998093E+01 0.  1.
       -5    1    3    3    0  502  0.10532658442E+03 -0.69599892309E+03  0.73485732158E+03  0.10176175919E+04  0.46999998093E+01 0. -1.
</event>
<event>
 5   0  0.1805501E-04  0.2234723E+04  0.7818609E-02  0.8504113E-01
       -2   -1    0    0    0  501  0.00000000000E+00  0.00000000000E+00  0.10551485621E+04  0.10551485621E+04  0.25500000920E-02 0.  1.
        2   -1    0    0  501    0  0.00000000000E+00  0.00000000000E+00 -0.11832428128E+04  0.11832428128E+04  0.25500000920E-02 0. -1.
    10030    2    1    2    0    0  0.00000000000E+00  0.00000000000E+00 -0.12809425073E+03  0.22383913749E+04  0.22347232066E+04 0.  0.
        2    1    3    3  502    0 -0.74031155781E+03  0.21886006307E+03 -0.87317009550E+03  0.11654985824E+04  0.25500000920E-02 0. -1.
       -2    1    3    3    0  502  0.74031155781E+03 -0.21886006307E+03  0.74507584477E+03  0.10728927925E+04  0.25500000920E-02 0.  1.
</event>
<event>
 5   0  0.1798917E-04  0.2216360E+04  0.7818609E-02  0.8511649E-01
       -2   -1    0    0    0  501  0.00000000000E+00  0.00000000000E+00  0.77334749659E+03  0.77334749659E+03  0.25500000920E-02 0. -1.
        2   -1    0    0  501    0  0.00000000000E+00  0.00000000000E+00 -0.15879833051E+04  0.15879833051E+04  0.25500000920E-02 0.  1.
    10030    2    1    2    0    0  0.00000000000E+00  0.00000000000E+00 -0.81463580846E+03  0.23613308016E+04  0.22163600011E+04 0.  0.
        4    1    3    3  502    0  0.89782973874E+03 -0.30526487383E+03 -0.10182133085E+04  0.13914182827E+04  0.12699999809E+01 0.  1.
       -4    1    3    3    0  502 -0.89782973874E+03  0.30526487383E+03  0.20357750003E+03  0.96991251894E+03  0.12699999809E+01 0. -1.
</event>
<event>
 5   0  0.8602414E-05  0.2430718E+04  0.7818609E-02  0.8428092E-01
       -1   -1    0    0    0  501  0.00000000000E+00  0.00000000000E+00  0.18775260904E+04  0.18775260905E+04  0.50400001928E-02 0. -1.
        1   -1    0    0  501    0  0.00000000000E+00  0.00000000000E+00 -0.78672547240E+03  0.78672547241E+03  0.50400001928E-02 0.  1.
    10030    2    1    2    0    0  0.00000000000E+00  0.00000000000E+00  0.10908006181E+04  0.26642515629E+04  0.24307180836E+04 0.  0.
        3    1    3    3  502    0 -0.19578098280E+03  0.58284232553E+02 -0.76777473891E+03  0.79448430123E+03  0.10100000352E+00 0.  1.
       -3    1    3    3    0  502  0.19578098280E+03 -0.58284232553E+02  0.18585753570E+04  0.18697672616E+04  0.10100000352E+00 0. -1.
</event>
<event>
 5   0  0.1805501E-04  0.2119430E+04  0.7818609E-02  0.8552732E-01
        2   -1    0    0  501    0  0.00000000000E+00  0.00000000000E+00  0.17757948159E+04  0.17757948159E+04  0.25500000920E-02 0. -1.
       -2   -1    0    0    0  501  0.00000000000E+00  0.00000000000E+00 -0.63239045130E+03  0.63239045131E+03  0.25500000920E-02 0.  1.
    10030    2    1    2    0    0  0.00000000000E+00  0.00000000000E+00  0.11434043646E+04  0.24081852672E+04  0.21194298149E+04 0.  0.
        2    1    3    3  502    0 -0.13924286707E+03 -0.89336057371E+03  0.11997408879E+04  0.15022848893E+04  0.25500000920E-02 0. -1.
       -2    1    3    3    0  502  0.13924286707E+03  0.89336057371E+03 -0.56336523305E+02  0.90590037784E+03  0.25500000920E-02 0.  1.
</event>
<event>
 5   0  0.1798917E-04  0.2205910E+04  0.7818609E-02  0.8515972E-01
        2   -1    0    0  501    0  0.00000000000E+00  0.00000000000E+00  0.18020665561E+04  0.18020665561E+04  0.25500000920E-02 0. -1.
       -2   -1    0    0    0  501  0.00000000000E+00  0.00000000000E+00 -0.67506377005E+03  0.67506377005E+03  0.25500000920E-02 0.  1.
    10030    2    1    2    0    0  0.00000000000E+00  0.00000000000E+00  0.11270027860E+04  0.24771303261E+04  0.22059101008E+04 0.  0.
        4    1    3    3  502    0 -0.63885563106E+03  0.73244780428E+03 -0.22042159420E+02  0.97216447838E+03  0.12699999809E+01 0.  1.
       -4    1    3    3    0  502  0.63885563106E+03 -0.73244780428E+03  0.11490449454E+04  0.15049658477E+04  0.12699999809E+01 0. -1.
</event>
<event>
 5   0  0.1733962E-04  0.2259435E+04  0.7818609E-02  0.8494089E-01
       -2   -1    0    0    0  501  0.00000000000E+00  0.00000000000E+00  0.52485283669E+03  0.52485283670E+03  0.25500000920E-02 0.  1.
        2   -1    0    0  501    0  0.00000000000E+00  0.00000000000E+00 -0.24316558836E+04  0.24316558836E+04  0.25500000920E-02 0. -1.
    10030    2    1    2    0    0  0.00000000000E+00  0.00000000000E+00 -0.19068030469E+04  0.29565087203E+04  0.22594348748E+04 0.  0.
        3    1    3    3  502    0  0.37384059202E+03 -0.10326697614E+04 -0.60695859820E+03  0.12548156735E+04  0.10100000352E+00 0.  1.
       -3    1    3    3    0  502 -0.37384059202E+03  0.10326697614E+04 -0.12998444487E+04  0.17016930468E+04  0.10100000352E+00 0. -1.
</event>
<event>
 5   0  0.7954459E-05  0.2072504E+04  0.7818609E-02  0.8573453E-01
        1   -1    0    0  501    0  0.00000000000E+00  0.00000000000E+00  0.22726860249E+04  0.22726860249E+04  0.50400001928E-02 0.  1.
       -1   -1    0    0    0  501  0.00000000000E+00  0.00000000000E+00 -0.47248880520E+03  0.47248880522E+03  0.50400001928E-02 0. -1.
    10030    2    1    2    0    0  0.00000000000E+00  0.00000000000E+00  0.18001972197E+04  0.27451748301E+04  0.20725044796E+04 0.  0.
        5    1    3    3  502    0  0.35010191182E+03  0.44360002823E+03  0.20506025641E+04  0.21270508456E+04  0.46999998093E+01 0.  1.
       -5    1    3    3    0  502 -0.35010191182E+03 -0.44360002823E+03 -0.25040534445E+03  0.61812398452E+03  0.46999998093E+01 0. -1.
</event>
<event>
 5   0  0.1805501E-04  0.1233126E+04  0.7818609E-02  0.9084345E-01
        2   -1    0    0  501    0  0.00000000000E+00  0.00000000000E+00  0.78737459326E+03  0.78737459326E+03  0.25500000920E-02 0.  1.
       -2   -1    0    0    0  501  0.00000000000E+00  0.00000000000E+00 -0.48280724781E+03  0.48280724782E+03  0.25500000920E-02 0. -1.
    10030    2    1    2    0    0  0.00000000000E+00  0.00000000000E+00  0.30456734544E+03  0.12701818411E+04  0.12331263688E+04 0.  0.
        2    1    3    3  502    0  0.18437803355E+03 -0.41443741805E+03 -0.27787356212E+03  0.53194675417E+03  0.25500000920E-02 0. -1.
       -2    1    3    3    0  502 -0.18437803355E+03  0.41443741805E+03  0.58244090756E+03  0.73823508691E+03  0.25500000920E-02 0.  1.
</event>
<event>
 5   0  0.6250625E-05  0.2205099E+04  0.7818609E-02  0.8516309E-01
       -3   -1    0    0    0  501  0.00000000000E+00  0.00000000000E+00  0.19355356589E+04  0.19355356616E+04  0.10100000352E+00 0.  1.
        3   -1    0    0  501    0  0.00000000000E+00  0.00000000000E+00 -0.62805095786E+03  0.62805096598E+03  0.10100000352E+00 0. -1.
    10030    2    1    2    0    0  0.00000000000E+00  0.00000000000E+00  0.13074847011E+04  0.25635866275E+04  0.22050986720E+04 0.  0.
        3    1    3    3  502    0 -0.10594933085E+04 -0.30510406869E+03  0.65453481261E+03  0.12821974866E+04  0.10100000352E+00 0.  1.
       -3    1    3    3    0  502  0.10594933085E+04  0.30510406869E+03  0.65294988846E+03  0.12813891410E+04  0.10100000352E+00 0. -1.
</event>
<event>
 5   0  0.8784659E-05  0.2195575E+04  0.7818609E-02  0.8520272E-01
       -1   -1    0    0    0  501  0.00000000000E+00  0.00000000000E+00  0.73321998113E+03  0.73321998115E+03  0.50400001928E-02 0.  1.
        1   -1    0    0  501    0  0.00000000000E+00  0.00000000000E+00 -0.16436234055E+04  0.16436234055E+04  0.50400001928E-02 0. -1.
    10030    2    1    2    0    0  0.00000000000E+00  0.00000000000E+00 -0.91040342436E+03  0.23768433866E+04  0.21955751159E+04 0.  0.
        4    1    3    3  502    0  0.89404189815E+03 -0.28034574003E+03  0.16406774199E+03  0.95122262718E+03  0.12699999809E+01 0.  1.
       -4    1    3    3    0  502 -0.89404189815E+03  0.28034574003E+03 -0.10744711663E+04  0.14256207595E+04  0.12699999809E+01 0. -1.
</event>
<event>
 5   0  0.1805501E-04  0.2197195E+04  0.7818609E-02  0.8519597E-01
        2   -1    0    0  501    0  0.00000000000E+00  0.00000000000E+00  0.72296568123E+03  0.72296568124E+03  0.25500000920E-02 0.  1.
       -2   -1    0    0    0  501  0.00000000000E+00  0.00000000000E+00 -0.16693959091E+04  0.16693959091E+04  0.25500000920E-02 0. -1.
    10030    2    1    2    0    0  0.00000000000E+00  0.00000000000E+00 -0.94643022787E+03  0.23923615903E+04  0.21971945300E+04 0.  0.
        2    1    3    3  502    0  0.59727142946E+03  0.16956908971E+03 -0.14600474181E+04  0.15865765975E+04  0.25500000920E-02 0. -1.
       -2    1    3    3    0  502 -0.59727142946E+03 -0.16956908971E+03  0.51361719021E+03  0.80578499286E+03  0.25500000920E-02 0.  1.
</event>
<event>
 5   0  0.7954459E-05  0.1789559E+04  0.7818609E-02  0.8711871E-01
       -1   -1    0    0    0  501  0.00000000000E+00  0.00000000000E+00  0.39097275257E+03  0.39097275260E+03  0.50400001928E-02 0.  1.
        1   -1    0    0  501    0  0.00000000000E+00  0.00000000000E+00 -0.20477913136E+04  0.20477913136E+04  0.50400001928E-02 0. -1.
    10030    2    1    2    0    0  0.00000000000E+00  0.00000000000E+00 -0.16568185610E+04  0.24387640662E+04  0.17895592828E+04 0.  0.
        5    1    3    3  502    0 -0.77976383475E+03 -0.19672592441E+03 -0.29383403473E+03  0.85620865289E+03  0.46999998093E+01 0.  1.
       -5    1    3    3    0  502  0.77976383475E+03  0.19672592441E+03 -0.13629845263E+04  0.15825554133E+04  0.46999998093E+01 0. -1.
</event>
<event>
 5   0  0.7954459E-05  0.1521532E+04  0.7818609E-02  0.8870259E-01
       -1   -1    0    0    0  501  0.00000000000E+00  0.00000000000E+00  0.48688345459E+03  0.48688345462E+03  0.50400001928E-02 0. -1.
        1   -1    0    0  501    0  0.00000000000E+00  0.00000000000E+00 -0.11887139892E+04  0.11887139892E+04  0.50400001928E-02 0.  1.
    10030    2    1    2    0    0  0.00000000000E+00  0.00000000000E+00 -0.70183053458E+03  0.16755974438E+04  0.15215323508E+04 0.  0.
        5    1    3    3  502    0  0.34139526787E+03 -0.53180839004E+03 -0.81732333589E+03  0.10331555633E+04  0.46999998093E+01 0.  1.
       -5    1    3    3    0  502 -0.34139526787E+03  0.53180839004E+03  0.11549280131E+03  0.64244188048E+03  0.46999998093E+01 0. -1.
</event>
<event>
 5   0  0.8602414E-05  0.2159341E+04  0.7818609E-02  0.8535544E-01
        1   -1    0    0  501    0  0.00000000000E+00  0.00000000000E+00  0.27002813939E+04  0.27002813939E+04  0.50400001928E-02 0. -1.
       -1   -1    0    0    0  501  0.00000000000E+00  0.00000000000E+00 -0.43169160016E+03  0.43169160019E+03  0.50400001928E-02 0.  1.
    10030    2    1    2    0    0  0.00000000000E+00  0.00000000000E+00  0.22685897937E+04  0.31319729941E+04  0.21593413772E+04 0.  0.
        3    1    3    3  502    0 -0.68371827319E+02  0.31695743922E+03 -0.35940275377E+03  0.48405276021E+03  0.10100000352E+00 0.  1.
       -3    1    3    3    0  502  0.68371827319E+02 -0.31695743922E+03  0.26279925475E+04  0.26479202339E+04  0.10100000352E+00 0. -1.
</event>
<event>
 5   0  0.8470971E-05  0.2082890E+04  0.7818609E-02  0.8568818E-01
        1   -1    0    0  501    0  0.00000000000E+00  0.00000000000E+00  0.68533757445E+03  0.68533757447E+03  0.50400001928E-02 0. -1.
       -1   -1    0    0    0  501  0.00000000000E+00  0.00000000000E+00 -0.15825897116E+04  0.15825897116E+04  0.50400001928E-02 0.  1.
    10030    2    1    2    0    0  0.00000000000E+00  0.00000000000E+00 -0.89725213712E+03  0.22679272861E+04  0.20828904861E+04 0.  0.
        2    1    3    3  502    0  0.43087901080E+03  0.52547207294E+03 -0.13079316867E+04  0.14739277182E+04  0.25500000920E-02 0.  1.
       -2    1    3    3    0  502 -0.43087901080E+03 -0.52547207294E+03  0.41067954954E+03  0.79399956789E+03  0.25500000920E-02 0. -1.
</event>
<event>
 5   0  0.1680258E-04  0.2073054E+04  0.7818609E-02  0.8573207E-01
        2   -1    0    0  501    0  0.00000000000E+00  0.00000000000E+00  0.89575241705E+03  0.89575241705E+03  0.25500000920E-02 0. -1.
       -2   -1    0    0    0  501  0.00000000000E+00  0.00000000000E+00 -0.11994248762E+04  0.11994248763E+04  0.25500000920E-02 0.  1.
    10030    2    1    2    0    0  0.00000000000E+00  0.00000000000E+00 -0.30367245920E+03  0.20951772933E+04  0.20730535275E+04 0.  0.
        5    1    3    3  502    0  0.50757815887E+03  0.90371695888E+03 -0.14671133046E+03  0.10468458500E+04  0.46999998093E+01 0. -1.
       -5    1    3    3    0  502 -0.50757815887E+03 -0.90371695888E+03 -0.15696112874E+03  0.10483314433E+04  0.46999998093E+01 0.  1.
</event>
<event>
 5   0  0.8784659E-05  0.2392464E+04  0.7818609E-02  0.8442330E-01
       -1   -1    0    0    0  501  0.00000000000E+00  0.00000000000E+00  0.10529794734E+04  0.10529794734E+04  0.50400001928E-02 0.  1.
        1   -1    0    0  501    0  0.00000000000E+00  0.00000000000E+00 -0.13589738041E+04  0.13589738041E+04  0.50400001928E-02 0. -1.
    10030    2    1    2    0    0  0.00000000000E+00  0.00000000000E+00 -0.30599433075E+03  0.24119532775E+04  0.23924644370E+04 0.  0.
        4    1    3    3  502    0 -0.38246937335E+03 -0.82741958896E+03 -0.93394523113E+03  0.13050522232E+04  0.12699999809E+01 0. -1.
       -4    1    3    3    0  502  0.38246937335E+03  0.82741958896E+03  0.62795090037E+03  0.11069010543E+04  0.12699999809E+01 0.  1.
</event>
<event>
 5   0  0.7954459E-05  0.2205013E+04  0.7818609E-02  0.8516345E-01
       -1   -1    0    0    0  501  0.00000000000E+00  0.00000000000E+00  0.14145629644E+04  0.14145629644E+04  0.50400001928E-02 0.  1.
        1   -1    0    0  501    0  0.00000000000E+00  0.00000000000E+00 -0.85929042176E+03  0.85929042177E+03  0.50400001928E-02 0. -1.
    10030    2    1    2    0    0  0.00000000000E+00  0.00000000000E+00  0.55527254263E+03  0.22738533862E+04  0.22050128401E+04 0.  0.
        5    1    3    3  502    0  0.10091927036E+04  0.35755567369E+03  0.54887329526E+03  0.12031624816E+04  0.46999998093E+01 0.  1.
       -5    1    3    3    0  502 -0.10091927036E+04 -0.35755567369E+03  0.63992473689E+01  0.10706909046E+04  0.46999998093E+01 0. -1.
</event>
<event>
 5   0  0.1805501E-04  0.2502785E+04  0.7818609E-02  0.8401994E-01
        2   -1    0    0  501    0  0.00000000000E+00  0.00000000000E+00  0.18958029112E+04  0.18958029112E+04  0.25500000920E-02 0.  1.
       -2   -1    0    0    0  501  0.00000000000E+00  0.00000000000E+00 -0.82602645700E+03  0.82602645700E+03  0.25500000920E-02 0. -1.
    10030    2    1    2    0    0  0.00000000000E+00  0.00000000000E+00  0.10697764542E+04  0.27218293682E+04  0.25027851381E+04 0.  0.
        2    1    3    3  502    0  0.34346344460E+03  0.89406719416E+03  0.14107708551E+04  0.17051679364E+04  0.25500000920E-02 0.  1.
       -2    1    3    3    0  502 -0.34346344460E+03 -0.89406719416E+03 -0.34099440097E+03  0.10166614318E+04  0.25500000920E-02 0. -1.
</event>
<event>
 5   0  0.8470971E-05  0.2218430E+04  0.7818609E-02  0.8510796E-01
        1   -1    0    0  501    0  0.00000000000E+00  0.00000000000E+00  0.76351648699E+03  0.76351648701E+03  0.50400001928E-02 0.  1.
       -1   -1    0    0    0  501  0.00000000000E+00  0.00000000000E+00 -0.16114363233E+04  0.16114363233E+04  0.50400001928E-02 0. -1.
    10030    2    1    2    0    0  0.00000000000E+00  0.00000000000E+00 -0.84791983627E+03  0.23749528103E+04  0.22184302564E+04 0.  0.
        2    1    3    3  502    0 -0.10298358629E+04 -0.28475301215E+03 -0.74282020654E+03  0.13013178096E+04  0.25500000920E-02 0.  1.
       -2    1    3    3    0  502  0.10298358629E+04  0.28475301215E+03 -0.10509962973E+03  0.10736350006E+04  0.25500000920E-02 0. -1.
</event>
<event>
 5   0  0.1680258E-04  0.2077996E+04  0.7818609E-02  0.8570999E-01
       -2   -1    0    0    0  501  0.00000000000E+00  0.00000000000E+00  0.64284588705E+03  0.64284588706E+03  0.25500000920E-02 0.  1.
        2   -1    0    0  501    0  0.00000000000E+00  0.00000000000E+00 -0.16792784828E+04  0.16792784828E+04  0.25500000920E-02 0. -1.
    10030    2    1    2    0    0  0.00000000000E+00  0.00000000000E+00 -0.10364325958E+04  0.23221243699E+04  0.20779964061E+04 0.  0.
        5    1    3    3  502    0 -0.95136811665E+03 -0.92946222817E+02 -0.97317696150E+03  0.13641245479E+04  0.46999998093E+01 0. -1.
       -5    1    3    3    0  502  0.95136811665E+03  0.92946222817E+02 -0.63255634283E+02  0.95799982202E+03  0.46999998093E+01 0.  1.
</event>
<event>
 5   0  0.8306787E-05  0.2171983E+04  0.7818609E-02  0.8530181E-01
        1   -1    0    0  501    0  0.00000000000E+00  0.00000000000E+00  0.15827555266E+04  0.15827555266E+04  0.50400001928E-02 0.  1.
       -1   -1    0    0    0  501  0.00000000000E+00  0.00000000000E+00 -0.74514202057E+03  0.74514202059E+03  0.50400001928E-02 0. -1.
    10030    2    1    2    0    0  0.00000000000E+00  0.00000000000E+00  0.83761350605E+03  0.23278975472E+04  0.21719831042E+04 0.  0.
        1    1    3    3  502    0 -0.60349153920E+03 -0.52364743932E+03  0.12071105139E+04  0.14475926469E+04  0.50400001928E-02 0.  1.
       -1    1    3    3    0  502  0.60349153920E+03  0.52364743932E+03 -0.36949700789E+03  0.88030490028E+03  0.50400001928E-02 0. -1.
</event>
<event>
 5   0  0.1733962E-04  0.2072081E+04  0.7818609E-02  0.8573643E-01
        2   -1    0    0  501    0  0.00000000000E+00  0.00000000000E+00  0.14981829211E+04  0.14981829211E+04  0.25500000920E-02 0. -1.
       -2   -1    0    0    0  501  0.00000000000E+00  0.00000000000E+00 -0.71645419965E+03  0.71645419966E+03  0.25500000920E-02 0.  1.
    10030    2    1    2    0    0  0.00000000000E+00  0.00000000000E+00  0.78172872146E+03  0.22146371208E+04  0.20720805445E+04 0.  0.
        3    1    3    3  502    0  0.43995809879E+03  0.92586723557E+03  0.55149087234E+03  0.11640169497E+04  0.10100000352E+00 0. -1.
       -3    1    3    3    0  502 -0.43995809879E+03 -0.92586723557E+03  0.23023784912E+03  0.10506201711E+04  0.10100000352E+00 0.  1.
</event>
<event>
 5   0  0.1680258E-04  0.2204991E+04  0.7818609E-02  0.8516353E-01
       -2   -1    0    0    0  501  0.00000000000E+00  0.00000000000E+00  0.14920563623E+04  0.14920563623E+04  0.25500000920E-02 0. -1.
        2   -1    0    0  501    0  0.00000000000E+00  0.00000000000E+00 -0.81464527012E+03  0.81464527012E+03  0.25500000920E-02 0.  1.
    10030    2    1    2    0    0  0.00000000000E+00  0.00000000000E+00  0.67741109218E+03  0.23067016324E+04  0.22049913000E+04 0.  0.
        5    1    3    3  502    0  0.52386830592E+03 -0.78590088475E+03  0.93361669820E+03  0.13280588962E+04  0.46999998093E+01 0.  1.
       -5    1    3    3    0  502 -0.52386830592E+03  0.78590088475E+03 -0.25620560603E+03  0.97864273622E+03  0.46999998093E+01 0. -1.
</event>
<event>
 5   0  0.8306787E-05  0.2189338E+04  0.7818609E-02  0.8522879E-01
       -1   -1    0    0    0  501  0.00000000000E+00  0.00000000000E+00  0.11994706333E+04  0.11994706333E+04  0.50400001928E-02 0. -1.
        1   -1    0    0  501    0  0.00000000000E+00  0.00000000000E+00 -0.99902384330E+03  0.99902384331E+03  0.50400001928E-02 0.  1.
    10030    2    1    2    0    0  0.00000000000E+00  0.00000000000E+00  0.20044679004E+03  0.21984944767E+04  0.21893375821E+04 0.  0.
        1    1    3    3  502    0 -0.14034897687E+03 -0.10374072249E+04  0.42154324150E+03  0.11285434374E+04  0.50400001928E-02 0.  1.
       -1    1    3    3    0  502  0.14034897687E+03  0.10374072249E+04 -0.22109645146E+03  0.10699510393E+04  0.50400001928E-02 0. -1.
</event>
<event>
 5   0  0.1805501E-04  0.2311362E+04  0.7818609E-02  0.8473455E-01
        2   -1    0    0  501    0  0.00000000000E+00  0.00000000000E+00  0.99151331167E+03  0.99151331167E+03  0.25500000920E-02 0. -1.
       -2   -1    0    0    0  501  0.00000000000E+00  0.00000000000E+00 -0.13470300688E+04  0.13470300688E+04  0.25500000920E-02 0.  1.
    10030    2    1    2    0    0  0.00000000000E+00  0.00000000000E+00 -0.35551675714E+03  0.23385433805E+04  0.23113617150E+04 0.  0.
        2    1    3    3  502    0  0.80421714865E+03  0.34890468504E+02  0.66121928793E+03  0.10417262182E+04  0.25500000920E-02 0. -1.
       -2    1    3    3    0  502 -0.80421714865E+03 -0.34890468504E+02 -0.10167360451E+04  0.12968171623E+04  0.25500000920E-02 0.  1.
</event>
<event>
 5   0  0.1680258E-04  0.1922904E+04  0.7818609E-02  0.8643539E-01
       -2   -1    0    0    0  501  0.00000000000E+00  0.00000000000E+00  0.77382213884E+03  0.77382213884E+03  0.25500000920E-02 0.  1.
        2   -1    0    0  501    0  0.00000000000E+00  0.00000000000E+00 -0.11945773816E+04  0.11945773816E+04  0.25500000920E-02 0. -1.
    10030    2    1    2    0    0  0.00000000000E+00  0.00000000000E+00 -0.42075524281E+03  0.19683995205E+04  0.19229044953E+04 0.  0.
        5    1    3    3  502    0 -0.54009356747E+03  0.66131881297E+03 -0.66278962506E+03  0.10809050888E+04  0.46999998093E+01 0. -1.
       -5    1    3    3    0  502  0.54009356747E+03 -0.66131881297E+03  0.24203438226E+03  0.88749443164E+03  0.46999998093E+01 0.  1.
</event>
<event>
 5   0  0.8470971E-05  0.2257360E+04  0.7818609E-02  0.8494926E-01
        1   -1    0    0  501    0  0.00000000000E+00  0.00000000000E+00  0.96515416395E+03  0.96515416397E+03  0.50400001928E-02 0.  1.
       -1   -1    0    0    0  501  0.00000000000E+00  0.00000000000E+00 -0.13199118105E+04  0.13199118105E+04  0.50400001928E-02 0. -1.
    10030    2    1    2    0    0  0.00000000000E+00  0.00000000000E+00 -0.35475764654E+03  0.22850659745E+04  0.22573598561E+04 0.  0.
        2    1    3    3  502    0  0.92479419432E+03 -0.40263442950E+03 -0.69011277508E+03  0.12221351922E+04  0.25500000920E-02 0. -1.
       -2    1    3    3    0  502 -0.92479419432E+03  0.40263442950E+03  0.33535512854E+03  0.10629307823E+04  0.25500000920E-02 0.  1.
</event>
<event>
 5   0  0.1680258E-04  0.2206902E+04  0.7818609E-02  0.8515561E-01
       -2   -1    0    0    0  501  0.00000000000E+00  0.00000000000E+00  0.11698275507E+04  0.11698275507E+04  0.25500000920E-02 0. -1.
        2   -1    0    0  501    0  0.00000000000E+00  0.00000000000E+00 -0.10408408159E+04  0.10408408159E+04  0.25500000920E-02 0.  1.
    10030    2    1    2    0    0  0.00000000000E+00  0.00000000000E+00  0.12898673485E+03  0.22106683666E+04  0.22069021386E+04 0.  0.
        5    1    3    3  502    0  0.36029525099E+03 -0.28351983328E+03  0.10698924362E+04  0.11639965974E+04  0.46999998093E+01 0. -1.
       -5    1    3    3    0  502 -0.36029525099E+03  0.28351983328E+03 -0.94090570132E+03  0.10466717692E+04  0.46999998093E+01 0.  1.
</event>
<event>
 5   0  0.8784659E-05  0.2207556E+04  0.7818609E-02  0.8515290E-01
       -1   -1    0    0    0  501  0.00000000000E+00  0.00000000000E+00  0.10565056415E+04  0.10565056415E+04  0.50400001928E-02 0.  1.
        1   -1    0    0  501    0  0.00000000000E+00  0.00000000000E+00 -0.11531658655E+04  0.11531658655E+04  0.50400001928E-02 0. -1.
    10030    2    1    2    0    0  0.00000000000E+00  0.00000000000E+00 -0.96660224044E+02  0.22096715070E+04  0.22075563345E+04 0.  0.
        4    1    3    3  502    0 -0.54099060552E+03 -0.49511443079E+03  0.77739392958E+03  0.10687151489E+04  0.12699999809E+01 0.  1.
       -4    1    3    3    0  502  0.54099060552E+03  0.49511443079E+03 -0.87405415362E+03  0.11409563581E+04  0.12699999809E+01 0. -1.
</event>
<event>
 5   0  0.7954459E-05  0.2211407E+04  0.7818609E-02  0.8513695E-01
       -1   -1    0    0    0  501  0.00000000000E+00  0.00000000000E+00  0.75160434384E+03  0.75160434385E+03  0.50400001928E-02 0. -1.
        1   -1    0    0  501    0  0.00000000000E+00  0.00000000000E+00 -0.16266267057E+04  0.16266267057E+04  0.50400001928E-02 0.  1.
    10030    2    1    2    0    0  0.00000000000E+00  0.00000000000E+00 -0.87502236184E+03  0.23782310495E+04  0.22114065188E+04 0.  0.
        5    1    3    3  502    0 -0.91076114203E+03 -0.35737770072E+03 -0.99149541122E+03  0.13929428988E+04  0.46999998093E+01 0.  1.
       -5    1    3    3    0  502  0.91076114203E+03  0.35737770072E+03  0.11647304938E+03  0.98528815076E+03  0.46999998093E+01 0. -1.
</event>
<event>
 5   0  0.7954459E-05  0.1888642E+04  0.7818609E-02  0.8660531E-01
        1   -1    0    0  501    0  0.00000000000E+00  0.00000000000E+00  0.16333594461E+04  0.16333594461E+04  0.50400001928E-02 0. -1.
       -1   -1    0    0    0  501  0.00000000000E+00  0.00000000000E+00 -0.54595568162E+03  0.54595568164E+03  0.50400001928E-02 0.  1.
    10030    2    1    2    0    0  0.00000000000E+00  0.00000000000E+00  0.10874037645E+04  0.21793151277E+04  0.18886417021E+04 0.  0.
        5    1    3    3  502    0  0.70419749622E+02  0.37694350754E+03  0.15394595966E+04  0.15865066305E+04  0.46999998093E+01 0. -1.
       -5    1    3    3    0  502 -0.70419749622E+02 -0.37694350754E+03 -0.45205583215E+03  0.59280849723E+03  0.46999998093E+01 0.  1.
</event>
<event>
 5   0  0.6250625E-05  0.2100906E+04  0.7818609E-02  0.8560844E-01
        3   -1    0    0  501    0  0.00000000000E+00  0.00000000000E+00  0.17473337608E+04  0.17473337638E+04  0.10100000352E+00 0. -1.
       -3   -1    0    0    0  501  0.00000000000E+00  0.00000000000E+00 -0.63150599065E+03  0.63150599873E+03  0.10100000352E+00 0.  1.
    10030    2    1    2    0    0  0.00000000000E+00  0.00000000000E+00  0.11158277702E+04  0.23788397625E+04  0.21009062337E+04 0.  0.
        5    1    3    3  502    0 -0.97132891531E+03 -0.39956980688E+03  0.57732100495E+03  0.11985230599E+04  0.46999998093E+01 0. -1.
       -5    1    3    3    0  502  0.97132891531E+03  0.39956980688E+03  0.53850676525E+03  0.11803167026E+04  0.46999998093E+01 0.  1.
</event>
<event>
 5   0  0.1733962E-04  0.2281816E+04  0.7818609E-02  0.8485126E-01
        2   -1    0    0  501    0  0.00000000000E+00  0.00000000000E+00  0.96095308388E+03  0.96095308388E+03  0.25500000920E-02 0.  1.
       -2   -1    0    0    0  501  0.00000000000E+00  0.00000000000E+00 -0.13545621679E+04  0.13545621679E+04  0.25500000920E-02 0. -1.
    10030    2    1    2    0    0  0.00000000000E+00  0.00000000000E+00 -0.39360908398E+03  0.23155152517E+04  0.22818156740E+04 0.  0.
        3    1    3    3  502    0 -0.95655085777E+03 -0.58411369722E+03  0.19634780369E+02  0.11209656059E+04  0.10100000352E+00 0.  1.
       -3    1    3    3    0  502  0.95655085777E+03  0.58411369722E+03 -0.41324386435E+03  0.11945496459E+04  0.10100000352E+00 0. -1.
</event>
<event>
 5   0  0.7954459E-05  0.2205487E+04  0.7818609E-02  0.8516148E-01
       -1   -1    0    0    0  501  0.00000000000E+00  0.00000000000E+00  0.31927217104E+04  0.31927217104E+04  0.50400001928E-02 0. -1.
        1   -1    0    0  501    0  0.00000000000E+00  0.00000000000E+00 -0.38087978697E+03  0.38087978700E+03  0.50400001928E-02 0.  1.
    10030    2    1    2    0    0  0.00000000000E+00  0.00000000000E+00  0.28118419235E+04  0.35736014974E+04  0.22054869439E+04 0.  0.
        5    1    3    3  502    0  0.69875737360E+03  0.62922808489E+03  0.47253716923E+03  0.10523798346E+04  0.46999998093E+01 0.  1.
       -5    1    3    3    0  502 -0.69875737360E+03 -0.62922808489E+03  0.23393047542E+04  0.25212216628E+04  0.46999998093E+01 0. -1.
</event>
<event>
 5   0  0.7954459E-05  0.1123176E+04  0.7818609E-02  0.9182893E-01
        1   -1    0    0  501    0  0.00000000000E+00  0.00000000000E+00  0.32312641202E+03  0.32312641206E+03  0.50400001928E-02 0. -1.
       -1   -1    0    0    0  501  0.00000000000E+00  0.00000000000E+00 -0.97603012112E+03  0.97603012113E+03  0.50400001928E-02 0.  1.
    10030    2    1    2    0    0  0.00000000000E+00  0.00000000000E+00 -0.65290370910E+03  0.12991565332E+04  0.11231760523E+04 0.  0.
        5    1    3    3  502    0 -0.37049866279E+03  0.39340067701E+03 -0.50310879459E+03  0.73835892423E+03  0.46999998093E+01 0.  1.
       -5    1    3    3    0  502  0.37049866279E+03 -0.39340067701E+03 -0.14979491451E+03  0.56079760896E+03  0.46999998093E+01 0. -1.
</event>
<event>
 5   0  0.1733962E-04  0.2207512E+04  0.7818609E-02  0.8515308E-01
       -2   -1    0    0    0  501  0.00000000000E+00  0.00000000000E+00  0.12308960701E+04  0.12308960701E+04  0.25500000920E-02 0. -1.
        2   -1    0    0  501    0  0.00000000000E+00  0.00000000000E+00 -0.98974832112E+03  0.98974832112E+03  0.25500000920E-02 0.  1.
    10030    2    1    2    0    0  0.00000000000E+00  0.00000000000E+00  0.24114774903E+03  0.22206443913E+04  0.22075120103E+04 0.  0.
        3    1    3    3  502    0 -0.44899371264E+03  0.90097221521E+03  0.57596000067E+03  0.11597742104E+04  0.10100000352E+00 0. -1.
       -3    1    3    3    0  502  0.44899371264E+03 -0.90097221521E+03 -0.33481225164E+03  0.10608701809E+04  0.10100000352E+00 0.  1.
</event>
<event>
 5   0  0.1754356E-04  0.2254327E+04  0.7818609E-02  0.8496150E-01
        2   -1    0    0  501    0  0.00000000000E+00  0.00000000000E+00  0.12559132984E+04  0.12559132984E+04  0.25500000920E-02 0. -1.
       -2   -1    0    0    0  501  0.00000000000E+00  0.00000000000E+00 -0.10116124233E+04  0.10116124233E+04  0.25500000920E-02 0.  1.
    10030    2    1    2    0    0  0.00000000000E+00  0.00000000000E+00  0.24430087513E+03  0.22675257216E+04  0.22543269463E+04 0.  0.
        1    1    3    3  502    0 -0.14291128470E+03 -0.45860932080E+03 -0.90350164583E+03  0.10232601666E+04  0.50400001928E-02 0.  1.
       -1    1    3    3    0  502  0.14291128470E+03  0.45860932080E+03  0.11478025210E+04  0.12442655551E+04  0.50400001928E-02 0. -1.
</event>
<event>
 5   0  0.1798917E-04  0.2190507E+04  0.7818609E-02  0.8522390E-01
        2   -1    0    0  501    0  0.00000000000E+00  0.00000000000E+00  0.14697098213E+04  0.14697098213E+04  0.25500000920E-02 0.  1.
       -2   -1    0    0    0  501  0.00000000000E+00  0.00000000000E+00 -0.81620230582E+03  0.81620230583E+03  0.25500000920E-02 0. -1.
    10030    2    1    2    0    0  0.00000000000E+00  0.00000000000E+00  0.65350751548E+03  0.22859121271E+04  0.21905072883E+04 0.  0.
        4    1    3    3  502    0  0.14822964215E+03  0.94887885789E+03 -0.22271056557E+03  0.98587256919E+03  0.12699999809E+01 0. -1.
       -4    1    3    3    0  502 -0.14822964215E+03 -0.94887885789E+03  0.87621808105E+03  0.13000395579E+04  0.12699999809E+01 0.  1.
</event>
<event>
 5   0  0.8470971E-05  0.1495095E+04  0.7818609E-02  0.8887721E-01
        1   -1    0    0  501    0  0.00000000000E+00  0.00000000000E+00  0.64483272698E+03  0.64483272700E+03  0.50400001928E-02 0. -1.
       -1   -1    0    0    0  501  0.00000000000E+00  0.00000000000E+00 -0.86662359194E+03  0.86662359195E+03  0.50400001928E-02 0.  1.
    10030    2    1    2    0    0  0.00000000000E+00  0.00000000000E+00 -0.22179086496E+03  0.15114563189E+04  0.14950949857E+04 0.  0.
        2    1    3    3  502    0  0.60366305495E+03 -0.28489512692E+03 -0.45110893968E+03  0.80565103656E+03  0.25500000920E-02 0.  1.
       -2    1    3    3    0  502 -0.60366305495E+03  0.28489512692E+03  0.22931807472E+03  0.70580528239E+03  0.25500000920E-02 0. -1.
</event>
<event>
 5   0  0.1680258E-04  0.2152059E+04  0.7818609E-02  0.8538651E-01
       -2   -1    0    0    0  501  0.00000000000E+00  0.00000000000E+00  0.69745074853E+03  0.69745074854E+03  0.25500000920E-02 0.  1.
        2   -1    0    0  501    0  0.00000000000E+00  0.00000000000E+00 -0.16601020717E+04  0.16601020717E+04  0.25500000920E-02 0. -1.
    10030    2    1    2    0    0  0.00000000000E+00  0.00000000000E+00 -0.96265132320E+03  0.23575528203E+04  0.21520589514E+04 0.  0.
        5    1    3    3  502    0  0.18588400626E+03 -0.14353745345E+03  0.66902002743E+03  0.70905976576E+03  0.46999998093E+01 0.  1.
       -5    1    3    3    0  502 -0.18588400626E+03  0.14353745345E+03 -0.16316713506E+04  0.16484930545E+04  0.46999998093E+01 0. -1.
</event>
<event>
 5   0  0.8784659E-05  0.1135547E+04  0.7818609E-02  0.9171221E-01
        1   -1    0    0  501    0  0.00000000000E+00  0.00000000000E+00  0.17508620692E+04  0.17508620692E+04  0.50400001928E-02 0. -1.
       -1   -1    0    0    0  501  0.00000000000E+00  0.00000000000E+00 -0.18411891009E+03  0.18411891016E+03  0.50400001928E-02 0.  1.
    10030    2    1    2    0    0  0.00000000000E+00  0.00000000000E+00  0.15667431591E+04  0.19349809794E+04  0.11355471210E+04 0.  0.
        4    1    3    3  502    0  0.24392886534E+02 -0.36034528263E+02  0.17480140614E+04  0.17485560534E+04  0.12699999809E+01 0. -1.
       -4    1    3    3    0  502 -0.24392886534E+02  0.36034528263E+02 -0.18127090224E+03  0.18642492601E+03  0.12699999809E+01 0.  1.
</event>
<event>
 5   0  0.1754356E-04  0.2130746E+04  0.7818609E-02  0.8547819E-01
       -2   -1    0    0    0  501  0.00000000000E+00  0.00000000000E+00  0.14419488142E+04  0.14419488142E+04  0.25500000920E-02 0. -1.
        2   -1    0    0  501    0  0.00000000000E+00  0.00000000000E+00 -0.78714302805E+03  0.78714302806E+03  0.25500000920E-02 0.  1.
    10030    2    1    2    0    0  0.00000000000E+00  0.00000000000E+00  0.65480578613E+03  0.22290918422E+04  0.21307463067E+04 0.  0.
        1    1    3    3  502    0 -0.31874144493E+03 -0.74787757821E+03 -0.39292885849E+03  0.90294521903E+03  0.50400001928E-02 0.  1.
       -1    1    3    3    0  502  0.31874144493E+03  0.74787757821E+03  0.10477346446E+04  0.13261466232E+04  0.50400001928E-02 0. -1.
</event>
<event>
 5   0  0.1680258E-04  0.1795575E+04  0.7818609E-02  0.8708656E-01
       -2   -1    0    0    0  501  0.00000000000E+00  0.00000000000E+00  0.39424851311E+03  0.39424851312E+03  0.25500000920E-02 0. -1.
        2   -1    0    0  501    0  0.00000000000E+00  0.00000000000E+00 -0.20444535824E+04  0.20444535824E+04  0.25500000920E-02 0.  1.
    10030    2    1    2    0    0  0.00000000000E+00  0.00000000000E+00 -0.16502050693E+04  0.24387020956E+04  0.17955754342E+04 0.  0.
        5    1    3    3  502    0  0.28940025871E+03  0.11688487352E+03 -0.19683793970E+04  0.19929761975E+04  0.46999998093E+01 0.  1.
       -5    1    3    3    0  502 -0.28940025871E+03 -0.11688487352E+03  0.31817432766E+03  0.44572589804E+03  0.46999998093E+01 0. -1.
</event>
<event>
 5   0  0.1805501E-04  0.2184064E+04  0.7818609E-02  0.8525091E-01
        2   -1    0    0  501    0  0.00000000000E+00  0.00000000000E+00  0.22380171740E+04  0.22380171740E+04  0.25500000920E-02 0.  1.
       -2   -1    0    0    0  501  0.00000000000E+00  0.00000000000E+00 -0.53285272391E+03  0.53285272391E+03  0.25500000920E-02 0. -1.
    10030    2    1    2    0    0  0.00000000000E+00  0.00000000000E+00  0.17051644501E+04  0.27708698979E+04  0.21840636871E+04 0.  0.
        2    1    3    3  502    0  0.63051137628E+03  0.47604733437E+03  0.18090395610E+04  0.19740288229E+04  0.25500000920E-02 0.  1.
       -2    1    3    3    0  502 -0.63051137628E+03 -0.47604733437E+03 -0.10387511094E+03  0.79684107503E+03  0.25500000920E-02 0. -1.
</event>
<event>
 5   0  0.8306787E-05  0.2093468E+04  0.7818609E-02  0.8564126E-01
       -1   -1    0    0    0  501  0.00000000000E+00  0.00000000000E+00  0.10483537010E+04  0.10483537010E+04  0.50400001928E-02 0. -1.
        1   -1    0    0  501    0  0.00000000000E+00  0.00000000000E+00 -0.10451172744E+04  0.10451172744E+04  0.50400001928E-02 0.  1.
    10030    2    1    2    0    0  0.00000000000E+00  0.00000000000E+00  0.32364266175E+01  0.20934709754E+04  0.20934684737E+04 0.  0.
        1    1    3    3  502    0  0.29901338278E+03 -0.20980227993E+03 -0.97931443602E+03  0.10452190031E+04  0.50400001928E-02 0.  1.
       -1    1    3    3    0  502 -0.29901338278E+03  0.20980227993E+03  0.98255086263E+03  0.10482519723E+04  0.50400001928E-02 0. -1.
</event>
<event>
 5   0  0.8784659E-05  0.2276530E+04  0.7818609E-02  0.8487233E-01
       -1   -1    0    0    0  501  0.00000000000E+00  0.00000000000E+00  0.89571327305E+03  0.89571327307E+03  0.50400001928E-02 0. -1.
        1   -1    0    0  501    0  0.00000000000E+00  0.00000000000E+00 -0.14464979891E+04  0.14464979891E+04  0.50400001928E-02 0.  1.
    10030    2    1    2    0    0  0.00000000000E+00  0.00000000000E+00 -0.55078471603E+03  0.23422112622E+04  0.22765302092E+04 0.  0.
        4    1    3    3  502    0  0.46359818967E+03 -0.91456487339E+03  0.23312845548E+03  0.10515239792E+04  0.12699999809E+01 0. -1.
       -4    1    3    3    0  502 -0.46359818967E+03  0.91456487339E+03 -0.78391317151E+03  0.12906872830E+04  0.12699999809E+01 0.  1.
</event>
<event>
 5   0  0.1805501E-04  0.2202730E+04  0.7818609E-02  0.8517293E-01
        2   -1    0    0  501    0  0.00000000000E+00  0.00000000000E+00  0.11863690519E+04  0.11863690519E+04  0.25500000920E-02 0.  1.
       -2   -1    0    0    0  501  0.00000000000E+00  0.00000000000E+00 -0.10224514881E+04  0.10224514881E+04  0.25500000920E-02 0. -1.
    10030    2    1    2    0    0  0.00000000000E+00  0.00000000000E+00  0.16391756385E+03  0.22088205400E+04  0.22027299449E+04 0.  0.
        2    1    3    3  502    0 -0.67566646925E+02  0.80293971801E+03  0.83485260321E+03  0.11602828585E+04  0.25500000920E-02 0.  1.
       -2    1    3    3    0  502  0.67566646925E+02 -0.80293971801E+03 -0.67093503937E+03  0.10485376815E+04  0.25500000920E-02 0. -1.
</event>
<event>
 5   0  0.1680258E-04  0.2156650E+04  0.7818609E-02  0.8536691E-01
        2   -1    0    0  501    0  0.00000000000E+00  0.00000000000E+00  0.15326608997E+04  0.15326608997E+04  0.25500000920E-02 0.  1.
       -2   -1    0    0    0  501  0.00000000000E+00  0.00000000000E+00 -0.75867095065E+03  0.75867095066E+03  0.25500000920E-02 0. -1.
    10030    2    1    2    0    0  0.00000000000E+00  0.00000000000E+00  0.77398994901E+03  0.22913318503E+04  0.21566504601E+04 0.  0.
        5    1    3    3  502    0  0.64082297311E+03  0.10346461825E+03  0.13018151860E+04  0.14546834290E+04  0.46999998093E+01 0.  1.
       -5    1    3    3    0  502 -0.64082297311E+03 -0.10346461825E+03 -0.52782523700E+03  0.83664842132E+03  0.46999998093E+01 0. -1.
</event>
<event>
 5   0  0.8306787E-05  0.2220329E+04  0.7818609E-02  0.8510014E-01
        1   -1    0    0  501    0  0.00000000000E+00  0.00000000000E+00  0.19714629917E+04  0.19714629917E+04  0.50400001928E-02 0. -1.
       -1   -1    0    0    0  501  0.00000000000E+00  0.00000000000E+00 -0.62515277625E+03  0.62515277627E+03  0.50400001928E-02 0.  1.
    10030    2    1    2    0    0  0.00000000000E+00  0.00000000000E+00  0.13463102154E+04  0.25966157680E+04  0.22203293112E+04 0.  0.
        1    1    3    3  502    0 -0.99083019138E+03 -0.33996341743E+03  0.11030792627E+04  0.15212177534E+04  0.50400001928E-02 0. -1.
       -1    1    3    3    0  502  0.99083019138E+03  0.33996341743E+03  0.24323095270E+03  0.10753980146E+04  0.50400001928E-02 0.  1.
</event>
<event>
 5   0  0.8470971E-05  0.2233515E+04  0.7818609E-02  0.8504606E-01
        1   -1    0    0  501    0  0.00000000000E+00  0.00000000000E+00  0.24317684584E+04  0.24317684584E+04  0.50400001928E-02 0. -1.
       -1   -1    0    0    0  501  0.00000000000E+00  0.00000000000E+00 -0.51285625038E+03  0.51285625040E+03  0.50400001928E-02 0.  1.
    10030    2    1    2    0    0  0.00000000000E+00  0.00000000000E+00  0.19189122080E+04  0.29446247088E+04  0.22335153041E+04 0.  0.
        2    1    3    3  502    0  0.70919267950E+03 -0.10476920485E+03 -0.16944845294E+03  0.73664348307E+03  0.25500000920E-02 0.  1.
       -2    1    3    3    0  502 -0.70919267950E+03  0.10476920485E+03  0.20883606610E+04  0.22079812258E+04  0.25500000920E-02 0. -1.
</event>
<event>
 5   0  0.1798917E-04  0.2146519E+04  0.7818609E-02  0.8541024E-01
       -2   -1    0    0    0  501  0.00000000000E+00  0.00000000000E+00  0.16371784148E+04  0.16371784148E+04  0.25500000920E-02 0. -1.
        2   -1    0    0  501    0  0.00000000000E+00  0.00000000000E+00 -0.70358028027E+03  0.70358028027E+03  0.25500000920E-02 0.  1.
    10030    2    1    2    0    0  0.00000000000E+00  0.00000000000E+00  0.93359813454E+03  0.23407586951E+04  0.21465194599E+04 0.  0.
        4    1    3    3  502    0 -0.92066183841E+02 -0.73338274220E+03  0.13153928272E+04  0.15088360851E+04  0.12699999809E+01 0. -1.
       -4    1    3    3    0  502  0.92066183841E+02  0.73338274220E+03 -0.38179469270E+03  0.83192261001E+03  0.12699999809E+01 0.  1.
</event>
<event>
 5   0  0.6250625E-05  0.2253303E+04  0.7818609E-02  0.8496564E-01
        3   -1    0    0  501    0  0.00000000000E+00  0.00000000000E+00  0.15305163896E+04  0.15305163930E+04  0.10100000352E+00 0.  1.
       -3   -1    0    0    0  501  0.00000000000E+00  0.00000000000E+00 -0.82935613255E+03  0.82935613870E+03  0.10100000352E+00 0. -1.
    10030    2    1    2    0    0  0.00000000000E+00  0.00000000000E+00  0.70116025708E+03  0.23598725317E+04  0.22533026116E+04 0.  0.
        1    1    3    3  502    0  0.45680321528E+03  0.97128558261E+03 -0.80756763523E+01  0.10733732236E+04  0.50400001928E-02 0.  1.
       -1    1    3    3    0  502 -0.45680321528E+03 -0.97128558261E+03  0.70923593343E+03  0.12864993081E+04  0.50400001928E-02 0. -1.
</event>
<event>
 5   0  0.1798917E-04  0.2191207E+04  0.7818609E-02  0.8522097E-01
        2   -1    0    0  501    0  0.00000000000E+00  0.00000000000E+00  0.12144273585E+04  0.12144273585E+04  0.25500000920E-02 0. -1.
       -2   -1    0    0    0  501  0.00000000000E+00  0.00000000000E+00 -0.98840596709E+03  0.98840596710E+03  0.25500000920E-02 0.  1.
    10030    2    1    2    0    0  0.00000000000E+00  0.00000000000E+00  0.22602139139E+03  0.22028333256E+04  0.21912071995E+04 0.  0.
        4    1    3    3  502    0 -0.28041007536E+02  0.89058510135E+03 -0.52788063863E+03  0.10356581011E+04  0.12699999809E+01 0.  1.
       -4    1    3    3    0  502  0.28041007536E+02 -0.89058510135E+03  0.75390203002E+03  0.11671752245E+04  0.12699999809E+01 0. -1.
</event>
<event>
 5   0  0.1798917E-04  0.2020100E+04  0.7818609E-02  0.8597281E-01
        2   -1    0    0  501    0  0.00000000000E+00  0.00000000000E+00  0.86368388614E+03  0.86368388614E+03  0.25500000920E-02 0. -1.
       -2   -1    0    0    0  501  0.00000000000E+00  0.00000000000E+00 -0.11812199022E+04  0.11812199022E+04  0.25500000920E-02 0.  1.
    10030    2    1    2    0    0  0.00000000000E+00  0.00000000000E+00 -0.31753601604E+03  0.20449037883E+04  0.20200995971E+04 0.  0.
        4    1    3    3  502    0 -0.99200588936E+03  0.15736315278E+03 -0.50875356216E+02  0.10056981461E+04  0.12699999809E+01 0. -1.
       -4    1    3    3    0  502  0.99200588936E+03 -0.15736315278E+03 -0.26666065983E+03  0.10392056422E+04  0.12699999809E+01 0.  1.
</event>
<event>
 5   0  0.1733962E-04  0.2213042E+04  0.7818609E-02  0.8513019E-01
       -2   -1    0    0    0  501  0.00000000000E+00  0.00000000000E+00  0.79657128885E+03  0.79657128885E+03  0.25500000920E-02 0.  1.
        2   -1    0    0  501    0  0.00000000000E+00  0.00000000000E+00 -0.15370740016E+04  0.15370740016E+04  0.25500000920E-02 0. -1.
    10030    2    1    2    0    0  0.00000000000E+00  0.00000000000E+00 -0.74050271278E+03  0.23336452905E+04  0.22130422667E+04 0.  0.
        3    1    3    3  502    0 -0.49046485189E+03  0.66022323504E+03 -0.11508199105E+04  0.14145094442E+04  0.10100000352E+00 0. -1.
       -3    1    3    3    0  502  0.49046485189E+03 -0.66022323504E+03  0.41031719772E+03  0.91913584631E+03  0.10100000352E+00 0.  1.
</event>
<event>
 5   0  0.8470971E-05  0.2087383E+04  0.7818609E-02  0.8566822E-01
        1   -1    0    0  501    0  0.00000000000E+00  0.00000000000E+00  0.83042371492E+03  0.83042371494E+03  0.50400001928E-02 0. -1.
       -1   -1    0    0    0  501  0.00000000000E+00  0.00000000000E+00 -0.13117307909E+04  0.13117307909E+04  0.50400001928E-02 0.  1.
    10030    2    1    2    0    0  0.00000000000E+00  0.00000000000E+00 -0.48130707595E+03  0.21421545058E+04  0.20873833921E+04 0.  0.
        2    1    3    3  502    0 -0.90186565836E+02 -0.22644893150E+03  0.80080455763E+03  0.83707865507E+03  0.25500000920E-02 0. -1.
       -2    1    3    3    0  502  0.90186565836E+02  0.22644893150E+03 -0.12821116336E+04  0.13050758507E+04  0.25500000920E-02 0.  1.
</event>
<event>
 5   0  0.8306787E-05  0.2215502E+04  0.7818609E-02  0.8512004E-01
        1   -1    0    0  501    0  0.00000000000E+00  0.00000000000E+00  0.91153470741E+03  0.91153470743E+03  0.50400001928E-02 0.  1.
       -1   -1    0    0    0  501  0.00000000000E+00  0.00000000000E+00 -0.13462041566E+04  0.13462041566E+04  0.50400001928E-02 0. -1.
    10030    2    1    2    0    0  0.00000000000E+00  0.00000000000E+00 -0.43466944919E+03  0.22577388640E+04  0.22155015794E+04 0.  0.
        1    1    3    3  502    0 -0.94662643436E+03  0.57423413361E+03 -0.18108458748E+03  0.11218904021E+04  0.50400001928E-02 0. -1.
       -1    1    3    3    0  502  0.94662643436E+03 -0.57423413361E+03 -0.25358486171E+03  0.11358484620E+04  0.50400001928E-02 0.  1.
</event>
<event>
 5   0  0.6250625E-05  0.2283351E+04  0.7818609E-02  0.8484515E-01
        3   -1    0    0  501    0  0.00000000000E+00  0.00000000000E+00  0.73415894035E+03  0.73415894729E+03  0.10100000352E+00 0.  1.
       -3   -1    0    0    0  501  0.00000000000E+00  0.00000000000E+00 -0.17753957313E+04  0.17753957341E+04  0.10100000352E+00 0. -1.
    10030    2    1    2    0    0  0.00000000000E+00  0.00000000000E+00 -0.10412367909E+04  0.25095546814E+04  0.22833507493E+04 0.  0.
        2    1    3    3  502    0  0.31445506100E+03 -0.23071066970E+03  0.65867207073E+03  0.76547912791E+03  0.25500000920E-02 0.  1.
       -2    1    3    3    0  502 -0.31445506100E+03  0.23071066970E+03 -0.16999088616E+04  0.17440755535E+04  0.25500000920E-02 0. -1.
</event>
<event>
 5   0  0.1754356E-04  0.2212000E+04  0.7818609E-02  0.8513450E-01
       -2   -1    0    0    0  501  0.00000000000E+00  0.00000000000E+00  0.96079651453E+03  0.96079651454E+03  0.25500000920E-02 0. -1.
        2   -1    0    0  501    0  0.00000000000E+00  0.00000000000E+00 -0.12731479501E+04  0.12731479501E+04  0.25500000920E-02 0.  1.
    10030    2    1    2    0    0  0.00000000000E+00  0.00000000000E+00 -0.31235143557E+03  0.22339444646E+04  0.22120001021E+04 0.  0.
        1    1    3    3  502    0  0.41909699018E+02  0.52250311228E+03  0.82738023705E+03  0.97945085732E+03  0.50400001928E-02 0. -1.
       -1    1    3    3    0  502 -0.41909699018E+02 -0.52250311228E+03 -0.11397316726E+04  0.12544936073E+04  0.50400001928E-02 0.  1.
</event>
<event>
 5   0  0.1680258E-04  0.2197227E+04  0.7818609E-02  0.8519583E-01
       -2   -1    0    0    0  501  0.00000000000E+00  0.00000000000E+00  0.12565096571E+04  0.12565096571E+04  0.25500000920E-02 0.  1.
        2   -1    0    0  501    0  0.00000000000E+00  0.00000000000E+00 -0.96055903081E+03  0.96055903081E+03  0.25500000920E-02 0. -1.
    10030    2    1    2    0    0  0.00000000000E+00  0.00000000000E+00  0.29595062633E+03  0.22170686880E+04  0.21972270693E+04 0.  0.
        5    1    3    3  502    0 -0.50994014878E+03 -0.15566112659E+02 -0.83376934883E+03  0.97748384961E+03  0.46999998093E+01 0. -1.
       -5    1    3    3    0  502  0.50994014878E+03  0.15566112659E+02  0.11297199752E+04  0.12395848384E+04  0.46999998093E+01 0.  1.
</event>
<event>
 5   0  0.1798917E-04  0.2188863E+04  0.7818609E-02  0.8523078E-01
       -2   -1    0    0    0  501  0.00000000000E+00  0.00000000000E+00  0.58218879003E+03  0.58218879003E+03  0.25500000920E-02 0.  1.
        2   -1    0    0  501    0  0.00000000000E+00  0.00000000000E+00 -0.20573748204E+04  0.20573748204E+04  0.25500000920E-02 0. -1.
    10030    2    1    2    0    0  0.00000000000E+00  0.00000000000E+00 -0.14751860304E+04  0.26395636104E+04  0.21888632276E+04 0.  0.
        4    1    3    3  502    0 -0.37703516026E+03  0.68118047654E+03  0.18994918855E+03  0.80140168506E+03  0.12699999809E+01 0.  1.
       -4    1    3    3    0  502  0.37703516026E+03 -0.68118047654E+03 -0.16651352189E+04  0.18381619254E+04  0.12699999809E+01 0. -1.
</event>
<event>
 5   0  0.7954459E-05  0.1398079E+04  0.7818609E-02  0.8955210E-01
        1   -1    0    0  501    0  0.00000000000E+00  0.00000000000E+00  0.13635169279E+04  0.13635169279E+04  0.50400001928E-02 0. -1.
       -1   -1    0    0    0  501  0.00000000000E+00  0.00000000000E+00 -0.35837926447E+03  0.35837926451E+03  0.50400001928E-02 0.  1.
    10030    2    1    2    0    0  0.00000000000E+00  0.00000000000E+00  0.10051376634E+04  0.17218961924E+04  0.13980789588E+04 0.  0.
        5    1    3    3  502    0 -0.15951080473E+02 -0.19303701984E+03 -0.32464838046E+03  0.37806929117E+03  0.46999998093E+01 0.  1.
       -5    1    3    3    0  502  0.15951080473E+02  0.19303701984E+03  0.13297860439E+04  0.13438269012E+04  0.46999998093E+01 0. -1.
</event>
<event>
 5   0  0.8602414E-05  0.2155255E+04  0.7818609E-02  0.8537286E-01
       -1   -1    0    0    0  501  0.00000000000E+00  0.00000000000E+00  0.11739521192E+04  0.11739521192E+04  0.50400001928E-02 0. -1.
        1   -1    0    0  501    0  0.00000000000E+00  0.00000000000E+00 -0.98920608629E+03  0.98920608630E+03  0.50400001928E-02 0.  1.
    10030    2    1    2    0    0  0.00000000000E+00  0.00000000000E+00  0.18474603293E+03  0.21631582055E+04  0.21552545848E+04 0.  0.
        3    1    3    3  502    0  0.43066943326E+03  0.93987753417E+02 -0.89457974364E+03  0.99728771499E+03  0.10100000352E+00 0.  1.
       -3    1    3    3    0  502 -0.43066943326E+03 -0.93987753417E+02  0.10793257766E+04  0.11658704905E+04  0.10100000352E+00 0. -1.
</event>
<event>
 5   0  0.8470971E-05  0.2258600E+04  0.7818609E-02  0.8494426E-01
       -1   -1    0    0    0  501  0.00000000000E+00  0.00000000000E+00  0.83739083488E+03  0.83739083490E+03  0.50400001928E-02 0.  1.
        1   -1    0    0  501    0  0.00000000000E+00  0.00000000000E+00 -0.15229670854E+04  0.15229670854E+04  0.50400001928E-02 0. -1.
    10030    2    1    2    0    0  0.00000000000E+00  0.00000000000E+00 -0.68557625055E+03  0.23603579203E+04  0.22586001675E+04 0.  0.
        2    1    3    3  502    0  0.44284950669E+03 -0.30525809158E+03 -0.13805112095E+04  0.14815901551E+04  0.25500000920E-02 0. -1.
       -2    1    3    3    0  502 -0.44284950669E+03  0.30525809158E+03  0.69493495897E+03  0.87876776525E+03  0.25500000920E-02 0.  1.
</event>
<event>
 5   0  0.8470971E-05  0.2227082E+04  0.7818609E-02  0.8507240E-01
        1   -1    0    0  501    0  0.00000000000E+00  0.00000000000E+00  0.17401988028E+04  0.17401988028E+04  0.50400001928E-02 0. -1.
       -1   -1    0    0    0  501  0.00000000000E+00  0.00000000000E+00 -0.71254689390E+03  0.71254689392E+03  0.50400001928E-02 0.  1.
    10030    2    1    2    0    0  0.00000000000E+00  0.00000000000E+00  0.10276519089E+04  0.24527456967E+04  0.22270817243E+04 0.  0.
        2    1    3    3  502    0  0.31912103529E+03  0.10317593963E+04  0.81262389012E+03  0.13515632704E+04  0.25500000920E-02 0.  1.
       -2    1    3    3    0  502 -0.31912103529E+03 -0.10317593963E+04  0.21502801873E+03  0.11011824263E+04  0.25500000920E-02 0. -1.
</event>
<event>
 5   0  0.7954459E-05  0.2145286E+04  0.7818609E-02  0.8541553E-01
       -1   -1    0    0    0  501  0.00000000000E+00  0.00000000000E+00  0.11868570383E+04  0.11868570383E+04  0.50400001928E-02 0.  1.
        1   -1    0    0  501    0  0.00000000000E+00  0.00000000000E+00 -0.96941981961E+03  0.96941981963E+03  0.50400001928E-02 0. -1.
    10030    2    1    2    0    0  0.00000000000E+00  0.00000000000E+00  0.21743721868E+03  0.21562768579E+04  0.21452857488E+04 0.  0.
        5    1    3    3  502    0  0.75665936134E+03  0.54760299548E+03  0.63880872560E+03  0.11315922886E+04  0.46999998093E+01 0.  1.
       -5    1    3    3    0  502 -0.75665936134E+03 -0.54760299548E+03 -0.42137150692E+03  0.10246845693E+04  0.46999998093E+01 0. -1.
</event>
<event>
 5   0  0.1754356E-04  0.1280778E+04  0.7818609E-02  0.9044948E-01
        2   -1    0    0  501    0  0.00000000000E+00  0.00000000000E+00  0.89545828729E+03  0.89545828730E+03  0.25500000920E-02 0. -1.
       -2   -1    0    0    0  501  0.00000000000E+00  0.00000000000E+00 -0.45797592026E+03  0.45797592027E+03  0.25500000920E-02 0.  1.
    10030    2    1    2    0    0  0.00000000000E+00  0.00000000000E+00  0.43748236703E+03  0.13534342076E+04  0.12807784089E+04 0.  0.
        1    1    3    3  502    0  0.18889048930E+03  0.60362408121E+03  0.11276932026E+03  0.64246289230E+03  0.50400001928E-02 0. -1.
       -1    1    3    3    0  502 -0.18889048930E+03 -0.60362408121E+03  0.32471304677E+03  0.71097131526E+03  0.50400001928E-02 0.  1.
</event>
<event>
 5   0  0.8470971E-05  0.2176320E+04  0.7818609E-02  0.8528349E-01
        1   -1    0    0  501    0  0.00000000000E+00  0.00000000000E+00  0.15932796570E+04  0.15932796570E+04  0.50400001928E-02 0. -1.
       -1   -1    0    0    0  501  0.00000000000E+00  0.00000000000E+00 -0.74317933722E+03  0.74317933723E+03  0.50400001928E-02 0.  1.
    10030    2    1    2    0    0  0.00000000000E+00  0.00000000000E+00  0.85010031975E+03  0.23364589942E+04  0.21763203068E+04 0.  0.
        2    1    3    3  502    0 -0.15308860847E+02 -0.95038874584E+03 -0.14366419076E+03  0.96130771824E+03  0.25500000920E-02 0.  1.
       -2    1    3    3    0  502  0.15308860847E+02  0.95038874584E+03  0.99376451051E+03  0.13751512760E+04  0.25500000920E-02 0. -1.
</event>
<event>
 5   0  0.8306787E-05  0.2203260E+04  0.7818609E-02  0.8517073E-01
       -1   -1    0    0    0  501  0.00000000000E+00  0.00000000000E+00  0.99136233285E+03  0.99136233286E+03  0.50400001928E-02 0.  1.
        1   -1    0    0  501    0  0.00000000000E+00  0.00000000000E+00 -0.12241622782E+04  0.12241622782E+04  0.50400001928E-02 0. -1.
    10030    2    1    2    0    0  0.00000000000E+00  0.00000000000E+00 -0.23279994539E+03  0.22155246111E+04  0.22032597413E+04 0.  0.
        1    1    3    3  502    0  0.69731791202E+03  0.70201574808E+03  0.37055808305E+03  0.10565943753E+04  0.50400001928E-02 0.  1.
       -1    1    3    3    0  502 -0.69731791202E+03 -0.70201574808E+03 -0.60335802844E+03  0.11589302358E+04  0.50400001928E-02 0. -1.
</event>
<event>
 5   0  0.1798917E-04  0.2426028E+04  0.7818609E-02  0.8429823E-01
        2   -1    0    0  501    0  0.00000000000E+00  0.00000000000E+00  0.16087543816E+04  0.16087543816E+04  0.25500000920E-02 0. -1.
       -2   -1    0    0    0  501  0.00000000000E+00  0.00000000000E+00 -0.91462245141E+03  0.91462245141E+03  0.25500000920E-02 0.  1.
    10030    2    1    2    0    0  0.00000000000E+00  0.00000000000E+00  0.69413193017E+03  0.25233768330E+04  0.24260279275E+04 0.  0.
        4    1    3    3  502    0 -0.15857340517E+03  0.10502273957E+04  0.95647571719E+03  0.14293251967E+04  0.12699999809E+01 0. -1.
       -4    1    3    3    0  502  0.15857340517E+03 -0.10502273957E+04 -0.26234378702E+03  0.10940516363E+04  0.12699999809E+01 0.  1.
</event>
<event>
 5   0  0.7954459E-05  0.2261958E+04  0.7818609E-02  0.8493074E-01
        1   -1    0    0  501    0  0.00000000000E+00  0.00000000000E+00  0.16487711953E+04  0.16487711953E+04  0.50400001928E-02 0. -1.
       -1   -1    0    0    0  501  0.00000000000E+00  0.00000000000E+00 -0.77579779496E+03  0.77579779498E+03  0.50400001928E-02 0.  1.
    10030    2    1    2    0    0  0.00000000000E+00  0.00000000000E+00  0.87297340035E+03  0.24245689903E+04  0.22619576103E+04 0.  0.
        5    1    3    3  502    0  0.40852369762E+03 -0.93927071534E+03 -0.77539864017E+02  0.10272076756E+04  0.46999998093E+01 0.  1.
       -5    1    3    3    0  502 -0.40852369762E+03  0.93927071534E+03  0.95051326437E+03  0.13973613147E+04  0.46999998093E+01 0. -1.
</event>
<event>
 5   0  0.6250625E-05  0.1598539E+04  0.7818609E-02  0.8821446E-01
       -3   -1    0    0    0  501  0.00000000000E+00  0.00000000000E+00  0.69424149241E+03  0.69424149976E+03  0.10100000352E+00 0.  1.
        3   -1    0    0  501    0  0.00000000000E+00  0.00000000000E+00 -0.92018689476E+03  0.92018690030E+03  0.10100000352E+00 0. -1.
    10030    2    1    2    0    0  0.00000000000E+00  0.00000000000E+00 -0.22594540234E+03  0.16144284001E+04  0.15985392501E+04 0.  0.
        2    1    3    3  502    0 -0.67397665479E+03  0.24579545355E+01 -0.54687245747E+03  0.86794012322E+03  0.25500000920E-02 0. -1.
       -2    1    3    3    0  502  0.67397665479E+03 -0.24579545355E+01  0.32092705513E+03  0.74648827684E+03  0.25500000920E-02 0.  1.
</event>
<event>
 5   0  0.8470971E-05  0.2013268E+04  0.7818609E-02  0.8600442E-01
       -1   -1    0    0    0  501  0.00000000000E+00  0.00000000000E+00  0.56512305206E+03  0.56512305208E+03  0.50400001928E-02 0.  1.
        1   -1    0    0  501    0  0.00000000000E+00  0.00000000000E+00 -0.17930824092E+04  0.17930824092E+04  0.50400001928E-02 0. -1.
    10030    2    1    2    0    0  0.00000000000E+00  0.00000000000E+00 -0.12279593571E+04  0.23582054613E+04  0.20132681925E+04 0.  0.
        2    1    3    3  502    0  0.61676154414E+03 -0.70324892388E+03 -0.17828455470E+03  0.95222856170E+03  0.25500000920E-02 0.  1.
       -2    1    3    3    0  502 -0.61676154414E+03  0.70324892388E+03 -0.10496748024E+04  0.14059768996E+04  0.25500000920E-02 0. -1.
</event>
<event>
 5   0  0.1754356E-04  0.2135034E+04  0.7818609E-02  0.8545966E-01
       -2   -1    0    0    0  501  0.00000000000E+00  0.00000000000E+00  0.11700615709E+04  0.11700615709E+04  0.25500000920E-02 0. -1.
        2   -1    0    0  501    0  0.00000000000E+00  0.00000000000E+00 -0.97395931129E+03  0.97395931130E+03  0.25500000920E-02 0.  1.
    10030    2    1    2    0    0  0.00000000000E+00  0.00000000000E+00  0.19610225959E+03  0.21440208822E+04  0.21350338281E+04 0.  0.
        1    1    3    3  502    0 -0.17850772310E+03  0.54064052371E+03  0.10048667077E+04  0.11549520698E+04  0.50400001928E-02 0. -1.
       -1    1    3    3    0  502  0.17850772310E+03 -0.54064052371E+03 -0.80876444816E+03  0.98906881242E+03  0.50400001928E-02 0.  1.
</event>
<event>
 5   0  0.8784659E-05  0.2014958E+04  0.7818609E-02  0.8599659E-01
       -1   -1    0    0    0  501  0.00000000000E+00  0.00000000000E+00  0.75776391411E+03  0.75776391413E+03  0.50400001928E-02 0. -1.
        1   -1    0    0  501    0  0.00000000000E+00  0.00000000000E+00 -0.13394860522E+04  0.13394860522E+04  0.50400001928E-02 0.  1.
    10030    2    1    2    0    0  0.00000000000E+00  0.00000000000E+00 -0.58172213808E+03  0.20972499663E+04  0.20149582565E+04 0.  0.
        4    1    3    3  502    0  0.30274747893E+03 -0.39436074653E+03 -0.12029105893E+04  0.13016036006E+04  0.12699999809E+01 0.  1.
       -4    1    3    3    0  502 -0.30274747893E+03  0.39436074653E+03  0.62118845123E+03  0.79564636569E+03  0.12699999809E+01 0. -1.
</event>
<event>
 5   0  0.1754356E-04  0.2212436E+04  0.7818609E-02  0.8513270E-01
        2   -1    0    0  501    0  0.00000000000E+00  0.00000000000E+00  0.24242655963E+04  0.24242655963E+04  0.25500000920E-02 0. -1.
       -2   -1    0    0    0  501  0.00000000000E+00  0.00000000000E+00 -0.50477902578E+03  0.50477902579E+03  0.25500000920E-02 0.  1.
    10030    2    1    2    0    0  0.00000000000E+00  0.00000000000E+00  0.19194865705E+04  0.29290446221E+04  0.22124361468E+04 0.  0.
        1    1    3    3  502    0 -0.47961440530E+03 -0.59261172890E+03 -0.10144326391E+03  0.76909646653E+03  0.50400001928E-02 0.  1.
       -1    1    3    3    0  502  0.47961440530E+03  0.59261172890E+03  0.20209298344E+04  0.21599481555E+04  0.50400001928E-02 0. -1.
</event>
<event>
 5   0  0.1733962E-04  0.1769199E+04  0.7818609E-02  0.8722853E-01
        2   -1    0    0  501    0  0.00000000000E+00  0.00000000000E+00  0.14259885381E+04  0.14259885381E+04  0.25500000920E-02 0.  1.
       -2   -1    0    0    0  501  0.00000000000E+00  0.00000000000E+00 -0.54875372833E+03  0.54875372834E+03  0.25500000920E-02 0. -1.
    10030    2    1    2    0    0  0.00000000000E+00  0.00000000000E+00  0.87723480981E+03  0.19747422665E+04  0.17691992843E+04 0.  0.
        3    1    3    3  502    0 -0.69384925942E+02 -0.81775323822E+02 -0.54147064303E+03  0.55198907508E+03  0.10100000352E+00 0. -1.
       -3    1    3    3    0  502  0.69384925942E+02  0.81775323822E+02  0.14187054528E+04  0.14227531914E+04  0.10100000352E+00 0.  1.
</event>
<event>
 5   0  0.1733962E-04  0.2149693E+04  0.7818609E-02  0.8539664E-01
        2   -1    0    0  501    0  0.00000000000E+00  0.00000000000E+00  0.14261554987E+04  0.14261554987E+04  0.25500000920E-02 0.  1.
       -2   -1    0    0    0  501  0.00000000000E+00  0.00000000000E+00 -0.81007624233E+03  0.81007624233E+03  0.25500000920E-02 0. -1.
    10030    2    1    2    0    0  0.00000000000E+00  0.00000000000E+00  0.61607925633E+03  0.22362317410E+04  0.21496927104E+04 0.  0.
        3    1    3    3  502    0 -0.62225078514E+03  0.84610973941E+03  0.70375863494E+02  0.10526397784E+04  0.10100000352E+00 0. -1.
       -3    1    3    3    0  502  0.62225078514E+03 -0.84610973941E+03  0.54570339284E+03  0.11835919626E+04  0.10100000352E+00 0.  1.
</event>
<event>
 5   0  0.8306787E-05  0.1998959E+04  0.7818609E-02  0.8607108E-01
        1   -1    0    0  501    0  0.00000000000E+00  0.00000000000E+00  0.15573231659E+04  0.15573231659E+04  0.50400001928E-02 0. -1.
       -1   -1    0    0    0  501  0.00000000000E+00  0.00000000000E+00 -0.64145920918E+03  0.64145920920E+03  0.50400001928E-02 0.  1.
    10030    2    1    2    0    0  0.00000000000E+00  0.00000000000E+00  0.91586395675E+03  0.21987823751E+04  0.19989590156E+04 0.  0.
        1    1    3    3  502    0  0.43483313397E+03  0.76498666495E+03  0.97931342465E+03  0.13165634188E+04  0.50400001928E-02 0. -1.
       -1    1    3    3    0  502 -0.43483313397E+03 -0.76498666495E+03 -0.63449467904E+02  0.88221895636E+03  0.50400001928E-02 0.  1.
</event>
<event>
 5   0  0.7954459E-05  0.1319378E+04  0.7818609E-02  0.9014338E-01
        1   -1    0    0  501    0  0.00000000000E+00  0.00000000000E+00  0.88649420351E+03  0.88649420352E+03  0.50400001928E-02 0. -1.
       -1   -1    0    0    0  501  0.00000000000E+00  0.00000000000E+00 -0.49091087849E+03  0.49091087851E+03  0.50400001928E-02 0.  1.
    10030    2    1    2    0    0  0.00000000000E+00  0.00000000000E+00  0.39558332502E+03  0.13774050820E+04  0.13193781084E+04 0.  0.
        5    1    3    3  502    0 -0.42601418520E+03  0.47270951448E+03  0.37929177842E+03  0.74082839729E+03  0.46999998093E+01 0. -1.
       -5    1    3    3    0  502  0.42601418520E+03 -0.47270951448E+03  0.16291546603E+02  0.63657668474E+03  0.46999998093E+01 0.  1.
</event>
<event>
 5   0  0.1733962E-04  0.1182893E+04  0.7818609E-02  0.9127964E-01
        2   -1    0    0  501    0  0.00000000000E+00  0.00000000000E+00  0.11873484152E+04  0.11873484152E+04  0.25500000920E-02 0. -1.
       -2   -1    0    0    0  501  0.00000000000E+00  0.00000000000E+00 -0.29461342691E+03  0.29461342692E+03  0.25500000920E-02 0.  1.
    10030    2    1    2    0    0  0.00000000000E+00  0.00000000000E+00  0.89273498826E+03  0.14819618421E+04  0.11828927010E+04 0.  0.
        3    1    3    3  502    0 -0.36583814869E+03 -0.46389796918E+03  0.48112978616E+03  0.76192175331E+03  0.10100000352E+00 0.  1.
       -3    1    3    3    0  502  0.36583814869E+03  0.46389796918E+03  0.41160520210E+03  0.72004008878E+03  0.10100000352E+00 0. -1.
</event>
<event>
 5   0  0.7954459E-05  0.2040869E+04  0.7818609E-02  0.8587748E-01
        1   -1    0    0  501    0  0.00000000000E+00  0.00000000000E+00  0.78752884969E+03  0.78752884970E+03  0.50400001928E-02 0.  1.
       -1   -1    0    0    0  501  0.00000000000E+00  0.00000000000E+00 -0.13222207035E+04  0.13222207036E+04  0.50400001928E-02 0. -1.
    10030    2    1    2    0    0  0.00000000000E+00  0.00000000000E+00 -0.53469185386E+03  0.21097495533E+04  0.20408693733E+04 0.  0.
        5    1    3    3  502    0  0.88331650092E+03  0.37233768237E+03 -0.62898348374E+03  0.11465276723E+04  0.46999998093E+01 0. -1.
       -5    1    3    3    0  502 -0.88331650092E+03 -0.37233768237E+03  0.94291629882E+02  0.96322188097E+03  0.46999998093E+01 0.  1.
</event>
<event>
 5   0  0.1805501E-04  0.2108599E+04  0.7818609E-02  0.8557465E-01
       -2   -1    0    0    0  501  0.00000000000E+00  0.00000000000E+00  0.14321818929E+04  0.14321818929E+04  0.25500000920E-02 0.  1.
        2   -1    0    0  501    0  0.00000000000E+00  0.00000000000E+00 -0.77612148095E+03  0.77612148096E+03  0.25500000920E-02 0. -1.
    10030    2    1    2    0    0  0.00000000000E+00  0.00000000000E+00  0.65606041192E+03  0.22083033738E+04  0.21085987117E+04 0.  0.
        2    1    3    3  502    0  0.82876485762E+03  0.65167540206E+03  0.32395886462E+03  0.11029421403E+04  0.25500000920E-02 0. -1.
       -2    1    3    3    0  502 -0.82876485762E+03 -0.65167540206E+03  0.33210154730E+03  0.11053612335E+04  0.25500000920E-02 0.  1.
</event>
<event>
 5   0  0.8602414E-05  0.2211597E+04  0.7818609E-02  0.8513617E-01
        1   -1    0    0  501    0  0.00000000000E+00  0.00000000000E+00  0.14393730028E+04  0.14393730028E+04  0.50400001928E-02 0.  1.
       -1   -1    0    0    0  501  0.00000000000E+00  0.00000000000E+00 -0.84952964258E+03  0.84952964259E+03  0.50400001928E-02 0. -1.
    10030    2    1    2    0    0  0.00000000000E+00  0.00000000000E+00  0.58984336026E+03  0.22889026454E+04  0.22115967378E+04 0.  0.
        3    1    3    3  502    0 -0.10296454601E+04  0.33619938512E+03  0.64449023004E+02  0.10850592089E+04  0.10100000352E+00 0. -1.
       -3    1    3    3    0  502  0.10296454601E+04 -0.33619938512E+03  0.52539433726E+03  0.12038434366E+04  0.10100000352E+00 0.  1.
</event>
<event>
 5   0  0.8306787E-05  0.1136235E+04  0.7818609E-02  0.9170577E-01
        1   -1    0    0  501    0  0.00000000000E+00  0.00000000000E+00  0.13623358499E+04  0.13623358499E+04  0.50400001928E-02 0. -1.
       -1   -1    0    0    0  501  0.00000000000E+00  0.00000000000E+00 -0.23691465094E+03  0.23691465099E+03  0.50400001928E-02 0.  1.
    10030    2    1    2    0    0  0.00000000000E+00  0.00000000000E+00  0.11254211990E+04  0.15992505009E+04  0.11362346983E+04 0.  0.
        1    1    3    3  502    0  0.14564924090E+03  0.15679956587E+03 -0.17801102988E+03  0.27836618332E+03  0.50400001928E-02 0.  1.
       -1    1    3    3    0  502 -0.14564924090E+03 -0.15679956587E+03  0.13034322289E+04  0.13208843176E+04  0.50400001928E-02 0. -1.
</event>
<event>
 5   0  0.8784659E-05  0.1975665E+04  0.7818609E-02  0.8618083E-01
       -1   -1    0    0    0  501  0.00000000000E+00  0.00000000000E+00  0.64467209088E+03  0.64467209090E+03  0.50400001928E-02 0. -1.
        1   -1    0    0  501    0  0.00000000000E+00  0.00000000000E+00 -0.15136586408E+04  0.15136586408E+04  0.50400001928E-02 0.  1.
    10030    2    1    2    0    0  0.00000000000E+00  0.00000000000E+00 -0.86898654991E+03  0.21583307317E+04  0.19756654381E+04 0.  0.
        4    1    3    3  502    0 -0.57849275256E+02  0.92241603022E+03 -0.81546818253E+03  0.12325533826E+04  0.12699999809E+01 0.  1.
       -4    1    3    3    0  502  0.57849275256E+02 -0.92241603022E+03 -0.53518367378E+02  0.92577734904E+03  0.12699999809E+01 0. -1.
</event>
<event>
 5   0  0.1798917E-04  0.2200499E+04  0.7818609E-02  0.8518220E-01
       -2   -1    0    0    0  501  0.00000000000E+00  0.00000000000E+00  0.65365694465E+03  0.65365694466E+03  0.25500000920E-02 0. -1.
        2   -1    0    0  501    0  0.00000000000E+00  0.00000000000E+00 -0.18519637849E+04  0.18519637849E+04  0.25500000920E-02 0.  1.
    10030    2    1    2    0    0  0.00000000000E+00  0.00000000000E+00 -0.11983068402E+04  0.25056207296E+04  0.22004990245E+04 0.  0.
        4    1    3    3  502    0  0.65623649385E+03  0.74759285488E+03 -0.63854768232E+02  0.99680512481E+03  0.12699999809E+01 0. -1.
       -4    1    3    3    0  502 -0.65623649385E+03 -0.74759285488E+03 -0.11344520720E+04  0.15088156047E+04  0.12699999809E+01 0.  1.
</event>
<event>
 5   0  0.8602414E-05  0.2061859E+04  0.7818609E-02  0.8578233E-01
        1   -1    0    0  501    0  0.00000000000E+00  0.00000000000E+00  0.16971329483E+04  0.16971329483E+04  0.50400001928E-02 0. -1.
       -1   -1    0    0    0  501  0.00000000000E+00  0.00000000000E+00 -0.62624186519E+03  0.62624186521E+03  0.50400001928E-02 0.  1.
    10030    2    1    2    0    0  0.00000000000E+00  0.00000000000E+00  0.10708910831E+04  0.23233748135E+04  0.20618590670E+04 0.  0.
        3    1    3    3  502    0 -0.30046668050E+03 -0.60645580068E+03  0.14117340167E+04  0.15655867297E+04  0.10100000352E+00 0.  1.
       -3    1    3    3    0  502  0.30046668050E+03  0.60645580068E+03 -0.34084293361E+03  0.75778808374E+03  0.10100000352E+00 0. -1.
</event>
<event>
 5   0  0.7954459E-05  0.2230284E+04  0.7818609E-02  0.8505928E-01
        1   -1    0    0  501    0  0.00000000000E+00  0.00000000000E+00  0.10094397312E+04  0.10094397312E+04  0.50400001928E-02 0. -1.
       -1   -1    0    0    0  501  0.00000000000E+00  0.00000000000E+00 -0.12319131049E+04  0.12319131049E+04  0.50400001928E-02 0.  1.
    10030    2    1    2    0    0  0.00000000000E+00  0.00000000000E+00 -0.22247337366E+03  0.22413528361E+04  0.22302843168E+04 0.  0.
        5    1    3    3  502    0 -0.33992315921E+03 -0.10465234502E+04 -0.29313456311E+03  0.11387313327E+04  0.46999998093E+01 0.  1.
       -5    1    3    3    0  502  0.33992315921E+03  0.10465234502E+04  0.70661189445E+02  0.11026215034E+04  0.46999998093E+01 0. -1.
</event>
<event>
 5   0  0.8784659E-05  0.2210788E+04  0.7818609E-02  0.8513951E-01
       -1   -1    0    0    0  501  0.00000000000E+00  0.00000000000E+00  0.70088618857E+03  0.70088618859E+03  0.50400001928E-02 0.  1.
        1   -1    0    0  501    0  0.00000000000E+00  0.00000000000E+00 -0.17433591979E+04  0.17433591979E+04  0.50400001928E-02 0. -1.
    10030    2    1    2    0    0  0.00000000000E+00  0.00000000000E+00 -0.10424730093E+04  0.24442453865E+04  0.22107884418E+04 0.  0.
        4    1    3    3  502    0  0.36664579828E+03 -0.25617596763E+03 -0.16388431172E+04  0.16987829889E+04  0.12699999809E+01 0. -1.
       -4    1    3    3    0  502 -0.36664579828E+03  0.25617596763E+03  0.59637010784E+03  0.74546239759E+03  0.12699999809E+01 0.  1.
</event>
<event>
 5   0  0.1805501E-04  0.2119197E+04  0.7818609E-02  0.8552834E-01
       -2   -1    0    0    0  501  0.00000000000E+00  0.00000000000E+00  0.17454187802E+04  0.17454187802E+04  0.25500000920E-02 0. -1.
        2   -1    0    0  501    0  0.00000000000E+00  0.00000000000E+00 -0.64325449932E+03  0.64325449932E+03  0.25500000920E-02 0.  1.
    10030    2    1    2    0    0  0.00000000000E+00  0.00000000000E+00  0.11021642809E+04  0.23886732795E+04  0.21191965303E+04 0.  0.
        2    1    3    3  502    0 -0.47331035334E+03  0.72868420397E+03  0.12346143410E+04  0.15097271047E+04  0.25500000920E-02 0. -1.
       -2    1    3    3    0  502  0.47331035334E+03 -0.72868420397E+03 -0.13245006016E+03  0.87894617477E+03  0.25500000920E-02 0.  1.
</event>
<event>
 5   0  0.1798917E-04  0.2161243E+04  0.7818609E-02  0.8534735E-01
       -2   -1    0    0    0  501  0.00000000000E+00  0.00000000000E+00  0.10178174421E+04  0.10178174421E+04  0.25500000920E-02 0.  1.
        2   -1    0    0  501    0  0.00000000000E+00  0.00000000000E+00 -0.11473009998E+04  0.11473009998E+04  0.25500000920E-02 0. -1.
    10030    2    1    2    0    0  0.00000000000E+00  0.00000000000E+00 -0.12948355773E+03  0.21651184419E+04  0.21612431321E+04 0.  0.
        4    1    3    3  502    0 -0.68371234903E+03  0.35121122796E+03 -0.82566246096E+03  0.11280656077E+04  0.12699999809E+01 0. -1.
       -4    1    3    3    0  502  0.68371234903E+03 -0.35121122796E+03  0.69617890323E+03  0.10370528343E+04  0.12699999809E+01 0.  1.
</event>
<event>
 5   0  0.1798917E-04  0.2284582E+04  0.7818609E-02  0.8484025E-01
        2   -1    0    0  501    0  0.00000000000E+00  0.00000000000E+00  0.21502579828E+04  0.21502579828E+04  0.25500000920E-02 0.  1.
       -2   -1    0    0    0  501  0.00000000000E+00  0.00000000000E+00 -0.60682408159E+03  0.60682408159E+03  0.25500000920E-02 0. -1.
    10030    2    1    2    0    0  0.00000000000E+00  0.00000000000E+00  0.15434339012E+04  0.27570820644E+04  0.22845816471E+04 0.  0.
        4    1    3    3  502    0 -0.55818392924E+03 -0.14929707028E+03 -0.41745709793E+03  0.71283304887E+03  0.12699999809E+01 0. -1.
       -4    1    3    3    0  502  0.55818392924E+03  0.14929707028E+03  0.19608909991E+04  0.20442490155E+04  0.12699999809E+01 0.  1.
</event>
<event>
 5   0  0.8784659E-05  0.2218375E+04  0.7818609E-02  0.8510819E-01
        1   -1    0    0  501    0  0.00000000000E+00  0.00000000000E+00  0.14388602537E+04  0.14388602537E+04  0.50400001928E-02 0.  1.
       -1   -1    0    0    0  501  0.00000000000E+00  0.00000000000E+00 -0.85504986100E+03  0.85504986101E+03  0.50400001928E-02 0. -1.
    10030    2    1    2    0    0  0.00000000000E+00  0.00000000000E+00  0.58381039269E+03  0.22939101147E+04  0.22183753153E+04 0.  0.
        4    1    3    3  502    0 -0.47938057825E+03  0.70511455373E+03  0.10255000793E+04  0.13336582390E+04  0.12699999809E+01 0. -1.
       -4    1    3    3    0  502  0.47938057825E+03 -0.70511455373E+03 -0.44168968666E+03  0.96025187575E+03  0.12699999809E+01 0.  1.
</event>
<event>
 5   0  0.1805501E-04  0.2222288E+04  0.7818609E-02  0.8509208E-01
        2   -1    0    0  501    0  0.00000000000E+00  0.00000000000E+00  0.20410170034E+04  0.20410170034E+04  0.25500000920E-02 0.  1.
       -2   -1    0    0    0  501  0.00000000000E+00  0.00000000000E+00 -0.60491435541E+03  0.60491435542E+03  0.25500000920E-02 0. -1.
    10030    2    1    2    0    0  0.00000000000E+00  0.00000000000E+00  0.14361026480E+04  0.26459313588E+04  0.22222875467E+04 0.  0.
        2    1    3    3  502    0  0.17088410881E+03 -0.48479606846E+03 -0.45483621656E+03  0.68637059271E+03  0.25500000920E-02 0. -1.
       -2    1    3    3    0  502 -0.17088410881E+03  0.48479606846E+03  0.18909388646E+04  0.19595607661E+04  0.25500000920E-02 0.  1.
</event>
<event>
 5   0  0.1798917E-04  0.2175657E+04  0.7818609E-02  0.8528629E-01
        2   -1    0    0  501    0  0.00000000000E+00  0.00000000000E+00  0.12107314426E+04  0.12107314426E+04  0.25500000920E-02 0. -1.
       -2   -1    0    0    0  501  0.00000000000E+00  0.00000000000E+00 -0.97740165229E+03  0.97740165229E+03  0.25500000920E-02 0.  1.
    10030    2    1    2    0    0  0.00000000000E+00  0.00000000000E+00  0.23332979026E+03  0.21881330948E+04  0.21756570616E+04 0.  0.
        4    1    3    3  502    0 -0.33131819866E+03 -0.13795829800E+03 -0.91614403149E+03  0.98393380879E+03  0.12699999809E+01 0.  1.
       -4    1    3    3    0  502  0.33131819866E+03  0.13795829800E+03  0.11494738218E+04  0.12041992861E+04  0.12699999809E+01 0. -1.
</event>
<event>
 5   0  0.1680258E-04  0.2191710E+04  0.7818609E-02  0.8521886E-01
       -2   -1    0    0    0  501  0.00000000000E+00  0.00000000000E+00  0.82205176793E+03  0.82205176794E+03  0.25500000920E-02 0. -1.
        2   -1    0    0  501    0  0.00000000000E+00  0.00000000000E+00 -0.14608551457E+04  0.14608551457E+04  0.25500000920E-02 0.  1.
    10030    2    1    2    0    0  0.00000000000E+00  0.00000000000E+00 -0.63880337772E+03  0.22829069136E+04  0.21917103414E+04 0.  0.
        5    1    3    3  502    0 -0.21736294133E+03 -0.50928176611E+03 -0.13044043650E+04  0.14170770632E+04  0.46999998093E+01 0.  1.
       -5    1    3    3    0  502  0.21736294133E+03  0.50928176611E+03  0.66560098730E+03  0.86582985040E+03  0.46999998093E+01 0. -1.
</event>
<event>
 5   0  0.6250625E-05  0.1922062E+04  0.7818609E-02  0.8643952E-01
        4   -1    0    0  501    0  0.00000000000E+00  0.00000000000E+00  0.78293711135E+03  0.78293814138E+03  0.12699999809E+01 0. -1.
       -4   -1    0    0    0  501  0.00000000000E+00  0.00000000000E+00 -0.11796336571E+04  0.11796343407E+04  0.12699999809E+01 0.  1.
    10030    2    1    2    0    0  0.00000000000E+00  0.00000000000E+00 -0.39669654574E+03  0.19625724821E+04  0.19220620693E+04 0.  0.
        4    1    3    3  502    0 -0.15404007594E+03 -0.91328943311E+03  0.63479929091E+02  0.92836267047E+03  0.12699999809E+01 0. -1.
       -4    1    3    3    0  502  0.15404007594E+03  0.91328943311E+03 -0.46017647483E+03  0.10342098116E+04  0.12699999809E+01 0.  1.
</event>
<event>
 5   0  0.1680258E-04  0.2179524E+04  0.7818609E-02  0.8526999E-01
       -2   -1    0    0    0  501  0.00000000000E+00  0.00000000000E+00  0.99887767792E+03  0.99887767793E+03  0.25500000920E-02 0.  1.
        2   -1    0    0  501    0  0.00000000000E+00  0.00000000000E+00 -0.11889158474E+04  0.11889158474E+04  0.25500000920E-02 0. -1.
    10030    2    1    2    0    0  0.00000000000E+00  0.00000000000E+00 -0.19003816946E+03  0.21877935253E+04  0.21795242608E+04 0.  0.
        5    1    3    3  502    0 -0.83775579947E+03  0.44184769980E+03  0.44600193234E+03  0.10469020886E+04  0.46999998093E+01 0. -1.
       -5    1    3    3    0  502  0.83775579947E+03 -0.44184769980E+03 -0.63604010180E+03  0.11408914368E+04  0.46999998093E+01 0.  1.
</event>
<event>
 5   0  0.6250625E-05  0.2233764E+04  0.7818609E-02  0.8504505E-01
       -3   -1    0    0    0  501  0.00000000000E+00  0.00000000000E+00  0.97369163201E+03  0.97369163725E+03  0.10100000352E+00 0.  1.
        3   -1    0    0  501    0  0.00000000000E+00  0.00000000000E+00 -0.12811298853E+04  0.12811298892E+04  0.10100000352E+00 0. -1.
    10030    2    1    2    0    0  0.00000000000E+00  0.00000000000E+00 -0.30743825326E+03  0.22548215265E+04  0.22337640513E+04 0.  0.
        4    1    3    3  502    0 -0.26697086110E+03 -0.40555368462E+03 -0.11690222694E+04  0.12658443470E+04  0.12699999809E+01 0. -1.
       -4    1    3    3    0  502  0.26697086110E+03  0.40555368462E+03  0.86158401610E+03  0.98897717946E+03  0.12699999809E+01 0.  1.
</event>
<event>
 5   0  0.8470971E-05  0.2188029E+04  0.7818609E-02  0.8523427E-01
        1   -1    0    0  501    0  0.00000000000E+00  0.00000000000E+00  0.11865319499E+04  0.11865319499E+04  0.50400001928E-02 0. -1.
       -1   -1    0    0    0  501  0.00000000000E+00  0.00000000000E+00 -0.10087108357E+04  0.10087108358E+04  0.50400001928E-02 0.  1.
    10030    2    1    2    0    0  0.00000000000E+00  0.00000000000E+00  0.17782111419E+03  0.21952427857E+04  0.21880289165E+04 0.  0.
        2    1    3    3  502    0  0.10177065061E+04  0.35032519292E+03  0.28555001066E+03  0.11135497662E+04  0.25500000920E-02 0. -1.
       -2    1    3    3    0  502 -0.10177065061E+04 -0.35032519292E+03 -0.10772889647E+03  0.10816930195E+04  0.25500000920E-02 0.  1.
</event>
<event>
 5   0  0.1754356E-04  0.2217921E+04  0.7818609E-02  0.8511006E-01
        2   -1    0    0  501    0  0.00000000000E+00  0.00000000000E+00  0.29132906372E+04  0.29132906372E+04  0.25500000920E-02 0.  1.
       -2   -1    0    0    0  501  0.00000000000E+00  0.00000000000E+00 -0.42213190256E+03  0.42213190257E+03  0.25500000920E-02 0. -1.
    10030    2    1    2    0    0  0.00000000000E+00  0.00000000000E+00  0.24911587346E+04  0.33354225398E+04  0.22179205751E+04 0.  0.
        1    1    3    3  502    0  0.54315022327E+03 -0.88561147996E+03  0.18289361438E+04  0.21034084902E+04  0.50400001928E-02 0.  1.
       -1    1    3    3    0  502 -0.54315022327E+03  0.88561147996E+03  0.66222259080E+03  0.12320140495E+04  0.50400001928E-02 0. -1.
</event>
<event>
 5   0  0.8784659E-05  0.2212453E+04  0.7818609E-02  0.8513263E-01
        1   -1    0    0  501    0  0.00000000000E+00  0.00000000000E+00  0.98928760370E+03  0.98928760371E+03  0.50400001928E-02 0. -1.
       -1   -1    0    0    0  501  0.00000000000E+00  0.00000000000E+00 -0.12369880396E+04  0.12369880396E+04  0.50400001928E-02 0.  1.
    10030    2    1    2    0    0  0.00000000000E+00  0.00000000000E+00 -0.24770043586E+03  0.22262756433E+04  0.22124528772E+04 0.  0.
        4    1    3    3  502    0  0.29700283062E+03  0.62250243207E+03 -0.99413254380E+03  0.12099673908E+04  0.12699999809E+01 0.  1.
       -4    1    3    3    0  502 -0.29700283062E+03 -0.62250243207E+03  0.74643210794E+03  0.10163082524E+04  0.12699999809E+01 0. -1.
</event>
<event>
 5   0  0.1733962E-04  0.2192797E+04  0.7818609E-02  0.8521432E-01
        2   -1    0    0  501    0  0.00000000000E+00  0.00000000000E+00  0.21890879600E+04  0.21890879600E+04  0.25500000920E-02 0. -1.
       -2   -1    0    0    0  501  0.00000000000E+00  0.00000000000E+00 -0.54912798428E+03  0.54912798428E+03  0.25500000920E-02 0.  1.
    10030    2    1    2    0    0  0.00000000000E+00  0.00000000000E+00  0.16399599757E+04  0.27382159442E+04  0.21927968067E+04 0.  0.
        3    1    3    3  502    0 -0.77992359412E+03 -0.66630751940E+03  0.13033585959E+04  0.16586109136E+04  0.10100000352E+00 0. -1.
       -3    1    3    3    0  502  0.77992359412E+03  0.66630751940E+03  0.33660137980E+03  0.10796050306E+04  0.10100000352E+00 0.  1.
</event>
<event>
 5   0  0.7954459E-05  0.2172160E+04  0.7818609E-02  0.8530106E-01
        1   -1    0    0  501    0  0.00000000000E+00  0.00000000000E+00  0.19862285601E+04  0.19862285601E+04  0.50400001928E-02 0. -1.
       -1   -1    0    0    0  501  0.00000000000E+00  0.00000000000E+00 -0.59387398792E+03  0.59387398794E+03  0.50400001928E-02 0.  1.
    10030    2    1    2    0    0  0.00000000000E+00  0.00000000000E+00  0.13923545722E+04  0.25801025480E+04  0.21721597326E+04 0.  0.
        5    1    3    3  502    0  0.62484955905E+03 -0.57531355853E+03 -0.10778758764E+03  0.85619093438E+03  0.46999998093E+01 0. -1.
       -5    1    3    3    0  502 -0.62484955905E+03  0.57531355853E+03  0.15001421598E+04  0.17239116137E+04  0.46999998093E+01 0.  1.
</event>
<event>
 5   0  0.8602414E-05  0.2202881E+04  0.7818609E-02  0.8517230E-01
       -1   -1    0    0    0  501  0.00000000000E+00  0.00000000000E+00  0.63131838850E+03  0.63131838852E+03  0.50400001928E-02 0. -1.
        1   -1    0    0  501    0  0.00000000000E+00  0.00000000000E+00 -0.19216475994E+04  0.19216475994E+04  0.50400001928E-02 0.  1.
    10030    2    1    2    0    0  0.00000000000E+00  0.00000000000E+00 -0.12903292109E+04  0.25529659879E+04  0.22028812639E+04 0.  0.
        3    1    3    3  502    0 -0.72594607195E+03 -0.77432810459E+03 -0.98619034868E+03  0.14488454462E+04  0.10100000352E+00 0.  1.
       -3    1    3    3    0  502  0.72594607195E+03  0.77432810459E+03 -0.30413886222E+03  0.11041205417E+04  0.10100000352E+00 0. -1.
</event>
<event>
 5   0  0.6250625E-05  0.2093164E+04  0.7818609E-02  0.8564261E-01
        3   -1    0    0  501    0  0.00000000000E+00  0.00000000000E+00  0.17149620849E+04  0.17149620878E+04  0.10100000352E+00 0.  1.
       -3   -1    0    0    0  501  0.00000000000E+00  0.00000000000E+00 -0.63869294872E+03  0.63869295671E+03  0.10100000352E+00 0. -1.
    10030    2    1    2    0    0  0.00000000000E+00  0.00000000000E+00  0.10762691361E+04  0.23536550445E+04  0.20931643068E+04 0.  0.
        5    1    3    3  502    0  0.16331977699E+03  0.22385546913E+03  0.16729516647E+04  0.16957517457E+04  0.46999998093E+01 0.  1.
       -5    1    3    3    0  502 -0.16331977699E+03 -0.22385546913E+03 -0.59668252861E+03  0.65790329879E+03  0.46999998093E+01 0. -1.
</event>
<event>
 5   0  0.1805501E-04  0.2182016E+04  0.7818609E-02  0.8525951E-01
       -2   -1    0    0    0  501  0.00000000000E+00  0.00000000000E+00  0.69075655777E+03  0.69075655778E+03  0.25500000920E-02 0.  1.
        2   -1    0    0  501    0  0.00000000000E+00  0.00000000000E+00 -0.17231814098E+04  0.17231814098E+04  0.25500000920E-02 0. -1.
    10030    2    1    2    0    0  0.00000000000E+00  0.00000000000E+00 -0.10324248520E+04  0.24139379676E+04  0.21820163694E+04 0.  0.
        2    1    3    3  502    0  0.42931558009E+03  0.73341077781E+03  0.24068214685E+03  0.88325032247E+03  0.25500000920E-02 0.  1.
       -2    1    3    3    0  502 -0.42931558009E+03 -0.73341077781E+03 -0.12731069989E+04  0.15306876451E+04  0.25500000920E-02 0. -1.
</event>
<event>
 5   0  0.1680258E-04  0.1127728E+04  0.7818609E-02  0.9178580E-01
       -2   -1    0    0    0  501  0.00000000000E+00  0.00000000000E+00  0.16203755303E+03  0.16203755305E+03  0.25500000920E-02 0. -1.
        2   -1    0    0  501    0  0.00000000000E+00  0.00000000000E+00 -0.19621542457E+04  0.19621542458E+04  0.25500000920E-02 0.  1.
    10030    2    1    2    0    0  0.00000000000E+00  0.00000000000E+00 -0.18001166927E+04  0.21241917988E+04  0.11277281103E+04 0.  0.
        5    1    3    3  502    0  0.21284541356E+03  0.49474232364E+03 -0.12143855764E+04  0.13284681235E+04  0.46999998093E+01 0. -1.
       -5    1    3    3    0  502 -0.21284541356E+03 -0.49474232364E+03 -0.58573111627E+03  0.79572367531E+03  0.46999998093E+01 0.  1.
</event>
<event>
 5   0  0.8784659E-05  0.2260785E+04  0.7818609E-02  0.8493545E-01
       -1   -1    0    0    0  501  0.00000000000E+00  0.00000000000E+00  0.14940331246E+04  0.14940331246E+04  0.50400001928E-02 0.  1.
        1   -1    0    0  501    0  0.00000000000E+00  0.00000000000E+00 -0.85526060649E+03  0.85526060650E+03  0.50400001928E-02 0. -1.
    10030    2    1    2    0    0  0.00000000000E+00  0.00000000000E+00  0.63877251810E+03  0.23492937311E+04  0.22607854177E+04 0.  0.
        4    1    3    3  502    0  0.47712495401E+03  0.42850994262E+03  0.12866981756E+04  0.14376587914E+04  0.12699999809E+01 0.  1.
       -4    1    3    3    0  502 -0.47712495401E+03 -0.42850994262E+03 -0.64792565749E+03  0.91163493965E+03  0.12699999809E+01 0. -1.
</event>
<event>
 5   0  0.1798917E-04  0.2147978E+04  0.7818609E-02  0.8540398E-01
       -2   -1    0    0    0  501  0.00000000000E+00  0.00000000000E+00  0.16792933253E+04  0.16792933253E+04  0.25500000920E-02 0.  1.
        2   -1    0    0  501    0  0.00000000000E+00  0.00000000000E+00 -0.68686753675E+03  0.68686753675E+03  0.25500000920E-02 0. -1.
    10030    2    1    2    0    0  0.00000000000E+00  0.00000000000E+00  0.99242578855E+03  0.23661608620E+04  0.21479777185E+04 0.  0.
        4    1    3    3  502    0 -0.28935368803E+03  0.28657923761E+03  0.15909363627E+04  0.16422342522E+04  0.12699999809E+01 0.  1.
       -4    1    3    3    0  502  0.28935368803E+03 -0.28657923761E+03 -0.59851057411E+03  0.72392660984E+03  0.12699999809E+01 0. -1.
</event>
<event>
 5   0  0.7954459E-05  0.2217032E+04  0.7818609E-02  0.8511372E-01
        1   -1    0    0  501    0  0.00000000000E+00  0.00000000000E+00  0.14309592333E+04  0.14309592333E+04  0.50400001928E-02 0. -1.
       -1   -1    0    0    0  501  0.00000000000E+00  0.00000000000E+00 -0.85873020576E+03  0.85873020578E+03  0.50400001928E-02 0.  1.
    10030    2    1    2    0    0  0.00000000000E+00  0.00000000000E+00  0.57222902750E+03  0.22896894391E+04  0.22170321755E+04 0.  0.
        5    1    3    3  502    0  0.97118976582E+02  0.25178428385E+03  0.13965048888E+04  0.14223485564E+04  0.46999998093E+01 0. -1.
       -5    1    3    3    0  502 -0.97118976582E+02 -0.25178428385E+03 -0.82427586134E+03  0.86734088270E+03  0.46999998093E+01 0.  1.
</event>
<event>
 5   0  0.1805501E-04  0.2154457E+04  0.7818609E-02  0.8537627E-01
        2   -1    0    0  501    0  0.00000000000E+00  0.00000000000E+00  0.21076025284E+04  0.21076025284E+04  0.25500000920E-02 0. -1.
       -2   -1    0    0    0  501  0.00000000000E+00  0.00000000000E+00 -0.55058853063E+03  0.55058853063E+03  0.25500000920E-02 0.  1.
    10030    2    1    2    0    0  0.00000000000E+00  0.00000000000E+00  0.15570139977E+04  0.26581910590E+04  0.21544574995E+04 0.  0.
        2    1    3    3  502    0  0.10691051275E+04  0.84533412882E+02  0.65334911151E+03  0.12557853053E+04  0.25500000920E-02 0.  1.
       -2    1    3    3    0  502 -0.10691051275E+04 -0.84533412882E+02  0.90366488624E+03  0.14024057537E+04  0.25500000920E-02 0. -1.
</event>
<event>
 5   0  0.1733962E-04  0.2194870E+04  0.7818609E-02  0.8520566E-01
        2   -1    0    0  501    0  0.00000000000E+00  0.00000000000E+00  0.21654170190E+04  0.21654170190E+04  0.25500000920E-02 0.  1.
       -2   -1    0    0    0  501  0.00000000000E+00  0.00000000000E+00 -0.55618082891E+03  0.55618082892E+03  0.25500000920E-02 0. -1.
    10030    2    1    2    0    0  0.00000000000E+00  0.00000000000E+00  0.16092361901E+04  0.27215978479E+04  0.21948698664E+04 0.  0.
        3    1    3    3  502    0  0.21297431426E+03 -0.10585228068E+04  0.56120613826E+03  0.12168734244E+04  0.10100000352E+00 0.  1.
       -3    1    3    3    0  502 -0.21297431426E+03  0.10585228068E+04  0.10480300519E+04  0.15047244236E+04  0.10100000352E+00 0. -1.
</event>
<event>
 5   0  0.8470971E-05  0.2136732E+04  0.7818609E-02  0.8545233E-01
       -1   -1    0    0    0  501  0.00000000000E+00  0.00000000000E+00  0.94479062742E+03  0.94479062743E+03  0.50400001928E-02 0.  1.
        1   -1    0    0  501    0  0.00000000000E+00  0.00000000000E+00 -0.12081043788E+04  0.12081043788E+04  0.50400001928E-02 0. -1.
    10030    2    1    2    0    0  0.00000000000E+00  0.00000000000E+00 -0.26331375136E+03  0.21528950062E+04  0.21367317979E+04 0.  0.
        2    1    3    3  502    0  0.55757541303E+03 -0.40454978083E+03  0.69113214368E+03  0.97581479104E+03  0.25500000920E-02 0.  1.
       -2    1    3    3    0  502 -0.55757541303E+03  0.40454978083E+03 -0.95444589504E+03  0.11770802152E+04  0.25500000920E-02 0. -1.
</event>
<event>
 5   0  0.7954459E-05  0.1269564E+04  0.7818609E-02  0.9054055E-01
        1   -1    0    0  501    0  0.00000000000E+00  0.00000000000E+00  0.51081954313E+03  0.51081954315E+03  0.50400001928E-02 0. -1.
       -1   -1    0    0    0  501  0.00000000000E+00  0.00000000000E+00 -0.78882724977E+03  0.78882724979E+03  0.50400001928E-02 0.  1.
    10030    2    1    2    0    0  0.00000000000E+00  0.00000000000E+00 -0.27800770664E+03  0.12996467929E+04  0.12695642959E+04 0.  0.
        5    1    3    3  502    0 -0.44837858447E+03 -0.14544302472E+03  0.29619212234E+03  0.55673053786E+03  0.46999998093E+01 0. -1.
       -5    1    3    3    0  502  0.44837858447E+03  0.14544302472E+03 -0.57419982898E+03  0.74291625508E+03  0.46999998093E+01 0.  1.
</event>
<event>
 5   0  0.1733962E-04  0.2505134E+04  0.7818609E-02  0.8401159E-01
       -2   -1    0    0    0  501  0.00000000000E+00  0.00000000000E+00  0.10528408273E+04  0.10528408273E+04  0.25500000920E-02 0.  1.
        2   -1    0    0  501    0  0.00000000000E+00  0.00000000000E+00 -0.14901815875E+04  0.14901815875E+04  0.25500000920E-02 0. -1.
    10030    2    1    2    0    0  0.00000000000E+00  0.00000000000E+00 -0.43734076022E+03  0.25430224147E+04  0.25051339408E+04 0.  0.
        3    1    3    3  502    0  0.39784609390E+03 -0.11868783263E+04 -0.26363854661E+03  0.12792446870E+04  0.10100000352E+00 0. -1.
       -3    1    3    3    0  502 -0.39784609390E+03  0.11868783263E+04 -0.17370221360E+03  0.12637777277E+04  0.10100000352E+00 0.  1.
</event>
<event>
 5   0  0.1733962E-04  0.2287381E+04  0.7818609E-02  0.8482913E-01
        2   -1    0    0  501    0  0.00000000000E+00  0.00000000000E+00  0.23034528371E+04  0.23034528371E+04  0.25500000920E-02 0.  1.
       -2   -1    0    0    0  501  0.00000000000E+00  0.00000000000E+00 -0.56785518779E+03  0.56785518779E+03  0.25500000920E-02 0. -1.
    10030    2    1    2    0    0  0.00000000000E+00  0.00000000000E+00  0.17355976493E+04  0.28713080248E+04  0.22873807233E+04 0.  0.
        3    1    3    3  502    0  0.39217214952E+03  0.67810272795E+02 -0.47812490035E+03  0.62209376986E+03  0.10100000352E+00 0. -1.
       -3    1    3    3    0  502 -0.39217214952E+03 -0.67810272795E+02  0.22137225496E+04  0.22492142550E+04  0.10100000352E+00 0.  1.
</event>
<event>
 5   0  0.1805501E-04  0.1881386E+04  0.7818609E-02  0.8664178E-01
       -2   -1    0    0    0  501  0.00000000000E+00  0.00000000000E+00  0.98989802101E+03  0.98989802102E+03  0.25500000920E-02 0.  1.
        2   -1    0    0  501    0  0.00000000000E+00  0.00000000000E+00 -0.89393351402E+03  0.89393351402E+03  0.25500000920E-02 0. -1.
    10030    2    1    2    0    0  0.00000000000E+00  0.00000000000E+00  0.95964506995E+02  0.18838315350E+04  0.18813856770E+04 0.  0.
        2    1    3    3  502    0 -0.34828613798E+03 -0.64615541970E+03  0.63703520320E+03  0.97192279037E+03  0.25500000920E-02 0. -1.
       -2    1    3    3    0  502  0.34828613798E+03  0.64615541970E+03 -0.54107069621E+03  0.91190874467E+03  0.25500000920E-02 0.  1.
</event>
<event>
 5   0  0.8306787E-05  0.2188827E+04  0.7818609E-02  0.8523093E-01
       -1   -1    0    0    0  501  0.00000000000E+00  0.00000000000E+00  0.63747448509E+03  0.63747448511E+03  0.50400001928E-02 0.  1.
        1   -1    0    0  501    0  0.00000000000E+00  0.00000000000E+00 -0.18788847367E+04  0.18788847367E+04  0.50400001928E-02 0. -1.
    10030    2    1    2    0    0  0.00000000000E+00  0.00000000000E+00 -0.12414102516E+04  0.25163592218E+04  0.21888271563E+04 0.  0.
        1    1    3    3  502    0  0.30724248931E+03 -0.89014521633E+03 -0.12618122910E+04  0.15744607683E+04  0.50400001928E-02 0.  1.
       -1    1    3    3    0  502 -0.30724248931E+03  0.89014521633E+03  0.20402039383E+02  0.94189845345E+03  0.50400001928E-02 0. -1.
</event>
<event>
 5   0  0.1798917E-04  0.2179090E+04  0.7818609E-02  0.8527182E-01
       -2   -1    0    0    0  501  0.00000000000E+00  0.00000000000E+00  0.14255687588E+04  0.14255687588E+04  0.25500000920E-02 0. -1.
        2   -1    0    0  501    0  0.00000000000E+00  0.00000000000E+00 -0.83272633868E+03  0.83272633869E+03  0.25500000920E-02 0.  1.
    10030    2    1    2    0    0  0.00000000000E+00  0.00000000000E+00  0.59284242015E+03  0.22582950975E+04  0.21790903176E+04 0.  0.
        4    1    3    3  502    0  0.61593120195E+03  0.12288773384E+02  0.12277424843E+04  0.13736358615E+04  0.12699999809E+01 0. -1.
       -4    1    3    3    0  502 -0.61593120195E+03 -0.12288773384E+02 -0.63490006413E+03  0.88465923599E+03  0.12699999809E+01 0.  1.
</event>
<event>
 5   0  0.1733962E-04  0.2218659E+04  0.7818609E-02  0.8510702E-01
        2   -1    0    0  501    0  0.00000000000E+00  0.00000000000E+00  0.22838556210E+04  0.22838556210E+04  0.25500000920E-02 0.  1.
       -2   -1    0    0    0  501  0.00000000000E+00  0.00000000000E+00 -0.53883103868E+03  0.53883103868E+03  0.25500000920E-02 0. -1.
    10030    2    1    2    0    0  0.00000000000E+00  0.00000000000E+00  0.17450245823E+04  0.28226866597E+04  0.22186593217E+04 0.  0.
        3    1    3    3  502    0 -0.11734459093E+03  0.43025685978E+03 -0.41975783479E+03  0.61244376760E+03  0.10100000352E+00 0. -1.
       -3    1    3    3    0  502  0.11734459093E+03 -0.43025685978E+03  0.21647824171E+04  0.22102428921E+04  0.10100000352E+00 0.  1.
</event>
<event>
 5   0  0.8470971E-05  0.2176727E+04  0.7818609E-02  0.8528178E-01
       -1   -1    0    0    0  501  0.00000000000E+00  0.00000000000E+00  0.74335658495E+03  0.74335658497E+03  0.50400001928E-02 0.  1.
        1   -1    0    0  501    0  0.00000000000E+00  0.00000000000E+00 -0.15934957153E+04  0.15934957153E+04  0.50400001928E-02 0. -1.
    10030    2    1    2    0    0  0.00000000000E+00  0.00000000000E+00 -0.85013913035E+03  0.23368523003E+04  0.21767273905E+04 0.  0.
        2    1    3    3  502    0  0.27775358935E+03 -0.10516440680E+04 -0.46571252340E+03  0.11832119238E+04  0.25500000920E-02 0.  1.
       -2    1    3    3    0  502 -0.27775358935E+03  0.10516440680E+04 -0.38442660694E+03  0.11536403765E+04  0.25500000920E-02 0. -1.
</event>
<event>
 5   0  0.8306787E-05  0.1991518E+04  0.7818609E-02  0.8610596E-01
        1   -1    0    0  501    0  0.00000000000E+00  0.00000000000E+00  0.20235392459E+04  0.20235392459E+04  0.50400001928E-02 0.  1.
       -1   -1    0    0    0  501  0.00000000000E+00  0.00000000000E+00 -0.49000101356E+03  0.49000101359E+03  0.50400001928E-02 0. -1.
    10030    2    1    2    0    0  0.00000000000E+00  0.00000000000E+00  0.15335382324E+04  0.25135402595E+04  0.19915182967E+04 0.  0.
        1    1    3    3  502    0  0.96927490406E+03  0.20025470044E+03  0.62885372247E+03  0.11726264490E+04  0.50400001928E-02 0. -1.
       -1    1    3    3    0  502 -0.96927490406E+03 -0.20025470044E+03  0.90468450989E+03  0.13409138105E+04  0.50400001928E-02 0.  1.
</event>
<event>
 5   0  0.1754356E-04  0.2187705E+04  0.7818609E-02  0.8523563E-01
       -2   -1    0    0    0  501  0.00000000000E+00  0.00000000000E+00  0.12820495628E+04  0.12820495628E+04  0.25500000920E-02 0. -1.
        2   -1    0    0  501    0  0.00000000000E+00  0.00000000000E+00 -0.93328202866E+03  0.93328202867E+03  0.25500000920E-02 0.  1.
    10030    2    1    2    0    0  0.00000000000E+00  0.00000000000E+00  0.34876753415E+03  0.22153315915E+04  0.21877054800E+04 0.  0.
        1    1    3    3  502    0 -0.34568477910E+03 -0.95974334753E+03 -0.22545496565E+03  0.10447177615E+04  0.50400001928E-02 0.  1.
       -1    1    3    3    0  502  0.34568477910E+03  0.95974334753E+03  0.57422249979E+03  0.11706138300E+04  0.50400001928E-02 0. -1.
</event>
<event>
 5   0  0.7954459E-05  0.1923104E+04  0.7818609E-02  0.8643441E-01
       -1   -1    0    0    0  501  0.00000000000E+00  0.00000000000E+00  0.12154941548E+04  0.12154941549E+04  0.50400001928E-02 0. -1.
        1   -1    0    0  501    0  0.00000000000E+00  0.00000000000E+00 -0.76066373187E+03  0.76066373189E+03  0.50400001928E-02 0.  1.
    10030    2    1    2    0    0  0.00000000000E+00  0.00000000000E+00  0.45483042297E+03  0.19761578867E+04  0.19231040741E+04 0.  0.
        5    1    3    3  502    0 -0.47341715903E+03 -0.56736155130E+01  0.10874048788E+04  0.11860132617E+04  0.46999998093E+01 0. -1.
       -5    1    3    3    0  502  0.47341715903E+03  0.56736155130E+01 -0.63257445584E+03  0.79014462508E+03  0.46999998093E+01 0.  1.
</event>
<event>
 5   0  0.8306787E-05  0.2188093E+04  0.7818609E-02  0.8523401E-01
        1   -1    0    0  501    0  0.00000000000E+00  0.00000000000E+00  0.20125456825E+04  0.20125456825E+04  0.50400001928E-02 0.  1.
       -1   -1    0    0    0  501  0.00000000000E+00  0.00000000000E+00 -0.59473804032E+03  0.59473804034E+03  0.50400001928E-02 0. -1.
    10030    2    1    2    0    0  0.00000000000E+00  0.00000000000E+00  0.14178076422E+04  0.26072837229E+04  0.21880927542E+04 0.  0.
        1    1    3    3  502    0  0.22261157492E+03 -0.57122771874E+02  0.19834573480E+04  0.19967278171E+04  0.50400001928E-02 0.  1.
       -1    1    3    3    0  502 -0.22261157492E+03  0.57122771874E+02 -0.56564970578E+03  0.61055590574E+03  0.50400001928E-02 0. -1.
</event>
<event>
 5   0  0.1733962E-04  0.2272043E+04  0.7818609E-02  0.8489027E-01
        2   -1    0    0  501    0  0.00000000000E+00  0.00000000000E+00  0.17381879847E+04  0.17381879847E+04  0.25500000920E-02 0. -1.
       -2   -1    0    0    0  501  0.00000000000E+00  0.00000000000E+00 -0.74246531233E+03  0.74246531234E+03  0.25500000920E-02 0.  1.
    10030    2    1    2    0    0  0.00000000000E+00  0.00000000000E+00  0.99572267236E+03  0.24806532970E+04  0.22720425040E+04 0.  0.
        3    1    3    3  502    0 -0.85496481100E+02 -0.11226579565E+04  0.33273429461E+03  0.11740454236E+04  0.10100000352E+00 0. -1.
       -3    1    3    3    0  502  0.85496481100E+02  0.11226579565E+04  0.66298837775E+03  0.13066078734E+04  0.10100000352E+00 0.  1.
</event>
<event>
 5   0  0.8306787E-05  0.2252029E+04  0.7818609E-02  0.8497079E-01
        1   -1    0    0  501    0  0.00000000000E+00  0.00000000000E+00  0.26644968420E+04  0.26644968420E+04  0.50400001928E-02 0.  1.
       -1   -1    0    0    0  501  0.00000000000E+00  0.00000000000E+00 -0.47585297045E+03  0.47585297048E+03  0.50400001928E-02 0. -1.
    10030    2    1    2    0    0  0.00000000000E+00  0.00000000000E+00  0.21886438715E+04  0.31403498125E+04  0.22520290736E+04 0.  0.
        1    1    3    3  502    0 -0.43343312122E+03  0.29200091519E+03  0.24851310976E+04  0.25394891961E+04  0.50400001928E-02 0.  1.
       -1    1    3    3    0  502  0.43343312122E+03 -0.29200091519E+03 -0.29648722605E+03  0.60086061635E+03  0.50400001928E-02 0. -1.
</event>
<event>
 5   0  0.8306787E-05  0.2165356E+04  0.7818609E-02  0.8532988E-01
        1   -1    0    0  501    0  0.00000000000E+00  0.00000000000E+00  0.11927075745E+04  0.11927075745E+04  0.50400001928E-02 0. -1.
       -1   -1    0    0    0  501  0.00000000000E+00  0.00000000000E+00 -0.98279880813E+03  0.98279880815E+03  0.50400001928E-02 0.  1.
    10030    2    1    2    0    0  0.00000000000E+00  0.00000000000E+00  0.20990876640E+03  0.21755063827E+04  0.21653559363E+04 0.  0.
        1    1    3    3  502    0 -0.94705091677E+03  0.40097341628E+03  0.44492866674E+03  0.11205563966E+04  0.50400001928E-02 0. -1.
       -1    1    3    3    0  502  0.94705091677E+03 -0.40097341628E+03 -0.23501990034E+03  0.10549499861E+04  0.50400001928E-02 0.  1.
</event>
<event>
 5   0  0.8470971E-05  0.2200970E+04  0.7818609E-02  0.8518025E-01
        1   -1    0    0  501    0  0.00000000000E+00  0.00000000000E+00  0.12822452998E+04  0.12822452998E+04  0.50400001928E-02 0.  1.
       -1   -1    0    0    0  501  0.00000000000E+00  0.00000000000E+00 -0.94448932076E+03  0.94448932077E+03  0.50400001928E-02 0. -1.
    10030    2    1    2    0    0  0.00000000000E+00  0.00000000000E+00  0.33775597906E+03  0.22267346206E+04  0.22009697792E+04 0.  0.
        2    1    3    3  502    0  0.57934361235E+03 -0.83447334848E+03 -0.25925687428E+03  0.10484268775E+04  0.25500000920E-02 0. -1.
       -2    1    3    3    0  502 -0.57934361235E+03  0.83447334848E+03  0.59701285334E+03  0.11783077431E+04  0.25500000920E-02 0.  1.
</event>
<event>
 5   0  0.1754356E-04  0.2120280E+04  0.7818609E-02  0.8552362E-01
        2   -1    0    0  501    0  0.00000000000E+00  0.00000000000E+00  0.18222085302E+04  0.18222085302E+04  0.25500000920E-02 0.  1.
       -2   -1    0    0    0  501  0.00000000000E+00  0.00000000000E+00 -0.61677734700E+03  0.61677734700E+03  0.25500000920E-02 0. -1.
    10030    2    1    2    0    0  0.00000000000E+00  0.00000000000E+00  0.12054311832E+04  0.24389858772E+04  0.21202801164E+04 0.  0.
        1    1    3    3  502    0  0.62846073148E+03  0.15760806326E+03  0.15679466541E+04  0.16965435163E+04  0.50400001928E-02 0.  1.
       -1    1    3    3    0  502 -0.62846073148E+03 -0.15760806326E+03 -0.36251547088E+03  0.74244236091E+03  0.50400001928E-02 0. -1.
</event>
<event>
 5   0  0.6250625E-05  0.2235584E+04  0.7818609E-02  0.8503761E-01
       -3   -1    0    0    0  501  0.00000000000E+00  0.00000000000E+00  0.10556755857E+04  0.10556755906E+04  0.10100000352E+00 0. -1.
        3   -1    0    0  501    0  0.00000000000E+00  0.00000000000E+00 -0.11835636666E+04  0.11835636709E+04  0.10100000352E+00 0.  1.
    10030    2    1    2    0    0  0.00000000000E+00  0.00000000000E+00 -0.12788808087E+03  0.22392392615E+04  0.22355842881E+04 0.  0.
        5    1    3    3  502    0 -0.55674906433E+03  0.96438602960E+03  0.33308739009E+02  0.11140653019E+04  0.46999998093E+01 0.  1.
       -5    1    3    3    0  502  0.55674906433E+03 -0.96438602960E+03 -0.16119681988E+03  0.11251739596E+04  0.46999998093E+01 0. -1.
</event>
<event>
 5   0  0.1733962E-04  0.2167313E+04  0.7818609E-02  0.8532158E-01
       -2   -1    0    0    0  501  0.00000000000E+00  0.00000000000E+00  0.89829482056E+03  0.89829482056E+03  0.25500000920E-02 0.  1.
        2   -1    0    0  501    0  0.00000000000E+00  0.00000000000E+00 -0.13072668264E+04  0.13072668264E+04  0.25500000920E-02 0. -1.
    10030    2    1    2    0    0  0.00000000000E+00  0.00000000000E+00 -0.40897200587E+03  0.22055616470E+04  0.21673126394E+04 0.  0.
        3    1    3    3  502    0  0.97546316828E+03  0.45974213889E+03 -0.95736683755E+02  0.10826156981E+04  0.10100000352E+00 0. -1.
       -3    1    3    3    0  502 -0.97546316828E+03 -0.45974213889E+03 -0.31323532211E+03  0.11229459489E+04  0.10100000352E+00 0.  1.
</event>
<event>
 5   0  0.1805501E-04  0.2238296E+04  0.7818609E-02  0.8502655E-01
        2   -1    0    0  501    0  0.00000000000E+00  0.00000000000E+00  0.13479576192E+04  0.13479576192E+04  0.25500000920E-02 0. -1.
       -2   -1    0    0    0  501  0.00000000000E+00  0.00000000000E+00 -0.92917766424E+03  0.92917766424E+03  0.25500000920E-02 0.  1.
    10030    2    1    2    0    0  0.00000000000E+00  0.00000000000E+00  0.41877995494E+03  0.22771352834E+04  0.22382958804E+04 0.  0.
        2    1    3    3  502    0  0.90485528185E+03  0.31739161130E+03 -0.37767743492E+03  0.10306021351E+04  0.25500000920E-02 0.  1.
       -2    1    3    3    0  502 -0.90485528185E+03 -0.31739161130E+03  0.79645738986E+03  0.12465331483E+04  0.25500000920E-02 0. -1.
</event>
<event>
 5   0  0.1754356E-04  0.1779222E+04  0.7818609E-02  0.8717428E-01
       -2   -1    0    0    0  501  0.00000000000E+00  0.00000000000E+00  0.42544740141E+03  0.42544740142E+03  0.25500000920E-02 0. -1.
        2   -1    0    0  501    0  0.00000000000E+00  0.00000000000E+00 -0.18601781723E+04  0.18601781723E+04  0.25500000920E-02 0.  1.
    10030    2    1    2    0    0  0.00000000000E+00  0.00000000000E+00 -0.14347307709E+04  0.22856255737E+04  0.17792222678E+04 0.  0.
        1    1    3    3  502    0  0.13054513393E+03  0.41772266043E+03 -0.17123234997E+04  0.17673669740E+04  0.50400001928E-02 0.  1.
       -1    1    3    3    0  502 -0.13054513393E+03 -0.41772266043E+03  0.27759272886E+03  0.51825859971E+03  0.50400001928E-02 0. -1.
</event>
<event>
 5   0  0.1733962E-04  0.2170705E+04  0.7818609E-02  0.8530721E-01
        2   -1    0    0  501    0  0.00000000000E+00  0.00000000000E+00  0.18036790076E+04  0.18036790076E+04  0.25500000920E-02 0. -1.
       -2   -1    0    0    0  501  0.00000000000E+00  0.00000000000E+00 -0.65310402260E+03  0.65310402261E+03  0.25500000920E-02 0.  1.
    10030    2    1    2    0    0  0.00000000000E+00  0.00000000000E+00  0.11505749850E+04  0.24567830302E+04  0.21707049688E+04 0.  0.
        3    1    3    3  502    0 -0.57023233721E+03 -0.20627841647E+03  0.15940713052E+04  0.17055143035E+04  0.10100000352E+00 0. -1.
       -3    1    3    3    0  502  0.57023233721E+03  0.20627841647E+03 -0.44349632014E+03  0.75126872668E+03  0.10100000352E+00 0.  1.
</event>
<event>
 5   0  0.8306787E-05  0.2078301E+04  0.7818609E-02  0.8570863E-01
        1   -1    0    0  501    0  0.00000000000E+00  0.00000000000E+00  0.17635300394E+04  0.17635300394E+04  0.50400001928E-02 0.  1.
       -1   -1    0    0    0  501  0.00000000000E+00  0.00000000000E+00 -0.61231372127E+03  0.61231372129E+03  0.50400001928E-02 0. -1.
    10030    2    1    2    0    0  0.00000000000E+00  0.00000000000E+00  0.11512163181E+04  0.23758437607E+04  0.20783008839E+04 0.  0.
        1    1    3    3  502    0 -0.85608904216E+02  0.10345327143E+04  0.52142135444E+03  0.11616656362E+04  0.50400001928E-02 0.  1.
       -1    1    3    3    0  502  0.85608904216E+02 -0.10345327143E+04  0.62979496364E+03  0.12141781244E+04  0.50400001928E-02 0. -1.
</event>
<event>
 5   0  0.6250625E-05  0.2253915E+04  0.7818609E-02  0.8496317E-01
       -3   -1    0    0    0  501  0.00000000000E+00  0.00000000000E+00  0.11948255200E+04  0.11948255243E+04  0.10100000352E+00 0. -1.
        3   -1    0    0  501    0  0.00000000000E+00  0.00000000000E+00 -0.10629441152E+04  0.10629441200E+04  0.10100000352E+00 0.  1.
    10030    2    1    2    0    0  0.00000000000E+00  0.00000000000E+00  0.13188140481E+03  0.22577696444E+04  0.22539146084E+04 0.  0.
        3    1    3    3  502    0 -0.62729537419E+03  0.84720367244E+03  0.46509332262E+03  0.11522002248E+04  0.10100000352E+00 0.  1.
       -3    1    3    3    0  502  0.62729537419E+03 -0.84720367244E+03 -0.33321191781E+03  0.11055694196E+04  0.10100000352E+00 0. -1.
</event>
<event>
 5   0  0.1798917E-04  0.2208730E+04  0.7818609E-02  0.8514803E-01
       -2   -1    0    0    0  501  0.00000000000E+00  0.00000000000E+00  0.11319658064E+04  0.11319658064E+04  0.25500000920E-02 0. -1.
        2   -1    0    0  501    0  0.00000000000E+00  0.00000000000E+00 -0.10774373207E+04  0.10774373208E+04  0.25500000920E-02 0.  1.
    10030    2    1    2    0    0  0.00000000000E+00  0.00000000000E+00  0.54528485616E+02  0.22094031271E+04  0.22087301380E+04 0.  0.
        4    1    3    3  502    0  0.74641010018E+03 -0.46935023920E+03  0.69245024923E+03  0.11211184796E+04  0.12699999809E+01 0. -1.
       -4    1    3    3    0  502 -0.74641010018E+03  0.46935023920E+03 -0.63792176362E+03  0.10882846475E+04  0.12699999809E+01 0.  1.
</event>
<event>
 5   0  0.1805501E-04  0.2285264E+04  0.7818609E-02  0.8483754E-01
       -2   -1    0    0    0  501  0.00000000000E+00  0.00000000000E+00  0.61033697573E+03  0.61033697574E+03  0.25500000920E-02 0.  1.
        2   -1    0    0  501    0  0.00000000000E+00  0.00000000000E+00 -0.21391593745E+04  0.21391593745E+04  0.25500000920E-02 0. -1.
    10030    2    1    2    0    0  0.00000000000E+00  0.00000000000E+00 -0.15288223988E+04  0.27494963503E+04  0.22852641539E+04 0.  0.
        2    1    3    3  502    0  0.97467929872E+03 -0.33458846649E+03 -0.17051866325E+03  0.10445218005E+04  0.25500000920E-02 0.  1.
       -2    1    3    3    0  502 -0.97467929872E+03  0.33458846649E+03 -0.13583037356E+04  0.17049745497E+04  0.25500000920E-02 0. -1.
</event>
<event>
 5   0  0.8470971E-05  0.2187034E+04  0.7818609E-02  0.8523844E-01
        1   -1    0    0  501    0  0.00000000000E+00  0.00000000000E+00  0.92313073972E+03  0.92313073973E+03  0.50400001928E-02 0. -1.
       -1   -1    0    0    0  501  0.00000000000E+00  0.00000000000E+00 -0.12953526555E+04  0.12953526555E+04  0.50400001928E-02 0.  1.
    10030    2    1    2    0    0  0.00000000000E+00  0.00000000000E+00 -0.37222191581E+03  0.22184833953E+04  0.21870343894E+04 0.  0.
        2    1    3    3  502    0 -0.28468133446E+03 -0.71801057057E+03 -0.97132030897E+03  0.12409858115E+04  0.25500000920E-02 0.  1.
       -2    1    3    3    0  502  0.28468133446E+03  0.71801057057E+03  0.59909839316E+03  0.97749758380E+03  0.25500000920E-02 0. -1.
</event>
<event>
 5   0  0.6250625E-05  0.2202663E+04  0.7818609E-02  0.8517321E-01
       -4   -1    0    0    0  501  0.00000000000E+00  0.00000000000E+00  0.10047214736E+04  0.10047222763E+04  0.12699999809E+01 0. -1.
        4   -1    0    0  501    0  0.00000000000E+00  0.00000000000E+00 -0.12072293380E+04  0.12072300060E+04  0.12699999809E+01 0.  1.
    10030    2    1    2    0    0  0.00000000000E+00  0.00000000000E+00 -0.20250786435E+03  0.22119522823E+04  0.22026628121E+04 0.  0.
        3    1    3    3  502    0 -0.59870676202E+03 -0.79875538817E+03  0.36597259732E+03  0.10632007850E+04  0.10100000352E+00 0. -1.
       -3    1    3    3    0  502  0.59870676202E+03  0.79875538817E+03 -0.56848046167E+03  0.11487514973E+04  0.10100000352E+00 0.  1.
</event>
<event>
 5   0  0.1754356E-04  0.2231099E+04  0.7818609E-02  0.8505594E-01
       -2   -1    0    0    0  501  0.00000000000E+00  0.00000000000E+00  0.87474596726E+03  0.87474596726E+03  0.25500000920E-02 0.  1.
        2   -1    0    0  501    0  0.00000000000E+00  0.00000000000E+00 -0.14226427349E+04  0.14226427349E+04  0.25500000920E-02 0. -1.
    10030    2    1    2    0    0  0.00000000000E+00  0.00000000000E+00 -0.54789676767E+03  0.22973887022E+04  0.22310992764E+04 0.  0.
        1    1    3    3  502    0  0.11074101260E+04  0.24354585404E+02 -0.13772777224E+03  0.11162075400E+04  0.50400001928E-02 0. -1.
       -1    1    3    3    0  502 -0.11074101260E+04 -0.24354585404E+02 -0.41016899543E+03  0.11811811622E+04  0.50400001928E-02 0.  1.
</event>
<event>
 5   0  0.8306787E-05  0.2030322E+04  0.7818609E-02  0.8592574E-01
        1   -1    0    0  501    0  0.00000000000E+00  0.00000000000E+00  0.99337516779E+03  0.99337516781E+03  0.50400001928E-02 0. -1.
       -1   -1    0    0    0  501  0.00000000000E+00  0.00000000000E+00 -0.10374246521E+04  0.10374246521E+04  0.50400001928E-02 0.  1.
    10030    2    1    2    0    0  0.00000000000E+00  0.00000000000E+00 -0.44049484320E+02  0.20307998199E+04  0.20303220315E+04 0.  0.
        1    1    3    3  502    0 -0.26231120191E+03  0.77611209020E+03  0.57761174333E+03  0.10023933705E+04  0.50400001928E-02 0. -1.
       -1    1    3    3    0  502  0.26231120191E+03 -0.77611209020E+03 -0.62166122765E+03  0.10284064494E+04  0.50400001928E-02 0.  1.
</event>
<event>
 5   0  0.7954459E-05  0.2095957E+04  0.7818609E-02  0.8563027E-01
        1   -1    0    0  501    0  0.00000000000E+00  0.00000000000E+00  0.13481789465E+04  0.13481789465E+04  0.50400001928E-02 0.  1.
       -1   -1    0    0    0  501  0.00000000000E+00  0.00000000000E+00 -0.81462363829E+03  0.81462363831E+03  0.50400001928E-02 0. -1.
    10030    2    1    2    0    0  0.00000000000E+00  0.00000000000E+00  0.53355530818E+03  0.21628025848E+04  0.20959565248E+04 0.  0.
        5    1    3    3  502    0  0.98275126098E+03 -0.20036136951E+03 -0.46706624762E+02  0.10040658933E+04  0.46999998093E+01 0. -1.
       -5    1    3    3    0  502 -0.98275126098E+03  0.20036136951E+03  0.58026193295E+03  0.11587366915E+04  0.46999998093E+01 0.  1.
</event>
<event>
 5   0  0.8306787E-05  0.2165588E+04  0.7818609E-02  0.8532889E-01
        1   -1    0    0  501    0  0.00000000000E+00  0.00000000000E+00  0.11609128297E+04  0.11609128297E+04  0.50400001928E-02 0. -1.
       -1   -1    0    0    0  501  0.00000000000E+00  0.00000000000E+00 -0.10099315890E+04  0.10099315890E+04  0.50400001928E-02 0.  1.
    10030    2    1    2    0    0  0.00000000000E+00  0.00000000000E+00  0.15098124071E+03  0.21708444187E+04  0.21655877158E+04 0.  0.
        1    1    3    3  502    0 -0.57166433791E+03  0.90818989568E+03 -0.69198015710E+02  0.10753591806E+04  0.50400001928E-02 0.  1.
       -1    1    3    3    0  502  0.57166433791E+03 -0.90818989568E+03  0.22017925642E+03  0.10954852381E+04  0.50400001928E-02 0. -1.
</event>
<event>
 5   0  0.8602414E-05  0.2151298E+04  0.7818609E-02  0.8538977E-01
       -1   -1    0    0    0  501  0.00000000000E+00  0.00000000000E+00  0.11285674839E+04  0.11285674839E+04  0.50400001928E-02 0.  1.
        1   -1    0    0  501    0  0.00000000000E+00  0.00000000000E+00 -0.10252116373E+04  0.10252116373E+04  0.50400001928E-02 0. -1.
    10030    2    1    2    0    0  0.00000000000E+00  0.00000000000E+00  0.10335584657E+03  0.21537791212E+04  0.21512977645E+04 0.  0.
        3    1    3    3  502    0 -0.92130232702E+03 -0.55265432218E+03 -0.12577279651E+01  0.10743492773E+04  0.10100000352E+00 0.  1.
       -3    1    3    3    0  502  0.92130232702E+03  0.55265432218E+03  0.10461357454E+03  0.10794298438E+04  0.10100000352E+00 0. -1.
</event>
<event>
 5   0  0.1733962E-04  0.2210399E+04  0.7818609E-02  0.8514112E-01
       -2   -1    0    0    0  501  0.00000000000E+00  0.00000000000E+00  0.93371678257E+03  0.93371678257E+03  0.25500000920E-02 0. -1.
        2   -1    0    0  501    0  0.00000000000E+00  0.00000000000E+00 -0.13081760428E+04  0.13081760428E+04  0.25500000920E-02 0.  1.
    10030    2    1    2    0    0  0.00000000000E+00  0.00000000000E+00 -0.37445926023E+03  0.22418928254E+04  0.22103989918E+04 0.  0.
        3    1    3    3  502    0 -0.80854296381E+03  0.51623748921E+03  0.36942813439E+03  0.10279688839E+04  0.10100000352E+00 0. -1.
       -3    1    3    3    0  502  0.80854296381E+03 -0.51623748921E+03 -0.74388739462E+03  0.12139239415E+04  0.10100000352E+00 0.  1.
</event>
<event>
 5   0  0.1754356E-04  0.2214227E+04  0.7818609E-02  0.8512530E-01
       -2   -1    0    0    0  501  0.00000000000E+00  0.00000000000E+00  0.37176749867E+03  0.37176749868E+03  0.25500000920E-02 0.  1.
        2   -1    0    0  501    0  0.00000000000E+00  0.00000000000E+00 -0.32969547481E+04  0.32969547481E+04  0.25500000920E-02 0. -1.
    10030    2    1    2    0    0  0.00000000000E+00  0.00000000000E+00 -0.29251872495E+04  0.36687222468E+04  0.22142272873E+04 0.  0.
        1    1    3    3  502    0  0.87104164637E+03 -0.45482082658E+03 -0.23076462457E+04  0.25081480676E+04  0.50400001928E-02 0. -1.
       -1    1    3    3    0  502 -0.87104164637E+03  0.45482082658E+03 -0.61754100381E+03  0.11605741792E+04  0.50400001928E-02 0.  1.
</event>
<event>
 5   0  0.1798917E-04  0.2033317E+04  0.7818609E-02  0.8591200E-01
        2   -1    0    0  501    0  0.00000000000E+00  0.00000000000E+00  0.15248151842E+04  0.15248151842E+04  0.25500000920E-02 0. -1.
       -2   -1    0    0    0  501  0.00000000000E+00  0.00000000000E+00 -0.67784923108E+03  0.67784923109E+03  0.25500000920E-02 0.  1.
    10030    2    1    2    0    0  0.00000000000E+00  0.00000000000E+00  0.84696595314E+03  0.22026644153E+04  0.20333172897E+04 0.  0.
        4    1    3    3  502    0  0.76777438396E+03  0.55197050696E+03  0.82800621483E+03  0.12568790116E+04  0.12699999809E+01 0.  1.
       -4    1    3    3    0  502 -0.76777438396E+03 -0.55197050696E+03  0.18959738310E+02  0.94578540367E+03  0.12699999809E+01 0. -1.
</event>
<event>
 5   0  0.8470971E-05  0.1940224E+04  0.7818609E-02  0.8635090E-01
        1   -1    0    0  501    0  0.00000000000E+00  0.00000000000E+00  0.61934906167E+03  0.61934906169E+03  0.50400001928E-02 0. -1.
       -1   -1    0    0    0  501  0.00000000000E+00  0.00000000000E+00 -0.15195258603E+04  0.15195258603E+04  0.50400001928E-02 0.  1.
    10030    2    1    2    0    0  0.00000000000E+00  0.00000000000E+00 -0.90017679865E+03  0.21388749220E+04  0.19402236117E+04 0.  0.
        2    1    3    3  502    0  0.32653148829E+03 -0.68059217882E+03  0.22163315944E+03  0.78673361698E+03  0.25500000920E-02 0. -1.
       -2    1    3    3    0  502 -0.32653148829E+03  0.68059217882E+03 -0.11218099581E+04  0.13521413050E+04  0.25500000920E-02 0.  1.
</event>
<event>
 5   0  0.1680258E-04  0.2203301E+04  0.7818609E-02  0.8517056E-01
        2   -1    0    0  501    0  0.00000000000E+00  0.00000000000E+00  0.13290739870E+04  0.13290739870E+04  0.25500000920E-02 0. -1.
       -2   -1    0    0    0  501  0.00000000000E+00  0.00000000000E+00 -0.91314222346E+03  0.91314222346E+03  0.25500000920E-02 0.  1.
    10030    2    1    2    0    0  0.00000000000E+00  0.00000000000E+00  0.41593176352E+03  0.22422162104E+04  0.22033007744E+04 0.  0.
        5    1    3    3  502    0  0.15426284903E+02  0.10841493343E+04  0.40632844127E+03  0.11579044181E+04  0.46999998093E+01 0. -1.
       -5    1    3    3    0  502 -0.15426284903E+02 -0.10841493343E+04  0.96033222537E+01  0.10843117924E+04  0.46999998093E+01 0.  1.
</event>
<event>
 5   0  0.1680258E-04  0.2216742E+04  0.7818609E-02  0.8511492E-01
        2   -1    0    0  501    0  0.00000000000E+00  0.00000000000E+00  0.22260195669E+04  0.22260195669E+04  0.25500000920E-02 0.  1.
       -2   -1    0    0    0  501  0.00000000000E+00  0.00000000000E+00 -0.55187565675E+03  0.55187565675E+03  0.25500000920E-02 0. -1.
    10030    2    1    2    0    0  0.00000000000E+00  0.00000000000E+00  0.16741439102E+04  0.27778952237E+04  0.22167417625E+04 0.  0.
        5    1    3    3  502    0 -0.76138241024E+03 -0.32046288350E+03 -0.88952902069E+02  0.83086361282E+03  0.46999998093E+01 0. -1.
       -5    1    3    3    0  502  0.76138241024E+03  0.32046288350E+03  0.17630968122E+04  0.19470316108E+04  0.46999998093E+01 0.  1.
</event>
<event>
 5   0  0.1733962E-04  0.2242187E+04  0.7818609E-02  0.8501071E-01
       -2   -1    0    0    0  501  0.00000000000E+00  0.00000000000E+00  0.63840898577E+03  0.63840898577E+03  0.25500000920E-02 0. -1.
        2   -1    0    0  501    0  0.00000000000E+00  0.00000000000E+00 -0.19687232282E+04  0.19687232282E+04  0.25500000920E-02 0.  1.
    10030    2    1    2    0    0  0.00000000000E+00  0.00000000000E+00 -0.13303142425E+04  0.26071322140E+04  0.22421869676E+04 0.  0.
        3    1    3    3  502    0  0.34694982585E+03 -0.58533471170E+03 -0.17011651117E+04  0.18321991306E+04  0.10100000352E+00 0.  1.
       -3    1    3    3    0  502 -0.34694982585E+03  0.58533471170E+03  0.37085086928E+03  0.77493308345E+03  0.10100000352E+00 0. -1.
</event>
<event>
 5   0  0.1680258E-04  0.2192552E+04  0.7818609E-02  0.8521534E-01
        2   -1    0    0  501    0  0.00000000000E+00  0.00000000000E+00  0.15840887546E+04  0.15840887546E+04  0.25500000920E-02 0.  1.
       -2   -1    0    0    0  501  0.00000000000E+00  0.00000000000E+00 -0.75868305570E+03  0.75868305570E+03  0.25500000920E-02 0. -1.
    10030    2    1    2    0    0  0.00000000000E+00  0.00000000000E+00  0.82540569889E+03  0.23427718103E+04  0.21925522086E+04 0.  0.
        5    1    3    3  502    0  0.31022477852E+03  0.41391163827E+03 -0.62007892682E+03  0.80751608219E+03  0.46999998093E+01 0. -1.
       -5    1    3    3    0  502 -0.31022477852E+03 -0.41391163827E+03  0.14454846257E+04  0.15352557281E+04  0.46999998093E+01 0.  1.
</event>
<event>
 5   0  0.1805501E-04  0.2238417E+04  0.7818609E-02  0.8502606E-01
       -2   -1    0    0    0  501  0.00000000000E+00  0.00000000000E+00  0.70390180567E+03  0.70390180567E+03  0.25500000920E-02 0.  1.
        2   -1    0    0  501    0  0.00000000000E+00  0.00000000000E+00 -0.17795484056E+04  0.17795484056E+04  0.25500000920E-02 0. -1.
    10030    2    1    2    0    0  0.00000000000E+00  0.00000000000E+00 -0.10756465999E+04  0.24834502112E+04  0.22384167047E+04 0.  0.
        2    1    3    3  502    0 -0.44243460195E+03 -0.51237651243E+03 -0.15266501930E+04  0.16700116404E+04  0.25500000920E-02 0. -1.
       -2    1    3    3    0  502  0.44243460195E+03  0.51237651243E+03  0.45100359308E+03  0.81343857080E+03  0.25500000920E-02 0.  1.
</event>
<event>
 5   0  0.1680258E-04  0.2234291E+04  0.7818609E-02  0.8504290E-01
       -2   -1    0    0    0  501  0.00000000000E+00  0.00000000000E+00  0.97480821088E+03  0.97480821088E+03  0.25500000920E-02 0. -1.
        2   -1    0    0  501    0  0.00000000000E+00  0.00000000000E+00 -0.12802661443E+04  0.12802661443E+04  0.25500000920E-02 0.  1.
    10030    2    1    2    0    0  0.00000000000E+00  0.00000000000E+00 -0.30545793343E+03  0.22550743552E+04  0.22342908939E+04 0.  0.
        5    1    3    3  502    0  0.86744520983E+03 -0.25632075001E+03 -0.81444199385E+03  0.12171685875E+04  0.46999998093E+01 0.  1.
       -5    1    3    3    0  502 -0.86744520983E+03  0.25632075001E+03  0.50898406043E+03  0.10379057677E+04  0.46999998093E+01 0. -1.
</event>
<event>
 5   0  0.1805501E-04  0.2202917E+04  0.7818609E-02  0.8517215E-01
        2   -1    0    0  501    0  0.00000000000E+00  0.00000000000E+00  0.94570008749E+03  0.94570008750E+03  0.25500000920E-02 0. -1.
       -2   -1    0    0    0  501  0.00000000000E+00  0.00000000000E+00 -0.12828711617E+04  0.12828711617E+04  0.25500000920E-02 0.  1.
    10030    2    1    2    0    0  0.00000000000E+00  0.00000000000E+00 -0.33717107422E+03  0.22285712492E+04  0.22029174927E+04 0.  0.
        2    1    3    3  502    0  0.57810971312E+02  0.24994204255E+03  0.91505534452E+03  0.95033647546E+03  0.25500000920E-02 0. -1.
       -2    1    3    3    0  502 -0.57810971312E+02 -0.24994204255E+03 -0.12522264187E+04  0.12782347738E+04  0.25500000920E-02 0.  1.
</event>
<event>
 5   0  0.1798917E-04  0.1642136E+04  0.7818609E-02  0.8795072E-01
        2   -1    0    0  501    0  0.00000000000E+00  0.00000000000E+00  0.12237318904E+04  0.12237318904E+04  0.25500000920E-02 0.  1.
       -2   -1    0    0    0  501  0.00000000000E+00  0.00000000000E+00 -0.55089894035E+03  0.55089894036E+03  0.25500000920E-02 0. -1.
    10030    2    1    2    0    0  0.00000000000E+00  0.00000000000E+00  0.67283295001E+03  0.17746308307E+04  0.16421359282E+04 0.  0.
        4    1    3    3  502    0 -0.41601644205E+03  0.44742880645E+03  0.92920789626E+03  0.11120661600E+04  0.12699999809E+01 0.  1.
       -4    1    3    3    0  502  0.41601644205E+03 -0.44742880645E+03 -0.25637494625E+03  0.66256467070E+03  0.12699999809E+01 0. -1.
</event>
<event>
 5   0  0.1754356E-04  0.2210309E+04  0.7818609E-02  0.8514149E-01
        2   -1    0    0  501    0  0.00000000000E+00  0.00000000000E+00  0.17710787040E+04  0.17710787040E+04  0.25500000920E-02 0.  1.
       -2   -1    0    0    0  501  0.00000000000E+00  0.00000000000E+00 -0.68961730064E+03  0.68961730065E+03  0.25500000920E-02 0. -1.
    10030    2    1    2    0    0  0.00000000000E+00  0.00000000000E+00  0.10814614033E+04  0.24606960046E+04  0.22103090418E+04 0.  0.
        1    1    3    3  502    0  0.27403692188E+03  0.25025315261E+03  0.16996366902E+04  0.17396803596E+04  0.50400001928E-02 0.  1.
       -1    1    3    3    0  502 -0.27403692188E+03 -0.25025315261E+03 -0.61817528690E+03  0.72101564498E+03  0.50400001928E-02 0. -1.
</event>
<event>
 5   0  0.8306787E-05  0.2214057E+04  0.7818609E-02  0.8512600E-01
        1   -1    0    0  501    0  0.00000000000E+00  0.00000000000E+00  0.67251161771E+03  0.67251161773E+03  0.50400001928E-02 0. -1.
       -1   -1    0    0    0  501  0.00000000000E+00  0.00000000000E+00 -0.18222906482E+04  0.18222906482E+04  0.50400001928E-02 0.  1.
    10030    2    1    2    0    0  0.00000000000E+00  0.00000000000E+00 -0.11497790305E+04  0.24948022659E+04  0.22140565772E+04 0.  0.
        1    1    3    3  502    0  0.22938034412E+03 -0.31220077040E+03  0.59363513103E+03  0.70886340865E+03  0.50400001928E-02 0. -1.
       -1    1    3    3    0  502 -0.22938034412E+03  0.31220077040E+03 -0.17434141615E+04  0.17859388573E+04  0.50400001928E-02 0.  1.
</event>
<event>
 5   0  0.7954459E-05  0.2280994E+04  0.7818609E-02  0.8485453E-01
       -1   -1    0    0    0  501  0.00000000000E+00  0.00000000000E+00  0.65555169274E+03  0.65555169276E+03  0.50400001928E-02 0.  1.
        1   -1    0    0  501    0  0.00000000000E+00  0.00000000000E+00 -0.19841820596E+04  0.19841820596E+04  0.50400001928E-02 0. -1.
    10030    2    1    2    0    0  0.00000000000E+00  0.00000000000E+00 -0.13286303669E+04  0.26397337524E+04  0.22809944392E+04 0.  0.
        5    1    3    3  502    0 -0.76432148762E+03  0.59138197459E+03 -0.13651985165E+04  0.16726353624E+04  0.46999998093E+01 0. -1.
       -5    1    3    3    0  502  0.76432148762E+03 -0.59138197459E+03  0.36568149571E+02  0.96709838996E+03  0.46999998093E+01 0.  1.
</event>
<event>
 5   0  0.8470971E-05  0.2231071E+04  0.7818609E-02  0.8505606E-01
        1   -1    0    0  501    0  0.00000000000E+00  0.00000000000E+00  0.11007445255E+04  0.11007445256E+04  0.50400001928E-02 0.  1.
       -1   -1    0    0    0  501  0.00000000000E+00  0.00000000000E+00 -0.11305248176E+04  0.11305248176E+04  0.50400001928E-02 0. -1.
    10030    2    1    2    0    0  0.00000000000E+00  0.00000000000E+00 -0.29780292083E+02  0.22312693432E+04  0.22310705986E+04 0.  0.
        2    1    3    3  502    0 -0.72030847158E+03 -0.35563850104E+03  0.75919170136E+03  0.11053031607E+04  0.25500000920E-02 0.  1.
       -2    1    3    3    0  502  0.72030847158E+03  0.35563850104E+03 -0.78897199344E+03  0.11259661825E+04  0.25500000920E-02 0. -1.
</event>
<event>
 5   0  0.7954459E-05  0.2062886E+04  0.7818609E-02  0.8577771E-01
       -1   -1    0    0    0  501  0.00000000000E+00  0.00000000000E+00  0.36289269986E+03  0.36289269990E+03  0.50400001928E-02 0.  1.
        1   -1    0    0  501    0  0.00000000000E+00  0.00000000000E+00 -0.29316503841E+04  0.29316503841E+04  0.50400001928E-02 0. -1.
    10030    2    1    2    0    0  0.00000000000E+00  0.00000000000E+00 -0.25687576842E+04  0.32945430840E+04  0.20628858650E+04 0.  0.
        5    1    3    3  502    0  0.52884442988E+03  0.44188468256E+03 -0.58786878433E+02  0.69167657960E+03  0.46999998093E+01 0.  1.
       -5    1    3    3    0  502 -0.52884442988E+03 -0.44188468256E+03 -0.25099708058E+04  0.26028665044E+04  0.46999998093E+01 0. -1.
</event>
<event>
 5   0  0.1754356E-04  0.2212149E+04  0.7818609E-02  0.8513388E-01
       -2   -1    0    0    0  501  0.00000000000E+00  0.00000000000E+00  0.17186517845E+04  0.17186517845E+04  0.25500000920E-02 0. -1.
        2   -1    0    0  501    0  0.00000000000E+00  0.00000000000E+00 -0.71183756640E+03  0.71183756640E+03  0.25500000920E-02 0.  1.
    10030    2    1    2    0    0  0.00000000000E+00  0.00000000000E+00  0.10068142181E+04  0.24304893510E+04  0.22121490943E+04 0.  0.
        1    1    3    3  502    0  0.77911370983E+03 -0.98200349481E+02 -0.35240895724E+03  0.86072850228E+03  0.50400001928E-02 0.  1.
       -1    1    3    3    0  502 -0.77911370983E+03  0.98200349481E+02  0.13592231754E+04  0.15697608487E+04  0.50400001928E-02 0. -1.
</event>
<event>
 5   0  0.1798917E-04  0.2249107E+04  0.7818609E-02  0.8498262E-01
        2   -1    0    0  501    0  0.00000000000E+00  0.00000000000E+00  0.13737917723E+04  0.13737917723E+04  0.25500000920E-02 0.  1.
       -2   -1    0    0    0  501  0.00000000000E+00  0.00000000000E+00 -0.92053279398E+03  0.92053279399E+03  0.25500000920E-02 0. -1.
    10030    2    1    2    0    0  0.00000000000E+00  0.00000000000E+00  0.45325897834E+03  0.22943245663E+04  0.22491068259E+04 0.  0.
        4    1    3    3  502    0  0.98155143262E+03 -0.38118474425E+03 -0.17611652564E+03  0.10675971467E+04  0.12699999809E+01 0.  1.
       -4    1    3    3    0  502 -0.98155143262E+03  0.38118474425E+03  0.62937550398E+03  0.12267274196E+04  0.12699999809E+01 0. -1.
</event>
<event>
 5   0  0.8784659E-05  0.2201732E+04  0.7818609E-02  0.8517707E-01
       -1   -1    0    0    0  501  0.00000000000E+00  0.00000000000E+00  0.12600835220E+04  0.12600835220E+04  0.50400001928E-02 0.  1.
        1   -1    0    0  501    0  0.00000000000E+00  0.00000000000E+00 -0.96176656073E+03  0.96176656074E+03  0.50400001928E-02 0. -1.
    10030    2    1    2    0    0  0.00000000000E+00  0.00000000000E+00  0.29831696127E+03  0.22218500828E+04  0.22017322228E+04 0.  0.
        4    1    3    3  502    0 -0.31162110487E+03 -0.24901676343E+03  0.11845881800E+04  0.12499471311E+04  0.12699999809E+01 0.  1.
       -4    1    3    3    0  502  0.31162110487E+03  0.24901676343E+03 -0.88627121871E+03  0.97190295167E+03  0.12699999809E+01 0. -1.
</event>
<event>
 5   0  0.8470971E-05  0.2053512E+04  0.7818609E-02  0.8582003E-01
       -1   -1    0    0    0  501  0.00000000000E+00  0.00000000000E+00  0.65178287162E+03  0.65178287164E+03  0.50400001928E-02 0. -1.
        1   -1    0    0  501    0  0.00000000000E+00  0.00000000000E+00 -0.16174522900E+04  0.16174522900E+04  0.50400001928E-02 0.  1.
    10030    2    1    2    0    0  0.00000000000E+00  0.00000000000E+00 -0.96566941835E+03  0.22692351616E+04  0.20535118196E+04 0.  0.
        2    1    3    3  502    0  0.63314209173E+02  0.17872278548E+03 -0.15979385250E+04  0.16091482383E+04  0.25500000920E-02 0.  1.
       -2    1    3    3    0  502 -0.63314209173E+02 -0.17872278548E+03  0.63226910664E+03  0.66008692333E+03  0.25500000920E-02 0. -1.
</event>
<event>
 5   0  0.8470971E-05  0.2211428E+04  0.7818609E-02  0.8513687E-01
        1   -1    0    0  501    0  0.00000000000E+00  0.00000000000E+00  0.26372691122E+04  0.26372691122E+04  0.50400001928E-02 0.  1.
       -1   -1    0    0    0  501  0.00000000000E+00  0.00000000000E+00 -0.46358694213E+03  0.46358694216E+03  0.50400001928E-02 0. -1.
    10030    2    1    2    0    0  0.00000000000E+00  0.00000000000E+00  0.21736821701E+04  0.31008560544E+04  0.22114280665E+04 0.  0.
        2    1    3    3  502    0  0.19093933220E+03 -0.97706398399E+03  0.17614878920E+04  0.20233515392E+04  0.25500000920E-02 0.  1.
       -2    1    3    3    0  502 -0.19093933220E+03  0.97706398399E+03  0.41219427806E+03  0.10775045152E+04  0.25500000920E-02 0. -1.
</event>
<event>
 5   0  0.1805501E-04  0.2096088E+04  0.7818609E-02  0.8562969E-01
       -2   -1    0    0    0  501  0.00000000000E+00  0.00000000000E+00  0.82161976594E+03  0.82161976594E+03  0.25500000920E-02 0.  1.
        2   -1    0    0  501    0  0.00000000000E+00  0.00000000000E+00 -0.13368665706E+04  0.13368665706E+04  0.25500000920E-02 0. -1.
    10030    2    1    2    0    0  0.00000000000E+00  0.00000000000E+00 -0.51524680468E+03  0.21584863366E+04  0.20960877833E+04 0.  0.
        2    1    3    3  502    0  0.66875139239E+03  0.78624096650E+03 -0.44466959625E+03  0.11238924913E+04  0.25500000920E-02 0. -1.
       -2    1    3    3    0  502 -0.66875139239E+03 -0.78624096650E+03 -0.70577208431E+02  0.10345938452E+04  0.25500000920E-02 0.  1.
</event>
<event>
 5   0  0.8306787E-05  0.2201662E+04  0.7818609E-02  0.8517737E-01
       -1   -1    0    0    0  501  0.00000000000E+00  0.00000000000E+00  0.55254804838E+03  0.55254804840E+03  0.50400001928E-02 0.  1.
        1   -1    0    0  501    0  0.00000000000E+00  0.00000000000E+00 -0.21931651490E+04  0.21931651490E+04  0.50400001928E-02 0. -1.
    10030    2    1    2    0    0  0.00000000000E+00  0.00000000000E+00 -0.16406171007E+04  0.27457131974E+04  0.22016622111E+04 0.  0.
        1    1    3    3  502    0  0.54723765797E+03  0.70524303434E+03 -0.16922071018E+02  0.89281753360E+03  0.50400001928E-02 0. -1.
       -1    1    3    3    0  502 -0.54723765797E+03 -0.70524303434E+03 -0.16236950296E+04  0.18528956638E+04  0.50400001928E-02 0.  1.
</event>
<event>
 5   0  0.8470971E-05  0.2220522E+04  0.7818609E-02  0.8509935E-01
       -1   -1    0    0    0  501  0.00000000000E+00  0.00000000000E+00  0.93912106499E+03  0.93912106500E+03  0.50400001928E-02 0.  1.
        1   -1    0    0  501    0  0.00000000000E+00  0.00000000000E+00 -0.13125888371E+04  0.13125888371E+04  0.50400001928E-02 0. -1.
    10030    2    1    2    0    0  0.00000000000E+00  0.00000000000E+00 -0.37346777213E+03  0.22517099021E+04  0.22205223049E+04 0.  0.
        2    1    3    3  502    0 -0.94430550934E+02 -0.10939483050E+04 -0.19986488260E+02  0.10981982893E+04  0.25500000920E-02 0.  1.
       -2    1    3    3    0  502  0.94430550934E+02  0.10939483050E+04 -0.35348128387E+03  0.11535116128E+04  0.25500000920E-02 0. -1.
</event>
<event>
 5   0  0.8602414E-05  0.2151752E+04  0.7818609E-02  0.8538783E-01
       -1   -1    0    0    0  501  0.00000000000E+00  0.00000000000E+00  0.65048031092E+03  0.65048031094E+03  0.50400001928E-02 0. -1.
        1   -1    0    0  501    0  0.00000000000E+00  0.00000000000E+00 -0.17794690180E+04  0.17794690180E+04  0.50400001928E-02 0.  1.
    10030    2    1    2    0    0  0.00000000000E+00  0.00000000000E+00 -0.11289887071E+04  0.24299493289E+04  0.21517523651E+04 0.  0.
        3    1    3    3  502    0  0.25471483470E+03 -0.74456735020E+03 -0.13930023246E+04  0.15999111452E+04  0.10100000352E+00 0.  1.
       -3    1    3    3    0  502 -0.25471483470E+03  0.74456735020E+03  0.26401361754E+03  0.83003818373E+03  0.10100000352E+00 0. -1.
</event>
<event>
 5   0  0.8784659E-05  0.2178244E+04  0.7818609E-02  0.8527538E-01
       -1   -1    0    0    0  501  0.00000000000E+00  0.00000000000E+00  0.96903508347E+03  0.96903508349E+03  0.50400001928E-02 0.  1.
        1   -1    0    0  501    0  0.00000000000E+00  0.00000000000E+00 -0.12240906702E+04  0.12240906702E+04  0.50400001928E-02 0. -1.
    10030    2    1    2    0    0  0.00000000000E+00  0.00000000000E+00 -0.25505558668E+03  0.21931257537E+04  0.21782440678E+04 0.  0.
        4    1    3    3  502    0  0.45194818116E+03 -0.95219595132E+03  0.14866532583E+03  0.10644422390E+04  0.12699999809E+01 0.  1.
       -4    1    3    3    0  502 -0.45194818116E+03  0.95219595132E+03 -0.40372091252E+03  0.11286835147E+04  0.12699999809E+01 0. -1.
</event>
<event>
 5   0  0.1798917E-04  0.2182586E+04  0.7818609E-02  0.8525711E-01
        2   -1    0    0  501    0  0.00000000000E+00  0.00000000000E+00  0.12874340005E+04  0.12874340005E+04  0.25500000920E-02 0. -1.
       -2   -1    0    0    0  501  0.00000000000E+00  0.00000000000E+00 -0.92503442920E+03  0.92503442920E+03  0.25500000920E-02 0.  1.
    10030    2    1    2    0    0  0.00000000000E+00  0.00000000000E+00  0.36239957130E+03  0.22124684297E+04  0.21825863335E+04 0.  0.
        4    1    3    3  502    0 -0.95066010093E+03  0.53584508668E+03  0.18716064018E+03  0.11072105954E+04  0.12699999809E+01 0.  1.
       -4    1    3    3    0  502  0.95066010093E+03 -0.53584508668E+03  0.17523893112E+03  0.11052578343E+04  0.12699999809E+01 0. -1.
</event>
<event>
 5   0  0.1805501E-04  0.2183843E+04  0.7818609E-02  0.8525183E-01
        2   -1    0    0  501    0  0.00000000000E+00  0.00000000000E+00  0.16019873829E+04  0.16019873829E+04  0.25500000920E-02 0.  1.
       -2   -1    0    0    0  501  0.00000000000E+00  0.00000000000E+00 -0.74425807936E+03  0.74425807937E+03  0.25500000920E-02 0. -1.
    10030    2    1    2    0    0  0.00000000000E+00  0.00000000000E+00  0.85772930349E+03  0.23462454622E+04  0.21838425335E+04 0.  0.
        2    1    3    3  502    0  0.83397927924E+03  0.57317071502E+03 -0.11816453116E+02  0.10120206200E+04  0.25500000920E-02 0. -1.
       -2    1    3    3    0  502 -0.83397927924E+03 -0.57317071502E+03  0.86954575661E+03  0.13342248422E+04  0.25500000920E-02 0.  1.
</event>
<event>
 5   0  0.1680258E-04  0.2155759E+04  0.7818609E-02  0.8537071E-01
       -2   -1    0    0    0  501  0.00000000000E+00  0.00000000000E+00  0.11787355726E+04  0.11787355726E+04  0.25500000920E-02 0.  1.
        2   -1    0    0  501    0  0.00000000000E+00  0.00000000000E+00 -0.98565318739E+03  0.98565318740E+03  0.25500000920E-02 0. -1.
    10030    2    1    2    0    0  0.00000000000E+00  0.00000000000E+00  0.19308238518E+03  0.21643887600E+04  0.21557592391E+04 0.  0.
        5    1    3    3  502    0 -0.62322401021E+03 -0.51038318453E+03 -0.62249827238E+03  0.10180497783E+04  0.46999998093E+01 0. -1.
       -5    1    3    3    0  502  0.62322401021E+03  0.51038318453E+03  0.81558065755E+03  0.11463389817E+04  0.46999998093E+01 0.  1.
</event>
<event>
 5   0  0.1733962E-04  0.2177244E+04  0.7818609E-02  0.8527960E-01
        2   -1    0    0  501    0  0.00000000000E+00  0.00000000000E+00  0.24548079542E+04  0.24548079542E+04  0.25500000920E-02 0.  1.
       -2   -1    0    0    0  501  0.00000000000E+00  0.00000000000E+00 -0.48276603926E+03  0.48276603927E+03  0.25500000920E-02 0. -1.
    10030    2    1    2    0    0  0.00000000000E+00  0.00000000000E+00  0.19720419150E+04  0.29375739935E+04  0.21772440499E+04 0.  0.
        3    1    3    3  502    0 -0.79721045436E+03  0.63890245288E+03  0.47874948531E+03  0.11282472835E+04  0.10100000352E+00 0. -1.
       -3    1    3    3    0  502  0.79721045436E+03 -0.63890245288E+03  0.14932924297E+04  0.18093267100E+04  0.10100000352E+00 0.  1.
</event>
<event>
 5   0  0.1754356E-04  0.2178712E+04  0.7818609E-02  0.8527341E-01
        2   -1    0    0  501    0  0.00000000000E+00  0.00000000000E+00  0.19365138368E+04  0.19365138368E+04  0.25500000920E-02 0. -1.
       -2   -1    0    0    0  501  0.00000000000E+00  0.00000000000E+00 -0.61280014181E+03  0.61280014181E+03  0.25500000920E-02 0.  1.
    10030    2    1    2    0    0  0.00000000000E+00  0.00000000000E+00  0.13237136950E+04  0.25493139786E+04  0.21787115034E+04 0.  0.
        1    1    3    3  502    0  0.47380966917E+03 -0.37321030128E+03  0.17233102603E+04  0.18258093507E+04  0.50400001928E-02 0. -1.
       -1    1    3    3    0  502 -0.47380966917E+03  0.37321030128E+03 -0.39959656535E+03  0.72350462794E+03  0.50400001928E-02 0.  1.
</event>
<event>
 5   0  0.8602414E-05  0.2165470E+04  0.7818609E-02  0.8532939E-01
        1   -1    0    0  501    0  0.00000000000E+00  0.00000000000E+00  0.10628852180E+04  0.10628852180E+04  0.50400001928E-02 0.  1.
       -1   -1    0    0    0  501  0.00000000000E+00  0.00000000000E+00 -0.11029556565E+04  0.11029556566E+04  0.50400001928E-02 0. -1.
    10030    2    1    2    0    0  0.00000000000E+00  0.00000000000E+00 -0.40070438554E+02  0.21658408745E+04  0.21654701692E+04 0.  0.
        3    1    3    3  502    0 -0.23969357633E+03 -0.10465616800E+04 -0.15995517448E+03  0.10855091104E+04  0.10100000352E+00 0. -1.
       -3    1    3    3    0  502  0.23969357633E+03  0.10465616800E+04  0.11988473593E+03  0.10803317642E+04  0.10100000352E+00 0.  1.
</event>
<event>
 5   0  0.8602414E-05  0.2184899E+04  0.7818609E-02  0.8524740E-01
       -1   -1    0    0    0  501  0.00000000000E+00  0.00000000000E+00  0.11572721655E+04  0.11572721655E+04  0.50400001928E-02 0.  1.
        1   -1    0    0  501    0  0.00000000000E+00  0.00000000000E+00 -0.10312579269E+04  0.10312579270E+04  0.50400001928E-02 0. -1.
    10030    2    1    2    0    0  0.00000000000E+00  0.00000000000E+00  0.12601423858E+03  0.21885300925E+04  0.21848991687E+04 0.  0.
        3    1    3    3  502    0  0.14410784856E+02  0.66502784821E+03  0.93103617046E+03  0.11442456338E+04  0.10100000352E+00 0.  1.
       -3    1    3    3    0  502 -0.14410784856E+02 -0.66502784821E+03 -0.80502193188E+03  0.10442844587E+04  0.10100000352E+00 0. -1.
</event>
<event>
 5   0  0.1680258E-04  0.2279620E+04  0.7818609E-02  0.8486000E-01
        2   -1    0    0  501    0  0.00000000000E+00  0.00000000000E+00  0.18445279670E+04  0.18445279670E+04  0.25500000920E-02 0.  1.
       -2   -1    0    0    0  501  0.00000000000E+00  0.00000000000E+00 -0.70433538148E+03  0.70433538149E+03  0.25500000920E-02 0. -1.
    10030    2    1    2    0    0  0.00000000000E+00  0.00000000000E+00  0.11401925855E+04  0.25488633485E+04  0.22796195378E+04 0.  0.
        5    1    3    3  502    0 -0.36298266718E+02 -0.10015548493E+04  0.11770910815E+04  0.15459609259E+04  0.46999998093E+01 0.  1.
       -5    1    3    3    0  502  0.36298266718E+02  0.10015548493E+04 -0.36898495995E+02  0.10029024226E+04  0.46999998093E+01 0. -1.
</event>
<event>
 5   0  0.8784659E-05  0.2086814E+04  0.7818609E-02  0.8567074E-01
       -1   -1    0    0    0  501  0.00000000000E+00  0.00000000000E+00  0.84528688195E+03  0.84528688197E+03  0.50400001928E-02 0. -1.
        1   -1    0    0  501    0  0.00000000000E+00  0.00000000000E+00 -0.12879634460E+04  0.12879634460E+04  0.50400001928E-02 0.  1.
    10030    2    1    2    0    0  0.00000000000E+00  0.00000000000E+00 -0.44267656405E+03  0.21332503280E+04  0.20868144195E+04 0.  0.
        4    1    3    3  502    0 -0.73791244207E+03 -0.49541661638E+03  0.33739947689E+03  0.95067997552E+03  0.12699999809E+01 0. -1.
       -4    1    3    3    0  502  0.73791244207E+03  0.49541661638E+03 -0.78007604094E+03  0.11825703525E+04  0.12699999809E+01 0.  1.
</event>
<event>
 5   0  0.1754356E-04  0.2230666E+04  0.7818609E-02  0.8505772E-01
       -2   -1    0    0    0  501  0.00000000000E+00  0.00000000000E+00  0.49736457452E+03  0.49736457453E+03  0.25500000920E-02 0. -1.
        2   -1    0    0  501    0  0.00000000000E+00  0.00000000000E+00 -0.25011178286E+04  0.25011178286E+04  0.25500000920E-02 0.  1.
    10030    2    1    2    0    0  0.00000000000E+00  0.00000000000E+00 -0.20037532541E+04  0.29984824031E+04  0.22306657344E+04 0.  0.
        1    1    3    3  502    0  0.68510871631E+03 -0.89225528056E+02  0.17508025499E+03  0.71273293998E+03  0.50400001928E-02 0. -1.
       -1    1    3    3    0  502 -0.68510871631E+03  0.89225528056E+02 -0.21788335091E+04  0.22857494631E+04  0.50400001928E-02 0.  1.
</event>
<event>
 5   0  0.1733962E-04  0.2220763E+04  0.7818609E-02  0.8509836E-01
        2   -1    0    0  501    0  0.00000000000E+00  0.00000000000E+00  0.16548147747E+04  0.16548147747E+04  0.25500000920E-02 0.  1.
       -2   -1    0    0    0  501  0.00000000000E+00  0.00000000000E+00 -0.74506618189E+03  0.74506618189E+03  0.25500000920E-02 0. -1.
    10030    2    1    2    0    0  0.00000000000E+00  0.00000000000E+00  0.90974859285E+03  0.23998809566E+04  0.22207625051E+04 0.  0.
        3    1    3    3  502    0 -0.31787030241E+03 -0.63995990296E+03  0.13733407920E+04  0.15481134157E+04  0.10100000352E+00 0.  1.
       -3    1    3    3    0  502  0.31787030241E+03  0.63995990296E+03 -0.46359219915E+03  0.85176754098E+03  0.10100000352E+00 0. -1.
</event>
<event>
 5   0  0.8602414E-05  0.2231633E+04  0.7818609E-02  0.8505376E-01
        1   -1    0    0  501    0  0.00000000000E+00  0.00000000000E+00  0.46821359326E+03  0.46821359328E+03  0.50400001928E-02 0.  1.
       -1   -1    0    0    0  501  0.00000000000E+00  0.00000000000E+00 -0.26591424526E+04  0.26591424526E+04  0.50400001928E-02 0. -1.
    10030    2    1    2    0    0  0.00000000000E+00  0.00000000000E+00 -0.21909288593E+04  0.31273560459E+04  0.22316331623E+04 0.  0.
        3    1    3    3  502    0 -0.64120246116E+03  0.22560440723E+03 -0.23355104757E+04  0.24324159055E+04  0.10100000352E+00 0. -1.
       -3    1    3    3    0  502  0.64120246116E+03 -0.22560440723E+03  0.14458161638E+03  0.69494014041E+03  0.10100000352E+00 0.  1.
</event>
<event>
 5   0  0.1733962E-04  0.2215949E+04  0.7818609E-02  0.8511819E-01
       -2   -1    0    0    0  501  0.00000000000E+00  0.00000000000E+00  0.82353651769E+03  0.82353651769E+03  0.25500000920E-02 0. -1.
        2   -1    0    0  501    0  0.00000000000E+00  0.00000000000E+00 -0.14906535421E+04  0.14906535421E+04  0.25500000920E-02 0.  1.
    10030    2    1    2    0    0  0.00000000000E+00  0.00000000000E+00 -0.66711702445E+03  0.23141900598E+04  0.22159491214E+04 0.  0.
        3    1    3    3  502    0  0.72722892065E+03 -0.41046216832E+03 -0.10940359677E+04  0.13763196589E+04  0.10100000352E+00 0.  1.
       -3    1    3    3    0  502 -0.72722892065E+03  0.41046216832E+03  0.42691894324E+03  0.93787040094E+03  0.10100000352E+00 0. -1.
</event>
<event>
 5   0  0.1754356E-04  0.2275842E+04  0.7818609E-02  0.8487508E-01
        2   -1    0    0  501    0  0.00000000000E+00  0.00000000000E+00  0.15939888416E+04  0.15939888416E+04  0.25500000920E-02 0.  1.
       -2   -1    0    0    0  501  0.00000000000E+00  0.00000000000E+00 -0.81234204608E+03  0.81234204609E+03  0.25500000920E-02 0. -1.
    10030    2    1    2    0    0  0.00000000000E+00  0.00000000000E+00  0.78164679551E+03  0.24063308877E+04  0.22758419603E+04 0.  0.
        1    1    3    3  502    0  0.46006087723E+03 -0.15037675917E+01  0.14912694348E+04  0.15606225678E+04  0.50400001928E-02 0.  1.
       -1    1    3    3    0  502 -0.46006087723E+03  0.15037675917E+01 -0.70962263927E+03  0.84570831985E+03  0.50400001928E-02 0. -1.
</event>
<event>
 5   0  0.8470971E-05  0.2162133E+04  0.7818609E-02  0.8534356E-01
        1   -1    0    0  501    0  0.00000000000E+00  0.00000000000E+00  0.15208787458E+04  0.15208787458E+04  0.50400001928E-02 0. -1.
       -1   -1    0    0    0  501  0.00000000000E+00  0.00000000000E+00 -0.76844066050E+03  0.76844066052E+03  0.50400001928E-02 0.  1.
    10030    2    1    2    0    0  0.00000000000E+00  0.00000000000E+00  0.75243808531E+03  0.22893194063E+04  0.21621332688E+04 0.  0.
        2    1    3    3  502    0  0.31163130709E+01 -0.58162341616E+03 -0.58865383833E+03  0.82753178248E+03  0.25500000920E-02 0.  1.
       -2    1    3    3    0  502 -0.31163130709E+01  0.58162341616E+03  0.13410919236E+04  0.14617876239E+04  0.25500000920E-02 0. -1.
</event>
<event>
 5   0  0.1798917E-04  0.2262261E+04  0.7818609E-02  0.8492951E-01
       -2   -1    0    0    0  501  0.00000000000E+00  0.00000000000E+00  0.11126699880E+04  0.11126699880E+04  0.25500000920E-02 0.  1.
        2   -1    0    0  501    0  0.00000000000E+00  0.00000000000E+00 -0.11498977912E+04  0.11498977912E+04  0.25500000920E-02 0. -1.
    10030    2    1    2    0    0  0.00000000000E+00  0.00000000000E+00 -0.37227803230E+02  0.22625677792E+04  0.22622614893E+04 0.  0.
        4    1    3    3  502    0 -0.45959623512E+03  0.43972559784E+03  0.91685644126E+03  0.11158918619E+04  0.12699999809E+01 0.  1.
       -4    1    3    3    0  502  0.45959623512E+03 -0.43972559784E+03 -0.95408424449E+03  0.11466759173E+04  0.12699999809E+01 0. -1.
</event>
<event>
 5   0  0.1805501E-04  0.2249179E+04  0.7818609E-02  0.8498233E-01
        2   -1    0    0  501    0  0.00000000000E+00  0.00000000000E+00  0.21832384410E+04  0.21832384410E+04  0.25500000920E-02 0.  1.
       -2   -1    0    0    0  501  0.00000000000E+00  0.00000000000E+00 -0.57927787569E+03  0.57927787569E+03  0.25500000920E-02 0. -1.
    10030    2    1    2    0    0  0.00000000000E+00  0.00000000000E+00  0.16039605653E+04  0.27625163167E+04  0.22491791625E+04 0.  0.
        2    1    3    3  502    0 -0.98495971058E+02 -0.10276313294E+04  0.25410829282E+03  0.10631550358E+04  0.25500000920E-02 0. -1.
       -2    1    3    3    0  502  0.98495971058E+02  0.10276313294E+04  0.13498522725E+04  0.16993612809E+04  0.25500000920E-02 0.  1.
</event>
<event>
 5   0  0.8602414E-05  0.2103548E+04  0.7818609E-02  0.8559682E-01
       -1   -1    0    0    0  501  0.00000000000E+00  0.00000000000E+00  0.20803305367E+04  0.20803305367E+04  0.50400001928E-02 0. -1.
        1   -1    0    0  501    0  0.00000000000E+00  0.00000000000E+00 -0.53175595599E+03  0.53175595601E+03  0.50400001928E-02 0.  1.
    10030    2    1    2    0    0  0.00000000000E+00  0.00000000000E+00  0.15485745807E+04  0.26120864927E+04  0.21035476257E+04 0.  0.
        3    1    3    3  502    0 -0.62027304763E+03  0.31423995584E+03 -0.20563027076E+03  0.72509945657E+03  0.10100000352E+00 0.  1.
       -3    1    3    3    0  502  0.62027304763E+03 -0.31423995584E+03  0.17542048515E+04  0.18869870362E+04  0.10100000352E+00 0. -1.
</event>
<event>
 5   0  0.8784659E-05  0.2328084E+04  0.7818609E-02  0.8466930E-01
       -1   -1    0    0    0  501  0.00000000000E+00  0.00000000000E+00  0.90545423337E+03  0.90545423339E+03  0.50400001928E-02 0. -1.
        1   -1    0    0  501    0  0.00000000000E+00  0.00000000000E+00 -0.14964792536E+04  0.14964792536E+04  0.50400001928E-02 0.  1.
    10030    2    1    2    0    0  0.00000000000E+00  0.00000000000E+00 -0.59102502021E+03  0.24019334870E+04  0.23280837402E+04 0.  0.
        4    1    3    3  502    0  0.26854004875E+03  0.87108800374E+03  0.45138798051E+03  0.10171827711E+04  0.12699999809E+01 0. -1.
       -4    1    3    3    0  502 -0.26854004875E+03 -0.87108800374E+03 -0.10424130007E+04  0.13847507158E+04  0.12699999809E+01 0.  1.
</event>
<event>
 5   0  0.7954459E-05  0.2225827E+04  0.7818609E-02  0.8507754E-01
       -1   -1    0    0    0  501  0.00000000000E+00  0.00000000000E+00  0.52533138732E+03  0.52533138734E+03  0.50400001928E-02 0.  1.
        1   -1    0    0  501    0  0.00000000000E+00  0.00000000000E+00 -0.23577057304E+04  0.23577057304E+04  0.50400001928E-02 0. -1.
    10030    2    1    2    0    0  0.00000000000E+00  0.00000000000E+00 -0.18323743430E+04  0.28830371177E+04  0.22258273269E+04 0.  0.
        5    1    3    3  502    0 -0.39327234628E+03  0.73400494596E+03  0.40143624652E+02  0.83370258465E+03  0.46999998093E+01 0.  1.
       -5    1    3    3    0  502  0.39327234628E+03 -0.73400494596E+03 -0.18725179677E+04  0.20493345331E+04  0.46999998093E+01 0. -1.
</event>
<event>
 5   0  0.8784659E-05  0.1650465E+04  0.7818609E-02  0.8790131E-01
       -1   -1    0    0    0  501  0.00000000000E+00  0.00000000000E+00  0.46577389139E+03  0.46577389141E+03  0.50400001928E-02 0.  1.
        1   -1    0    0  501    0  0.00000000000E+00  0.00000000000E+00 -0.14621019416E+04  0.14621019416E+04  0.50400001928E-02 0. -1.
    10030    2    1    2    0    0  0.00000000000E+00  0.00000000000E+00 -0.99632805017E+03  0.19278758330E+04  0.16504652810E+04 0.  0.
        4    1    3    3  502    0 -0.21717071649E+03 -0.28287291710E+03  0.37111612780E+03  0.51469311298E+03  0.12699999809E+01 0.  1.
       -4    1    3    3    0  502  0.21717071649E+03  0.28287291710E+03 -0.13674441780E+04  0.14131827200E+04  0.12699999809E+01 0. -1.
</event>
<event>
 5   0  0.8306787E-05  0.2175977E+04  0.7818609E-02  0.8528494E-01
       -1   -1    0    0    0  501  0.00000000000E+00  0.00000000000E+00  0.10612289440E+04  0.10612289440E+04  0.50400001928E-02 0. -1.
        1   -1    0    0  501    0  0.00000000000E+00  0.00000000000E+00 -0.11154230364E+04  0.11154230364E+04  0.50400001928E-02 0.  1.
    10030    2    1    2    0    0  0.00000000000E+00  0.00000000000E+00 -0.54194092395E+02  0.21766519805E+04  0.21759772160E+04 0.  0.
        1    1    3    3  502    0 -0.19842169159E+03 -0.95064509666E+02  0.10387430004E+04  0.10617887971E+04  0.50400001928E-02 0. -1.
       -1    1    3    3    0  502  0.19842169159E+03  0.95064509666E+02 -0.10929370928E+04  0.11148631834E+04  0.50400001928E-02 0.  1.
</event>
<event>
 5   0  0.1680258E-04  0.2270486E+04  0.7818609E-02  0.8489650E-01
       -2   -1    0    0    0  501  0.00000000000E+00  0.00000000000E+00  0.80703340538E+03  0.80703340539E+03  0.25500000920E-02 0. -1.
        2   -1    0    0  501    0  0.00000000000E+00  0.00000000000E+00 -0.15969305737E+04  0.15969305737E+04  0.25500000920E-02 0.  1.
    10030    2    1    2    0    0  0.00000000000E+00  0.00000000000E+00 -0.78989716831E+03  0.24039639791E+04  0.22704856917E+04 0.  0.
        5    1    3    3  502    0 -0.71143149097E+03  0.88048939709E+03 -0.30412771270E+03  0.11721399662E+04  0.46999998093E+01 0. -1.
       -5    1    3    3    0  502  0.71143149097E+03 -0.88048939709E+03 -0.48576945561E+03  0.12318240129E+04  0.46999998093E+01 0.  1.
</event>
<event>
 5   0  0.8784659E-05  0.2079122E+04  0.7818609E-02  0.8570496E-01
       -1   -1    0    0    0  501  0.00000000000E+00  0.00000000000E+00  0.84166143604E+03  0.84166143605E+03  0.50400001928E-02 0.  1.
        1   -1    0    0  501    0  0.00000000000E+00  0.00000000000E+00 -0.12839929202E+04  0.12839929202E+04  0.50400001928E-02 0. -1.
    10030    2    1    2    0    0  0.00000000000E+00  0.00000000000E+00 -0.44233148417E+03  0.21256543563E+04  0.20791222428E+04 0.  0.
        4    1    3    3  502    0 -0.89435259882E+03  0.13838371166E+02 -0.76276473117E+03  0.11755295486E+04  0.12699999809E+01 0. -1.
       -4    1    3    3    0  502  0.89435259882E+03 -0.13838371166E+02  0.32043324700E+03  0.95012480770E+03  0.12699999809E+01 0.  1.
</event>
<event>
 5   0  0.1680258E-04  0.2132467E+04  0.7818609E-02  0.8547075E-01
       -2   -1    0    0    0  501  0.00000000000E+00  0.00000000000E+00  0.85088158852E+03  0.85088158852E+03  0.25500000920E-02 0. -1.
        2   -1    0    0  501    0  0.00000000000E+00  0.00000000000E+00 -0.13360889711E+04  0.13360889711E+04  0.25500000920E-02 0.  1.
    10030    2    1    2    0    0  0.00000000000E+00  0.00000000000E+00 -0.48520738256E+03  0.21869705596E+04  0.21324666526E+04 0.  0.
        5    1    3    3  502    0 -0.37928659479E+03 -0.97857790951E+03 -0.49759391068E+02  0.10507003060E+04  0.46999998093E+01 0. -1.
       -5    1    3    3    0  502  0.37928659479E+03  0.97857790951E+03 -0.43544799149E+03  0.11362702536E+04  0.46999998093E+01 0.  1.
</event>
<event>
 5   0  0.1733962E-04  0.2226230E+04  0.7818609E-02  0.8507589E-01
        2   -1    0    0  501    0  0.00000000000E+00  0.00000000000E+00  0.14931497703E+04  0.14931497703E+04  0.25500000920E-02 0. -1.
       -2   -1    0    0    0  501  0.00000000000E+00  0.00000000000E+00 -0.82980647777E+03  0.82980647778E+03  0.25500000920E-02 0.  1.
    10030    2    1    2    0    0  0.00000000000E+00  0.00000000000E+00  0.66334329248E+03  0.23229562480E+04  0.22262303130E+04 0.  0.
        3    1    3    3  502    0 -0.32950472200E+03  0.53146534922E+03  0.12925490577E+04  0.14358662389E+04  0.10100000352E+00 0. -1.
       -3    1    3    3    0  502  0.32950472200E+03 -0.53146534922E+03 -0.62920576518E+03  0.88709000917E+03  0.10100000352E+00 0.  1.
</event>
<event>
 5   0  0.1733962E-04  0.2111534E+04  0.7818609E-02  0.8556180E-01
        2   -1    0    0  501    0  0.00000000000E+00  0.00000000000E+00  0.26180913277E+04  0.26180913277E+04  0.25500000920E-02 0.  1.
       -2   -1    0    0    0  501  0.00000000000E+00  0.00000000000E+00 -0.42574667554E+03  0.42574667555E+03  0.25500000920E-02 0. -1.
    10030    2    1    2    0    0  0.00000000000E+00  0.00000000000E+00  0.21923446522E+04  0.30438380033E+04  0.21115337355E+04 0.  0.
        3    1    3    3  502    0  0.41385357711E+03  0.93184429127E+03  0.14910437906E+04  0.18063278113E+04  0.10100000352E+00 0.  1.
       -3    1    3    3    0  502 -0.41385357711E+03 -0.93184429127E+03  0.70130086165E+03  0.12375101920E+04  0.10100000352E+00 0. -1.
</event>
<event>
 5   0  0.7954459E-05  0.2161623E+04  0.7818609E-02  0.8534573E-01
       -1   -1    0    0    0  501  0.00000000000E+00  0.00000000000E+00  0.12790836081E+04  0.12790836081E+04  0.50400001928E-02 0. -1.
        1   -1    0    0  501    0  0.00000000000E+00  0.00000000000E+00 -0.91327355947E+03  0.91327355949E+03  0.50400001928E-02 0.  1.
    10030    2    1    2    0    0  0.00000000000E+00  0.00000000000E+00  0.36581004863E+03  0.21923571676E+04  0.21616227605E+04 0.  0.
        5    1    3    3  502    0 -0.14881284902E+03  0.94962928986E+03 -0.31827693334E+03  0.10125528868E+04  0.46999998093E+01 0. -1.
       -5    1    3    3    0  502  0.14881284902E+03 -0.94962928986E+03  0.68408698198E+03  0.11798042808E+04  0.46999998093E+01 0.  1.
</event>
<event>
 5   0  0.1680258E-04  0.2196490E+04  0.7818609E-02  0.8519890E-01
        2   -1    0    0  501    0  0.00000000000E+00  0.00000000000E+00  0.42938331564E+03  0.42938331564E+03  0.25500000920E-02 0. -1.
       -2   -1    0    0    0  501  0.00000000000E+00  0.00000000000E+00 -0.28090103504E+04  0.28090103504E+04  0.25500000920E-02 0.  1.
    10030    2    1    2    0    0  0.00000000000E+00  0.00000000000E+00 -0.23796270347E+04  0.32383936660E+04  0.21964900891E+04 0.  0.
        5    1    3    3  502    0 -0.68356227768E+03  0.28343907486E+03 -0.23862413954E+04  0.24983524939E+04  0.46999998093E+01 0.  1.
       -5    1    3    3    0  502  0.68356227768E+03 -0.28343907486E+03  0.66143606943E+01  0.74004117209E+03  0.46999998093E+01 0. -1.
</event>
<event>
 5   0  0.1733962E-04  0.2209386E+04  0.7818609E-02  0.8514531E-01
        2   -1    0    0  501    0  0.00000000000E+00  0.00000000000E+00  0.10346417354E+04  0.10346417354E+04  0.25500000920E-02 0. -1.
       -2   -1    0    0    0  501  0.00000000000E+00  0.00000000000E+00 -0.11794876537E+04  0.11794876537E+04  0.25500000920E-02 0.  1.
    10030    2    1    2    0    0  0.00000000000E+00  0.00000000000E+00 -0.14484591827E+03  0.22141293891E+04  0.22093864785E+04 0.  0.
        3    1    3    3  502    0 -0.18173525427E+03  0.91588887402E+03 -0.66400112903E+03  0.11457650901E+04  0.10100000352E+00 0.  1.
       -3    1    3    3    0  502  0.18173525427E+03 -0.91588887402E+03  0.51915521076E+03  0.10683642989E+04  0.10100000352E+00 0. -1.
</event>
<event>
 5   0  0.8602414E-05  0.2201288E+04  0.7818609E-02  0.8517892E-01
        1   -1    0    0  501    0  0.00000000000E+00  0.00000000000E+00  0.90355719573E+03  0.90355719574E+03  0.50400001928E-02 0.  1.
       -1   -1    0    0    0  501  0.00000000000E+00  0.00000000000E+00 -0.13407196964E+04  0.13407196964E+04  0.50400001928E-02 0. -1.
    10030    2    1    2    0    0  0.00000000000E+00  0.00000000000E+00 -0.43716250069E+03  0.22442768922E+04  0.22012877405E+04 0.  0.
        3    1    3    3  502    0 -0.84634929385E+02  0.25224725264E+03  0.87027637935E+03  0.91003996307E+03  0.10100000352E+00 0.  1.
       -3    1    3    3    0  502  0.84634929385E+02 -0.25224725264E+03 -0.13074388800E+04  0.13342369291E+04  0.10100000352E+00 0. -1.
</event>
<event>
 5   0  0.8602414E-05  0.2251889E+04  0.7818609E-02  0.8497136E-01
       -1   -1    0    0    0  501  0.00000000000E+00  0.00000000000E+00  0.77188632265E+03  0.77188632267E+03  0.50400001928E-02 0. -1.
        1   -1    0    0  501    0  0.00000000000E+00  0.00000000000E+00 -0.16424059827E+04  0.16424059827E+04  0.50400001928E-02 0.  1.
    10030    2    1    2    0    0  0.00000000000E+00  0.00000000000E+00 -0.87051966007E+03  0.24142923054E+04  0.22518887311E+04 0.  0.
        3    1    3    3  502    0  0.24880944165E+03 -0.21853531822E+03  0.71849489725E+03  0.79113763097E+03  0.10100000352E+00 0. -1.
       -3    1    3    3    0  502 -0.24880944165E+03  0.21853531822E+03 -0.15890145573E+04  0.16231546744E+04  0.10100000352E+00 0.  1.
</event>
<event>
 5   0  0.8784659E-05  0.2189650E+04  0.7818609E-02  0.8522748E-01
       -1   -1    0    0    0  501  0.00000000000E+00  0.00000000000E+00  0.84199836920E+03  0.84199836921E+03  0.50400001928E-02 0.  1.
        1   -1    0    0  501    0  0.00000000000E+00  0.00000000000E+00 -0.14235682012E+04  0.14235682012E+04  0.50400001928E-02 0. -1.
    10030    2    1    2    0    0  0.00000000000E+00  0.00000000000E+00 -0.58156983201E+03  0.22655665704E+04  0.21896502953E+04 0.  0.
        4    1    3    3  502    0 -0.52151438767E+03 -0.75375677254E+03  0.32873476078E+03  0.97375288679E+03  0.12699999809E+01 0.  1.
       -4    1    3    3    0  502  0.52151438767E+03  0.75375677254E+03 -0.91030459279E+03  0.12918136836E+04  0.12699999809E+01 0. -1.
</event>
<event>
 5   0  0.1754356E-04  0.2184766E+04  0.7818609E-02  0.8524796E-01
        2   -1    0    0  501    0  0.00000000000E+00  0.00000000000E+00  0.17927911308E+04  0.17927911308E+04  0.25500000920E-02 0.  1.
       -2   -1    0    0    0  501  0.00000000000E+00  0.00000000000E+00 -0.66561027746E+03  0.66561027746E+03  0.25500000920E-02 0. -1.
    10030    2    1    2    0    0  0.00000000000E+00  0.00000000000E+00  0.11271808533E+04  0.24584014082E+04  0.21847656185E+04 0.  0.
        1    1    3    3  502    0  0.72626831888E+03  0.68577434102E+03  0.65996895262E+02  0.10010532993E+04  0.50400001928E-02 0. -1.
       -1    1    3    3    0  502 -0.72626831888E+03 -0.68577434102E+03  0.10611839581E+04  0.14573481090E+04  0.50400001928E-02 0.  1.
</event>
<event>
 5   0  0.1680258E-04  0.2021002E+04  0.7818609E-02  0.8596864E-01
        2   -1    0    0  501    0  0.00000000000E+00  0.00000000000E+00  0.22989396941E+04  0.22989396942E+04  0.25500000920E-02 0. -1.
       -2   -1    0    0    0  501  0.00000000000E+00  0.00000000000E+00 -0.44416654467E+03  0.44416654467E+03  0.25500000920E-02 0.  1.
    10030    2    1    2    0    0  0.00000000000E+00  0.00000000000E+00  0.18547731495E+04  0.27431062388E+04  0.20210018311E+04 0.  0.
        5    1    3    3  502    0 -0.31583867467E+03 -0.95979321973E+03  0.91173829223E+03  0.13609724085E+04  0.46999998093E+01 0.  1.
       -5    1    3    3    0  502  0.31583867467E+03  0.95979321973E+03  0.94303485725E+03  0.13821338304E+04  0.46999998093E+01 0. -1.
</event>
<event>
 5   0  0.1805501E-04  0.1880093E+04  0.7818609E-02  0.8664829E-01
        2   -1    0    0  501    0  0.00000000000E+00  0.00000000000E+00  0.80442609330E+03  0.80442609331E+03  0.25500000920E-02 0.  1.
       -2   -1    0    0    0  501  0.00000000000E+00  0.00000000000E+00 -0.10985313530E+04  0.10985313530E+04  0.25500000920E-02 0. -1.
    10030    2    1    2    0    0  0.00000000000E+00  0.00000000000E+00 -0.29410525971E+03  0.19029574463E+04  0.18800928538E+04 0.  0.
        2    1    3    3  502    0 -0.20096440312E+03  0.88214525737E+03  0.11123767328E+03  0.91155952432E+03  0.25500000920E-02 0. -1.
       -2    1    3    3    0  502  0.20096440312E+03 -0.88214525737E+03 -0.40534293299E+03  0.99139792200E+03  0.25500000920E-02 0.  1.
</event>
<event>
 5   0  0.1733962E-04  0.2173160E+04  0.7818609E-02  0.8529683E-01
       -2   -1    0    0    0  501  0.00000000000E+00  0.00000000000E+00  0.64045882052E+03  0.64045882053E+03  0.25500000920E-02 0. -1.
        2   -1    0    0  501    0  0.00000000000E+00  0.00000000000E+00 -0.18434539614E+04  0.18434539614E+04  0.25500000920E-02 0.  1.
    10030    2    1    2    0    0  0.00000000000E+00  0.00000000000E+00 -0.12029951409E+04  0.24839127820E+04  0.21731602332E+04 0.  0.
        3    1    3    3  502    0  0.11913860091E+03  0.82595096095E+03 -0.13969004974E+04  0.16271816143E+04  0.10100000352E+00 0.  1.
       -3    1    3    3    0  502 -0.11913860091E+03 -0.82595096095E+03  0.19390535650E+03  0.85673116764E+03  0.10100000352E+00 0. -1.
</event>
<event>
 5   0  0.8470971E-05  0.2194764E+04  0.7818609E-02  0.8520611E-01
        1   -1    0    0  501    0  0.00000000000E+00  0.00000000000E+00  0.19349131885E+04  0.19349131885E+04  0.50400001928E-02 0.  1.
       -1   -1    0    0    0  501  0.00000000000E+00  0.00000000000E+00 -0.62237791054E+03  0.62237791056E+03  0.50400001928E-02 0. -1.
    10030    2    1    2    0    0  0.00000000000E+00  0.00000000000E+00  0.13125352780E+04  0.25572910991E+04  0.21947639758E+04 0.  0.
        2    1    3    3  502    0  0.21739536106E+03  0.62880792469E+03  0.16731064806E+04  0.18005403202E+04  0.25500000920E-02 0.  1.
       -2    1    3    3    0  502 -0.21739536106E+03 -0.62880792469E+03 -0.36057120264E+03  0.75675077888E+03  0.25500000920E-02 0. -1.
</event>
<event>
 5   0  0.8306787E-05  0.2216445E+04  0.7818609E-02  0.8511615E-01
        1   -1    0    0  501    0  0.00000000000E+00  0.00000000000E+00  0.11428254896E+04  0.11428254896E+04  0.50400001928E-02 0. -1.
       -1   -1    0    0    0  501  0.00000000000E+00  0.00000000000E+00 -0.10746667666E+04  0.10746667666E+04  0.50400001928E-02 0.  1.
    10030    2    1    2    0    0  0.00000000000E+00  0.00000000000E+00  0.68158723015E+02  0.22174922562E+04  0.22164445165E+04 0.  0.
        1    1    3    3  502    0 -0.10242086918E+04  0.42216732818E+03  0.64554823758E+02  0.11096828478E+04  0.50400001928E-02 0.  1.
       -1    1    3    3    0  502  0.10242086918E+04 -0.42216732818E+03  0.36038992571E+01  0.11078094085E+04  0.50400001928E-02 0. -1.
</event>
<event>
 5   0  0.1733962E-04  0.2196131E+04  0.7818609E-02  0.8520040E-01
        2   -1    0    0  501    0  0.00000000000E+00  0.00000000000E+00  0.17443831921E+04  0.17443831921E+04  0.25500000920E-02 0.  1.
       -2   -1    0    0    0  501  0.00000000000E+00  0.00000000000E+00 -0.69121709396E+03  0.69121709397E+03  0.25500000920E-02 0. -1.
    10030    2    1    2    0    0  0.00000000000E+00  0.00000000000E+00  0.10531660981E+04  0.24356002860E+04  0.21961306708E+04 0.  0.
        3    1    3    3  502    0  0.63753501828E+03  0.89402954879E+03  0.52966788664E+03  0.12191340427E+04  0.10100000352E+00 0. -1.
       -3    1    3    3    0  502 -0.63753501828E+03 -0.89402954879E+03  0.52349821146E+03  0.12164662434E+04  0.10100000352E+00 0.  1.
</event>
<event>
 5   0  0.1680258E-04  0.1962302E+04  0.7818609E-02  0.8624451E-01
        2   -1    0    0  501    0  0.00000000000E+00  0.00000000000E+00  0.11836685265E+04  0.11836685266E+04  0.25500000920E-02 0.  1.
       -2   -1    0    0    0  501  0.00000000000E+00  0.00000000000E+00 -0.81328305096E+03  0.81328305097E+03  0.25500000920E-02 0. -1.
    10030    2    1    2    0    0  0.00000000000E+00  0.00000000000E+00  0.37038547558E+03  0.19969515775E+04  0.19623022709E+04 0.  0.
        5    1    3    3  502    0 -0.79315986511E+03 -0.56946050527E+03  0.28305531772E+03  0.10166268940E+04  0.46999998093E+01 0.  1.
       -5    1    3    3    0  502  0.79315986511E+03  0.56946050527E+03  0.87330157864E+02  0.98032468354E+03  0.46999998093E+01 0. -1.
</event>
<event>
 5   0  0.8602414E-05  0.1362124E+04  0.7818609E-02  0.8981701E-01
        1   -1    0    0  501    0  0.00000000000E+00  0.00000000000E+00  0.50661133968E+03  0.50661133971E+03  0.50400001928E-02 0.  1.
       -1   -1    0    0    0  501  0.00000000000E+00  0.00000000000E+00 -0.91558457067E+03  0.91558457068E+03  0.50400001928E-02 0. -1.
    10030    2    1    2    0    0  0.00000000000E+00  0.00000000000E+00 -0.40897323098E+03  0.14221959104E+04  0.13621241147E+04 0.  0.
        3    1    3    3  502    0 -0.41211919677E+03 -0.53939860867E+03 -0.26217192154E+03  0.72768620849E+03  0.10100000352E+00 0. -1.
       -3    1    3    3    0  502  0.41211919677E+03  0.53939860867E+03 -0.14680130944E+03  0.69450970190E+03  0.10100000352E+00 0.  1.
</event>
<event>
 5   0  0.8470971E-05  0.1963578E+04  0.7818609E-02  0.8623841E-01
        1   -1    0    0  501    0  0.00000000000E+00  0.00000000000E+00  0.14749787757E+04  0.14749787757E+04  0.50400001928E-02 0. -1.
       -1   -1    0    0    0  501  0.00000000000E+00  0.00000000000E+00 -0.65350727992E+03  0.65350727994E+03  0.50400001928E-02 0.  1.
    10030    2    1    2    0    0  0.00000000000E+00  0.00000000000E+00  0.82147149581E+03  0.21284860557E+04  0.19635777221E+04 0.  0.
        2    1    3    3  502    0  0.53038418501E+03 -0.56052024164E+03 -0.24721555015E+03  0.81031219492E+03  0.25500000920E-02 0.  1.
       -2    1    3    3    0  502 -0.53038418501E+03  0.56052024164E+03  0.10686870460E+04  0.13181738608E+04  0.25500000920E-02 0. -1.
</event>
<event>
 5   0  0.8470971E-05  0.1320638E+04  0.7818609E-02  0.9013357E-01
       -1   -1    0    0    0  501  0.00000000000E+00  0.00000000000E+00  0.49777715374E+03  0.49777715377E+03  0.50400001928E-02 0. -1.
        1   -1    0    0  501    0  0.00000000000E+00  0.00000000000E+00 -0.87593625595E+03  0.87593625597E+03  0.50400001928E-02 0.  1.
    10030    2    1    2    0    0  0.00000000000E+00  0.00000000000E+00 -0.37815910221E+03  0.13737134097E+04  0.13206378101E+04 0.  0.
        2    1    3    3  502    0  0.19211581765E+03 -0.63126050189E+03 -0.21503738736E+03  0.69400243991E+03  0.25500000920E-02 0. -1.
       -2    1    3    3    0  502 -0.19211581765E+03  0.63126050189E+03 -0.16312171485E+03  0.67971096982E+03  0.25500000920E-02 0.  1.
</event>
<event>
 5   0  0.1798917E-04  0.2259679E+04  0.7818609E-02  0.8493991E-01
       -2   -1    0    0    0  501  0.00000000000E+00  0.00000000000E+00  0.72165020775E+03  0.72165020775E+03  0.25500000920E-02 0. -1.
        2   -1    0    0  501    0  0.00000000000E+00  0.00000000000E+00 -0.17689144173E+04  0.17689144173E+04  0.25500000920E-02 0.  1.
    10030    2    1    2    0    0  0.00000000000E+00  0.00000000000E+00 -0.10472642095E+04  0.24905646251E+04  0.22596791425E+04 0.  0.
        4    1    3    3  502    0  0.41071395357E+03 -0.94554123053E+03 -0.14000223548E+02  0.10309858338E+04  0.12699999809E+01 0. -1.
       -4    1    3    3    0  502 -0.41071395357E+03  0.94554123053E+03 -0.10332639860E+04  0.14595787913E+04  0.12699999809E+01 0.  1.
</event>
<event>
 5   0  0.7954459E-05  0.2299980E+04  0.7818609E-02  0.8477929E-01
        1   -1    0    0  501    0  0.00000000000E+00  0.00000000000E+00  0.23245213314E+04  0.23245213315E+04  0.50400001928E-02 0. -1.
       -1   -1    0    0    0  501  0.00000000000E+00  0.00000000000E+00 -0.56892452200E+03  0.56892452202E+03  0.50400001928E-02 0.  1.
    10030    2    1    2    0    0  0.00000000000E+00  0.00000000000E+00  0.17555968095E+04  0.28934458535E+04  0.22999801629E+04 0.  0.
        5    1    3    3  502    0  0.47111638616E+03 -0.47405515312E+03  0.20551002608E+04  0.21610502330E+04  0.46999998093E+01 0. -1.
       -5    1    3    3    0  502 -0.47111638616E+03  0.47405515312E+03 -0.29950345138E+03  0.73239562047E+03  0.46999998093E+01 0.  1.
</event>
<event>
 5   0  0.1680258E-04  0.2175013E+04  0.7818609E-02  0.8528901E-01
        2   -1    0    0  501    0  0.00000000000E+00  0.00000000000E+00  0.15717587557E+04  0.15717587557E+04  0.25500000920E-02 0. -1.
       -2   -1    0    0    0  501  0.00000000000E+00  0.00000000000E+00 -0.75245019116E+03  0.75245019116E+03  0.25500000920E-02 0.  1.
    10030    2    1    2    0    0  0.00000000000E+00  0.00000000000E+00  0.81930856456E+03  0.23242089469E+04  0.21750128057E+04 0.  0.
        5    1    3    3  502    0 -0.72809704866E+03  0.74263908446E+03  0.70032560878E+02  0.10423841766E+04  0.46999998093E+01 0.  1.
       -5    1    3    3    0  502  0.72809704866E+03 -0.74263908446E+03  0.74927600368E+03  0.12818247703E+04  0.46999998093E+01 0. -1.
</event>
<event>
 5   0  0.8470971E-05  0.1430902E+04  0.7818609E-02  0.8931749E-01
        1   -1    0    0  501    0  0.00000000000E+00  0.00000000000E+00  0.12456328794E+04  0.12456328794E+04  0.50400001928E-02 0. -1.
       -1   -1    0    0    0  501  0.00000000000E+00  0.00000000000E+00 -0.41093151079E+03  0.41093151082E+03  0.50400001928E-02 0.  1.
    10030    2    1    2    0    0  0.00000000000E+00  0.00000000000E+00  0.83470136861E+03  0.16565643902E+04  0.14309015355E+04 0.  0.
        2    1    3    3  502    0  0.12559762036E+03 -0.26026171373E+03 -0.34035833790E+03  0.44649156773E+03  0.25500000920E-02 0.  1.
       -2    1    3    3    0  502 -0.12559762036E+03  0.26026171373E+03  0.11750597065E+04  0.12100728225E+04  0.25500000920E-02 0. -1.
</event>
<event>
 5   0  0.1754356E-04  0.2242115E+04  0.7818609E-02  0.8501101E-01
       -2   -1    0    0    0  501  0.00000000000E+00  0.00000000000E+00  0.60813982644E+03  0.60813982645E+03  0.25500000920E-02 0.  1.
        2   -1    0    0  501    0  0.00000000000E+00  0.00000000000E+00 -0.20665807526E+04  0.20665807526E+04  0.25500000920E-02 0. -1.
    10030    2    1    2    0    0  0.00000000000E+00  0.00000000000E+00 -0.14584409262E+04  0.26747205791E+04  0.22421151266E+04 0.  0.
        1    1    3    3  502    0 -0.19781092922E+03  0.10145019019E+04 -0.12470559778E+04  0.16197196932E+04  0.50400001928E-02 0. -1.
       -1    1    3    3    0  502  0.19781092922E+03 -0.10145019019E+04 -0.21138494838E+03  0.10550008859E+04  0.50400001928E-02 0.  1.
</event>
<event>
 5   0  0.7954459E-05  0.1968517E+04  0.7818609E-02  0.8621483E-01
        1   -1    0    0  501    0  0.00000000000E+00  0.00000000000E+00  0.18606063247E+04  0.18606063247E+04  0.50400001928E-02 0.  1.
       -1   -1    0    0    0  501  0.00000000000E+00  0.00000000000E+00 -0.52067165743E+03  0.52067165746E+03  0.50400001928E-02 0. -1.
    10030    2    1    2    0    0  0.00000000000E+00  0.00000000000E+00  0.13399346673E+04  0.23812779822E+04  0.19685171871E+04 0.  0.
        5    1    3    3  502    0  0.42105500029E+03  0.89680287348E+02 -0.40072890861E+03  0.58816291570E+03  0.46999998093E+01 0. -1.
       -5    1    3    3    0  502 -0.42105500029E+03 -0.89680287348E+02  0.17406635759E+04  0.17931150665E+04  0.46999998093E+01 0.  1.
</event>
<event>
 5   0  0.8470971E-05  0.2256549E+04  0.7818609E-02  0.8495253E-01
        1   -1    0    0  501    0  0.00000000000E+00  0.00000000000E+00  0.17002605115E+04  0.17002605115E+04  0.50400001928E-02 0.  1.
       -1   -1    0    0    0  501  0.00000000000E+00  0.00000000000E+00 -0.74871098535E+03  0.74871098537E+03  0.50400001928E-02 0. -1.
    10030    2    1    2    0    0  0.00000000000E+00  0.00000000000E+00  0.95154952610E+03  0.24489714968E+04  0.22565493329E+04 0.  0.
        2    1    3    3  502    0  0.34652287608E+03  0.98810004302E+03  0.93182688409E+03  0.14016851075E+04  0.25500000920E-02 0.  1.
       -2    1    3    3    0  502 -0.34652287608E+03 -0.98810004302E+03  0.19722642013E+02  0.10472863893E+04  0.25500000920E-02 0. -1.
</event>
<event>
 5   0  0.1805501E-04  0.2203699E+04  0.7818609E-02  0.8516890E-01
       -2   -1    0    0    0  501  0.00000000000E+00  0.00000000000E+00  0.13059113132E+04  0.13059113132E+04  0.25500000920E-02 0. -1.
        2   -1    0    0  501    0  0.00000000000E+00  0.00000000000E+00 -0.92967405801E+03  0.92967405802E+03  0.25500000920E-02 0.  1.
    10030    2    1    2    0    0  0.00000000000E+00  0.00000000000E+00  0.37623725523E+03  0.22355853713E+04  0.22036985910E+04 0.  0.
        2    1    3    3  502    0  0.41730826398E+03  0.99430435519E+03  0.41785632487E+03  0.11564563313E+04  0.25500000920E-02 0. -1.
       -2    1    3    3    0  502 -0.41730826398E+03 -0.99430435519E+03 -0.41619069644E+02  0.10791290400E+04  0.25500000920E-02 0.  1.
</event>
<event>
 5   0  0.1805501E-04  0.2138748E+04  0.7818609E-02  0.8544364E-01
       -2   -1    0    0    0  501  0.00000000000E+00  0.00000000000E+00  0.74103580520E+03  0.74103580520E+03  0.25500000920E-02 0. -1.
        2   -1    0    0  501    0  0.00000000000E+00  0.00000000000E+00 -0.15431928635E+04  0.15431928635E+04  0.25500000920E-02 0.  1.
    10030    2    1    2    0    0  0.00000000000E+00  0.00000000000E+00 -0.80215705830E+03  0.22842286687E+04  0.21387483874E+04 0.  0.
        2    1    3    3  502    0 -0.10627474826E+03 -0.12744614107E+03 -0.15293580702E+04  0.15383344720E+04  0.25500000920E-02 0.  1.
       -2    1    3    3    0  502  0.10627474826E+03  0.12744614107E+03  0.72720101187E+03  0.74589419669E+03  0.25500000920E-02 0. -1.
</event>
<event>
 5   0  0.1798917E-04  0.1967523E+04  0.7818609E-02  0.8621957E-01
       -2   -1    0    0    0  501  0.00000000000E+00  0.00000000000E+00  0.65555574327E+03  0.65555574328E+03  0.25500000920E-02 0.  1.
        2   -1    0    0  501    0  0.00000000000E+00  0.00000000000E+00 -0.14762845452E+04  0.14762845452E+04  0.25500000920E-02 0. -1.
    10030    2    1    2    0    0  0.00000000000E+00  0.00000000000E+00 -0.82072880189E+03  0.21318402884E+04  0.19675231254E+04 0.  0.
        4    1    3    3  502    0 -0.82123411022E+03  0.54159757641E+03 -0.41647458212E+03  0.10682724788E+04  0.12699999809E+01 0. -1.
       -4    1    3    3    0  502  0.82123411022E+03 -0.54159757641E+03 -0.40425421977E+03  0.10635678096E+04  0.12699999809E+01 0.  1.
</event>
<event>
 5   0  0.1805501E-04  0.2185859E+04  0.7818609E-02  0.8524337E-01
       -2   -1    0    0    0  501  0.00000000000E+00  0.00000000000E+00  0.96076216888E+03  0.96076216889E+03  0.25500000920E-02 0. -1.
        2   -1    0    0  501    0  0.00000000000E+00  0.00000000000E+00 -0.12432785383E+04  0.12432785383E+04  0.25500000920E-02 0.  1.
    10030    2    1    2    0    0  0.00000000000E+00  0.00000000000E+00 -0.28251636941E+03  0.22040407072E+04  0.21858590851E+04 0.  0.
        2    1    3    3  502    0 -0.22530441888E+03 -0.99400048480E+03 -0.53912351286E+03  0.11530191703E+04  0.25500000920E-02 0. -1.
       -2    1    3    3    0  502  0.22530441888E+03  0.99400048480E+03  0.25660714344E+03  0.10510215369E+04  0.25500000920E-02 0.  1.
</event>
<event>
 5   0  0.1805501E-04  0.2209424E+04  0.7818609E-02  0.8514516E-01
        2   -1    0    0  501    0  0.00000000000E+00  0.00000000000E+00  0.13656879146E+04  0.13656879147E+04  0.25500000920E-02 0. -1.
       -2   -1    0    0    0  501  0.00000000000E+00  0.00000000000E+00 -0.89360756440E+03  0.89360756440E+03  0.25500000920E-02 0.  1.
    10030    2    1    2    0    0  0.00000000000E+00  0.00000000000E+00  0.47208035025E+03  0.22592954791E+04  0.22094244057E+04 0.  0.
        2    1    3    3  502    0  0.65016799332E+03  0.88767267236E+03  0.13528772839E+03  0.11085954908E+04  0.25500000920E-02 0.  1.
       -2    1    3    3    0  502 -0.65016799332E+03 -0.88767267236E+03  0.33679262186E+03  0.11506999882E+04  0.25500000920E-02 0. -1.
</event>
<event>
 5   0  0.1733962E-04  0.2141702E+04  0.7818609E-02  0.8543092E-01
        2   -1    0    0  501    0  0.00000000000E+00  0.00000000000E+00  0.79391668470E+03  0.79391668471E+03  0.25500000920E-02 0. -1.
       -2   -1    0    0    0  501  0.00000000000E+00  0.00000000000E+00 -0.14443862547E+04  0.14443862547E+04  0.25500000920E-02 0.  1.
    10030    2    1    2    0    0  0.00000000000E+00  0.00000000000E+00 -0.65046956997E+03  0.22383029394E+04  0.21417024506E+04 0.  0.
        3    1    3    3  502    0  0.71103750855E+03  0.23442770449E+03 -0.11253997741E+04  0.13516861133E+04  0.10100000352E+00 0.  1.
       -3    1    3    3    0  502 -0.71103750855E+03 -0.23442770449E+03  0.47493020416E+03  0.88661682604E+03  0.10100000352E+00 0. -1.
</event>
<event>
 5   0  0.8784659E-05  0.1987204E+04  0.7818609E-02  0.8612627E-01
       -1   -1    0    0    0  501  0.00000000000E+00  0.00000000000E+00  0.88551587699E+03  0.88551587701E+03  0.50400001928E-02 0. -1.
        1   -1    0    0  501    0  0.00000000000E+00  0.00000000000E+00 -0.11148805705E+04  0.11148805705E+04  0.50400001928E-02 0.  1.
    10030    2    1    2    0    0  0.00000000000E+00  0.00000000000E+00 -0.22936469352E+03  0.20003964475E+04  0.19872035086E+04 0.  0.
        4    1    3    3  502    0 -0.95876965777E+03  0.26590292938E+02 -0.37582034727E+03  0.10301402073E+04  0.12699999809E+01 0.  1.
       -4    1    3    3    0  502  0.95876965777E+03 -0.26590292938E+02  0.14645565375E+03  0.97025624025E+03  0.12699999809E+01 0. -1.
</event>
<event>
 5   0  0.8306787E-05  0.2073594E+04  0.7818609E-02  0.8572965E-01
       -1   -1    0    0    0  501  0.00000000000E+00  0.00000000000E+00  0.10499915185E+04  0.10499915185E+04  0.50400001928E-02 0.  1.
        1   -1    0    0  501    0  0.00000000000E+00  0.00000000000E+00 -0.10237685074E+04  0.10237685074E+04  0.50400001928E-02 0. -1.
    10030    2    1    2    0    0  0.00000000000E+00  0.00000000000E+00  0.26223011069E+02  0.20737600260E+04  0.20735942224E+04 0.  0.
        1    1    3    3  502    0 -0.53465414268E+02 -0.62941857379E+03 -0.80909896344E+03  0.10264830365E+04  0.50400001928E-02 0. -1.
       -1    1    3    3    0  502  0.53465414268E+02  0.62941857379E+03  0.83532197451E+03  0.10472769895E+04  0.50400001928E-02 0.  1.
</event>
<event>
 5   0  0.8602414E-05  0.2269341E+04  0.7818609E-02  0.8490109E-01
        1   -1    0    0  501    0  0.00000000000E+00  0.00000000000E+00  0.90998782260E+03  0.90998782261E+03  0.50400001928E-02 0.  1.
       -1   -1    0    0    0  501  0.00000000000E+00  0.00000000000E+00 -0.14148283635E+04  0.14148283635E+04  0.50400001928E-02 0. -1.
    10030    2    1    2    0    0  0.00000000000E+00  0.00000000000E+00 -0.50484054094E+03  0.23248161862E+04  0.22693405050E+04 0.  0.
        3    1    3    3  502    0 -0.36503618646E+03  0.19410950249E+03 -0.13349189950E+04  0.13974758137E+04  0.10100000352E+00 0. -1.
       -3    1    3    3    0  502  0.36503618646E+03 -0.19410950249E+03  0.83007845405E+03  0.92734037250E+03  0.10100000352E+00 0.  1.
</event>
<event>
 5   0  0.8470971E-05  0.2068928E+04  0.7818609E-02  0.8575056E-01
        1   -1    0    0  501    0  0.00000000000E+00  0.00000000000E+00  0.17561627343E+04  0.17561627343E+04  0.50400001928E-02 0. -1.
       -1   -1    0    0    0  501  0.00000000000E+00  0.00000000000E+00 -0.60934874884E+03  0.60934874886E+03  0.50400001928E-02 0.  1.
    10030    2    1    2    0    0  0.00000000000E+00  0.00000000000E+00  0.11468139855E+04  0.23655114832E+04  0.20689278044E+04 0.  0.
        2    1    3    3  502    0 -0.82775436659E+03 -0.61991342116E+03  0.60245855455E+03  0.11968401109E+04  0.25500000920E-02 0. -1.
       -2    1    3    3    0  502  0.82775436659E+03  0.61991342116E+03  0.54435543090E+03  0.11686713722E+04  0.25500000920E-02 0.  1.
</event>
<event>
 5   0  0.8602414E-05  0.1615282E+04  0.7818609E-02  0.8811214E-01
        1   -1    0    0  501    0  0.00000000000E+00  0.00000000000E+00  0.79012958419E+03  0.79012958421E+03  0.50400001928E-02 0.  1.
       -1   -1    0    0    0  501  0.00000000000E+00  0.00000000000E+00 -0.82554078896E+03  0.82554078898E+03  0.50400001928E-02 0. -1.
    10030    2    1    2    0    0  0.00000000000E+00  0.00000000000E+00 -0.35411204771E+02  0.16156703732E+04  0.16152822668E+04 0.  0.
        3    1    3    3  502    0 -0.53336726703E+03 -0.30225960787E+03 -0.54361009623E+03  0.81936161676E+03  0.10100000352E+00 0.  1.
       -3    1    3    3    0  502  0.53336726703E+03  0.30225960787E+03  0.50819889146E+03  0.79630875643E+03  0.10100000352E+00 0. -1.
</event>
<event>
 5   0  0.1798917E-04  0.2201801E+04  0.7818609E-02  0.8517679E-01
       -2   -1    0    0    0  501  0.00000000000E+00  0.00000000000E+00  0.40923985332E+03  0.40923985332E+03  0.25500000920E-02 0. -1.
        2   -1    0    0  501    0  0.00000000000E+00  0.00000000000E+00 -0.29615449070E+04  0.29615449070E+04  0.25500000920E-02 0.  1.
    10030    2    1    2    0    0  0.00000000000E+00  0.00000000000E+00 -0.25523050537E+04  0.33707847603E+04  0.22018012656E+04 0.  0.
        4    1    3    3  502    0 -0.41759804448E+03  0.14504684718E+03 -0.28196932964E+04  0.28541371049E+04  0.12699999809E+01 0.  1.
       -4    1    3    3    0  502  0.41759804448E+03 -0.14504684718E+03  0.26738824274E+03  0.51664765545E+03  0.12699999809E+01 0. -1.
</event>
<event>
 5   0  0.1798917E-04  0.2193123E+04  0.7818609E-02  0.8521296E-01
       -2   -1    0    0    0  501  0.00000000000E+00  0.00000000000E+00  0.85408017611E+03  0.85408017611E+03  0.25500000920E-02 0. -1.
        2   -1    0    0  501    0  0.00000000000E+00  0.00000000000E+00 -0.14078860509E+04  0.14078860509E+04  0.25500000920E-02 0.  1.
    10030    2    1    2    0    0  0.00000000000E+00  0.00000000000E+00 -0.55380587481E+03  0.22619662270E+04  0.21931234040E+04 0.  0.
        4    1    3    3  502    0 -0.93190654314E+03 -0.33514148643E+03 -0.76250744619E+03  0.12498755296E+04  0.12699999809E+01 0.  1.
       -4    1    3    3    0  502  0.93190654314E+03  0.33514148643E+03  0.20870157137E+03  0.10120906974E+04  0.12699999809E+01 0. -1.
</event>
<event>
 5   0  0.1805501E-04  0.2277241E+04  0.7818609E-02  0.8486949E-01
       -2   -1    0    0    0  501  0.00000000000E+00  0.00000000000E+00  0.17061079832E+04  0.17061079832E+04  0.25500000920E-02 0.  1.
        2   -1    0    0  501    0  0.00000000000E+00  0.00000000000E+00 -0.75989153933E+03  0.75989153933E+03  0.25500000920E-02 0. -1.
    10030    2    1    2    0    0  0.00000000000E+00  0.00000000000E+00  0.94621644385E+03  0.24659995225E+04  0.22772413325E+04 0.  0.
        2    1    3    3  502    0  0.77245469572E+03 -0.10462094052E+03  0.13718572863E+04  0.15778543064E+04  0.25500000920E-02 0.  1.
       -2    1    3    3    0  502 -0.77245469572E+03  0.10462094052E+03 -0.42564084248E+03  0.88814521612E+03  0.25500000920E-02 0. -1.
</event>
<event>
 5   0  0.6250625E-05  0.2162252E+04  0.7818609E-02  0.8534306E-01
       -3   -1    0    0    0  501  0.00000000000E+00  0.00000000000E+00  0.61846771345E+03  0.61846772170E+03  0.10100000352E+00 0. -1.
        3   -1    0    0  501    0  0.00000000000E+00  0.00000000000E+00 -0.18898865367E+04  0.18898865394E+04  0.10100000352E+00 0.  1.
    10030    2    1    2    0    0  0.00000000000E+00  0.00000000000E+00 -0.12714188233E+04  0.25083542611E+04  0.21622523616E+04 0.  0.
        3    1    3    3  502    0 -0.73466056632E+03  0.14060565443E+03  0.26983868319E+03  0.79517861069E+03  0.10100000352E+00 0. -1.
       -3    1    3    3    0  502  0.73466056632E+03 -0.14060565443E+03 -0.15412575064E+04  0.17131756504E+04  0.10100000352E+00 0.  1.
</event>
<event>
 5   0  0.8784659E-05  0.2189529E+04  0.7818609E-02  0.8522799E-01
       -1   -1    0    0    0  501  0.00000000000E+00  0.00000000000E+00  0.16427178927E+04  0.16427178927E+04  0.50400001928E-02 0.  1.
        1   -1    0    0  501    0  0.00000000000E+00  0.00000000000E+00 -0.72958909626E+03  0.72958909627E+03  0.50400001928E-02 0. -1.
    10030    2    1    2    0    0  0.00000000000E+00  0.00000000000E+00  0.91312879643E+03  0.23723069890E+04  0.21895287737E+04 0.  0.
        4    1    3    3  502    0  0.83350200307E+03  0.70858742642E+02  0.12217493686E+04  0.14806821682E+04  0.12699999809E+01 0.  1.
       -4    1    3    3    0  502 -0.83350200307E+03 -0.70858742642E+02 -0.30862057221E+03  0.89162482078E+03  0.12699999809E+01 0. -1.
</event>
<event>
 5   0  0.8602414E-05  0.2118964E+04  0.7818609E-02  0.8552935E-01
        1   -1    0    0  501    0  0.00000000000E+00  0.00000000000E+00  0.19029396309E+04  0.19029396309E+04  0.50400001928E-02 0. -1.
       -1   -1    0    0    0  501  0.00000000000E+00  0.00000000000E+00 -0.58987771370E+03  0.58987771372E+03  0.50400001928E-02 0.  1.
    10030    2    1    2    0    0  0.00000000000E+00  0.00000000000E+00  0.13130619172E+04  0.24928173447E+04  0.21189635946E+04 0.  0.
        3    1    3    3  502    0  0.30777622226E+03  0.90949142038E+03  0.12962474931E+03  0.96886708715E+03  0.10100000352E+00 0. -1.
       -3    1    3    3    0  502 -0.30777622226E+03 -0.90949142038E+03  0.11834371679E+04  0.15239502575E+04  0.10100000352E+00 0.  1.
</event>
<event>
 5   0  0.8784659E-05  0.2158355E+04  0.7818609E-02  0.8535964E-01
        1   -1    0    0  501    0  0.00000000000E+00  0.00000000000E+00  0.85648335708E+03  0.85648335710E+03  0.50400001928E-02 0.  1.
       -1   -1    0    0    0  501  0.00000000000E+00  0.00000000000E+00 -0.13597746084E+04  0.13597746084E+04  0.50400001928E-02 0. -1.
    10030    2    1    2    0    0  0.00000000000E+00  0.00000000000E+00 -0.50329125132E+03  0.22162579655E+04  0.21583552270E+04 0.  0.
        4    1    3    3  502    0  0.51129518644E+03  0.10429706466E+03 -0.12216154012E+04  0.13283999574E+04  0.12699999809E+01 0. -1.
       -4    1    3    3    0  502 -0.51129518644E+03 -0.10429706466E+03  0.71832414990E+03  0.88785800813E+03  0.12699999809E+01 0.  1.
</event>
<event>
 5   0  0.8784659E-05  0.2210761E+04  0.7818609E-02  0.8513962E-01
       -1   -1    0    0    0  501  0.00000000000E+00  0.00000000000E+00  0.75429650869E+03  0.75429650870E+03  0.50400001928E-02 0. -1.
        1   -1    0    0  501    0  0.00000000000E+00  0.00000000000E+00 -0.16198756586E+04  0.16198756586E+04  0.50400001928E-02 0.  1.
    10030    2    1    2    0    0  0.00000000000E+00  0.00000000000E+00 -0.86557914989E+03  0.23741721673E+04  0.22107614560E+04 0.  0.
        4    1    3    3  502    0 -0.24480759799E+03  0.10675664304E+04 -0.27264965359E+03  0.11287020377E+04  0.12699999809E+01 0. -1.
       -4    1    3    3    0  502  0.24480759799E+03 -0.10675664304E+04 -0.59292949630E+03  0.12454701296E+04  0.12699999809E+01 0.  1.
</event>
<event>
 5   0  0.1754356E-04  0.2198565E+04  0.7818609E-02  0.8519026E-01
        2   -1    0    0  501    0  0.00000000000E+00  0.00000000000E+00  0.21246599093E+04  0.21246599093E+04  0.25500000920E-02 0. -1.
       -2   -1    0    0    0  501  0.00000000000E+00  0.00000000000E+00 -0.56876007773E+03  0.56876007774E+03  0.25500000920E-02 0.  1.
    10030    2    1    2    0    0  0.00000000000E+00  0.00000000000E+00  0.15558998315E+04  0.26934199870E+04  0.21985647456E+04 0.  0.
        1    1    3    3  502    0  0.27602783896E+03  0.10501536392E+04  0.98803506744E+03  0.14680692519E+04  0.50400001928E-02 0.  1.
       -1    1    3    3    0  502 -0.27602783896E+03 -0.10501536392E+04  0.56786476410E+03  0.12253507351E+04  0.50400001928E-02 0. -1.
</event>
<event>
 5   0  0.1805501E-04  0.2180898E+04  0.7818609E-02  0.8526421E-01
       -2   -1    0    0    0  501  0.00000000000E+00  0.00000000000E+00  0.51601706154E+03  0.51601706154E+03  0.25500000920E-02 0. -1.
        2   -1    0    0  501    0  0.00000000000E+00  0.00000000000E+00 -0.23043404743E+04  0.23043404743E+04  0.25500000920E-02 0.  1.
    10030    2    1    2    0    0  0.00000000000E+00  0.00000000000E+00 -0.17883234127E+04  0.28203575358E+04  0.21808979805E+04 0.  0.
        2    1    3    3  502    0 -0.33786958387E+03 -0.58916074643E+03  0.20910026689E+03  0.71062589487E+03  0.25500000920E-02 0. -1.
       -2    1    3    3    0  502  0.33786958387E+03  0.58916074643E+03 -0.19974236796E+04  0.21097316409E+04  0.25500000920E-02 0.  1.
</event>
<event>
 5   0  0.1733962E-04  0.2209149E+04  0.7818609E-02  0.8514630E-01
        2   -1    0    0  501    0  0.00000000000E+00  0.00000000000E+00  0.11076067037E+04  0.11076067037E+04  0.25500000920E-02 0.  1.
       -2   -1    0    0    0  501  0.00000000000E+00  0.00000000000E+00 -0.11015501432E+04  0.11015501432E+04  0.25500000920E-02 0. -1.
    10030    2    1    2    0    0  0.00000000000E+00  0.00000000000E+00  0.60565605240E+01  0.22091568470E+04  0.22091485447E+04 0.  0.
        3    1    3    3  502    0  0.20099532232E+03 -0.27399158620E+03  0.10540383214E+04  0.11074598422E+04  0.10100000352E+00 0.  1.
       -3    1    3    3    0  502 -0.20099532232E+03  0.27399158620E+03 -0.10479817609E+04  0.11016970047E+04  0.10100000352E+00 0. -1.
</event>
<event>
 5   0  0.1680258E-04  0.1305505E+04  0.7818609E-02  0.9025211E-01
        2   -1    0    0  501    0  0.00000000000E+00  0.00000000000E+00  0.70426855032E+03  0.70426855032E+03  0.25500000920E-02 0. -1.
       -2   -1    0    0    0  501  0.00000000000E+00  0.00000000000E+00 -0.60500505857E+03  0.60500505858E+03  0.25500000920E-02 0.  1.
    10030    2    1    2    0    0  0.00000000000E+00  0.00000000000E+00  0.99263491746E+02  0.13092736089E+04  0.13055053206E+04 0.  0.
        5    1    3    3  502    0  0.34002234759E+03 -0.42363718593E+03  0.41258837307E+03  0.68215461427E+03  0.46999998093E+01 0. -1.
       -5    1    3    3    0  502 -0.34002234759E+03  0.42363718593E+03 -0.31332488133E+03  0.62711899463E+03  0.46999998093E+01 0.  1.
</event>
<event>
 5   0  0.7954459E-05  0.1892551E+04  0.7818609E-02  0.8658573E-01
       -1   -1    0    0    0  501  0.00000000000E+00  0.00000000000E+00  0.66919584963E+03  0.66919584964E+03  0.50400001928E-02 0. -1.
        1   -1    0    0  501    0  0.00000000000E+00  0.00000000000E+00 -0.13380796233E+04  0.13380796233E+04  0.50400001928E-02 0.  1.
    10030    2    1    2    0    0  0.00000000000E+00  0.00000000000E+00 -0.66888377363E+03  0.20072754729E+04  0.18925510090E+04 0.  0.
        5    1    3    3  502    0  0.27390062739E+03  0.26396742516E+03 -0.12534025000E+04  0.13098626922E+04  0.46999998093E+01 0.  1.
       -5    1    3    3    0  502 -0.27390062739E+03 -0.26396742516E+03  0.58451872640E+03  0.69741278075E+03  0.46999998093E+01 0. -1.
</event>
<event>
 5   0  0.8470971E-05  0.2056451E+04  0.7818609E-02  0.8580673E-01
       -1   -1    0    0    0  501  0.00000000000E+00  0.00000000000E+00  0.17004974191E+04  0.17004974191E+04  0.50400001928E-02 0.  1.
        1   -1    0    0  501    0  0.00000000000E+00  0.00000000000E+00 -0.62172857966E+03  0.62172857968E+03  0.50400001928E-02 0. -1.
    10030    2    1    2    0    0  0.00000000000E+00  0.00000000000E+00  0.10787688395E+04  0.23222259988E+04  0.20564511617E+04 0.  0.
        2    1    3    3  502    0 -0.29100517160E+03 -0.36533615915E+03  0.15737908614E+04  0.16416370471E+04  0.25500000920E-02 0.  1.
       -2    1    3    3    0  502  0.29100517160E+03  0.36533615915E+03 -0.49502202188E+03  0.68058895174E+03  0.25500000920E-02 0. -1.
</event>
<event>
 5   0  0.7954459E-05  0.2222907E+04  0.7818609E-02  0.8508954E-01
        1   -1    0    0  501    0  0.00000000000E+00  0.00000000000E+00  0.13144132561E+04  0.13144132561E+04  0.50400001928E-02 0.  1.
       -1   -1    0    0    0  501  0.00000000000E+00  0.00000000000E+00 -0.93983284843E+03  0.93983284844E+03  0.50400001928E-02 0. -1.
    10030    2    1    2    0    0  0.00000000000E+00  0.00000000000E+00  0.37458040768E+03  0.22542461046E+04  0.22229068847E+04 0.  0.
        5    1    3    3  502    0  0.77434406335E+03  0.66068968877E+03  0.63988611893E+03  0.12023293760E+04  0.46999998093E+01 0.  1.
       -5    1    3    3    0  502 -0.77434406335E+03 -0.66068968877E+03 -0.26530571125E+03  0.10519167285E+04  0.46999998093E+01 0. -1.
</event>
<event>
 5   0  0.1805501E-04  0.2204600E+04  0.7818609E-02  0.8516516E-01
       -2   -1    0    0    0  501  0.00000000000E+00  0.00000000000E+00  0.16136314740E+04  0.16136314740E+04  0.25500000920E-02 0. -1.
        2   -1    0    0  501    0  0.00000000000E+00  0.00000000000E+00 -0.75300067215E+03  0.75300067215E+03  0.25500000920E-02 0.  1.
    10030    2    1    2    0    0  0.00000000000E+00  0.00000000000E+00  0.86063080186E+03  0.23666321462E+04  0.22046002672E+04 0.  0.
        2    1    3    3  502    0 -0.44322795706E+03  0.27822909836E+03  0.14717753791E+04  0.15620452041E+04  0.25500000920E-02 0. -1.
       -2    1    3    3    0  502  0.44322795706E+03 -0.27822909836E+03 -0.61114457723E+03  0.80458694208E+03  0.25500000920E-02 0.  1.
</event>
<event>
 5   0  0.1754356E-04  0.2176691E+04  0.7818609E-02  0.8528193E-01
        2   -1    0    0  501    0  0.00000000000E+00  0.00000000000E+00  0.15883092278E+04  0.15883092278E+04  0.25500000920E-02 0.  1.
       -2   -1    0    0    0  501  0.00000000000E+00  0.00000000000E+00 -0.74575933668E+03  0.74575933668E+03  0.25500000920E-02 0. -1.
    10030    2    1    2    0    0  0.00000000000E+00  0.00000000000E+00  0.84254989113E+03  0.23340685645E+04  0.21766914675E+04 0.  0.
        1    1    3    3  502    0 -0.56357033437E+03 -0.70036272441E+03  0.10791270294E+04  0.14045051133E+04  0.50400001928E-02 0.  1.
       -1    1    3    3    0  502  0.56357033437E+03  0.70036272441E+03 -0.23657713828E+03  0.92956345125E+03  0.50400001928E-02 0. -1.
</event>
<event>
 5   0  0.1754356E-04  0.2018982E+04  0.7818609E-02  0.8597797E-01
       -2   -1    0    0    0  501  0.00000000000E+00  0.00000000000E+00  0.71916167557E+03  0.71916167557E+03  0.25500000920E-02 0. -1.
        2   -1    0    0  501    0  0.00000000000E+00  0.00000000000E+00 -0.14170274769E+04  0.14170274769E+04  0.25500000920E-02 0.  1.
    10030    2    1    2    0    0  0.00000000000E+00  0.00000000000E+00 -0.69786580132E+03  0.21361891525E+04  0.20189817776E+04 0.  0.
        1    1    3    3  502    0  0.98042986361E+03 -0.21681342344E+03 -0.23886959794E+03  0.10321382964E+04  0.50400001928E-02 0.  1.
       -1    1    3    3    0  502 -0.98042986361E+03  0.21681342344E+03 -0.45899620338E+03  0.11040508561E+04  0.50400001928E-02 0. -1.
</event>
<event>
 5   0  0.1733962E-04  0.2181948E+04  0.7818609E-02  0.8525980E-01
       -2   -1    0    0    0  501  0.00000000000E+00  0.00000000000E+00  0.67160987344E+03  0.67160987345E+03  0.25500000920E-02 0.  1.
        2   -1    0    0  501    0  0.00000000000E+00  0.00000000000E+00 -0.17721957277E+04  0.17721957277E+04  0.25500000920E-02 0. -1.
    10030    2    1    2    0    0  0.00000000000E+00  0.00000000000E+00 -0.11005858543E+04  0.24438056012E+04  0.21819478898E+04 0.  0.
        3    1    3    3  502    0  0.17071717666E+03 -0.10728727822E+04 -0.43815875481E+03  0.11714023501E+04  0.10100000352E+00 0. -1.
       -3    1    3    3    0  502 -0.17071717666E+03  0.10728727822E+04 -0.66242709950E+03  0.12724032511E+04  0.10100000352E+00 0.  1.
</event>
<event>
 5   0  0.8784659E-05  0.1727643E+04  0.7818609E-02  0.8745754E-01
       -1   -1    0    0    0  501  0.00000000000E+00  0.00000000000E+00  0.77622368169E+03  0.77622368171E+03  0.50400001928E-02 0.  1.
        1   -1    0    0  501    0  0.00000000000E+00  0.00000000000E+00 -0.96130463550E+03  0.96130463551E+03  0.50400001928E-02 0. -1.
    10030    2    1    2    0    0  0.00000000000E+00  0.00000000000E+00 -0.18508095381E+03  0.17375283172E+04  0.17276428143E+04 0.  0.
        4    1    3    3  502    0 -0.53235293775E+03 -0.61998049571E+03 -0.37416120423E+03  0.89876230731E+03  0.12699999809E+01 0. -1.
       -4    1    3    3    0  502  0.53235293775E+03  0.61998049571E+03  0.18908025042E+03  0.83876600991E+03  0.12699999809E+01 0.  1.
</event>
<event>
 5   0  0.1733962E-04  0.1769688E+04  0.7818609E-02  0.8722587E-01
       -2   -1    0    0    0  501  0.00000000000E+00  0.00000000000E+00  0.50853434562E+03  0.50853434562E+03  0.25500000920E-02 0. -1.
        2   -1    0    0  501    0  0.00000000000E+00  0.00000000000E+00 -0.15396182317E+04  0.15396182317E+04  0.25500000920E-02 0.  1.
    10030    2    1    2    0    0  0.00000000000E+00  0.00000000000E+00 -0.10310838860E+04  0.20481525773E+04  0.17696878255E+04 0.  0.
        3    1    3    3  502    0  0.81483421257E+03  0.81383114694E+02 -0.90350667944E+03  0.12193860485E+04  0.10100000352E+00 0.  1.
       -3    1    3    3    0  502 -0.81483421257E+03 -0.81383114694E+02 -0.12757720660E+03  0.82876652875E+03  0.10100000352E+00 0. -1.
</event>
<event>
 5   0  0.8470971E-05  0.2156279E+04  0.7818609E-02  0.8536849E-01
        1   -1    0    0  501    0  0.00000000000E+00  0.00000000000E+00  0.11039949729E+04  0.11039949729E+04  0.50400001928E-02 0.  1.
       -1   -1    0    0    0  501  0.00000000000E+00  0.00000000000E+00 -0.10528898322E+04  0.10528898322E+04  0.50400001928E-02 0. -1.
    10030    2    1    2    0    0  0.00000000000E+00  0.00000000000E+00  0.51105140667E+02  0.21568848051E+04  0.21562792785E+04 0.  0.
        2    1    3    3  502    0 -0.64414962308E+03  0.16020612383E+03 -0.82426846147E+03  0.10583067776E+04  0.25500000920E-02 0. -1.
       -2    1    3    3    0  502  0.64414962308E+03 -0.16020612383E+03  0.87537360214E+03  0.10985780274E+04  0.25500000920E-02 0.  1.
</event>
<event>
 5   0  0.1680258E-04  0.1401001E+04  0.7818609E-02  0.8953095E-01
       -2   -1    0    0    0  501  0.00000000000E+00  0.00000000000E+00  0.52811288574E+03  0.52811288575E+03  0.25500000920E-02 0. -1.
        2   -1    0    0  501    0  0.00000000000E+00  0.00000000000E+00 -0.92915854487E+03  0.92915854488E+03  0.25500000920E-02 0.  1.
    10030    2    1    2    0    0  0.00000000000E+00  0.00000000000E+00 -0.40104565913E+03  0.14572714306E+04  0.14010005003E+04 0.  0.
        5    1    3    3  502    0 -0.49147397617E+03  0.29696988347E+02 -0.71878168053E+03  0.87126217330E+03  0.46999998093E+01 0.  1.
       -5    1    3    3    0  502  0.49147397617E+03 -0.29696988347E+02  0.31773602140E+03  0.58600925732E+03  0.46999998093E+01 0. -1.
</event>
<event>
 5   0  0.1733962E-04  0.1958758E+04  0.7818609E-02  0.8626149E-01
        2   -1    0    0  501    0  0.00000000000E+00  0.00000000000E+00  0.18921723099E+04  0.18921723099E+04  0.25500000920E-02 0. -1.
       -2   -1    0    0    0  501  0.00000000000E+00  0.00000000000E+00 -0.50692169483E+03  0.50692169483E+03  0.25500000920E-02 0.  1.
    10030    2    1    2    0    0  0.00000000000E+00  0.00000000000E+00  0.13852506151E+04  0.23990940048E+04  0.19587579680E+04 0.  0.
        3    1    3    3  502    0  0.56495007737E+03  0.42949249732E+02 -0.28581574598E+03  0.63458953571E+03  0.10100000352E+00 0.  1.
       -3    1    3    3    0  502 -0.56495007737E+03 -0.42949249732E+02  0.16710663611E+04  0.17645044691E+04  0.10100000352E+00 0. -1.
</event>
<event>
 5   0  0.8470971E-05  0.1922963E+04  0.7818609E-02  0.8643510E-01
        1   -1    0    0  501    0  0.00000000000E+00  0.00000000000E+00  0.19095631491E+04  0.19095631491E+04  0.50400001928E-02 0.  1.
       -1   -1    0    0    0  501  0.00000000000E+00  0.00000000000E+00 -0.48411424651E+03  0.48411424654E+03  0.50400001928E-02 0. -1.
    10030    2    1    2    0    0  0.00000000000E+00  0.00000000000E+00  0.14254489026E+04  0.23936773957E+04  0.19229630523E+04 0.  0.
        2    1    3    3  502    0  0.65377398158E+03 -0.66732951533E+03  0.99575282190E+03  0.13653837495E+04  0.25500000920E-02 0.  1.
       -2    1    3    3    0  502 -0.65377398158E+03  0.66732951533E+03  0.42969608073E+03  0.10282936462E+04  0.25500000920E-02 0. -1.
</event>
<event>
 5   0  0.8470971E-05  0.1905146E+04  0.7818609E-02  0.8652299E-01
        1   -1    0    0  501    0  0.00000000000E+00  0.00000000000E+00  0.10335017928E+04  0.10335017928E+04  0.50400001928E-02 0.  1.
       -1   -1    0    0    0  501  0.00000000000E+00  0.00000000000E+00 -0.87798113410E+03  0.87798113412E+03  0.50400001928E-02 0. -1.
    10030    2    1    2    0    0  0.00000000000E+00  0.00000000000E+00  0.15552065866E+03  0.19114829269E+04  0.19051457437E+04 0.  0.
        2    1    3    3  502    0 -0.43763810121E+03  0.58353211323E+03  0.69246313635E+03  0.10057544581E+04  0.25500000920E-02 0.  1.
       -2    1    3    3    0  502  0.43763810121E+03 -0.58353211323E+03 -0.53694247769E+03  0.90572846878E+03  0.25500000920E-02 0. -1.
</event>
<event>
 5   0  0.6250625E-05  0.2166245E+04  0.7818609E-02  0.8532610E-01
        3   -1    0    0  501    0  0.00000000000E+00  0.00000000000E+00  0.17400796456E+04  0.17400796485E+04  0.10100000352E+00 0.  1.
       -3   -1    0    0    0  501  0.00000000000E+00  0.00000000000E+00 -0.67419591370E+03  0.67419592126E+03  0.10100000352E+00 0. -1.
    10030    2    1    2    0    0  0.00000000000E+00  0.00000000000E+00  0.10658837319E+04  0.24142755698E+04  0.21662452301E+04 0.  0.
        2    1    3    3  502    0 -0.96677991183E+02 -0.60380717088E+03  0.15292959698E+04  0.16470203086E+04  0.25500000920E-02 0.  1.
       -2    1    3    3    0  502  0.96677991183E+02  0.60380717088E+03 -0.46341223792E+03  0.76725526120E+03  0.25500000920E-02 0. -1.
</event>
<event>
 5   0  0.1805501E-04  0.2040348E+04  0.7818609E-02  0.8587986E-01
        2   -1    0    0  501    0  0.00000000000E+00  0.00000000000E+00  0.79350550403E+03  0.79350550404E+03  0.25500000920E-02 0. -1.
       -2   -1    0    0    0  501  0.00000000000E+00  0.00000000000E+00 -0.13115915252E+04  0.13115915252E+04  0.25500000920E-02 0.  1.
    10030    2    1    2    0    0  0.00000000000E+00  0.00000000000E+00 -0.51808602112E+03  0.21050970292E+04  0.20403481019E+04 0.  0.
        2    1    3    3  502    0  0.73465402281E+03 -0.30315778493E+03  0.40089112433E+03  0.89013193930E+03  0.25500000920E-02 0. -1.
       -2    1    3    3    0  502 -0.73465402281E+03  0.30315778493E+03 -0.91897714545E+03  0.12149650899E+04  0.25500000920E-02 0.  1.
</event>
<event>
 5   0  0.1805501E-04  0.2251381E+04  0.7818609E-02  0.8497341E-01
       -2   -1    0    0    0  501  0.00000000000E+00  0.00000000000E+00  0.11406397506E+04  0.11406397506E+04  0.25500000920E-02 0.  1.
        2   -1    0    0  501    0  0.00000000000E+00  0.00000000000E+00 -0.11109372750E+04  0.11109372750E+04  0.25500000920E-02 0. -1.
    10030    2    1    2    0    0  0.00000000000E+00  0.00000000000E+00  0.29702475568E+02  0.22515770257E+04  0.22513811018E+04 0.  0.
        2    1    3    3  502    0  0.69146393618E+03  0.55711199897E+03 -0.67707822340E+03  0.11166606803E+04  0.25500000920E-02 0. -1.
       -2    1    3    3    0  502 -0.69146393618E+03 -0.55711199897E+03  0.70678069897E+03  0.11349163453E+04  0.25500000920E-02 0.  1.
</event>
<event>
 5   0  0.8602414E-05  0.1135414E+04  0.7818609E-02  0.9171347E-01
       -1   -1    0    0    0  501  0.00000000000E+00  0.00000000000E+00  0.17254156789E+03  0.17254156796E+03  0.50400001928E-02 0. -1.
        1   -1    0    0  501    0  0.00000000000E+00  0.00000000000E+00 -0.18679037775E+04  0.18679037775E+04  0.50400001928E-02 0.  1.
    10030    2    1    2    0    0  0.00000000000E+00  0.00000000000E+00 -0.16953622096E+04  0.20404453455E+04  0.11354136630E+04 0.  0.
        3    1    3    3  502    0  0.25350233049E+02  0.32455348673E+03 -0.16835007961E+04  0.17146873012E+04  0.10100000352E+00 0.  1.
       -3    1    3    3    0  502 -0.25350233049E+02 -0.32455348673E+03 -0.11861413443E+02  0.32575804425E+03  0.10100000352E+00 0. -1.
</event>
<event>
 5   0  0.1798917E-04  0.2190061E+04  0.7818609E-02  0.8522576E-01
        2   -1    0    0  501    0  0.00000000000E+00  0.00000000000E+00  0.14983605971E+04  0.14983605971E+04  0.25500000920E-02 0.  1.
       -2   -1    0    0    0  501  0.00000000000E+00  0.00000000000E+00 -0.80026911147E+03  0.80026911148E+03  0.25500000920E-02 0. -1.
    10030    2    1    2    0    0  0.00000000000E+00  0.00000000000E+00  0.69809148559E+03  0.22986297085E+04  0.21900609158E+04 0.  0.
        4    1    3    3  502    0  0.48959415410E+03 -0.81773833026E+03  0.91493196517E+03  0.13211739198E+04  0.12699999809E+01 0.  1.
       -4    1    3    3    0  502 -0.48959415410E+03  0.81773833026E+03 -0.21684047958E+03  0.97745578876E+03  0.12699999809E+01 0. -1.
</event>
<event>
 5   0  0.8306787E-05  0.2225327E+04  0.7818609E-02  0.8507960E-01
       -1   -1    0    0    0  501  0.00000000000E+00  0.00000000000E+00  0.53517840086E+03  0.53517840088E+03  0.50400001928E-02 0.  1.
        1   -1    0    0  501    0  0.00000000000E+00  0.00000000000E+00 -0.23132858469E+04  0.23132858469E+04  0.50400001928E-02 0. -1.
    10030    2    1    2    0    0  0.00000000000E+00  0.00000000000E+00 -0.17781074460E+04  0.28484642477E+04  0.22253274998E+04 0.  0.
        1    1    3    3  502    0 -0.10944374058E+04 -0.17755190404E+03 -0.76964281441E+03  0.13496918077E+04  0.50400001928E-02 0.  1.
       -1    1    3    3    0  502  0.10944374058E+04  0.17755190404E+03 -0.10084646316E+04  0.14987724401E+04  0.50400001928E-02 0. -1.
</event>
<event>
 5   0  0.1805501E-04  0.1366320E+04  0.7818609E-02  0.8978565E-01
        2   -1    0    0  501    0  0.00000000000E+00  0.00000000000E+00  0.18842744998E+04  0.18842744998E+04  0.25500000920E-02 0. -1.
       -2   -1    0    0    0  501  0.00000000000E+00  0.00000000000E+00 -0.24768555101E+03  0.24768555103E+03  0.25500000920E-02 0.  1.
    10030    2    1    2    0    0  0.00000000000E+00  0.00000000000E+00  0.16365889488E+04  0.21319600508E+04  0.13663199739E+04 0.  0.
        2    1    3    3  502    0  0.23513206969E+03  0.11340873889E+03 -0.16678874357E+03  0.30978559883E+03  0.25500000920E-02 0.  1.
       -2    1    3    3    0  502 -0.23513206969E+03 -0.11340873889E+03  0.18033776923E+04  0.18221744520E+04  0.25500000920E-02 0. -1.
</event>
<event>
 5   0  0.7954459E-05  0.2215316E+04  0.7818609E-02  0.8512080E-01
        1   -1    0    0  501    0  0.00000000000E+00  0.00000000000E+00  0.83481099336E+03  0.83481099337E+03  0.50400001928E-02 0.  1.
       -1   -1    0    0    0  501  0.00000000000E+00  0.00000000000E+00 -0.14696816037E+04  0.14696816037E+04  0.50400001928E-02 0. -1.
    10030    2    1    2    0    0  0.00000000000E+00  0.00000000000E+00 -0.63487061029E+03  0.23044925970E+04  0.22153161034E+04 0.  0.
        5    1    3    3  502    0  0.93928602876E+03 -0.58276937119E+03 -0.24383492179E+03  0.11319699390E+04  0.46999998093E+01 0. -1.
       -5    1    3    3    0  502 -0.93928602876E+03  0.58276937119E+03 -0.39103568851E+03  0.11725226580E+04  0.46999998093E+01 0.  1.
</event>
<event>
 5   0  0.1754356E-04  0.1472175E+04  0.7818609E-02  0.8903170E-01
       -2   -1    0    0    0  501  0.00000000000E+00  0.00000000000E+00  0.35850059645E+03  0.35850059646E+03  0.25500000920E-02 0.  1.
        2   -1    0    0  501    0  0.00000000000E+00  0.00000000000E+00 -0.15113629413E+04  0.15113629413E+04  0.25500000920E-02 0. -1.
    10030    2    1    2    0    0  0.00000000000E+00  0.00000000000E+00 -0.11528623449E+04  0.18698635378E+04  0.14721746037E+04 0.  0.
        1    1    3    3  502    0  0.91915945712E+02 -0.51494325166E+03  0.81359342617E+02  0.52937173721E+03  0.50400001928E-02 0.  1.
       -1    1    3    3    0  502 -0.91915945712E+02  0.51494325166E+03 -0.12342216875E+04  0.13404918006E+04  0.50400001928E-02 0. -1.
</event>
<event>
 5   0  0.1680258E-04  0.2213080E+04  0.7818609E-02  0.8513004E-01
        2   -1    0    0  501    0  0.00000000000E+00  0.00000000000E+00  0.18261356561E+04  0.18261356561E+04  0.25500000920E-02 0. -1.
       -2   -1    0    0    0  501  0.00000000000E+00  0.00000000000E+00 -0.67050354691E+03  0.67050354691E+03  0.25500000920E-02 0.  1.
    10030    2    1    2    0    0  0.00000000000E+00  0.00000000000E+00  0.11556321092E+04  0.24966392030E+04  0.22130796954E+04 0.  0.
        5    1    3    3  502    0  0.67568799416E+03 -0.86950740854E+03  0.45521306319E+03  0.11915697302E+04  0.46999998093E+01 0.  1.
       -5    1    3    3    0  502 -0.67568799416E+03  0.86950740854E+03  0.70041904600E+03  0.13050694728E+04  0.46999998093E+01 0. -1.
</event>
<event>
 5   0  0.8306787E-05  0.2258184E+04  0.7818609E-02  0.8494594E-01
        1   -1    0    0  501    0  0.00000000000E+00  0.00000000000E+00  0.26368877759E+04  0.26368877759E+04  0.50400001928E-02 0.  1.
       -1   -1    0    0    0  501  0.00000000000E+00  0.00000000000E+00 -0.48346711210E+03  0.48346711213E+03  0.50400001928E-02 0. -1.
    10030    2    1    2    0    0  0.00000000000E+00  0.00000000000E+00  0.21534206638E+04  0.31203548880E+04  0.22581837994E+04 0.  0.
        1    1    3    3  502    0  0.27892490988E+03 -0.85527995774E+03  0.20195238903E+04  0.22108323444E+04  0.50400001928E-02 0.  1.
       -1    1    3    3    0  502 -0.27892490988E+03  0.85527995774E+03  0.13389677353E+03  0.90952254367E+03  0.50400001928E-02 0. -1.
</event>
<event>
 5   0  0.8784659E-05  0.2129238E+04  0.7818609E-02  0.8548472E-01
        1   -1    0    0  501    0  0.00000000000E+00  0.00000000000E+00  0.79735240122E+03  0.79735240123E+03  0.50400001928E-02 0.  1.
       -1   -1    0    0    0  501  0.00000000000E+00  0.00000000000E+00 -0.14214709366E+04  0.14214709366E+04  0.50400001928E-02 0. -1.
    10030    2    1    2    0    0  0.00000000000E+00  0.00000000000E+00 -0.62411853541E+03  0.22188233379E+04  0.21292376707E+04 0.  0.
        4    1    3    3  502    0 -0.69748044012E+03 -0.72923652293E+03  0.41550688736E+02  0.10099470003E+04  0.12699999809E+01 0.  1.
       -4    1    3    3    0  502  0.69748044012E+03  0.72923652293E+03 -0.66566922414E+03  0.12088763376E+04  0.12699999809E+01 0. -1.
</event>
<event>
 5   0  0.8784659E-05  0.2097645E+04  0.7818609E-02  0.8562282E-01
        1   -1    0    0  501    0  0.00000000000E+00  0.00000000000E+00  0.26066648154E+04  0.26066648154E+04  0.50400001928E-02 0.  1.
       -1   -1    0    0    0  501  0.00000000000E+00  0.00000000000E+00 -0.42200611336E+03  0.42200611339E+03  0.50400001928E-02 0. -1.
    10030    2    1    2    0    0  0.00000000000E+00  0.00000000000E+00  0.21846587020E+04  0.30286709288E+04  0.20976448581E+04 0.  0.
        4    1    3    3  502    0 -0.51373596146E+03  0.54918622583E+03  0.36745708351E+02  0.75291567173E+03  0.12699999809E+01 0. -1.
       -4    1    3    3    0  502  0.51373596146E+03 -0.54918622583E+03  0.21479129936E+04  0.22757552570E+04  0.12699999809E+01 0.  1.
</event>
<event>
 5   0  0.1805501E-04  0.2153729E+04  0.7818609E-02  0.8537938E-01
        2   -1    0    0  501    0  0.00000000000E+00  0.00000000000E+00  0.20057900997E+04  0.20057900997E+04  0.25500000920E-02 0. -1.
       -2   -1    0    0    0  501  0.00000000000E+00  0.00000000000E+00 -0.57814482964E+03  0.57814482965E+03  0.25500000920E-02 0.  1.
    10030    2    1    2    0    0  0.00000000000E+00  0.00000000000E+00  0.14276452701E+04  0.25839349294E+04  0.21537290224E+04 0.  0.
        2    1    3    3  502    0 -0.16853836515E+03  0.24733681422E+03  0.19548857436E+04  0.19776650249E+04  0.25500000920E-02 0. -1.
       -2    1    3    3    0  502  0.16853836515E+03 -0.24733681422E+03 -0.52724047349E+03  0.60626990449E+03  0.25500000920E-02 0.  1.
</event>
<event>
 5   0  0.1805501E-04  0.2180823E+04  0.7818609E-02  0.8526453E-01
        2   -1    0    0  501    0  0.00000000000E+00  0.00000000000E+00  0.22135046772E+04  0.22135046772E+04  0.25500000920E-02 0.  1.
       -2   -1    0    0    0  501  0.00000000000E+00  0.00000000000E+00 -0.53715578299E+03  0.53715578300E+03  0.25500000920E-02 0. -1.
    10030    2    1    2    0    0  0.00000000000E+00  0.00000000000E+00  0.16763488942E+04  0.27506604602E+04  0.21808226320E+04 0.  0.
        2    1    3    3  502    0  0.29353726927E+03 -0.97688887032E+03  0.35209154586E+03  0.10790942730E+04  0.25500000920E-02 0. -1.
       -2    1    3    3    0  502 -0.29353726927E+03  0.97688887032E+03  0.13242573483E+04  0.16715661872E+04  0.25500000920E-02 0.  1.
</event>
<event>
 5   0  0.1798917E-04  0.2184544E+04  0.7818609E-02  0.8524889E-01
       -2   -1    0    0    0  501  0.00000000000E+00  0.00000000000E+00  0.79334561242E+03  0.79334561242E+03  0.25500000920E-02 0. -1.
        2   -1    0    0  501    0  0.00000000000E+00  0.00000000000E+00 -0.15038319416E+04  0.15038319416E+04  0.25500000920E-02 0.  1.
    10030    2    1    2    0    0  0.00000000000E+00  0.00000000000E+00 -0.71048632914E+03  0.22971775540E+04  0.21845443211E+04 0.  0.
        4    1    3    3  502    0 -0.52773577723E+03 -0.89378527150E+03  0.24410843005E+01  0.10379618172E+04  0.12699999809E+01 0. -1.
       -4    1    3    3    0  502  0.52773577723E+03  0.89378527150E+03 -0.71292741345E+03  0.12592157368E+04  0.12699999809E+01 0.  1.
</event>
<event>
 5   0  0.1680258E-04  0.2213269E+04  0.7818609E-02  0.8512925E-01
        2   -1    0    0  501    0  0.00000000000E+00  0.00000000000E+00  0.12519856137E+04  0.12519856137E+04  0.25500000920E-02 0. -1.
       -2   -1    0    0    0  501  0.00000000000E+00  0.00000000000E+00 -0.97815839533E+03  0.97815839533E+03  0.25500000920E-02 0.  1.
    10030    2    1    2    0    0  0.00000000000E+00  0.00000000000E+00  0.27382721836E+03  0.22301440090E+04  0.22132692912E+04 0.  0.
        5    1    3    3  502    0 -0.55265676396E+03 -0.93982159080E+03  0.32789504773E+03  0.11385215736E+04  0.46999998093E+01 0. -1.
       -5    1    3    3    0  502  0.55265676396E+03  0.93982159080E+03 -0.54067829366E+02  0.10916224354E+04  0.46999998093E+01 0.  1.
</event>
<event>
 5   0  0.1805501E-04  0.2194230E+04  0.7818609E-02  0.8520834E-01
        2   -1    0    0  501    0  0.00000000000E+00  0.00000000000E+00  0.19616945888E+04  0.19616945888E+04  0.25500000920E-02 0.  1.
       -2   -1    0    0    0  501  0.00000000000E+00  0.00000000000E+00 -0.61358221510E+03  0.61358221511E+03  0.25500000920E-02 0. -1.
    10030    2    1    2    0    0  0.00000000000E+00  0.00000000000E+00  0.13481123737E+04  0.25752768039E+04  0.21942296244E+04 0.  0.
        2    1    3    3  502    0  0.56502092674E+03 -0.12457478548E+03  0.17680757489E+04  0.18603385119E+04  0.25500000920E-02 0.  1.
       -2    1    3    3    0  502 -0.56502092674E+03  0.12457478548E+03 -0.41996337524E+03  0.71493829201E+03  0.25500000920E-02 0. -1.
</event>
<event>
 5   0  0.1754356E-04  0.2427889E+04  0.7818609E-02  0.8429135E-01
        2   -1    0    0  501    0  0.00000000000E+00  0.00000000000E+00  0.25540068869E+04  0.25540068869E+04  0.25500000920E-02 0. -1.
       -2   -1    0    0    0  501  0.00000000000E+00  0.00000000000E+00 -0.57699986831E+03  0.57699986831E+03  0.25500000920E-02 0.  1.
    10030    2    1    2    0    0  0.00000000000E+00  0.00000000000E+00  0.19770070186E+04  0.31310067552E+04  0.24278893199E+04 0.  0.
        1    1    3    3  502    0 -0.76852613607E+02  0.10805850300E+04  0.16949541556E+04  0.20115764765E+04  0.50400001928E-02 0. -1.
       -1    1    3    3    0  502  0.76852613607E+02 -0.10805850300E+04  0.28205286303E+03  0.11194302787E+04  0.50400001928E-02 0.  1.
</event>
<event>
 5   0  0.1798917E-04  0.2161938E+04  0.7818609E-02  0.8534439E-01
        2   -1    0    0  501    0  0.00000000000E+00  0.00000000000E+00  0.11343468847E+04  0.11343468847E+04  0.25500000920E-02 0.  1.
       -2   -1    0    0    0  501  0.00000000000E+00  0.00000000000E+00 -0.10301030413E+04  0.10301030413E+04  0.25500000920E-02 0. -1.
    10030    2    1    2    0    0  0.00000000000E+00  0.00000000000E+00  0.10424384340E+03  0.21644499261E+04  0.21619381822E+04 0.  0.
        4    1    3    3  502    0  0.41617571878E+03  0.59202370704E+02 -0.94491933543E+03  0.10342056435E+04  0.12699999809E+01 0. -1.
       -4    1    3    3    0  502 -0.41617571878E+03 -0.59202370704E+02  0.10491631788E+04  0.11302442826E+04  0.12699999809E+01 0.  1.
</event>
<event>
 5   0  0.1798917E-04  0.2247015E+04  0.7818609E-02  0.8499110E-01
       -2   -1    0    0    0  501  0.00000000000E+00  0.00000000000E+00  0.13453651661E+04  0.13453651661E+04  0.25500000920E-02 0. -1.
        2   -1    0    0  501    0  0.00000000000E+00  0.00000000000E+00 -0.93823504753E+03  0.93823504754E+03  0.25500000920E-02 0.  1.
    10030    2    1    2    0    0  0.00000000000E+00  0.00000000000E+00  0.40713011861E+03  0.22836002137E+04  0.22470146867E+04 0.  0.
        4    1    3    3  502    0 -0.27621507257E+03 -0.31042351554E+02 -0.90274010927E+03  0.94456323858E+03  0.12699999809E+01 0.  1.
       -4    1    3    3    0  502  0.27621507257E+03  0.31042351554E+02  0.13098702279E+04  0.13390369751E+04  0.12699999809E+01 0. -1.
</event>
<event>
 5   0  0.1680258E-04  0.2230176E+04  0.7818609E-02  0.8505972E-01
       -2   -1    0    0    0  501  0.00000000000E+00  0.00000000000E+00  0.12504868948E+04  0.12504868948E+04  0.25500000920E-02 0.  1.
        2   -1    0    0  501    0  0.00000000000E+00  0.00000000000E+00 -0.99434927317E+03  0.99434927317E+03  0.25500000920E-02 0. -1.
    10030    2    1    2    0    0  0.00000000000E+00  0.00000000000E+00  0.25613762161E+03  0.22448361680E+04  0.22301755401E+04 0.  0.
        5    1    3    3  502    0 -0.91617252325E+03  0.39848365238E+03  0.62653865887E+03  0.11792938966E+04  0.46999998093E+01 0.  1.
       -5    1    3    3    0  502  0.91617252325E+03 -0.39848365238E+03 -0.37040103726E+03  0.10655422713E+04  0.46999998093E+01 0. -1.
</event>
<event>
 5   0  0.8784659E-05  0.2237454E+04  0.7818609E-02  0.8502999E-01
        1   -1    0    0  501    0  0.00000000000E+00  0.00000000000E+00  0.18522405956E+04  0.18522405956E+04  0.50400001928E-02 0. -1.
       -1   -1    0    0    0  501  0.00000000000E+00  0.00000000000E+00 -0.67569516367E+03  0.67569516368E+03  0.50400001928E-02 0.  1.
    10030    2    1    2    0    0  0.00000000000E+00  0.00000000000E+00  0.11765454320E+04  0.25279357593E+04  0.22374539213E+04 0.  0.
        4    1    3    3  502    0 -0.23454572193E+03  0.69378133171E+03  0.15437644878E+04  0.17086704300E+04  0.12699999809E+01 0. -1.
       -4    1    3    3    0  502  0.23454572193E+03 -0.69378133171E+03 -0.36721905581E+03  0.81926532928E+03  0.12699999809E+01 0.  1.
</event>
<event>
 5   0  0.1680258E-04  0.2240713E+04  0.7818609E-02  0.8501671E-01
        2   -1    0    0  501    0  0.00000000000E+00  0.00000000000E+00  0.14408140763E+04  0.14408140763E+04  0.25500000920E-02 0.  1.
       -2   -1    0    0    0  501  0.00000000000E+00  0.00000000000E+00 -0.87117299479E+03  0.87117299479E+03  0.25500000920E-02 0. -1.
    10030    2    1    2    0    0  0.00000000000E+00  0.00000000000E+00  0.56964108150E+03  0.23119870711E+04  0.22407126668E+04 0.  0.
        5    1    3    3  502    0 -0.55756408311E+03 -0.37138915893E+03 -0.64172343883E+03  0.92770613671E+03  0.46999998093E+01 0. -1.
       -5    1    3    3    0  502  0.55756408311E+03  0.37138915893E+03  0.12113645203E+04  0.13842809344E+04  0.46999998093E+01 0.  1.
</event>
<event>
 5   0  0.1733962E-04  0.2178521E+04  0.7818609E-02  0.8527422E-01
        2   -1    0    0  501    0  0.00000000000E+00  0.00000000000E+00  0.13221496535E+04  0.13221496535E+04  0.25500000920E-02 0. -1.
       -2   -1    0    0    0  501  0.00000000000E+00  0.00000000000E+00 -0.89739367993E+03  0.89739367993E+03  0.25500000920E-02 0.  1.
    10030    2    1    2    0    0  0.00000000000E+00  0.00000000000E+00  0.42475597361E+03  0.22195433335E+04  0.21785212811E+04 0.  0.
        3    1    3    3  502    0  0.36803645040E+03 -0.22485335640E+03 -0.80669615667E+03  0.91475054529E+03  0.10100000352E+00 0.  1.
       -3    1    3    3    0  502 -0.36803645040E+03  0.22485335640E+03  0.12314521303E+04  0.13047927882E+04  0.10100000352E+00 0. -1.
</event>
<event>
 5   0  0.1680258E-04  0.2283638E+04  0.7818609E-02  0.8484401E-01
        2   -1    0    0  501    0  0.00000000000E+00  0.00000000000E+00  0.23000528362E+04  0.23000528362E+04  0.25500000920E-02 0. -1.
       -2   -1    0    0    0  501  0.00000000000E+00  0.00000000000E+00 -0.56683498220E+03  0.56683498221E+03  0.25500000920E-02 0.  1.
    10030    2    1    2    0    0  0.00000000000E+00  0.00000000000E+00  0.17332178540E+04  0.28668878184E+04  0.22836378071E+04 0.  0.
        5    1    3    3  502    0 -0.76366576413E+03 -0.55567523384E+03  0.16721909144E+04  0.19204699709E+04  0.46999998093E+01 0. -1.
       -5    1    3    3    0  502  0.76366576413E+03  0.55567523384E+03  0.61026939606E+02  0.94641784755E+03  0.46999998093E+01 0.  1.
</event>
<event>
 5   0  0.8306787E-05  0.2192471E+04  0.7818609E-02  0.8521568E-01
       -1   -1    0    0    0  501  0.00000000000E+00  0.00000000000E+00  0.62824793422E+03  0.62824793424E+03  0.50400001928E-02 0. -1.
        1   -1    0    0  501    0  0.00000000000E+00  0.00000000000E+00 -0.19128314294E+04  0.19128314294E+04  0.50400001928E-02 0.  1.
    10030    2    1    2    0    0  0.00000000000E+00  0.00000000000E+00 -0.12845834952E+04  0.25410793636E+04  0.21924711118E+04 0.  0.
        1    1    3    3  502    0 -0.73770900716E+03  0.64782761123E+03 -0.12075204952E+04  0.15562779120E+04  0.50400001928E-02 0.  1.
       -1    1    3    3    0  502  0.73770900716E+03 -0.64782761123E+03 -0.77062999969E+02  0.98480145161E+03  0.50400001928E-02 0. -1.
</event>
<event>
 5   0  0.7954459E-05  0.1817475E+04  0.7818609E-02  0.8697061E-01
        1   -1    0    0  501    0  0.00000000000E+00  0.00000000000E+00  0.48468302581E+03  0.48468302584E+03  0.50400001928E-02 0.  1.
       -1   -1    0    0    0  501  0.00000000000E+00  0.00000000000E+00 -0.17038020016E+04  0.17038020016E+04  0.50400001928E-02 0. -1.
    10030    2    1    2    0    0  0.00000000000E+00  0.00000000000E+00 -0.12191189758E+04  0.21884850275E+04  0.18174750723E+04 0.  0.
        5    1    3    3  502    0 -0.55082967829E+03 -0.72239580249E+03 -0.58229202477E+03  0.10790528819E+04  0.46999998093E+01 0. -1.
       -5    1    3    3    0  502  0.55082967829E+03  0.72239580249E+03 -0.63682695105E+03  0.11094321455E+04  0.46999998093E+01 0.  1.
</event>
<event>
 5   0  0.7954459E-05  0.2203604E+04  0.7818609E-02  0.8516930E-01
        1   -1    0    0  501    0  0.00000000000E+00  0.00000000000E+00  0.17620685573E+04  0.17620685573E+04  0.50400001928E-02 0. -1.
       -1   -1    0    0    0  501  0.00000000000E+00  0.00000000000E+00 -0.68894431426E+03  0.68894431428E+03  0.50400001928E-02 0.  1.
    10030    2    1    2    0    0  0.00000000000E+00  0.00000000000E+00  0.10731242431E+04  0.24510128716E+04  0.22036035160E+04 0.  0.
        5    1    3    3  502    0 -0.91653159139E+03  0.60185463618E+03  0.65680033857E+03  0.12781502008E+04  0.46999998093E+01 0. -1.
       -5    1    3    3    0  502  0.91653159139E+03 -0.60185463618E+03  0.41632390451E+03  0.11728626708E+04  0.46999998093E+01 0.  1.
</event>
<event>
 5   0  0.1754356E-04  0.2139792E+04  0.7818609E-02  0.8543914E-01
        2   -1    0    0  501    0  0.00000000000E+00  0.00000000000E+00  0.12558979969E+04  0.12558979969E+04  0.25500000920E-02 0. -1.
       -2   -1    0    0    0  501  0.00000000000E+00  0.00000000000E+00 -0.91144164074E+03  0.91144164075E+03  0.25500000920E-02 0.  1.
    10030    2    1    2    0    0  0.00000000000E+00  0.00000000000E+00  0.34445635615E+03  0.21673396376E+04  0.21397922618E+04 0.  0.
        1    1    3    3  502    0  0.20959763084E+02 -0.79383735429E+03  0.89843872469E+03  0.11990868187E+04  0.50400001928E-02 0. -1.
       -1    1    3    3    0  502 -0.20959763084E+02  0.79383735429E+03 -0.55398236853E+03  0.96825281895E+03  0.50400001928E-02 0.  1.
</event>
<event>
 5   0  0.1754356E-04  0.1930037E+04  0.7818609E-02  0.8640048E-01
        2   -1    0    0  501    0  0.00000000000E+00  0.00000000000E+00  0.11481641215E+04  0.11481641215E+04  0.25500000920E-02 0. -1.
       -2   -1    0    0    0  501  0.00000000000E+00  0.00000000000E+00 -0.81108652095E+03  0.81108652096E+03  0.25500000920E-02 0.  1.
    10030    2    1    2    0    0  0.00000000000E+00  0.00000000000E+00  0.33707760054E+03  0.19592506425E+04  0.19300367279E+04 0.  0.
        1    1    3    3  502    0  0.23731928339E+03  0.60251189865E+03  0.89485415192E+03  0.11045836245E+04  0.50400001928E-02 0. -1.
       -1    1    3    3    0  502 -0.23731928339E+03 -0.60251189865E+03 -0.55777655138E+03  0.85466701795E+03  0.50400001928E-02 0.  1.
</event>
<event>
 5   0  0.8784659E-05  0.2125401E+04  0.7818609E-02  0.8550136E-01
        1   -1    0    0  501    0  0.00000000000E+00  0.00000000000E+00  0.11494383548E+04  0.11494383548E+04  0.50400001928E-02 0. -1.
       -1   -1    0    0    0  501  0.00000000000E+00  0.00000000000E+00 -0.98250781225E+03  0.98250781227E+03  0.50400001928E-02 0.  1.
    10030    2    1    2    0    0  0.00000000000E+00  0.00000000000E+00  0.16693054252E+03  0.21319461670E+04  0.21254008218E+04 0.  0.
        4    1    3    3  502    0  0.49187565185E+03  0.43918895207E+03 -0.75246899370E+03  0.10005197609E+04  0.12699999809E+01 0.  1.
       -4    1    3    3    0  502 -0.49187565185E+03 -0.43918895207E+03  0.91939953622E+03  0.11314264062E+04  0.12699999809E+01 0. -1.
</event>
<event>
 5   0  0.1805501E-04  0.1368158E+04  0.7818609E-02  0.8977195E-01
       -2   -1    0    0    0  501  0.00000000000E+00  0.00000000000E+00  0.86928794656E+03  0.86928794656E+03  0.25500000920E-02 0. -1.
        2   -1    0    0  501    0  0.00000000000E+00  0.00000000000E+00 -0.53833068291E+03  0.53833068292E+03  0.25500000920E-02 0.  1.
    10030    2    1    2    0    0  0.00000000000E+00  0.00000000000E+00  0.33095726364E+03  0.14076186295E+04  0.13681584322E+04 0.  0.
        2    1    3    3  502    0 -0.96395556962E+02 -0.43053159392E+03  0.70335219983E+03  0.83027337292E+03  0.25500000920E-02 0. -1.
       -2    1    3    3    0  502  0.96395556962E+02  0.43053159392E+03 -0.37239493618E+03  0.57734525656E+03  0.25500000920E-02 0.  1.
</event>
<event>
 5   0  0.1680258E-04  0.2192534E+04  0.7818609E-02  0.8521542E-01
       -2   -1    0    0    0  501  0.00000000000E+00  0.00000000000E+00  0.28544308391E+04  0.28544308391E+04  0.25500000920E-02 0.  1.
        2   -1    0    0  501    0  0.00000000000E+00  0.00000000000E+00 -0.42103024160E+03  0.42103024161E+03  0.25500000920E-02 0. -1.
    10030    2    1    2    0    0  0.00000000000E+00  0.00000000000E+00  0.24334005975E+04  0.32754610807E+04  0.21925343380E+04 0.  0.
        5    1    3    3  502    0 -0.40866029401E+03 -0.10165520057E+04  0.12725655401E+04  0.16792338610E+04  0.46999998093E+01 0. -1.
       -5    1    3    3    0  502  0.40866029401E+03  0.10165520057E+04  0.11608350574E+04  0.15962272196E+04  0.46999998093E+01 0.  1.
</event>
<event>
 5   0  0.1680258E-04  0.2185668E+04  0.7818609E-02  0.8524417E-01
       -2   -1    0    0    0  501  0.00000000000E+00  0.00000000000E+00  0.55232712443E+03  0.55232712443E+03  0.25500000920E-02 0.  1.
        2   -1    0    0  501    0  0.00000000000E+00  0.00000000000E+00 -0.21622800534E+04  0.21622800534E+04  0.25500000920E-02 0. -1.
    10030    2    1    2    0    0  0.00000000000E+00  0.00000000000E+00 -0.16099529290E+04  0.27146071778E+04  0.21856677919E+04 0.  0.
        5    1    3    3  502    0  0.55637074467E+03 -0.54294801038E+03 -0.17589151543E+04  0.19230563064E+04  0.46999998093E+01 0. -1.
       -5    1    3    3    0  502 -0.55637074467E+03  0.54294801038E+03  0.14896222534E+03  0.79155087144E+03  0.46999998093E+01 0.  1.
</event>
<event>
 5   0  0.8306787E-05  0.2117387E+04  0.7818609E-02  0.8553623E-01
       -1   -1    0    0    0  501  0.00000000000E+00  0.00000000000E+00  0.81954251835E+03  0.81954251836E+03  0.50400001928E-02 0.  1.
        1   -1    0    0  501    0  0.00000000000E+00  0.00000000000E+00 -0.13676306246E+04  0.13676306246E+04  0.50400001928E-02 0. -1.
    10030    2    1    2    0    0  0.00000000000E+00  0.00000000000E+00 -0.54808810621E+03  0.21871731429E+04  0.21173865460E+04 0.  0.
        1    1    3    3  502    0  0.36039645842E+03 -0.89039339699E+02  0.75010628771E+03  0.83694268271E+03  0.50400001928E-02 0.  1.
       -1    1    3    3    0  502 -0.36039645842E+03  0.89039339699E+02 -0.12981943939E+04  0.13502304602E+04  0.50400001928E-02 0. -1.
</event>
<event>
 5   0  0.8784659E-05  0.2138080E+04  0.7818609E-02  0.8544652E-01
        1   -1    0    0  501    0  0.00000000000E+00  0.00000000000E+00  0.18759423723E+04  0.18759423723E+04  0.50400001928E-02 0.  1.
       -1   -1    0    0    0  501  0.00000000000E+00  0.00000000000E+00 -0.60921176646E+03  0.60921176648E+03  0.50400001928E-02 0. -1.
    10030    2    1    2    0    0  0.00000000000E+00  0.00000000000E+00  0.12667306058E+04  0.24851541388E+04  0.21380796678E+04 0.  0.
        4    1    3    3  502    0  0.88072745041E+03  0.41674757226E+03  0.12209179307E+03  0.98197118070E+03  0.12699999809E+01 0. -1.
       -4    1    3    3    0  502 -0.88072745041E+03 -0.41674757226E+03  0.11446388128E+04  0.15031829581E+04  0.12699999809E+01 0.  1.
</event>
<event>
 5   0  0.1733962E-04  0.2208541E+04  0.7818609E-02  0.8514881E-01
       -2   -1    0    0    0  501  0.00000000000E+00  0.00000000000E+00  0.52642442779E+03  0.52642442780E+03  0.25500000920E-02 0. -1.
        2   -1    0    0  501    0  0.00000000000E+00  0.00000000000E+00 -0.23164080056E+04  0.23164080056E+04  0.25500000920E-02 0.  1.
    10030    2    1    2    0    0  0.00000000000E+00  0.00000000000E+00 -0.17899835778E+04  0.28428324334E+04  0.22085413819E+04 0.  0.
        3    1    3    3  502    0 -0.75802146465E+02 -0.39394239619E+03 -0.22192920616E+04  0.22552591518E+04  0.10100000352E+00 0.  1.
       -3    1    3    3    0  502  0.75802146465E+02  0.39394239619E+03  0.42930848373E+03  0.58757328166E+03  0.10100000352E+00 0. -1.
</event>
<event>
 5   0  0.1754356E-04  0.2226105E+04  0.7818609E-02  0.8507640E-01
        2   -1    0    0  501    0  0.00000000000E+00  0.00000000000E+00  0.22091304954E+04  0.22091304954E+04  0.25500000920E-02 0.  1.
       -2   -1    0    0    0  501  0.00000000000E+00  0.00000000000E+00 -0.56080272192E+03  0.56080272192E+03  0.25500000920E-02 0. -1.
    10030    2    1    2    0    0  0.00000000000E+00  0.00000000000E+00  0.16483277735E+04  0.27699332173E+04  0.22261054736E+04 0.  0.
        1    1    3    3  502    0  0.77114365901E+03 -0.60426336609E+03  0.16681578084E+03  0.99379286735E+03  0.50400001928E-02 0. -1.
       -1    1    3    3    0  502 -0.77114365901E+03  0.60426336609E+03  0.14815119926E+04  0.17761403500E+04  0.50400001928E-02 0.  1.
</event>
<event>
 5   0  0.1680258E-04  0.2229624E+04  0.7818609E-02  0.8506198E-01
       -2   -1    0    0    0  501  0.00000000000E+00  0.00000000000E+00  0.86364777323E+03  0.86364777324E+03  0.25500000920E-02 0.  1.
        2   -1    0    0  501    0  0.00000000000E+00  0.00000000000E+00 -0.14390190206E+04  0.14390190206E+04  0.25500000920E-02 0. -1.
    10030    2    1    2    0    0  0.00000000000E+00  0.00000000000E+00 -0.57537124738E+03  0.23026667939E+04  0.22296238004E+04 0.  0.
        5    1    3    3  502    0 -0.13028990011E+03  0.18244273709E+03  0.84011629431E+03  0.86952762369E+03  0.46999998093E+01 0.  1.
       -5    1    3    3    0  502  0.13028990011E+03 -0.18244273709E+03 -0.14154875417E+04  0.14331391702E+04  0.46999998093E+01 0. -1.
</event>
<event>
 5   0  0.6250625E-05  0.2048914E+04  0.7818609E-02  0.8584087E-01
        4   -1    0    0  501    0  0.00000000000E+00  0.00000000000E+00  0.94477425669E+03  0.94477511028E+03  0.12699999809E+01 0. -1.
       -4   -1    0    0    0  501  0.00000000000E+00  0.00000000000E+00 -0.11108580447E+04  0.11108587706E+04  0.12699999809E+01 0.  1.
    10030    2    1    2    0    0  0.00000000000E+00  0.00000000000E+00 -0.16608378796E+03  0.20556338809E+04  0.20489135725E+04 0.  0.
        2    1    3    3  502    0  0.70185586557E+03 -0.13240491986E+03 -0.81987501580E+03  0.10873489598E+04  0.25500000920E-02 0.  1.
       -2    1    3    3    0  502 -0.70185586557E+03  0.13240491986E+03  0.65379122784E+03  0.96828492111E+03  0.25500000920E-02 0. -1.
</event>
<event>
 5   0  0.1733962E-04  0.2218587E+04  0.7818609E-02  0.8510731E-01
       -2   -1    0    0    0  501  0.00000000000E+00  0.00000000000E+00  0.61769578114E+03  0.61769578115E+03  0.25500000920E-02 0.  1.
        2   -1    0    0  501    0  0.00000000000E+00  0.00000000000E+00 -0.19921326093E+04  0.19921326093E+04  0.25500000920E-02 0. -1.
    10030    2    1    2    0    0  0.00000000000E+00  0.00000000000E+00 -0.13744368282E+04  0.26098283905E+04  0.22185868550E+04 0.  0.
        3    1    3    3  502    0 -0.77251330244E+03  0.23104541124E+02 -0.16232990577E+04  0.17978905593E+04  0.10100000352E+00 0. -1.
       -3    1    3    3    0  502  0.77251330244E+03 -0.23104541124E+02  0.24886222949E+03  0.81193783120E+03  0.10100000352E+00 0.  1.
</event>
<event>
 5   0  0.1798917E-04  0.2165374E+04  0.7818609E-02  0.8532980E-01
       -2   -1    0    0    0  501  0.00000000000E+00  0.00000000000E+00  0.76732047330E+03  0.76732047331E+03  0.25500000920E-02 0. -1.
        2   -1    0    0  501    0  0.00000000000E+00  0.00000000000E+00 -0.15276687035E+04  0.15276687035E+04  0.25500000920E-02 0.  1.
    10030    2    1    2    0    0  0.00000000000E+00  0.00000000000E+00 -0.76034823015E+03  0.22949891768E+04  0.21653743072E+04 0.  0.
        4    1    3    3  502    0  0.92440126219E+03 -0.54125861873E+03 -0.54684928444E+03  0.12027154022E+04  0.12699999809E+01 0.  1.
       -4    1    3    3    0  502 -0.92440126219E+03  0.54125861873E+03 -0.21349894571E+03  0.10922737746E+04  0.12699999809E+01 0. -1.
</event>
<event>
 5   0  0.6250625E-05  0.2113663E+04  0.7818609E-02  0.8555248E-01
       -3   -1    0    0    0  501  0.00000000000E+00  0.00000000000E+00  0.97475757692E+03  0.97475758215E+03  0.10100000352E+00 0.  1.
        3   -1    0    0  501    0  0.00000000000E+00  0.00000000000E+00 -0.11458159694E+04  0.11458159739E+04  0.10100000352E+00 0. -1.
    10030    2    1    2    0    0  0.00000000000E+00  0.00000000000E+00 -0.17105839249E+03  0.21205735560E+04  0.21136629894E+04 0.  0.
        3    1    3    3  502    0  0.33086158728E+03  0.64053876767E+03  0.68974140382E+03  0.99774872446E+03  0.10100000352E+00 0.  1.
       -3    1    3    3    0  502 -0.33086158728E+03 -0.64053876767E+03 -0.86079979631E+03  0.11228248316E+04  0.10100000352E+00 0. -1.
</event>
<event>
 5   0  0.1733962E-04  0.2476301E+04  0.7818609E-02  0.8411477E-01
       -2   -1    0    0    0  501  0.00000000000E+00  0.00000000000E+00  0.17209429974E+04  0.17209429974E+04  0.25500000920E-02 0.  1.
        2   -1    0    0  501    0  0.00000000000E+00  0.00000000000E+00 -0.89080021997E+03  0.89080021997E+03  0.25500000920E-02 0. -1.
    10030    2    1    2    0    0  0.00000000000E+00  0.00000000000E+00  0.83014277746E+03  0.26117432174E+04  0.24763007900E+04 0.  0.
        3    1    3    3  502    0  0.74510805562E+03 -0.52025667269E+03  0.13019965137E+04  0.15877808262E+04  0.10100000352E+00 0.  1.
       -3    1    3    3    0  502 -0.74510805562E+03  0.52025667269E+03 -0.47185373626E+03  0.10239623912E+04  0.10100000352E+00 0. -1.
</event>
<event>
 5   0  0.1798917E-04  0.2205927E+04  0.7818609E-02  0.8515965E-01
        2   -1    0    0  501    0  0.00000000000E+00  0.00000000000E+00  0.12203680171E+04  0.12203680171E+04  0.25500000920E-02 0.  1.
       -2   -1    0    0    0  501  0.00000000000E+00  0.00000000000E+00 -0.99685360168E+03  0.99685360168E+03  0.25500000920E-02 0. -1.
    10030    2    1    2    0    0  0.00000000000E+00  0.00000000000E+00  0.22351441542E+03  0.22172216188E+04  0.22059267923E+04 0.  0.
        4    1    3    3  502    0  0.10545685421E+04  0.23458542023E+03 -0.11160011539E+03  0.10860945300E+04  0.12699999809E+01 0. -1.
       -4    1    3    3    0  502 -0.10545685421E+04 -0.23458542023E+03  0.33511453081E+03  0.11311270888E+04  0.12699999809E+01 0.  1.
</event>
<event>
 5   0  0.1754356E-04  0.1427238E+04  0.7818609E-02  0.8934335E-01
       -2   -1    0    0    0  501  0.00000000000E+00  0.00000000000E+00  0.56731797144E+03  0.56731797144E+03  0.25500000920E-02 0. -1.
        2   -1    0    0  501    0  0.00000000000E+00  0.00000000000E+00 -0.89764880831E+03  0.89764880832E+03  0.25500000920E-02 0.  1.
    10030    2    1    2    0    0  0.00000000000E+00  0.00000000000E+00 -0.33033083688E+03  0.14649667798E+04  0.14272383137E+04 0.  0.
        1    1    3    3  502    0  0.61707715246E+03  0.18781008033E+03  0.14818383558E+03  0.66182723389E+03  0.50400001928E-02 0. -1.
       -1    1    3    3    0  502 -0.61707715246E+03 -0.18781008033E+03 -0.47851467245E+03  0.80313954587E+03  0.50400001928E-02 0.  1.
</event>
<event>
 5   0  0.8784659E-05  0.2210140E+04  0.7818609E-02  0.8514219E-01
        1   -1    0    0  501    0  0.00000000000E+00  0.00000000000E+00  0.15430354097E+04  0.15430354097E+04  0.50400001928E-02 0.  1.
       -1   -1    0    0    0  501  0.00000000000E+00  0.00000000000E+00 -0.79141390299E+03  0.79141390300E+03  0.50400001928E-02 0. -1.
    10030    2    1    2    0    0  0.00000000000E+00  0.00000000000E+00  0.75162150669E+03  0.23344493127E+04  0.22101399739E+04 0.  0.
        4    1    3    3  502    0 -0.21103875693E+03  0.15979464906E+03 -0.75743056043E+03  0.80235550323E+03  0.12699999809E+01 0. -1.
       -4    1    3    3    0  502  0.21103875693E+03 -0.15979464906E+03  0.15090520671E+04  0.15320938095E+04  0.12699999809E+01 0.  1.
</event>
<event>
 5   0  0.1733962E-04  0.1713601E+04  0.7818609E-02  0.8753645E-01
        2   -1    0    0  501    0  0.00000000000E+00  0.00000000000E+00  0.15465806043E+04  0.15465806043E+04  0.25500000920E-02 0.  1.
       -2   -1    0    0    0  501  0.00000000000E+00  0.00000000000E+00 -0.47466459705E+03  0.47466459706E+03  0.25500000920E-02 0. -1.
    10030    2    1    2    0    0  0.00000000000E+00  0.00000000000E+00  0.10719160072E+04  0.20212452013E+04  0.17136009563E+04 0.  0.
        3    1    3    3  502    0  0.50359990222E+02 -0.55763320768E+03 -0.22902584470E+03  0.60493286460E+03  0.10100000352E+00 0. -1.
       -3    1    3    3    0  502 -0.50359990222E+02  0.55763320768E+03  0.13009418519E+04  0.14163123368E+04  0.10100000352E+00 0.  1.
</event>
<event>
 5   0  0.1680258E-04  0.1537745E+04  0.7818609E-02  0.8859734E-01
       -2   -1    0    0    0  501  0.00000000000E+00  0.00000000000E+00  0.38884088265E+03  0.38884088265E+03  0.25500000920E-02 0. -1.
        2   -1    0    0  501    0  0.00000000000E+00  0.00000000000E+00 -0.15203260146E+04  0.15203260146E+04  0.25500000920E-02 0.  1.
    10030    2    1    2    0    0  0.00000000000E+00  0.00000000000E+00 -0.11314851320E+04  0.19091668973E+04  0.15377449846E+04 0.  0.
        5    1    3    3  502    0 -0.74684690037E+03 -0.38037786924E+02 -0.34394261398E+03  0.82313168906E+03  0.46999998093E+01 0.  1.
       -5    1    3    3    0  502  0.74684690037E+03  0.38037786924E+02 -0.78754251799E+03  0.10860352082E+04  0.46999998093E+01 0. -1.
</event>
<event>
 5   0  0.8602414E-05  0.2233978E+04  0.7818609E-02  0.8504418E-01
        1   -1    0    0  501    0  0.00000000000E+00  0.00000000000E+00  0.18762666912E+04  0.18762666912E+04  0.50400001928E-02 0.  1.
       -1   -1    0    0    0  501  0.00000000000E+00  0.00000000000E+00 -0.66497153264E+03  0.66497153266E+03  0.50400001928E-02 0. -1.
    10030    2    1    2    0    0  0.00000000000E+00  0.00000000000E+00  0.12112951585E+04  0.25412382238E+04  0.22339775624E+04 0.  0.
        3    1    3    3  502    0  0.47044367224E+03 -0.34662636096E+03 -0.47722621792E+03  0.75446136822E+03  0.10100000352E+00 0. -1.
       -3    1    3    3    0  502 -0.47044367224E+03  0.34662636096E+03  0.16885213764E+04  0.17867768556E+04  0.10100000352E+00 0.  1.
</event>
<event>
 5   0  0.8784659E-05  0.2121907E+04  0.7818609E-02  0.8551654E-01
        1   -1    0    0  501    0  0.00000000000E+00  0.00000000000E+00  0.97152545823E+03  0.97152545824E+03  0.50400001928E-02 0.  1.
       -1   -1    0    0    0  501  0.00000000000E+00  0.00000000000E+00 -0.11586136334E+04  0.11586136335E+04  0.50400001928E-02 0. -1.
    10030    2    1    2    0    0  0.00000000000E+00  0.00000000000E+00 -0.18708817522E+03  0.21301390917E+04  0.21219072941E+04 0.  0.
        4    1    3    3  502    0  0.73848116812E+03 -0.43713138216E+03  0.53272120879E+03  0.10100652356E+04  0.12699999809E+01 0.  1.
       -4    1    3    3    0  502 -0.73848116812E+03  0.43713138216E+03 -0.71980938401E+03  0.11200738561E+04  0.12699999809E+01 0. -1.
</event>
<event>
 5   0  0.1798917E-04  0.2114113E+04  0.7818609E-02  0.8555052E-01
       -2   -1    0    0    0  501  0.00000000000E+00  0.00000000000E+00  0.73777177340E+03  0.73777177340E+03  0.25500000920E-02 0.  1.
        2   -1    0    0  501    0  0.00000000000E+00  0.00000000000E+00 -0.15145179665E+04  0.15145179665E+04  0.25500000920E-02 0. -1.
    10030    2    1    2    0    0  0.00000000000E+00  0.00000000000E+00 -0.77674619314E+03  0.22522897399E+04  0.21141131531E+04 0.  0.
        4    1    3    3  502    0 -0.41003070296E+03  0.12569914468E+03 -0.14176674550E+04  0.14811171723E+04  0.12699999809E+01 0. -1.
       -4    1    3    3    0  502  0.41003070296E+03 -0.12569914468E+03  0.64092126182E+03  0.77117256765E+03  0.12699999809E+01 0.  1.
</event>
<event>
 5   0  0.8602414E-05  0.2281422E+04  0.7818609E-02  0.8485283E-01
        1   -1    0    0  501    0  0.00000000000E+00  0.00000000000E+00  0.24456955883E+04  0.24456955883E+04  0.50400001928E-02 0. -1.
       -1   -1    0    0    0  501  0.00000000000E+00  0.00000000000E+00 -0.53204541188E+03  0.53204541190E+03  0.50400001928E-02 0.  1.
    10030    2    1    2    0    0  0.00000000000E+00  0.00000000000E+00  0.19136501764E+04  0.29777410002E+04  0.22814215890E+04 0.  0.
        3    1    3    3  502    0 -0.10217444933E+04  0.16072464997E+03  0.15847218993E+04  0.18923894238E+04  0.10100000352E+00 0.  1.
       -3    1    3    3    0  502  0.10217444933E+04 -0.16072464997E+03  0.32892827706E+03  0.10853515764E+04  0.10100000352E+00 0. -1.
</event>
<event>
 5   0  0.1680258E-04  0.2233522E+04  0.7818609E-02  0.8504604E-01
        2   -1    0    0  501    0  0.00000000000E+00  0.00000000000E+00  0.96405790746E+03  0.96405790746E+03  0.25500000920E-02 0. -1.
       -2   -1    0    0    0  501  0.00000000000E+00  0.00000000000E+00 -0.12936521519E+04  0.12936521519E+04  0.25500000920E-02 0.  1.
    10030    2    1    2    0    0  0.00000000000E+00  0.00000000000E+00 -0.32959424447E+03  0.22577100594E+04  0.22335224078E+04 0.  0.
        5    1    3    3  502    0 -0.72031398750E+03  0.83393793071E+03 -0.34794641692E+03  0.11555922775E+04  0.46999998093E+01 0. -1.
       -5    1    3    3    0  502  0.72031398750E+03 -0.83393793071E+03  0.18352172456E+02  0.11021177819E+04  0.46999998093E+01 0.  1.
</event>
<event>
 5   0  0.1805501E-04  0.2236573E+04  0.7818609E-02  0.8503358E-01
       -2   -1    0    0    0  501  0.00000000000E+00  0.00000000000E+00  0.13305107333E+04  0.13305107333E+04  0.25500000920E-02 0.  1.
        2   -1    0    0  501    0  0.00000000000E+00  0.00000000000E+00 -0.93991296454E+03  0.93991296454E+03  0.25500000920E-02 0. -1.
    10030    2    1    2    0    0  0.00000000000E+00  0.00000000000E+00  0.39059776875E+03  0.22704236978E+04  0.22365726348E+04 0.  0.
        2    1    3    3  502    0  0.11147750800E+04 -0.47120513710E+02  0.11919443223E+03  0.11221190375E+04  0.25500000920E-02 0.  1.
       -2    1    3    3    0  502 -0.11147750800E+04  0.47120513710E+02  0.27140333652E+03  0.11483046603E+04  0.25500000920E-02 0. -1.
</event>
<event>
 5   0  0.1680258E-04  0.2240007E+04  0.7818609E-02  0.8501958E-01
       -2   -1    0    0    0  501  0.00000000000E+00  0.00000000000E+00  0.92375716159E+03  0.92375716159E+03  0.25500000920E-02 0. -1.
        2   -1    0    0  501    0  0.00000000000E+00  0.00000000000E+00 -0.13579416209E+04  0.13579416209E+04  0.25500000920E-02 0.  1.
    10030    2    1    2    0    0  0.00000000000E+00  0.00000000000E+00 -0.43418445934E+03  0.22816987825E+04  0.22400074083E+04 0.  0.
        5    1    3    3  502    0  0.88675719223E+03 -0.40482956243E+03  0.34468037783E+03  0.10339496823E+04  0.46999998093E+01 0. -1.
       -5    1    3    3    0  502 -0.88675719223E+03  0.40482956243E+03 -0.77886483717E+03  0.12477491002E+04  0.46999998093E+01 0.  1.
</event>
<event>
 5   0  0.7954459E-05  0.2059416E+04  0.7818609E-02  0.8579335E-01
        1   -1    0    0  501    0  0.00000000000E+00  0.00000000000E+00  0.10580569072E+04  0.10580569072E+04  0.50400001928E-02 0.  1.
       -1   -1    0    0    0  501  0.00000000000E+00  0.00000000000E+00 -0.10021186103E+04  0.10021186103E+04  0.50400001928E-02 0. -1.
    10030    2    1    2    0    0  0.00000000000E+00  0.00000000000E+00  0.55938296823E+02  0.20601755175E+04  0.20594159536E+04 0.  0.
        5    1    3    3  502    0 -0.74680892412E+03 -0.18945245524E+03 -0.65540843474E+03  0.10115325542E+04  0.46999998093E+01 0. -1.
       -5    1    3    3    0  502  0.74680892412E+03  0.18945245524E+03  0.71134673156E+03  0.10486429633E+04  0.46999998093E+01 0.  1.
</event>
<event>
 5   0  0.8784659E-05  0.2221596E+04  0.7818609E-02  0.8509493E-01
        1   -1    0    0  501    0  0.00000000000E+00  0.00000000000E+00  0.16267667824E+04  0.16267667824E+04  0.50400001928E-02 0.  1.
       -1   -1    0    0    0  501  0.00000000000E+00  0.00000000000E+00 -0.75848155540E+03  0.75848155542E+03  0.50400001928E-02 0. -1.
    10030    2    1    2    0    0  0.00000000000E+00  0.00000000000E+00  0.86828522701E+03  0.23852483378E+04  0.22215963625E+04 0.  0.
        4    1    3    3  502    0 -0.29612407540E+03  0.93877187906E+03 -0.11844393373E+03  0.99146996287E+03  0.12699999809E+01 0. -1.
       -4    1    3    3    0  502  0.29612407540E+03 -0.93877187906E+03  0.98672916075E+03  0.13937783750E+04  0.12699999809E+01 0.  1.
</event>
<event>
 5   0  0.1733962E-04  0.2205363E+04  0.7818609E-02  0.8516199E-01
       -2   -1    0    0    0  501  0.00000000000E+00  0.00000000000E+00  0.66010376851E+03  0.66010376852E+03  0.25500000920E-02 0.  1.
        2   -1    0    0  501    0  0.00000000000E+00  0.00000000000E+00 -0.18419930347E+04  0.18419930347E+04  0.25500000920E-02 0. -1.
    10030    2    1    2    0    0  0.00000000000E+00  0.00000000000E+00 -0.11818892661E+04  0.25020968032E+04  0.22053630483E+04 0.  0.
        3    1    3    3  502    0  0.26527496689E+02 -0.98090283453E+03 -0.11616502262E+04  0.15206266264E+04  0.10100000352E+00 0. -1.
       -3    1    3    3    0  502 -0.26527496689E+02  0.98090283453E+03 -0.20239039975E+02  0.98147017673E+03  0.10100000352E+00 0.  1.
</event>
<event>
 5   0  0.8470971E-05  0.2181597E+04  0.7818609E-02  0.8526127E-01
        1   -1    0    0  501    0  0.00000000000E+00  0.00000000000E+00  0.96446516224E+03  0.96446516225E+03  0.50400001928E-02 0.  1.
       -1   -1    0    0    0  501  0.00000000000E+00  0.00000000000E+00 -0.12336795178E+04  0.12336795178E+04  0.50400001928E-02 0. -1.
    10030    2    1    2    0    0  0.00000000000E+00  0.00000000000E+00 -0.26921435559E+03  0.21981446801E+04  0.21815965863E+04 0.  0.
        2    1    3    3  502    0 -0.53526210302E+03  0.75116171153E+03  0.45212548801E+03  0.10272131681E+04  0.25500000920E-02 0.  1.
       -2    1    3    3    0  502  0.53526210302E+03 -0.75116171153E+03 -0.72133984360E+03  0.11709315120E+04  0.25500000920E-02 0. -1.
</event>
<event>
 5   0  0.1798917E-04  0.2197552E+04  0.7818609E-02  0.8519448E-01
        2   -1    0    0  501    0  0.00000000000E+00  0.00000000000E+00  0.18755358549E+04  0.18755358549E+04  0.25500000920E-02 0. -1.
       -2   -1    0    0    0  501  0.00000000000E+00  0.00000000000E+00 -0.64371413793E+03  0.64371413793E+03  0.25500000920E-02 0.  1.
    10030    2    1    2    0    0  0.00000000000E+00  0.00000000000E+00  0.12318217170E+04  0.25192499928E+04  0.21975522255E+04 0.  0.
        4    1    3    3  502    0 -0.89935732170E+03 -0.17370689091E+03 -0.79796860871E+02  0.91944919814E+03  0.12699999809E+01 0. -1.
       -4    1    3    3    0  502  0.89935732170E+03  0.17370689091E+03  0.13116185778E+04  0.15998007947E+04  0.12699999809E+01 0.  1.
</event>
<event>
 5   0  0.8784659E-05  0.2086203E+04  0.7818609E-02  0.8567346E-01
       -1   -1    0    0    0  501  0.00000000000E+00  0.00000000000E+00  0.10128966202E+04  0.10128966202E+04  0.50400001928E-02 0. -1.
        1   -1    0    0  501    0  0.00000000000E+00  0.00000000000E+00 -0.10742068317E+04  0.10742068317E+04  0.50400001928E-02 0.  1.
    10030    2    1    2    0    0  0.00000000000E+00  0.00000000000E+00 -0.61310211461E+02  0.20871034520E+04  0.20862027411E+04 0.  0.
        4    1    3    3  502    0 -0.64267232639E+03  0.44295702793E+03 -0.72292221883E+03  0.10638875857E+04  0.12699999809E+01 0.  1.
       -4    1    3    3    0  502  0.64267232639E+03 -0.44295702793E+03  0.66161200737E+03  0.10232158662E+04  0.12699999809E+01 0. -1.
</event>
<event>
 5   0  0.8306787E-05  0.2234329E+04  0.7818609E-02  0.8504274E-01
        1   -1    0    0  501    0  0.00000000000E+00  0.00000000000E+00  0.97883160655E+03  0.97883160656E+03  0.50400001928E-02 0.  1.
       -1   -1    0    0    0  501  0.00000000000E+00  0.00000000000E+00 -0.12750466987E+04  0.12750466987E+04  0.50400001928E-02 0. -1.
    10030    2    1    2    0    0  0.00000000000E+00  0.00000000000E+00 -0.29621509219E+03  0.22538783053E+04  0.22343285422E+04 0.  0.
        1    1    3    3  502    0  0.19673218584E+03 -0.25210094609E+03  0.93167767255E+03  0.98502879426E+03  0.50400001928E-02 0.  1.
       -1    1    3    3    0  502 -0.19673218584E+03  0.25210094609E+03 -0.12278927647E+04  0.12688495110E+04  0.50400001928E-02 0. -1.
</event>
<event>
 5   0  0.7954459E-05  0.2201868E+04  0.7818609E-02  0.8517651E-01
        1   -1    0    0  501    0  0.00000000000E+00  0.00000000000E+00  0.18587082731E+04  0.18587082731E+04  0.50400001928E-02 0.  1.
       -1   -1    0    0    0  501  0.00000000000E+00  0.00000000000E+00 -0.65209575357E+03  0.65209575359E+03  0.50400001928E-02 0. -1.
    10030    2    1    2    0    0  0.00000000000E+00  0.00000000000E+00  0.12066125195E+04  0.25108040267E+04  0.22018680905E+04 0.  0.
        5    1    3    3  502    0  0.48223096541E+03 -0.97456698905E+03  0.79984347153E+03  0.13498515434E+04  0.46999998093E+01 0. -1.
       -5    1    3    3    0  502 -0.48223096541E+03  0.97456698905E+03  0.40676904798E+03  0.11609524833E+04  0.46999998093E+01 0.  1.
</event>
<event>
 5   0  0.8602414E-05  0.2158126E+04  0.7818609E-02  0.8536062E-01
       -1   -1    0    0    0  501  0.00000000000E+00  0.00000000000E+00  0.10414350056E+04  0.10414350056E+04  0.50400001928E-02 0. -1.
        1   -1    0    0  501    0  0.00000000000E+00  0.00000000000E+00 -0.11180500390E+04  0.11180500390E+04  0.50400001928E-02 0.  1.
    10030    2    1    2    0    0  0.00000000000E+00  0.00000000000E+00 -0.76615033410E+02  0.21594850445E+04  0.21581255279E+04 0.  0.
        3    1    3    3  502    0 -0.79361504881E+03  0.68997422245E+03  0.20368602973E+03  0.10711569830E+04  0.10100000352E+00 0. -1.
       -3    1    3    3    0  502  0.79361504881E+03 -0.68997422245E+03 -0.28030106314E+03  0.10883280615E+04  0.10100000352E+00 0.  1.
</event>
<event>
 5   0  0.1805501E-04  0.2243401E+04  0.7818609E-02  0.8500578E-01
        2   -1    0    0  501    0  0.00000000000E+00  0.00000000000E+00  0.14860159211E+04  0.14860159211E+04  0.25500000920E-02 0. -1.
       -2   -1    0    0    0  501  0.00000000000E+00  0.00000000000E+00 -0.84670164388E+03  0.84670164389E+03  0.25500000920E-02 0.  1.
    10030    2    1    2    0    0  0.00000000000E+00  0.00000000000E+00  0.63931427721E+03  0.23327175650E+04  0.22434010994E+04 0.  0.
        2    1    3    3  502    0  0.33155660070E+03  0.66192715376E+03 -0.55658800700E+03  0.92621139374E+03  0.25500000920E-02 0.  1.
       -2    1    3    3    0  502 -0.33155660070E+03 -0.66192715376E+03  0.11959022842E+04  0.14065061712E+04  0.25500000920E-02 0. -1.
</event>
<event>
 5   0  0.8784659E-05  0.2198757E+04  0.7818609E-02  0.8518946E-01
        1   -1    0    0  501    0  0.00000000000E+00  0.00000000000E+00  0.13069546412E+04  0.13069546412E+04  0.50400001928E-02 0.  1.
       -1   -1    0    0    0  501  0.00000000000E+00  0.00000000000E+00 -0.92477030505E+03  0.92477030506E+03  0.50400001928E-02 0. -1.
    10030    2    1    2    0    0  0.00000000000E+00  0.00000000000E+00  0.38218433617E+03  0.22317249463E+04  0.21987567781E+04 0.  0.
        4    1    3    3  502    0  0.66341979722E+03  0.83102497952E+02  0.10768739969E+04  0.12675531825E+04  0.12699999809E+01 0.  1.
       -4    1    3    3    0  502 -0.66341979722E+03 -0.83102497952E+02 -0.69468966068E+03  0.96417176378E+03  0.12699999809E+01 0. -1.
</event>
<event>
 5   0  0.1680258E-04  0.1850220E+04  0.7818609E-02  0.8680039E-01
        2   -1    0    0  501    0  0.00000000000E+00  0.00000000000E+00  0.12896739971E+04  0.12896739971E+04  0.25500000920E-02 0.  1.
       -2   -1    0    0    0  501  0.00000000000E+00  0.00000000000E+00 -0.66360095973E+03  0.66360095974E+03  0.25500000920E-02 0. -1.
    10030    2    1    2    0    0  0.00000000000E+00  0.00000000000E+00  0.62607303734E+03  0.19532749568E+04  0.18502204217E+04 0.  0.
        5    1    3    3  502    0 -0.16267187680E+03  0.66126327686E+03 -0.34799899572E+03  0.76475921168E+03  0.46999998093E+01 0. -1.
       -5    1    3    3    0  502  0.16267187680E+03 -0.66126327686E+03  0.97407203306E+03  0.11885157451E+04  0.46999998093E+01 0.  1.
</event>
<event>
 5   0  0.1798917E-04  0.1903220E+04  0.7818609E-02  0.8653255E-01
        2   -1    0    0  501    0  0.00000000000E+00  0.00000000000E+00  0.15739995911E+04  0.15739995911E+04  0.25500000920E-02 0.  1.
       -2   -1    0    0    0  501  0.00000000000E+00  0.00000000000E+00 -0.57532542214E+03  0.57532542215E+03  0.25500000920E-02 0. -1.
    10030    2    1    2    0    0  0.00000000000E+00  0.00000000000E+00  0.99867416891E+03  0.21493250132E+04  0.19032204068E+04 0.  0.
        4    1    3    3  502    0 -0.87620435950E+02  0.64568532813E+03 -0.28386452960E+03  0.71075141070E+03  0.12699999809E+01 0. -1.
       -4    1    3    3    0  502  0.87620435950E+02 -0.64568532813E+03  0.12825386985E+04  0.14385736025E+04  0.12699999809E+01 0.  1.
</event>
<event>
 5   0  0.8306787E-05  0.2119844E+04  0.7818609E-02  0.8552552E-01
        1   -1    0    0  501    0  0.00000000000E+00  0.00000000000E+00  0.59630492677E+03  0.59630492680E+03  0.50400001928E-02 0. -1.
       -1   -1    0    0    0  501  0.00000000000E+00  0.00000000000E+00 -0.18839936204E+04  0.18839936204E+04  0.50400001928E-02 0.  1.
    10030    2    1    2    0    0  0.00000000000E+00  0.00000000000E+00 -0.12876886936E+04  0.24802985472E+04  0.21198440300E+04 0.  0.
        1    1    3    3  502    0 -0.96780992271E+03 -0.42764106467E+03 -0.57075908017E+03  0.12022058286E+04  0.50400001928E-02 0.  1.
       -1    1    3    3    0  502  0.96780992271E+03  0.42764106467E+03 -0.71692961344E+03  0.12780927186E+04  0.50400001928E-02 0. -1.
</event>
<event>
 5   0  0.1680258E-04  0.1579512E+04  0.7818609E-02  0.8833234E-01
       -2   -1    0    0    0  501  0.00000000000E+00  0.00000000000E+00  0.17123206630E+04  0.17123206630E+04  0.25500000920E-02 0. -1.
        2   -1    0    0  501    0  0.00000000000E+00  0.00000000000E+00 -0.36425097377E+03  0.36425097378E+03  0.25500000920E-02 0.  1.
    10030    2    1    2    0    0  0.00000000000E+00  0.00000000000E+00  0.13480696892E+04  0.20765716368E+04  0.15795119106E+04 0.  0.
        5    1    3    3  502    0 -0.33648018423E+03  0.26247253399E+03  0.15476688165E+04  0.16054319048E+04  0.46999998093E+01 0. -1.
       -5    1    3    3    0  502  0.33648018423E+03 -0.26247253399E+03 -0.19959912722E+03  0.47113973200E+03  0.46999998093E+01 0.  1.
</event>
<event>
 5   0  0.1754356E-04  0.2233553E+04  0.7818609E-02  0.8504591E-01
       -2   -1    0    0    0  501  0.00000000000E+00  0.00000000000E+00  0.13609747268E+04  0.13609747268E+04  0.25500000920E-02 0. -1.
        2   -1    0    0  501    0  0.00000000000E+00  0.00000000000E+00 -0.91639416434E+03  0.91639416434E+03  0.25500000920E-02 0.  1.
    10030    2    1    2    0    0  0.00000000000E+00  0.00000000000E+00  0.44458056245E+03  0.22773688911E+04  0.22335525939E+04 0.  0.
        1    1    3    3  502    0  0.82967320642E+03  0.74638176979E+03  0.17968635899E+03  0.11303674462E+04  0.50400001928E-02 0.  1.
       -1    1    3    3    0  502 -0.82967320642E+03 -0.74638176979E+03  0.26489420346E+03  0.11470014450E+04  0.50400001928E-02 0. -1.
</event>
<event>
 5   0  0.1733962E-04  0.2204439E+04  0.7818609E-02  0.8516583E-01
        2   -1    0    0  501    0  0.00000000000E+00  0.00000000000E+00  0.83508340505E+03  0.83508340506E+03  0.25500000920E-02 0. -1.
       -2   -1    0    0    0  501  0.00000000000E+00  0.00000000000E+00 -0.14548097213E+04  0.14548097213E+04  0.25500000920E-02 0.  1.
    10030    2    1    2    0    0  0.00000000000E+00  0.00000000000E+00 -0.61972631623E+03  0.22898931263E+04  0.22044386639E+04 0.  0.
        3    1    3    3  502    0  0.43125036848E+03 -0.78531158835E+03 -0.97677622243E+03  0.13254368978E+04  0.10100000352E+00 0.  1.
       -3    1    3    3    0  502 -0.43125036848E+03  0.78531158835E+03  0.35704990619E+03  0.96445622856E+03  0.10100000352E+00 0. -1.
</event>
<event>
 5   0  0.8306787E-05  0.2149259E+04  0.7818609E-02  0.8539849E-01
        1   -1    0    0  501    0  0.00000000000E+00  0.00000000000E+00  0.10029049988E+04  0.10029049988E+04  0.50400001928E-02 0. -1.
       -1   -1    0    0    0  501  0.00000000000E+00  0.00000000000E+00 -0.11514840256E+04  0.11514840256E+04  0.50400001928E-02 0.  1.
    10030    2    1    2    0    0  0.00000000000E+00  0.00000000000E+00 -0.14857902683E+03  0.21543890245E+04  0.21492594868E+04 0.  0.
        1    1    3    3  502    0 -0.14967221006E+03 -0.94690045904E+03  0.41246890422E+03  0.10436248592E+04  0.50400001928E-02 0.  1.
       -1    1    3    3    0  502  0.14967221006E+03  0.94690045904E+03 -0.56104793105E+03  0.11107641652E+04  0.50400001928E-02 0. -1.
</event>
<event>
 5   0  0.8470971E-05  0.2147912E+04  0.7818609E-02  0.8540426E-01
       -1   -1    0    0    0  501  0.00000000000E+00  0.00000000000E+00  0.46282248479E+03  0.46282248481E+03  0.50400001928E-02 0. -1.
        1   -1    0    0  501    0  0.00000000000E+00  0.00000000000E+00 -0.24920613187E+04  0.24920613187E+04  0.50400001928E-02 0.  1.
    10030    2    1    2    0    0  0.00000000000E+00  0.00000000000E+00 -0.20292388340E+04  0.29548838036E+04  0.21479124860E+04 0.  0.
        2    1    3    3  502    0 -0.36304911357E+02 -0.65578087746E+03 -0.21835724367E+04  0.22802094623E+04  0.25500000920E-02 0.  1.
       -2    1    3    3    0  502  0.36304911357E+02  0.65578087746E+03  0.15433360270E+03  0.67467434126E+03  0.25500000920E-02 0. -1.
</event>
<event>
 5   0  0.1754356E-04  0.2224032E+04  0.7818609E-02  0.8508492E-01
        2   -1    0    0  501    0  0.00000000000E+00  0.00000000000E+00  0.16262366754E+04  0.16262366754E+04  0.25500000920E-02 0.  1.
       -2   -1    0    0    0  501  0.00000000000E+00  0.00000000000E+00 -0.76039307624E+03  0.76039307624E+03  0.25500000920E-02 0. -1.
    10030    2    1    2    0    0  0.00000000000E+00  0.00000000000E+00  0.86584359917E+03  0.23866297517E+04  0.22240315720E+04 0.  0.
        1    1    3    3  502    0 -0.57161874045E+03  0.21423133801E+03  0.14303574856E+04  0.15551738126E+04  0.50400001928E-02 0.  1.
       -1    1    3    3    0  502  0.57161874045E+03 -0.21423133801E+03 -0.56451388645E+03  0.83145593908E+03  0.50400001928E-02 0. -1.
</event>
<event>
 5   0  0.1733962E-04  0.2052401E+04  0.7818609E-02  0.8582506E-01
       -2   -1    0    0    0  501  0.00000000000E+00  0.00000000000E+00  0.14127253238E+04  0.14127253238E+04  0.25500000920E-02 0.  1.
        2   -1    0    0  501    0  0.00000000000E+00  0.00000000000E+00 -0.74542972146E+03  0.74542972146E+03  0.25500000920E-02 0. -1.
    10030    2    1    2    0    0  0.00000000000E+00  0.00000000000E+00  0.66729560232E+03  0.21581550453E+04  0.20524009790E+04 0.  0.
        3    1    3    3  502    0 -0.94463376575E+03 -0.72396098997E+02 -0.81023691842E+02  0.95086223786E+03  0.10100000352E+00 0. -1.
       -3    1    3    3    0  502  0.94463376575E+03  0.72396098997E+02  0.74831929417E+03  0.12072928074E+04  0.10100000352E+00 0.  1.
</event>
<event>
 5   0  0.7954459E-05  0.2170769E+04  0.7818609E-02  0.8530694E-01
       -1   -1    0    0    0  501  0.00000000000E+00  0.00000000000E+00  0.84878513259E+03  0.84878513261E+03  0.50400001928E-02 0. -1.
        1   -1    0    0  501    0  0.00000000000E+00  0.00000000000E+00 -0.13879355367E+04  0.13879355367E+04  0.50400001928E-02 0.  1.
    10030    2    1    2    0    0  0.00000000000E+00  0.00000000000E+00 -0.53915040409E+03  0.22367206693E+04  0.21707685722E+04 0.  0.
        5    1    3    3  502    0  0.28563712421E+03  0.26387054192E+03 -0.13136834810E+04  0.13700374476E+04  0.46999998093E+01 0.  1.
       -5    1    3    3    0  502 -0.28563712421E+03 -0.26387054192E+03  0.77453307688E+03  0.86668322171E+03  0.46999998093E+01 0. -1.
</event>
<event>
 5   0  0.1733962E-04  0.2099493E+04  0.7818609E-02  0.8561467E-01
       -2   -1    0    0    0  501  0.00000000000E+00  0.00000000000E+00  0.11143549874E+04  0.11143549875E+04  0.25500000920E-02 0.  1.
        2   -1    0    0  501    0  0.00000000000E+00  0.00000000000E+00 -0.98888404409E+03  0.98888404410E+03  0.25500000920E-02 0. -1.
    10030    2    1    2    0    0  0.00000000000E+00  0.00000000000E+00  0.12547094336E+03  0.21032390315E+04  0.20994931451E+04 0.  0.
        3    1    3    3  502    0 -0.72223117473E+03  0.38496076420E+03 -0.59582254619E+03  0.10123325424E+04  0.10100000352E+00 0. -1.
       -3    1    3    3    0  502  0.72223117473E+03 -0.38496076420E+03  0.72129348955E+03  0.10909064891E+04  0.10100000352E+00 0.  1.
</event>
<event>
 5   0  0.8784659E-05  0.2189050E+04  0.7818609E-02  0.8522999E-01
       -1   -1    0    0    0  501  0.00000000000E+00  0.00000000000E+00  0.11492257806E+04  0.11492257806E+04  0.50400001928E-02 0. -1.
        1   -1    0    0  501    0  0.00000000000E+00  0.00000000000E+00 -0.10424283241E+04  0.10424283241E+04  0.50400001928E-02 0.  1.
    10030    2    1    2    0    0  0.00000000000E+00  0.00000000000E+00  0.10679745643E+03  0.21916541047E+04  0.21890504832E+04 0.  0.
        4    1    3    3  502    0  0.40201450386E+03 -0.35975494823E+03 -0.90007035950E+03  0.10493653077E+04  0.12699999809E+01 0.  1.
       -4    1    3    3    0  502 -0.40201450386E+03  0.35975494823E+03  0.10068678159E+04  0.11422887970E+04  0.12699999809E+01 0. -1.
</event>
<event>
 5   0  0.8784659E-05  0.2175885E+04  0.7818609E-02  0.8528533E-01
        1   -1    0    0  501    0  0.00000000000E+00  0.00000000000E+00  0.15247340319E+04  0.15247340320E+04  0.50400001928E-02 0.  1.
       -1   -1    0    0    0  501  0.00000000000E+00  0.00000000000E+00 -0.77627902667E+03  0.77627902669E+03  0.50400001928E-02 0. -1.
    10030    2    1    2    0    0  0.00000000000E+00  0.00000000000E+00  0.74845500527E+03  0.23010130586E+04  0.21758851535E+04 0.  0.
        4    1    3    3  502    0  0.34395527938E+03 -0.26844472721E+02  0.14653528064E+04  0.15054189849E+04  0.12699999809E+01 0.  1.
       -4    1    3    3    0  502 -0.34395527938E+03  0.26844472721E+02 -0.71689780116E+03  0.79559407372E+03  0.12699999809E+01 0. -1.
</event>
<event>
 5   0  0.1733962E-04  0.2140955E+04  0.7818609E-02  0.8543414E-01
       -2   -1    0    0    0  501  0.00000000000E+00  0.00000000000E+00  0.68837602891E+03  0.68837602891E+03  0.25500000920E-02 0. -1.
        2   -1    0    0  501    0  0.00000000000E+00  0.00000000000E+00 -0.16646752605E+04  0.16646752605E+04  0.25500000920E-02 0.  1.
    10030    2    1    2    0    0  0.00000000000E+00  0.00000000000E+00 -0.97629923164E+03  0.23530512895E+04  0.21409554365E+04 0.  0.
        3    1    3    3  502    0 -0.31669754703E+02 -0.18342170894E+02  0.68768823316E+03  0.68866140070E+03  0.10100000352E+00 0. -1.
       -3    1    3    3    0  502  0.31669754703E+02  0.18342170894E+02 -0.16639874648E+04  0.16643898888E+04  0.10100000352E+00 0.  1.
</event>
<event>
 5   0  0.7954459E-05  0.2069704E+04  0.7818609E-02  0.8574708E-01
       -1   -1    0    0    0  501  0.00000000000E+00  0.00000000000E+00  0.75237960113E+03  0.75237960114E+03  0.50400001928E-02 0. -1.
        1   -1    0    0  501    0  0.00000000000E+00  0.00000000000E+00 -0.14233759821E+04  0.14233759822E+04  0.50400001928E-02 0.  1.
    10030    2    1    2    0    0  0.00000000000E+00  0.00000000000E+00 -0.67099638102E+03  0.21757555833E+04  0.20697043786E+04 0.  0.
        5    1    3    3  502    0 -0.34491533351E+03 -0.95311680871E+03 -0.55474841861E+03  0.11554938928E+04  0.46999998093E+01 0.  1.
       -5    1    3    3    0  502  0.34491533351E+03  0.95311680871E+03 -0.11624796241E+03  0.10202616905E+04  0.46999998093E+01 0. -1.
</event>
<event>
 5   0  0.8306787E-05  0.2213258E+04  0.7818609E-02  0.8512930E-01
       -1   -1    0    0    0  501  0.00000000000E+00  0.00000000000E+00  0.11396512117E+04  0.11396512117E+04  0.50400001928E-02 0. -1.
        1   -1    0    0  501    0  0.00000000000E+00  0.00000000000E+00 -0.10745633893E+04  0.10745633893E+04  0.50400001928E-02 0.  1.
    10030    2    1    2    0    0  0.00000000000E+00  0.00000000000E+00  0.65087822461E+02  0.22142146010E+04  0.22132577515E+04 0.  0.
        1    1    3    3  502    0  0.28864945229E+03 -0.60420516457E+02  0.10996157061E+04  0.11384743502E+04  0.50400001928E-02 0. -1.
       -1    1    3    3    0  502 -0.28864945229E+03  0.60420516457E+02 -0.10345278836E+04  0.10757402508E+04  0.50400001928E-02 0.  1.
</event>
<event>
 5   0  0.8784659E-05  0.2186854E+04  0.7818609E-02  0.8523920E-01
        1   -1    0    0  501    0  0.00000000000E+00  0.00000000000E+00  0.13854345822E+04  0.13854345822E+04  0.50400001928E-02 0.  1.
       -1   -1    0    0    0  501  0.00000000000E+00  0.00000000000E+00 -0.86296547641E+03  0.86296547642E+03  0.50400001928E-02 0. -1.
    10030    2    1    2    0    0  0.00000000000E+00  0.00000000000E+00  0.52246910574E+03  0.22484000586E+04  0.21868536432E+04 0.  0.
        4    1    3    3  502    0 -0.43263881848E+03  0.28890863826E+03  0.12500374345E+04  0.13539718421E+04  0.12699999809E+01 0.  1.
       -4    1    3    3    0  502  0.43263881848E+03 -0.28890863826E+03 -0.72756832879E+03  0.89442821650E+03  0.12699999809E+01 0. -1.
</event>
<event>
 5   0  0.1805501E-04  0.2200419E+04  0.7818609E-02  0.8518254E-01
        2   -1    0    0  501    0  0.00000000000E+00  0.00000000000E+00  0.15005307419E+04  0.15005307419E+04  0.25500000920E-02 0.  1.
       -2   -1    0    0    0  501  0.00000000000E+00  0.00000000000E+00 -0.80668864484E+03  0.80668864484E+03  0.25500000920E-02 0. -1.
    10030    2    1    2    0    0  0.00000000000E+00  0.00000000000E+00  0.69384209705E+03  0.23072193867E+04  0.22004191516E+04 0.  0.
        2    1    3    3  502    0  0.38262159850E+03  0.59998860368E+03  0.12267395527E+04  0.14181944656E+04  0.25500000920E-02 0.  1.
       -2    1    3    3    0  502 -0.38262159850E+03 -0.59998860368E+03 -0.53289745561E+03  0.88902492113E+03  0.25500000920E-02 0. -1.
</event>
<event>
 5   0  0.1805501E-04  0.1483977E+04  0.7818609E-02  0.8895179E-01
        2   -1    0    0  501    0  0.00000000000E+00  0.00000000000E+00  0.73745537558E+03  0.73745537558E+03  0.25500000920E-02 0.  1.
       -2   -1    0    0    0  501  0.00000000000E+00  0.00000000000E+00 -0.74654920944E+03  0.74654920945E+03  0.25500000920E-02 0. -1.
    10030    2    1    2    0    0  0.00000000000E+00  0.00000000000E+00 -0.90938338641E+01  0.14840045850E+04  0.14839767217E+04 0.  0.
        2    1    3    3  502    0 -0.47261136413E+03 -0.57199836729E+03 -0.63059134720E+01  0.74201307147E+03  0.25500000920E-02 0. -1.
       -2    1    3    3    0  502  0.47261136413E+03  0.57199836729E+03 -0.27879203921E+01  0.74199151356E+03  0.25500000920E-02 0.  1.
</event>
<event>
 5   0  0.1805501E-04  0.2252934E+04  0.7818609E-02  0.8496713E-01
        2   -1    0    0  501    0  0.00000000000E+00  0.00000000000E+00  0.14203943792E+04  0.14203943792E+04  0.25500000920E-02 0. -1.
       -2   -1    0    0    0  501  0.00000000000E+00  0.00000000000E+00 -0.89336326486E+03  0.89336326486E+03  0.25500000920E-02 0.  1.
    10030    2    1    2    0    0  0.00000000000E+00  0.00000000000E+00  0.52703111432E+03  0.23137576440E+04  0.22529342289E+04 0.  0.
        2    1    3    3  502    0 -0.84102015163E+03  0.56037159776E+03  0.77454036908E+03  0.12732808042E+04  0.25500000920E-02 0. -1.
       -2    1    3    3    0  502  0.84102015163E+03 -0.56037159776E+03 -0.24750925476E+03  0.10404768398E+04  0.25500000920E-02 0.  1.
</event>
<event>
 5   0  0.8470971E-05  0.2175075E+04  0.7818609E-02  0.8528875E-01
        1   -1    0    0  501    0  0.00000000000E+00  0.00000000000E+00  0.10921160059E+04  0.10921160059E+04  0.50400001928E-02 0.  1.
       -1   -1    0    0    0  501  0.00000000000E+00  0.00000000000E+00 -0.10829778514E+04  0.10829778514E+04  0.50400001928E-02 0. -1.
    10030    2    1    2    0    0  0.00000000000E+00  0.00000000000E+00  0.91381544663E+01  0.21750938573E+04  0.21750746613E+04 0.  0.
        2    1    3    3  502    0  0.46557369606E+03  0.87049401199E+03  0.46088303657E+03  0.10894640264E+04  0.25500000920E-02 0. -1.
       -2    1    3    3    0  502 -0.46557369606E+03 -0.87049401199E+03 -0.45174488210E+03  0.10856298310E+04  0.25500000920E-02 0.  1.
</event>
<event>
 5   0  0.8784659E-05  0.2109458E+04  0.7818609E-02  0.8557088E-01
       -1   -1    0    0    0  501  0.00000000000E+00  0.00000000000E+00  0.14528685552E+04  0.14528685552E+04  0.50400001928E-02 0.  1.
        1   -1    0    0  501    0  0.00000000000E+00  0.00000000000E+00 -0.76569452303E+03  0.76569452304E+03  0.50400001928E-02 0. -1.
    10030    2    1    2    0    0  0.00000000000E+00  0.00000000000E+00  0.68717403217E+03  0.22185630783E+04  0.21094582199E+04 0.  0.
        4    1    3    3  502    0  0.78370217153E+03 -0.22436379036E+03 -0.36029985282E+03  0.89126079289E+03  0.12699999809E+01 0. -1.
       -4    1    3    3    0  502 -0.78370217153E+03  0.22436379036E+03  0.10474738850E+04  0.13273022854E+04  0.12699999809E+01 0.  1.
</event>
<event>
 5   0  0.8602414E-05  0.2130789E+04  0.7818609E-02  0.8547800E-01
       -1   -1    0    0    0  501  0.00000000000E+00  0.00000000000E+00  0.10475439942E+04  0.10475439942E+04  0.50400001928E-02 0. -1.
        1   -1    0    0  501    0  0.00000000000E+00  0.00000000000E+00 -0.10835493596E+04  0.10835493596E+04  0.50400001928E-02 0.  1.
    10030    2    1    2    0    0  0.00000000000E+00  0.00000000000E+00 -0.36005365350E+02  0.21310933538E+04  0.21307891722E+04 0.  0.
        3    1    3    3  502    0  0.23180545685E+03  0.91416415987E+03 -0.51368995258E+03  0.10739214397E+04  0.10100000352E+00 0.  1.
       -3    1    3    3    0  502 -0.23180545685E+03 -0.91416415987E+03  0.47768458723E+03  0.10571719142E+04  0.10100000352E+00 0. -1.
</event>
<event>
 5   0  0.1680258E-04  0.2183510E+04  0.7818609E-02  0.8525323E-01
        2   -1    0    0  501    0  0.00000000000E+00  0.00000000000E+00  0.10745096128E+04  0.10745096128E+04  0.25500000920E-02 0. -1.
       -2   -1    0    0    0  501  0.00000000000E+00  0.00000000000E+00 -0.11092768739E+04  0.11092768739E+04  0.25500000920E-02 0.  1.
    10030    2    1    2    0    0  0.00000000000E+00  0.00000000000E+00 -0.34767261112E+02  0.21837864866E+04  0.21835097107E+04 0.  0.
        5    1    3    3  502    0  0.24476006257E+03 -0.96334246054E+03  0.43430442822E+03  0.10847020839E+04  0.46999998093E+01 0. -1.
       -5    1    3    3    0  502 -0.24476006257E+03  0.96334246054E+03 -0.46907168933E+03  0.10990844027E+04  0.46999998093E+01 0.  1.
</event>
<event>
 5   0  0.8784659E-05  0.2095862E+04  0.7818609E-02  0.8563068E-01
        1   -1    0    0  501    0  0.00000000000E+00  0.00000000000E+00  0.11964866182E+04  0.11964866182E+04  0.50400001928E-02 0. -1.
       -1   -1    0    0    0  501  0.00000000000E+00  0.00000000000E+00 -0.91782022131E+03  0.91782022132E+03  0.50400001928E-02 0.  1.
    10030    2    1    2    0    0  0.00000000000E+00  0.00000000000E+00  0.27866639685E+03  0.21143068395E+04  0.20958622213E+04 0.  0.
        4    1    3    3  502    0 -0.40160936213E+03 -0.69133985790E+03  0.82272917158E+03  0.11472252532E+04  0.12699999809E+01 0. -1.
       -4    1    3    3    0  502  0.40160936213E+03  0.69133985790E+03 -0.54406277472E+03  0.96708158632E+03  0.12699999809E+01 0.  1.
</event>
<event>
 5   0  0.1680258E-04  0.2106920E+04  0.7818609E-02  0.8558201E-01
        2   -1    0    0  501    0  0.00000000000E+00  0.00000000000E+00  0.11450231724E+04  0.11450231724E+04  0.25500000920E-02 0.  1.
       -2   -1    0    0    0  501  0.00000000000E+00  0.00000000000E+00 -0.96921906026E+03  0.96921906027E+03  0.25500000920E-02 0. -1.
    10030    2    1    2    0    0  0.00000000000E+00  0.00000000000E+00  0.17580411215E+03  0.21142422327E+04  0.21069202957E+04 0.  0.
        5    1    3    3  502    0 -0.79134178994E+03  0.28404773710E+03  0.72481341395E+03  0.11100817630E+04  0.46999998093E+01 0.  1.
       -5    1    3    3    0  502  0.79134178994E+03 -0.28404773710E+03 -0.54900930180E+03  0.10041604697E+04  0.46999998093E+01 0. -1.
</event>
<event>
 5   0  0.8784659E-05  0.2063953E+04  0.7818609E-02  0.8577291E-01
        1   -1    0    0  501    0  0.00000000000E+00  0.00000000000E+00  0.90113664018E+03  0.90113664019E+03  0.50400001928E-02 0.  1.
       -1   -1    0    0    0  501  0.00000000000E+00  0.00000000000E+00 -0.11818137225E+04  0.11818137225E+04  0.50400001928E-02 0. -1.
    10030    2    1    2    0    0  0.00000000000E+00  0.00000000000E+00 -0.28067708231E+03  0.20829503627E+04  0.20639531460E+04 0.  0.
        4    1    3    3  502    0 -0.82740512509E+03 -0.70572622340E+02  0.47799516716E+03  0.95815485636E+03  0.12699999809E+01 0. -1.
       -4    1    3    3    0  502  0.82740512509E+03  0.70572622340E+02 -0.75867224946E+03  0.11247955063E+04  0.12699999809E+01 0.  1.
</event>
<event>
 5   0  0.6250625E-05  0.1160625E+04  0.7818609E-02  0.9148037E-01
        3   -1    0    0  501    0  0.00000000000E+00  0.00000000000E+00  0.59415278644E+03  0.59415279502E+03  0.10100000352E+00 0. -1.
       -3   -1    0    0    0  501  0.00000000000E+00  0.00000000000E+00 -0.56679423401E+03  0.56679424301E+03  0.10100000352E+00 0.  1.
    10030    2    1    2    0    0  0.00000000000E+00  0.00000000000E+00  0.27358552430E+02  0.11609470380E+04  0.11606246313E+04 0.  0.
        4    1    3    3  502    0  0.15364024900E+03  0.27949124191E+03  0.49862328411E+03  0.59190157355E+03  0.12699999809E+01 0. -1.
       -4    1    3    3    0  502 -0.15364024900E+03 -0.27949124191E+03 -0.47126473168E+03  0.56904546448E+03  0.12699999809E+01 0.  1.
</event>
<event>
 5   0  0.8602414E-05  0.1239902E+04  0.7818609E-02  0.9078630E-01
        1   -1    0    0  501    0  0.00000000000E+00  0.00000000000E+00  0.82010862835E+03  0.82010862837E+03  0.50400001928E-02 0. -1.
       -1   -1    0    0    0  501  0.00000000000E+00  0.00000000000E+00 -0.46864456809E+03  0.46864456812E+03  0.50400001928E-02 0.  1.
    10030    2    1    2    0    0  0.00000000000E+00  0.00000000000E+00  0.35146406026E+03  0.12887531965E+04  0.12399023412E+04 0.  0.
        3    1    3    3  502    0  0.19147317705E+03 -0.46933386309E+03  0.54673076492E+03  0.74555401688E+03  0.10100000352E+00 0. -1.
       -3    1    3    3    0  502 -0.19147317705E+03  0.46933386309E+03 -0.19526670466E+03  0.54319917961E+03  0.10100000352E+00 0.  1.
</event>
<event>
 5   0  0.8602414E-05  0.1933969E+04  0.7818609E-02  0.8638130E-01
        1   -1    0    0  501    0  0.00000000000E+00  0.00000000000E+00  0.16898621638E+04  0.16898621638E+04  0.50400001928E-02 0. -1.
       -1   -1    0    0    0  501  0.00000000000E+00  0.00000000000E+00 -0.55333460043E+03  0.55333460046E+03  0.50400001928E-02 0.  1.
    10030    2    1    2    0    0  0.00000000000E+00  0.00000000000E+00  0.11365275634E+04  0.22431967643E+04  0.19339691882E+04 0.  0.
        3    1    3    3  502    0  0.32515914556E+03 -0.76043083334E+03 -0.12928899547E+02  0.82713402111E+03  0.10100000352E+00 0. -1.
       -3    1    3    3    0  502 -0.32515914556E+03  0.76043083334E+03  0.11494564629E+04  0.14160627432E+04  0.10100000352E+00 0.  1.
</event>
<event>
 5   0  0.1798917E-04  0.1349694E+04  0.7818609E-02  0.8991059E-01
        2   -1    0    0  501    0  0.00000000000E+00  0.00000000000E+00  0.11833397041E+04  0.11833397041E+04  0.25500000920E-02 0. -1.
       -2   -1    0    0    0  501  0.00000000000E+00  0.00000000000E+00 -0.38485886822E+03  0.38485886823E+03  0.25500000920E-02 0.  1.
    10030    2    1    2    0    0  0.00000000000E+00  0.00000000000E+00  0.79848083588E+03  0.15681985723E+04  0.13496944532E+04 0.  0.
        4    1    3    3  502    0 -0.61149181696E+03 -0.10747893139E+03  0.70652328817E+03  0.94055873422E+03  0.12699999809E+01 0. -1.
       -4    1    3    3    0  502  0.61149181696E+03  0.10747893139E+03  0.91957547705E+02  0.62763983810E+03  0.12699999809E+01 0.  1.
</event>
<event>
 5   0  0.1805501E-04  0.2312567E+04  0.7818609E-02  0.8472983E-01
        2   -1    0    0  501    0  0.00000000000E+00  0.00000000000E+00  0.12857231605E+04  0.12857231605E+04  0.25500000920E-02 0.  1.
       -2   -1    0    0    0  501  0.00000000000E+00  0.00000000000E+00 -0.10398747757E+04  0.10398747757E+04  0.25500000920E-02 0. -1.
    10030    2    1    2    0    0  0.00000000000E+00  0.00000000000E+00  0.24584838480E+03  0.23255979361E+04  0.23125666114E+04 0.  0.
        2    1    3    3  502    0 -0.68440417469E+03 -0.25592403006E+01  0.10601498288E+04  0.12618768892E+04  0.25500000920E-02 0.  1.
       -2    1    3    3    0  502  0.68440417469E+03  0.25592403006E+01 -0.81430144396E+03  0.10637210469E+04  0.25500000920E-02 0. -1.
</event>
<event>
 5   0  0.8602414E-05  0.2185315E+04  0.7818609E-02  0.8524565E-01
       -1   -1    0    0    0  501  0.00000000000E+00  0.00000000000E+00  0.67585243265E+03  0.67585243267E+03  0.50400001928E-02 0. -1.
        1   -1    0    0  501    0  0.00000000000E+00  0.00000000000E+00 -0.17665098811E+04  0.17665098811E+04  0.50400001928E-02 0.  1.
    10030    2    1    2    0    0  0.00000000000E+00  0.00000000000E+00 -0.10906574484E+04  0.24423623138E+04  0.21853146231E+04 0.  0.
        3    1    3    3  502    0 -0.52150659933E+03  0.15858131808E+03 -0.16037041774E+04  0.16938076238E+04  0.10100000352E+00 0.  1.
       -3    1    3    3    0  502  0.52150659933E+03 -0.15858131808E+03  0.51304672896E+03  0.74855468998E+03  0.10100000352E+00 0. -1.
</event>
<event>
 5   0  0.1733962E-04  0.2138034E+04  0.7818609E-02  0.8544672E-01
       -2   -1    0    0    0  501  0.00000000000E+00  0.00000000000E+00  0.53750006013E+03  0.53750006014E+03  0.25500000920E-02 0. -1.
        2   -1    0    0  501    0  0.00000000000E+00  0.00000000000E+00 -0.21261344430E+04  0.21261344430E+04  0.25500000920E-02 0.  1.
    10030    2    1    2    0    0  0.00000000000E+00  0.00000000000E+00 -0.15886343828E+04  0.26636345031E+04  0.21380340418E+04 0.  0.
        3    1    3    3  502    0 -0.75305087505E+02 -0.66670654387E+03  0.24251941790E+03  0.71343125114E+03  0.10100000352E+00 0. -1.
       -3    1    3    3    0  502  0.75305087505E+02  0.66670654387E+03 -0.18311538007E+04  0.19502032520E+04  0.10100000352E+00 0.  1.
</event>
<event>
 5   0  0.8306787E-05  0.2215104E+04  0.7818609E-02  0.8512167E-01
        1   -1    0    0  501    0  0.00000000000E+00  0.00000000000E+00  0.22019359781E+04  0.22019359782E+04  0.50400001928E-02 0. -1.
       -1   -1    0    0    0  501  0.00000000000E+00  0.00000000000E+00 -0.55708793564E+03  0.55708793566E+03  0.50400001928E-02 0.  1.
    10030    2    1    2    0    0  0.00000000000E+00  0.00000000000E+00  0.16448480425E+04  0.27590239138E+04  0.22151044838E+04 0.  0.
        1    1    3    3  502    0  0.91972585618E+03 -0.39076051554E+03  0.14172737481E+04  0.17341436815E+04  0.50400001928E-02 0. -1.
       -1    1    3    3    0  502 -0.91972585618E+03  0.39076051554E+03  0.22757429437E+03  0.10248802323E+04  0.50400001928E-02 0.  1.
</event>
<event>
 5   0  0.8784659E-05  0.2185955E+04  0.7818609E-02  0.8524297E-01
        1   -1    0    0  501    0  0.00000000000E+00  0.00000000000E+00  0.13404472563E+04  0.13404472563E+04  0.50400001928E-02 0. -1.
       -1   -1    0    0    0  501  0.00000000000E+00  0.00000000000E+00 -0.89119470415E+03  0.89119470417E+03  0.50400001928E-02 0.  1.
    10030    2    1    2    0    0  0.00000000000E+00  0.00000000000E+00  0.44925255216E+03  0.22316419605E+04  0.21859547077E+04 0.  0.
        4    1    3    3  502    0  0.91697386646E+03 -0.16466051797E+03 -0.35884639512E+03  0.99836191141E+03  0.12699999809E+01 0.  1.
       -4    1    3    3    0  502 -0.91697386646E+03  0.16466051797E+03  0.80809894729E+03  0.12332800491E+04  0.12699999809E+01 0. -1.
</event>
<event>
 5   0  0.7954459E-05  0.2153742E+04  0.7818609E-02  0.8537932E-01
       -1   -1    0    0    0  501  0.00000000000E+00  0.00000000000E+00  0.65438205744E+03  0.65438205746E+03  0.50400001928E-02 0. -1.
        1   -1    0    0  501    0  0.00000000000E+00  0.00000000000E+00 -0.17721314898E+04  0.17721314898E+04  0.50400001928E-02 0.  1.
    10030    2    1    2    0    0  0.00000000000E+00  0.00000000000E+00 -0.11177494324E+04  0.24265135473E+04  0.21537419069E+04 0.  0.
        5    1    3    3  502    0 -0.51019239287E+03  0.40996422821E+03 -0.15223167031E+04  0.16570567826E+04  0.46999998093E+01 0.  1.
       -5    1    3    3    0  502  0.51019239287E+03 -0.40996422821E+03  0.40456727075E+03  0.76945676468E+03  0.46999998093E+01 0. -1.
</event>
<event>
 5   0  0.1733962E-04  0.2192557E+04  0.7818609E-02  0.8521533E-01
       -2   -1    0    0    0  501  0.00000000000E+00  0.00000000000E+00  0.57475393327E+03  0.57475393327E+03  0.25500000920E-02 0. -1.
        2   -1    0    0  501    0  0.00000000000E+00  0.00000000000E+00 -0.20910275381E+04  0.20910275381E+04  0.25500000920E-02 0.  1.
    10030    2    1    2    0    0  0.00000000000E+00  0.00000000000E+00 -0.15162736049E+04  0.26657814714E+04  0.21925567743E+04 0.  0.
        3    1    3    3  502    0 -0.75478645862E+03 -0.66374486426E+03 -0.22598759257E+03  0.10302088357E+04  0.10100000352E+00 0. -1.
       -3    1    3    3    0  502  0.75478645862E+03  0.66374486426E+03 -0.12902860123E+04  0.16355726357E+04  0.10100000352E+00 0.  1.
</event>
<event>
 5   0  0.8306787E-05  0.2199751E+04  0.7818609E-02  0.8518532E-01
        1   -1    0    0  501    0  0.00000000000E+00  0.00000000000E+00  0.73387549944E+03  0.73387549946E+03  0.50400001928E-02 0.  1.
       -1   -1    0    0    0  501  0.00000000000E+00  0.00000000000E+00 -0.16484074722E+04  0.16484074722E+04  0.50400001928E-02 0. -1.
    10030    2    1    2    0    0  0.00000000000E+00  0.00000000000E+00 -0.91453197271E+03  0.23822829716E+04  0.21997507649E+04 0.  0.
        1    1    3    3  502    0  0.66361445104E+02  0.36982530608E+03 -0.15767491054E+04  0.16208986211E+04  0.50400001928E-02 0. -1.
       -1    1    3    3    0  502 -0.66361445104E+02 -0.36982530608E+03  0.66221713268E+03  0.76138435055E+03  0.50400001928E-02 0.  1.
</event>
<event>
 5   0  0.1754356E-04  0.2271876E+04  0.7818609E-02  0.8489093E-01
        2   -1    0    0  501    0  0.00000000000E+00  0.00000000000E+00  0.20315225391E+04  0.20315225391E+04  0.25500000920E-02 0. -1.
       -2   -1    0    0    0  501  0.00000000000E+00  0.00000000000E+00 -0.63516643547E+03  0.63516643548E+03  0.25500000920E-02 0.  1.
    10030    2    1    2    0    0  0.00000000000E+00  0.00000000000E+00  0.13963561037E+04  0.26666889746E+04  0.22718758151E+04 0.  0.
        1    1    3    3  502    0 -0.45999942666E+03 -0.55510277067E+03  0.17285805253E+04  0.18728932673E+04  0.50400001928E-02 0. -1.
       -1    1    3    3    0  502  0.45999942666E+03  0.55510277067E+03 -0.33222442161E+03  0.79379570726E+03  0.50400001928E-02 0.  1.
</event>
<event>
 5   0  0.8784659E-05  0.2193913E+04  0.7818609E-02  0.8520966E-01
       -1   -1    0    0    0  501  0.00000000000E+00  0.00000000000E+00  0.70611256790E+03  0.70611256792E+03  0.50400001928E-02 0.  1.
        1   -1    0    0  501    0  0.00000000000E+00  0.00000000000E+00 -0.17041389237E+04  0.17041389237E+04  0.50400001928E-02 0. -1.
    10030    2    1    2    0    0  0.00000000000E+00  0.00000000000E+00 -0.99802635576E+03  0.24102514916E+04  0.21939133178E+04 0.  0.
        4    1    3    3  502    0 -0.28685164895E+03 -0.35685861010E+03  0.59611826762E+03  0.75165852486E+03  0.12699999809E+01 0.  1.
       -4    1    3    3    0  502  0.28685164895E+03  0.35685861010E+03 -0.15941446234E+04  0.16585929667E+04  0.12699999809E+01 0. -1.
</event>
<event>
 5   0  0.7954459E-05  0.2207529E+04  0.7818609E-02  0.8515301E-01
       -1   -1    0    0    0  501  0.00000000000E+00  0.00000000000E+00  0.12293468053E+04  0.12293468053E+04  0.50400001928E-02 0. -1.
        1   -1    0    0  501    0  0.00000000000E+00  0.00000000000E+00 -0.99101060016E+03  0.99101060017E+03  0.50400001928E-02 0.  1.
    10030    2    1    2    0    0  0.00000000000E+00  0.00000000000E+00  0.23833620509E+03  0.22203574054E+04  0.22075286773E+04 0.  0.
        5    1    3    3  502    0 -0.10846212946E+03 -0.33032075909E+03  0.11728234450E+04  0.12232795104E+04  0.46999998093E+01 0. -1.
       -5    1    3    3    0  502  0.10846212946E+03  0.33032075909E+03 -0.93448723986E+03  0.99707789509E+03  0.46999998093E+01 0.  1.
</event>
<event>
 5   0  0.8470971E-05  0.2154437E+04  0.7818609E-02  0.8537636E-01
       -1   -1    0    0    0  501  0.00000000000E+00  0.00000000000E+00  0.11062764557E+04  0.11062764557E+04  0.50400001928E-02 0. -1.
        1   -1    0    0  501    0  0.00000000000E+00  0.00000000000E+00 -0.10489233719E+04  0.10489233719E+04  0.50400001928E-02 0.  1.
    10030    2    1    2    0    0  0.00000000000E+00  0.00000000000E+00  0.57353083830E+02  0.21551998276E+04  0.21544365668E+04 0.  0.
        2    1    3    3  502    0  0.13850203593E+03  0.37493042350E+03 -0.97199959110E+03  0.10509704285E+04  0.25500000920E-02 0.  1.
       -2    1    3    3    0  502 -0.13850203593E+03 -0.37493042350E+03  0.10293526749E+04  0.11042293991E+04  0.25500000920E-02 0. -1.
</event>
<event>
 5   0  0.8784659E-05  0.2248333E+04  0.7818609E-02  0.8498576E-01
        1   -1    0    0  501    0  0.00000000000E+00  0.00000000000E+00  0.20040751360E+04  0.20040751360E+04  0.50400001928E-02 0.  1.
       -1   -1    0    0    0  501  0.00000000000E+00  0.00000000000E+00 -0.63059007399E+03  0.63059007401E+03  0.50400001928E-02 0. -1.
    10030    2    1    2    0    0  0.00000000000E+00  0.00000000000E+00  0.13734850620E+04  0.26346652100E+04  0.22483326163E+04 0.  0.
        4    1    3    3  502    0  0.92788909198E+03  0.59544000093E+03  0.42941610099E+03  0.11831850077E+04  0.12699999809E+01 0. -1.
       -4    1    3    3    0  502 -0.92788909198E+03 -0.59544000093E+03  0.94406896104E+03  0.14514802024E+04  0.12699999809E+01 0.  1.
</event>
<event>
 5   0  0.7954459E-05  0.2214053E+04  0.7818609E-02  0.8512601E-01
       -1   -1    0    0    0  501  0.00000000000E+00  0.00000000000E+00  0.15160830037E+04  0.15160830037E+04  0.50400001928E-02 0.  1.
        1   -1    0    0  501    0  0.00000000000E+00  0.00000000000E+00 -0.80833841357E+03  0.80833841359E+03  0.50400001928E-02 0. -1.
    10030    2    1    2    0    0  0.00000000000E+00  0.00000000000E+00  0.70774459016E+03  0.23244214173E+04  0.22140534141E+04 0.  0.
        5    1    3    3  502    0 -0.10138022995E+04  0.41855576837E+03  0.19638794727E+03  0.11142595521E+04  0.46999998093E+01 0.  1.
       -5    1    3    3    0  502  0.10138022995E+04 -0.41855576837E+03  0.51135664288E+03  0.12101618652E+04  0.46999998093E+01 0. -1.
</event>
<event>
 5   0  0.1805501E-04  0.2128305E+04  0.7818609E-02  0.8548876E-01
        2   -1    0    0  501    0  0.00000000000E+00  0.00000000000E+00  0.75700467797E+03  0.75700467797E+03  0.25500000920E-02 0.  1.
       -2   -1    0    0    0  501  0.00000000000E+00  0.00000000000E+00 -0.14959230595E+04  0.14959230595E+04  0.25500000920E-02 0. -1.
    10030    2    1    2    0    0  0.00000000000E+00  0.00000000000E+00 -0.73891838154E+03  0.22529277375E+04  0.21283051980E+04 0.  0.
        2    1    3    3  502    0 -0.42907160784E+03  0.29628685435E+03  0.61250798736E+03  0.80439690409E+03  0.25500000920E-02 0.  1.
       -2    1    3    3    0  502  0.42907160784E+03 -0.29628685435E+03 -0.13514263689E+04  0.14485308334E+04  0.25500000920E-02 0. -1.
</event>
<event>
 5   0  0.8306787E-05  0.1967552E+04  0.7818609E-02  0.8621943E-01
       -1   -1    0    0    0  501  0.00000000000E+00  0.00000000000E+00  0.19708170849E+04  0.19708170849E+04  0.50400001928E-02 0. -1.
        1   -1    0    0  501    0  0.00000000000E+00  0.00000000000E+00 -0.49107313876E+03  0.49107313879E+03  0.50400001928E-02 0.  1.
    10030    2    1    2    0    0  0.00000000000E+00  0.00000000000E+00  0.14797439461E+04  0.24618902237E+04  0.19675521155E+04 0.  0.
        1    1    3    3  502    0 -0.46340123827E+03 -0.77066949144E+03  0.24071582270E+03  0.93092227387E+03  0.50400001928E-02 0. -1.
       -1    1    3    3    0  502  0.46340123827E+03  0.77066949144E+03  0.12390281234E+04  0.15309679498E+04  0.50400001928E-02 0.  1.
</event>
<event>
 5   0  0.8306787E-05  0.2022056E+04  0.7818609E-02  0.8596378E-01
       -1   -1    0    0    0  501  0.00000000000E+00  0.00000000000E+00  0.63578815769E+03  0.63578815771E+03  0.50400001928E-02 0. -1.
        1   -1    0    0  501    0  0.00000000000E+00  0.00000000000E+00 -0.16077328304E+04  0.16077328304E+04  0.50400001928E-02 0.  1.
    10030    2    1    2    0    0  0.00000000000E+00  0.00000000000E+00 -0.97194467267E+03  0.22435209881E+04  0.20220558789E+04 0.  0.
        1    1    3    3  502    0 -0.74022696002E+03  0.34173291778E+03 -0.11493346624E+04  0.14091442459E+04  0.50400001928E-02 0.  1.
       -1    1    3    3    0  502  0.74022696002E+03 -0.34173291778E+03  0.17738998976E+03  0.83437674220E+03  0.50400001928E-02 0. -1.
</event>
<event>
 5   0  0.8306787E-05  0.2206062E+04  0.7818609E-02  0.8515909E-01
       -1   -1    0    0    0  501  0.00000000000E+00  0.00000000000E+00  0.53340832415E+03  0.53340832418E+03  0.50400001928E-02 0.  1.
        1   -1    0    0  501    0  0.00000000000E+00  0.00000000000E+00 -0.22809500766E+04  0.22809500767E+04  0.50400001928E-02 0. -1.
    10030    2    1    2    0    0  0.00000000000E+00  0.00000000000E+00 -0.17475417525E+04  0.28143584008E+04  0.22060623363E+04 0.  0.
        1    1    3    3  502    0  0.71448054802E+03  0.65445908947E+03 -0.20127569392E+03  0.98960146436E+03  0.50400001928E-02 0. -1.
       -1    1    3    3    0  502 -0.71448054802E+03 -0.65445908947E+03 -0.15462660586E+04  0.18247569365E+04  0.50400001928E-02 0.  1.
</event>
<event>
 5   0  0.1798917E-04  0.1998335E+04  0.7818609E-02  0.8607400E-01
        2   -1    0    0  501    0  0.00000000000E+00  0.00000000000E+00  0.19545391877E+04  0.19545391877E+04  0.25500000920E-02 0. -1.
       -2   -1    0    0    0  501  0.00000000000E+00  0.00000000000E+00 -0.51077779234E+03  0.51077779235E+03  0.25500000920E-02 0.  1.
    10030    2    1    2    0    0  0.00000000000E+00  0.00000000000E+00  0.14437613954E+04  0.24653169801E+04  0.19983345179E+04 0.  0.
        4    1    3    3  502    0  0.78004563349E+03 -0.55808435345E+03  0.10673221207E+04  0.14349590440E+04  0.12699999809E+01 0. -1.
       -4    1    3    3    0  502 -0.78004563349E+03  0.55808435345E+03  0.37643927471E+03  0.10303579360E+04  0.12699999809E+01 0.  1.
</event>
<event>
 5   0  0.8602414E-05  0.2164705E+04  0.7818609E-02  0.8533264E-01
       -1   -1    0    0    0  501  0.00000000000E+00  0.00000000000E+00  0.83689278297E+03  0.83689278299E+03  0.50400001928E-02 0.  1.
        1   -1    0    0  501    0  0.00000000000E+00  0.00000000000E+00 -0.13998056061E+04  0.13998056061E+04  0.50400001928E-02 0. -1.
    10030    2    1    2    0    0  0.00000000000E+00  0.00000000000E+00 -0.56291282309E+03  0.22366983890E+04  0.21647052541E+04 0.  0.
        3    1    3    3  502    0  0.17080660381E+02  0.10399888661E+04 -0.59077623391E+03  0.11961961207E+04  0.10100000352E+00 0. -1.
       -3    1    3    3    0  502 -0.17080660381E+02 -0.10399888661E+04  0.27863410821E+02  0.10405022683E+04  0.10100000352E+00 0.  1.
</event>
<event>
 5   0  0.1798917E-04  0.2266489E+04  0.7818609E-02  0.8491253E-01
        2   -1    0    0  501    0  0.00000000000E+00  0.00000000000E+00  0.19379211025E+04  0.19379211025E+04  0.25500000920E-02 0.  1.
       -2   -1    0    0    0  501  0.00000000000E+00  0.00000000000E+00 -0.66269088433E+03  0.66269088433E+03  0.25500000920E-02 0. -1.
    10030    2    1    2    0    0  0.00000000000E+00  0.00000000000E+00  0.12752302182E+04  0.26006119868E+04  0.22664886050E+04 0.  0.
        4    1    3    3  502    0 -0.84642883892E+03 -0.44769562388E+03 -0.57845624273E+02  0.95928143949E+03  0.12699999809E+01 0. -1.
       -4    1    3    3    0  502  0.84642883892E+03  0.44769562388E+03  0.13330758424E+04  0.16413305473E+04  0.12699999809E+01 0.  1.
</event>
<event>
 5   0  0.1733962E-04  0.2190428E+04  0.7818609E-02  0.8522423E-01
       -2   -1    0    0    0  501  0.00000000000E+00  0.00000000000E+00  0.11276105710E+04  0.11276105710E+04  0.25500000920E-02 0.  1.
        2   -1    0    0  501    0  0.00000000000E+00  0.00000000000E+00 -0.10637482860E+04  0.10637482860E+04  0.25500000920E-02 0. -1.
    10030    2    1    2    0    0  0.00000000000E+00  0.00000000000E+00  0.63862285049E+02  0.21913588570E+04  0.21904280972E+04 0.  0.
        3    1    3    3  502    0 -0.66222214540E+03 -0.76606860216E+03  0.44935480427E+03  0.11078443137E+04  0.10100000352E+00 0.  1.
       -3    1    3    3    0  502  0.66222214540E+03  0.76606860216E+03 -0.38549251922E+03  0.10835145433E+04  0.10100000352E+00 0. -1.
</event>
<event>
 5   0  0.1754356E-04  0.2371492E+04  0.7818609E-02  0.8450254E-01
       -2   -1    0    0    0  501  0.00000000000E+00  0.00000000000E+00  0.10716350040E+04  0.10716350040E+04  0.25500000920E-02 0.  1.
        2   -1    0    0  501    0  0.00000000000E+00  0.00000000000E+00 -0.13120075411E+04  0.13120075411E+04  0.25500000920E-02 0. -1.
    10030    2    1    2    0    0  0.00000000000E+00  0.00000000000E+00 -0.24037253713E+03  0.23836425451E+04  0.23714916879E+04 0.  0.
        1    1    3    3  502    0  0.58165284067E+03  0.37516787539E+03  0.84751469610E+03  0.10942358621E+04  0.50400001928E-02 0.  1.
       -1    1    3    3    0  502 -0.58165284067E+03 -0.37516787539E+03 -0.10878872332E+04  0.12894066830E+04  0.50400001928E-02 0. -1.
</event>
<event>
 5   0  0.1798917E-04  0.2205800E+04  0.7818609E-02  0.8516018E-01
       -2   -1    0    0    0  501  0.00000000000E+00  0.00000000000E+00  0.64577927562E+03  0.64577927563E+03  0.25500000920E-02 0. -1.
        2   -1    0    0  501    0  0.00000000000E+00  0.00000000000E+00 -0.18835974381E+04  0.18835974381E+04  0.25500000920E-02 0.  1.
    10030    2    1    2    0    0  0.00000000000E+00  0.00000000000E+00 -0.12378181625E+04  0.25293767138E+04  0.22057997998E+04 0.  0.
        4    1    3    3  502    0  0.69428214570E+03  0.83269945502E+03 -0.38680486261E+03  0.11511019481E+04  0.12699999809E+01 0. -1.
       -4    1    3    3    0  502 -0.69428214570E+03 -0.83269945502E+03 -0.85101329988E+03  0.13782747657E+04  0.12699999809E+01 0.  1.
</event>
<event>
 5   0  0.8602414E-05  0.2267876E+04  0.7818609E-02  0.8490696E-01
        1   -1    0    0  501    0  0.00000000000E+00  0.00000000000E+00  0.16194419673E+04  0.16194419673E+04  0.50400001928E-02 0. -1.
       -1   -1    0    0    0  501  0.00000000000E+00  0.00000000000E+00 -0.79398682660E+03  0.79398682661E+03  0.50400001928E-02 0.  1.
    10030    2    1    2    0    0  0.00000000000E+00  0.00000000000E+00  0.82545514074E+03  0.24134287940E+04  0.22678761770E+04 0.  0.
        3    1    3    3  502    0 -0.59131180371E+03 -0.47232942957E+03  0.13113587623E+04  0.15140695337E+04  0.10100000352E+00 0. -1.
       -3    1    3    3    0  502  0.59131180371E+03  0.47232942957E+03 -0.48590362160E+03  0.89935926021E+03  0.10100000352E+00 0.  1.
</event>
<event>
 5   0  0.1733962E-04  0.2246936E+04  0.7818609E-02  0.8499142E-01
        2   -1    0    0  501    0  0.00000000000E+00  0.00000000000E+00  0.17793922984E+04  0.17793922984E+04  0.25500000920E-02 0.  1.
       -2   -1    0    0    0  501  0.00000000000E+00  0.00000000000E+00 -0.70933227263E+03  0.70933227264E+03  0.25500000920E-02 0. -1.
    10030    2    1    2    0    0  0.00000000000E+00  0.00000000000E+00  0.10700600258E+04  0.24887245710E+04  0.22469360320E+04 0.  0.
        3    1    3    3  502    0  0.84102078409E+03 -0.33284699162E+03 -0.20307033616E+03  0.92700628409E+03  0.10100000352E+00 0. -1.
       -3    1    3    3    0  502 -0.84102078409E+03  0.33284699162E+03  0.12731303619E+04  0.15617182869E+04  0.10100000352E+00 0.  1.
</event>
<event>
 5   0  0.8602414E-05  0.2271115E+04  0.7818609E-02  0.8489398E-01
        1   -1    0    0  501    0  0.00000000000E+00  0.00000000000E+00  0.97552505164E+03  0.97552505165E+03  0.50400001928E-02 0.  1.
       -1   -1    0    0    0  501  0.00000000000E+00  0.00000000000E+00 -0.13218423265E+04  0.13218423265E+04  0.50400001928E-02 0. -1.
    10030    2    1    2    0    0  0.00000000000E+00  0.00000000000E+00 -0.34631727485E+03  0.22973673781E+04  0.22711145315E+04 0.  0.
        3    1    3    3  502    0  0.12279256469E+01  0.79198346971E+02 -0.13190445119E+04  0.13214205692E+04  0.10100000352E+00 0. -1.
       -3    1    3    3    0  502 -0.12279256469E+01 -0.79198346971E+02  0.97272723709E+03  0.97594680897E+03  0.10100000352E+00 0.  1.
</event>
<event>
 5   0  0.1798917E-04  0.2196776E+04  0.7818609E-02  0.8519771E-01
        2   -1    0    0  501    0  0.00000000000E+00  0.00000000000E+00  0.15543792569E+04  0.15543792569E+04  0.25500000920E-02 0.  1.
       -2   -1    0    0    0  501  0.00000000000E+00  0.00000000000E+00 -0.77616611527E+03  0.77616611528E+03  0.25500000920E-02 0. -1.
    10030    2    1    2    0    0  0.00000000000E+00  0.00000000000E+00  0.77821314159E+03  0.23305453721E+04  0.21967762831E+04 0.  0.
        4    1    3    3  502    0  0.14574465936E+03  0.10767950407E+04  0.55926616396E+03  0.12220921898E+04  0.12699999809E+01 0.  1.
       -4    1    3    3    0  502 -0.14574465936E+03 -0.10767950407E+04  0.21894697763E+03  0.11084531823E+04  0.12699999809E+01 0. -1.
</event>
<event>
 5   0  0.1805501E-04  0.2164505E+04  0.7818609E-02  0.8533349E-01
       -2   -1    0    0    0  501  0.00000000000E+00  0.00000000000E+00  0.62248070975E+03  0.62248070975E+03  0.25500000920E-02 0.  1.
        2   -1    0    0  501    0  0.00000000000E+00  0.00000000000E+00 -0.18816167321E+04  0.18816167321E+04  0.25500000920E-02 0. -1.
    10030    2    1    2    0    0  0.00000000000E+00  0.00000000000E+00 -0.12591360224E+04  0.25040974419E+04  0.21645046721E+04 0.  0.
        2    1    3    3  502    0 -0.40640239154E+03 -0.25487222969E+03  0.49276441725E+03  0.68770598967E+03  0.25500000920E-02 0.  1.
       -2    1    3    3    0  502  0.40640239154E+03  0.25487222969E+03 -0.17519004396E+04  0.18163914522E+04  0.25500000920E-02 0. -1.
</event>
<event>
 5   0  0.1754356E-04  0.2200559E+04  0.7818609E-02  0.8518196E-01
        2   -1    0    0  501    0  0.00000000000E+00  0.00000000000E+00  0.23859911959E+04  0.23859911959E+04  0.25500000920E-02 0.  1.
       -2   -1    0    0    0  501  0.00000000000E+00  0.00000000000E+00 -0.50738447251E+03  0.50738447252E+03  0.25500000920E-02 0. -1.
    10030    2    1    2    0    0  0.00000000000E+00  0.00000000000E+00  0.18786067234E+04  0.28933756684E+04  0.22005589148E+04 0.  0.
        1    1    3    3  502    0  0.56894670444E+03  0.67605790166E+03  0.18013593358E+04  0.20064022766E+04  0.50400001928E-02 0.  1.
       -1    1    3    3    0  502 -0.56894670444E+03 -0.67605790166E+03  0.77247387609E+02  0.88697339182E+03  0.50400001928E-02 0. -1.
</event>
<event>
 5   0  0.1733962E-04  0.2215455E+04  0.7818609E-02  0.8512023E-01
       -2   -1    0    0    0  501  0.00000000000E+00  0.00000000000E+00  0.10651030623E+04  0.10651030623E+04  0.25500000920E-02 0.  1.
        2   -1    0    0  501    0  0.00000000000E+00  0.00000000000E+00 -0.11520577265E+04  0.11520577265E+04  0.25500000920E-02 0. -1.
    10030    2    1    2    0    0  0.00000000000E+00  0.00000000000E+00 -0.86954664196E+02  0.22171607888E+04  0.22154549984E+04 0.  0.
        3    1    3    3  502    0 -0.20235967550E+03  0.91370533881E+03  0.54964527016E+03  0.10853187631E+04  0.10100000352E+00 0.  1.
       -3    1    3    3    0  502  0.20235967550E+03 -0.91370533881E+03 -0.63659993435E+03  0.11318420257E+04  0.10100000352E+00 0. -1.
</event>
<event>
 5   0  0.1805501E-04  0.2160048E+04  0.7818609E-02  0.8535243E-01
        2   -1    0    0  501    0  0.00000000000E+00  0.00000000000E+00  0.14269293634E+04  0.14269293634E+04  0.25500000920E-02 0.  1.
       -2   -1    0    0    0  501  0.00000000000E+00  0.00000000000E+00 -0.81745616699E+03  0.81745616699E+03  0.25500000920E-02 0. -1.
    10030    2    1    2    0    0  0.00000000000E+00  0.00000000000E+00  0.60947319642E+03  0.22443855304E+04  0.21600483402E+04 0.  0.
        2    1    3    3  502    0 -0.51603127631E+03  0.56550585836E+03  0.10962993781E+04  0.13371452727E+04  0.25500000920E-02 0.  1.
       -2    1    3    3    0  502  0.51603127631E+03 -0.56550585836E+03 -0.48682618167E+03  0.90724025767E+03  0.25500000920E-02 0. -1.
</event>
<event>
 5   0  0.8470971E-05  0.2189026E+04  0.7818609E-02  0.8523010E-01
        1   -1    0    0  501    0  0.00000000000E+00  0.00000000000E+00  0.10487367686E+04  0.10487367686E+04  0.50400001928E-02 0. -1.
       -1   -1    0    0    0  501  0.00000000000E+00  0.00000000000E+00 -0.11422868576E+04  0.11422868576E+04  0.50400001928E-02 0.  1.
    10030    2    1    2    0    0  0.00000000000E+00  0.00000000000E+00 -0.93550089037E+02  0.21910236262E+04  0.21890255621E+04 0.  0.
        2    1    3    3  502    0 -0.60147960252E+03 -0.87156795838E+03 -0.32370394718E+03  0.11073358405E+04  0.25500000920E-02 0. -1.
       -2    1    3    3    0  502  0.60147960252E+03  0.87156795838E+03  0.23015385815E+03  0.10836877856E+04  0.25500000920E-02 0.  1.
</event>
<event>
 5   0  0.8470971E-05  0.1575768E+04  0.7818609E-02  0.8835574E-01
       -1   -1    0    0    0  501  0.00000000000E+00  0.00000000000E+00  0.13304863888E+04  0.13304863888E+04  0.50400001928E-02 0.  1.
        1   -1    0    0  501    0  0.00000000000E+00  0.00000000000E+00 -0.46656735861E+03  0.46656735864E+03  0.50400001928E-02 0. -1.
    10030    2    1    2    0    0  0.00000000000E+00  0.00000000000E+00  0.86391903019E+03  0.17970537474E+04  0.15757684095E+04 0.  0.
        2    1    3    3  502    0 -0.93063925876E+02 -0.36931445339E+03 -0.35461280266E+03  0.52038860441E+03  0.25500000920E-02 0. -1.
       -2    1    3    3    0  502  0.93063925876E+02  0.36931445339E+03  0.12185318328E+04  0.12766651430E+04  0.25500000920E-02 0.  1.
</event>
<event>
 5   0  0.8784659E-05  0.2208173E+04  0.7818609E-02  0.8515034E-01
        1   -1    0    0  501    0  0.00000000000E+00  0.00000000000E+00  0.15648014750E+04  0.15648014750E+04  0.50400001928E-02 0. -1.
       -1   -1    0    0    0  501  0.00000000000E+00  0.00000000000E+00 -0.77901689674E+03  0.77901689675E+03  0.50400001928E-02 0.  1.
    10030    2    1    2    0    0  0.00000000000E+00  0.00000000000E+00  0.78578457828E+03  0.23438183718E+04  0.22081728095E+04 0.  0.
        4    1    3    3  502    0 -0.11598422228E+03 -0.10763808302E+04  0.62289965126E+03  0.12490210646E+04  0.12699999809E+01 0. -1.
       -4    1    3    3    0  502  0.11598422228E+03  0.10763808302E+04  0.16288492701E+03  0.10947973072E+04  0.12699999809E+01 0.  1.
</event>
<event>
 5   0  0.7954459E-05  0.1991784E+04  0.7818609E-02  0.8610471E-01
       -1   -1    0    0    0  501  0.00000000000E+00  0.00000000000E+00  0.10655380110E+04  0.10655380110E+04  0.50400001928E-02 0.  1.
        1   -1    0    0  501    0  0.00000000000E+00  0.00000000000E+00 -0.93079844466E+03  0.93079844468E+03  0.50400001928E-02 0. -1.
    10030    2    1    2    0    0  0.00000000000E+00  0.00000000000E+00  0.13473956632E+03  0.19963364557E+04  0.19917842487E+04 0.  0.
        5    1    3    3  502    0 -0.78923351549E+03  0.54991244664E+03  0.32580748401E+03  0.10156110710E+04  0.46999998093E+01 0.  1.
       -5    1    3    3    0  502  0.78923351549E+03 -0.54991244664E+03 -0.19106791769E+03  0.98072538466E+03  0.46999998093E+01 0. -1.
</event>
<event>
 5   0  0.7954459E-05  0.2228117E+04  0.7818609E-02  0.8506816E-01
        1   -1    0    0  501    0  0.00000000000E+00  0.00000000000E+00  0.24116051526E+04  0.24116051527E+04  0.50400001928E-02 0.  1.
       -1   -1    0    0    0  501  0.00000000000E+00  0.00000000000E+00 -0.51464721249E+03  0.51464721251E+03  0.50400001928E-02 0. -1.
    10030    2    1    2    0    0  0.00000000000E+00  0.00000000000E+00  0.18969579402E+04  0.29262523652E+04  0.22281165764E+04 0.  0.
        5    1    3    3  502    0  0.67920399211E+03  0.19670608680E+03  0.20790817715E+04  0.21960451840E+04  0.46999998093E+01 0.  1.
       -5    1    3    3    0  502 -0.67920399211E+03 -0.19670608680E+03 -0.18212383137E+03  0.73020718117E+03  0.46999998093E+01 0. -1.
</event>
<event>
 5   0  0.1733962E-04  0.2148268E+04  0.7818609E-02  0.8540274E-01
       -2   -1    0    0    0  501  0.00000000000E+00  0.00000000000E+00  0.74760775069E+03  0.74760775069E+03  0.25500000920E-02 0. -1.
        2   -1    0    0  501    0  0.00000000000E+00  0.00000000000E+00 -0.15432748100E+04  0.15432748100E+04  0.25500000920E-02 0.  1.
    10030    2    1    2    0    0  0.00000000000E+00  0.00000000000E+00 -0.79566705929E+03  0.22908825607E+04  0.21482683346E+04 0.  0.
        3    1    3    3  502    0  0.58168847295E+03 -0.31996828789E+03  0.50262988655E+03  0.83269321954E+03  0.10100000352E+00 0. -1.
       -3    1    3    3    0  502 -0.58168847295E+03  0.31996828789E+03 -0.12982969458E+04  0.14581893411E+04  0.10100000352E+00 0.  1.
</event>
<event>
 5   0  0.1733962E-04  0.2260187E+04  0.7818609E-02  0.8493786E-01
        2   -1    0    0  501    0  0.00000000000E+00  0.00000000000E+00  0.19175777078E+04  0.19175777078E+04  0.25500000920E-02 0.  1.
       -2   -1    0    0    0  501  0.00000000000E+00  0.00000000000E+00 -0.66600230940E+03  0.66600230941E+03  0.25500000920E-02 0. -1.
    10030    2    1    2    0    0  0.00000000000E+00  0.00000000000E+00  0.12515753984E+04  0.25835800172E+04  0.22601868789E+04 0.  0.
        3    1    3    3  502    0  0.10003900227E+04 -0.50430302701E+03  0.45620483149E+03  0.12096382100E+04  0.10100000352E+00 0.  1.
       -3    1    3    3    0  502 -0.10003900227E+04  0.50430302701E+03  0.79537056687E+03  0.13739418072E+04  0.10100000352E+00 0. -1.
</event>
<event>
 5   0  0.6250625E-05  0.2230884E+04  0.7818609E-02  0.8505682E-01
       -3   -1    0    0    0  501  0.00000000000E+00  0.00000000000E+00  0.72393782518E+03  0.72393783223E+03  0.10100000352E+00 0. -1.
        3   -1    0    0  501    0  0.00000000000E+00  0.00000000000E+00 -0.17186715949E+04  0.17186715979E+04  0.10100000352E+00 0.  1.
    10030    2    1    2    0    0  0.00000000000E+00  0.00000000000E+00 -0.99473376972E+03  0.24426094301E+04  0.22308844783E+04 0.  0.
        4    1    3    3  502    0  0.56209177181E+02  0.40652589344E+03  0.63827158015E+03  0.75882474694E+03  0.12699999809E+01 0. -1.
       -4    1    3    3    0  502 -0.56209177181E+02 -0.40652589344E+03 -0.16330053499E+04  0.16837846832E+04  0.12699999809E+01 0.  1.
</event>
<event>
 5   0  0.1754356E-04  0.2192715E+04  0.7818609E-02  0.8521466E-01
       -2   -1    0    0    0  501  0.00000000000E+00  0.00000000000E+00  0.93177093410E+03  0.93177093411E+03  0.25500000920E-02 0. -1.
        2   -1    0    0  501    0  0.00000000000E+00  0.00000000000E+00 -0.12900166545E+04  0.12900166545E+04  0.25500000920E-02 0.  1.
    10030    2    1    2    0    0  0.00000000000E+00  0.00000000000E+00 -0.35824572036E+03  0.22217875886E+04  0.21927152329E+04 0.  0.
        1    1    3    3  502    0 -0.67623195301E+03 -0.46711321506E+03 -0.91435744850E+03  0.12294445712E+04  0.50400001928E-02 0.  1.
       -1    1    3    3    0  502  0.67623195301E+03  0.46711321506E+03  0.55611172814E+03  0.99234301739E+03  0.50400001928E-02 0. -1.
</event>
<event>
 5   0  0.8470971E-05  0.2207424E+04  0.7818609E-02  0.8515344E-01
        1   -1    0    0  501    0  0.00000000000E+00  0.00000000000E+00  0.10304006635E+04  0.10304006635E+04  0.50400001928E-02 0.  1.
       -1   -1    0    0    0  501  0.00000000000E+00  0.00000000000E+00 -0.11822391989E+04  0.11822391989E+04  0.50400001928E-02 0. -1.
    10030    2    1    2    0    0  0.00000000000E+00  0.00000000000E+00 -0.15183853534E+03  0.22126398624E+04  0.22074238877E+04 0.  0.
        2    1    3    3  502    0 -0.87117408851E+03  0.66439434871E+03 -0.20971092149E+03  0.11155011491E+04  0.25500000920E-02 0. -1.
       -2    1    3    3    0  502  0.87117408851E+03 -0.66439434871E+03  0.57872386150E+02  0.10971387133E+04  0.25500000920E-02 0.  1.
</event>
<event>
 5   0  0.1733962E-04  0.2294614E+04  0.7818609E-02  0.8480048E-01
       -2   -1    0    0    0  501  0.00000000000E+00  0.00000000000E+00  0.10823201402E+04  0.10823201402E+04  0.25500000920E-02 0.  1.
        2   -1    0    0  501    0  0.00000000000E+00  0.00000000000E+00 -0.12161961841E+04  0.12161961841E+04  0.25500000920E-02 0. -1.
    10030    2    1    2    0    0  0.00000000000E+00  0.00000000000E+00 -0.13387604394E+03  0.22985163244E+04  0.22946142373E+04 0.  0.
        3    1    3    3  502    0  0.51043787196E+03  0.10146798108E+04 -0.22905165677E+03  0.11587003975E+04  0.10100000352E+00 0. -1.
       -3    1    3    3    0  502 -0.51043787196E+03 -0.10146798108E+04  0.95175612835E+02  0.11398159268E+04  0.10100000352E+00 0.  1.
</event>
<event>
 5   0  0.1798917E-04  0.2135610E+04  0.7818609E-02  0.8545717E-01
       -2   -1    0    0    0  501  0.00000000000E+00  0.00000000000E+00  0.81091641002E+03  0.81091641003E+03  0.25500000920E-02 0.  1.
        2   -1    0    0  501    0  0.00000000000E+00  0.00000000000E+00 -0.14060725239E+04  0.14060725239E+04  0.25500000920E-02 0. -1.
    10030    2    1    2    0    0  0.00000000000E+00  0.00000000000E+00 -0.59515611390E+03  0.22169889339E+04  0.21356097802E+04 0.  0.
        4    1    3    3  502    0  0.10424963635E+04 -0.14252814703E+03 -0.48642411373E+03  0.11591906538E+04  0.12699999809E+01 0. -1.
       -4    1    3    3    0  502 -0.10424963635E+04  0.14252814703E+03 -0.10873200017E+03  0.10577982801E+04  0.12699999809E+01 0.  1.
</event>
<event>
 5   0  0.1680258E-04  0.1206612E+04  0.7818609E-02  0.9107089E-01
        2   -1    0    0  501    0  0.00000000000E+00  0.00000000000E+00  0.33173673023E+03  0.33173673024E+03  0.25500000920E-02 0.  1.
       -2   -1    0    0    0  501  0.00000000000E+00  0.00000000000E+00 -0.10971890042E+04  0.10971890042E+04  0.25500000920E-02 0. -1.
    10030    2    1    2    0    0  0.00000000000E+00  0.00000000000E+00 -0.76545227395E+03  0.14289257344E+04  0.12066116073E+04 0.  0.
        5    1    3    3  502    0  0.45242746817E+03 -0.31643428265E+02  0.88395517376E+02  0.46209065993E+03  0.46999998093E+01 0.  1.
       -5    1    3    3    0  502 -0.45242746817E+03  0.31643428265E+02 -0.85384779133E+03  0.96683507448E+03  0.46999998093E+01 0. -1.
</event>
<event>
 5   0  0.8306787E-05  0.1815766E+04  0.7818609E-02  0.8697960E-01
       -1   -1    0    0    0  501  0.00000000000E+00  0.00000000000E+00  0.69420745837E+03  0.69420745839E+03  0.50400001928E-02 0. -1.
        1   -1    0    0  501    0  0.00000000000E+00  0.00000000000E+00 -0.11873273293E+04  0.11873273293E+04  0.50400001928E-02 0.  1.
    10030    2    1    2    0    0  0.00000000000E+00  0.00000000000E+00 -0.49311987096E+03  0.18815347877E+04  0.18157659404E+04 0.  0.
        1    1    3    3  502    0  0.43315913452E+03  0.54451287814E+02  0.57830042516E+03  0.72458481928E+03  0.50400001928E-02 0. -1.
       -1    1    3    3    0  502 -0.43315913452E+03 -0.54451287814E+02 -0.10714202961E+04  0.11569499685E+04  0.50400001928E-02 0.  1.
</event>
<event>
 5   0  0.8602414E-05  0.2197868E+04  0.7818609E-02  0.8519316E-01
       -1   -1    0    0    0  501  0.00000000000E+00  0.00000000000E+00  0.50880151286E+03  0.50880151288E+03  0.50400001928E-02 0. -1.
        1   -1    0    0  501    0  0.00000000000E+00  0.00000000000E+00 -0.23735306701E+04  0.23735306701E+04  0.50400001928E-02 0.  1.
    10030    2    1    2    0    0  0.00000000000E+00  0.00000000000E+00 -0.18647291573E+04  0.28823321830E+04  0.21978680541E+04 0.  0.
        3    1    3    3  502    0 -0.91679260695E+03  0.46960150477E+03 -0.14345239608E+04  0.17660388619E+04  0.10100000352E+00 0.  1.
       -3    1    3    3    0  502  0.91679260695E+03 -0.46960150477E+03 -0.43020519644E+03  0.11162933211E+04  0.10100000352E+00 0. -1.
</event>
<event>
 5   0  0.8784659E-05  0.1870033E+04  0.7818609E-02  0.8669918E-01
        1   -1    0    0  501    0  0.00000000000E+00  0.00000000000E+00  0.12828655811E+04  0.12828655811E+04  0.50400001928E-02 0.  1.
       -1   -1    0    0    0  501  0.00000000000E+00  0.00000000000E+00 -0.68148687943E+03  0.68148687945E+03  0.50400001928E-02 0. -1.
    10030    2    1    2    0    0  0.00000000000E+00  0.00000000000E+00  0.60137870166E+03  0.19643524606E+04  0.18700332207E+04 0.  0.
        4    1    3    3  502    0 -0.17900331726E+03  0.33011661906E+03  0.12001698862E+04  0.12575486226E+04  0.12699999809E+01 0.  1.
       -4    1    3    3    0  502  0.17900331726E+03 -0.33011661906E+03 -0.59879118449E+03  0.70680383792E+03  0.12699999809E+01 0. -1.
</event>
<event>
 5   0  0.7954459E-05  0.2214488E+04  0.7818609E-02  0.8512422E-01
        1   -1    0    0  501    0  0.00000000000E+00  0.00000000000E+00  0.10592596784E+04  0.10592596784E+04  0.50400001928E-02 0.  1.
       -1   -1    0    0    0  501  0.00000000000E+00  0.00000000000E+00 -0.11574018940E+04  0.11574018940E+04  0.50400001928E-02 0. -1.
    10030    2    1    2    0    0  0.00000000000E+00  0.00000000000E+00 -0.98142215636E+02  0.22166615725E+04  0.22144878939E+04 0.  0.
        5    1    3    3  502    0 -0.12554451488E+03 -0.64954040947E+03  0.83966462929E+03  0.10689822021E+04  0.46999998093E+01 0.  1.
       -5    1    3    3    0  502  0.12554451488E+03  0.64954040947E+03 -0.93780684493E+03  0.11476793704E+04  0.46999998093E+01 0. -1.
</event>
<event>
 5   0  0.1733962E-04  0.2200776E+04  0.7818609E-02  0.8518105E-01
        2   -1    0    0  501    0  0.00000000000E+00  0.00000000000E+00  0.18810945802E+04  0.18810945802E+04  0.25500000920E-02 0. -1.
       -2   -1    0    0    0  501  0.00000000000E+00  0.00000000000E+00 -0.64369664137E+03  0.64369664137E+03  0.25500000920E-02 0.  1.
    10030    2    1    2    0    0  0.00000000000E+00  0.00000000000E+00  0.12373979389E+04  0.25247912216E+04  0.22007764661E+04 0.  0.
        3    1    3    3  502    0  0.40083172535E+02 -0.10531654275E+04  0.25575025536E+03  0.10845147679E+04  0.10100000352E+00 0.  1.
       -3    1    3    3    0  502 -0.40083172535E+02  0.10531654275E+04  0.98164768349E+03  0.14402764537E+04  0.10100000352E+00 0. -1.
</event>
<event>
 5   0  0.8470971E-05  0.2108657E+04  0.7818609E-02  0.8557440E-01
       -1   -1    0    0    0  501  0.00000000000E+00  0.00000000000E+00  0.13067240933E+04  0.13067240934E+04  0.50400001928E-02 0. -1.
        1   -1    0    0  501    0  0.00000000000E+00  0.00000000000E+00 -0.85068324633E+03  0.85068324634E+03  0.50400001928E-02 0.  1.
    10030    2    1    2    0    0  0.00000000000E+00  0.00000000000E+00  0.45604084702E+03  0.21574073397E+04  0.21086567229E+04 0.  0.
        2    1    3    3  502    0  0.48160348770E+02  0.10506568203E+04  0.30326749420E+03  0.10946096776E+04  0.25500000920E-02 0. -1.
       -2    1    3    3    0  502 -0.48160348770E+02 -0.10506568203E+04  0.15277335282E+03  0.10627976621E+04  0.25500000920E-02 0.  1.
</event>
<event>
 5   0  0.8784659E-05  0.2289590E+04  0.7818609E-02  0.8482037E-01
        1   -1    0    0  501    0  0.00000000000E+00  0.00000000000E+00  0.15303142616E+04  0.15303142616E+04  0.50400001928E-02 0.  1.
       -1   -1    0    0    0  501  0.00000000000E+00  0.00000000000E+00 -0.85639639555E+03  0.85639639556E+03  0.50400001928E-02 0. -1.
    10030    2    1    2    0    0  0.00000000000E+00  0.00000000000E+00  0.67391786603E+03  0.23867106572E+04  0.22895900224E+04 0.  0.
        4    1    3    3  502    0  0.89170879073E+03 -0.39743228509E+03 -0.28627911882E+03  0.10173762015E+04  0.12699999809E+01 0. -1.
       -4    1    3    3    0  502 -0.89170879073E+03  0.39743228509E+03  0.96019698485E+03  0.13693344556E+04  0.12699999809E+01 0.  1.
</event>
<event>
 5   0  0.8602414E-05  0.2161985E+04  0.7818609E-02  0.8534420E-01
        1   -1    0    0  501    0  0.00000000000E+00  0.00000000000E+00  0.11132705470E+04  0.11132705470E+04  0.50400001928E-02 0. -1.
       -1   -1    0    0    0  501  0.00000000000E+00  0.00000000000E+00 -0.10496502188E+04  0.10496502188E+04  0.50400001928E-02 0.  1.
    10030    2    1    2    0    0  0.00000000000E+00  0.00000000000E+00  0.63620328280E+02  0.21629207658E+04  0.21619848966E+04 0.  0.
        3    1    3    3  502    0  0.88535270685E+03  0.61503636457E+03 -0.48383862257E+02  0.10791015493E+04  0.10100000352E+00 0.  1.
       -3    1    3    3    0  502 -0.88535270685E+03 -0.61503636457E+03  0.11200419054E+03  0.10838192166E+04  0.10100000352E+00 0. -1.
</event>
<event>
 5   0  0.8784659E-05  0.2180993E+04  0.7818609E-02  0.8526381E-01
       -1   -1    0    0    0  501  0.00000000000E+00  0.00000000000E+00  0.10232625868E+04  0.10232625868E+04  0.50400001928E-02 0. -1.
        1   -1    0    0  501    0  0.00000000000E+00  0.00000000000E+00 -0.11621475215E+04  0.11621475215E+04  0.50400001928E-02 0.  1.
    10030    2    1    2    0    0  0.00000000000E+00  0.00000000000E+00 -0.13888493470E+03  0.21854101083E+04  0.21809925072E+04 0.  0.
        4    1    3    3  502    0  0.16897269430E+03  0.10046788401E+04  0.32025286728E+03  0.10679395372E+04  0.12699999809E+01 0. -1.
       -4    1    3    3    0  502 -0.16897269430E+03 -0.10046788401E+04 -0.45913780198E+03  0.11174705711E+04  0.12699999809E+01 0.  1.
</event>
<event>
 5   0  0.1805501E-04  0.2201500E+04  0.7818609E-02  0.8517804E-01
       -2   -1    0    0    0  501  0.00000000000E+00  0.00000000000E+00  0.68471531070E+03  0.68471531070E+03  0.25500000920E-02 0.  1.
        2   -1    0    0  501    0  0.00000000000E+00  0.00000000000E+00 -0.17695689818E+04  0.17695689818E+04  0.25500000920E-02 0. -1.
    10030    2    1    2    0    0  0.00000000000E+00  0.00000000000E+00 -0.10848536711E+04  0.24542842925E+04  0.22015003749E+04 0.  0.
        2    1    3    3  502    0  0.10185988082E+04 -0.27349573121E+03 -0.89374223752E+03  0.13824321445E+04  0.25500000920E-02 0.  1.
       -2    1    3    3    0  502 -0.10185988082E+04  0.27349573121E+03 -0.19111143354E+03  0.10718521480E+04  0.25500000920E-02 0. -1.
</event>
<event>
 5   0  0.1680258E-04  0.2214926E+04  0.7818609E-02  0.8512241E-01
        2   -1    0    0  501    0  0.00000000000E+00  0.00000000000E+00  0.15109693064E+04  0.15109693064E+04  0.25500000920E-02 0. -1.
       -2   -1    0    0    0  501  0.00000000000E+00  0.00000000000E+00 -0.81171330535E+03  0.81171330535E+03  0.25500000920E-02 0.  1.
    10030    2    1    2    0    0  0.00000000000E+00  0.00000000000E+00  0.69925600101E+03  0.23226826117E+04  0.22149256330E+04 0.  0.
        5    1    3    3  502    0 -0.48232824047E+03 -0.90216765866E+03 -0.95158989494E+02  0.10274358078E+04  0.46999998093E+01 0.  1.
       -5    1    3    3    0  502  0.48232824047E+03  0.90216765866E+03  0.79441499050E+03  0.12952468039E+04  0.46999998093E+01 0. -1.
</event>
<event>
 5   0  0.1733962E-04  0.2300267E+04  0.7818609E-02  0.8477816E-01
       -2   -1    0    0    0  501  0.00000000000E+00  0.00000000000E+00  0.25654019327E+04  0.25654019327E+04  0.25500000920E-02 0. -1.
        2   -1    0    0  501    0  0.00000000000E+00  0.00000000000E+00 -0.51563367602E+03  0.51563367603E+03  0.25500000920E-02 0.  1.
    10030    2    1    2    0    0  0.00000000000E+00  0.00000000000E+00  0.20497682567E+04  0.30810356088E+04  0.23002674880E+04 0.  0.
        3    1    3    3  502    0 -0.26557351064E+03 -0.60528504718E+03  0.22855870864E+04  0.23792451781E+04  0.10100000352E+00 0. -1.
       -3    1    3    3    0  502  0.26557351064E+03  0.60528504718E+03 -0.23581882970E+03  0.70179043064E+03  0.10100000352E+00 0.  1.
</event>
<event>
 5   0  0.1680258E-04  0.2171521E+04  0.7818609E-02  0.8530376E-01
       -2   -1    0    0    0  501  0.00000000000E+00  0.00000000000E+00  0.78476798929E+03  0.78476798929E+03  0.25500000920E-02 0. -1.
        2   -1    0    0  501    0  0.00000000000E+00  0.00000000000E+00 -0.15021968121E+04  0.15021968121E+04  0.25500000920E-02 0.  1.
    10030    2    1    2    0    0  0.00000000000E+00  0.00000000000E+00 -0.71742882277E+03  0.22869648014E+04  0.21715210998E+04 0.  0.
        5    1    3    3  502    0  0.34251038725E+03 -0.20678474932E+03  0.70429168832E+03  0.81001368517E+03  0.46999998093E+01 0. -1.
       -5    1    3    3    0  502 -0.34251038725E+03  0.20678474932E+03 -0.14217205111E+04  0.14769511162E+04  0.46999998093E+01 0.  1.
</event>
<event>
 5   0  0.8784659E-05  0.2118549E+04  0.7818609E-02  0.8553116E-01
       -1   -1    0    0    0  501  0.00000000000E+00  0.00000000000E+00  0.54915042348E+03  0.54915042351E+03  0.50400001928E-02 0.  1.
        1   -1    0    0  501    0  0.00000000000E+00  0.00000000000E+00 -0.20432688761E+04  0.20432688761E+04  0.50400001928E-02 0. -1.
    10030    2    1    2    0    0  0.00000000000E+00  0.00000000000E+00 -0.14941184526E+04  0.25924192996E+04  0.21185485301E+04 0.  0.
        4    1    3    3  502    0  0.20674755446E+03 -0.70476028644E+03 -0.16810934342E+04  0.18345321911E+04  0.12699999809E+01 0. -1.
       -4    1    3    3    0  502 -0.20674755446E+03  0.70476028644E+03  0.18697498161E+03  0.75788710852E+03  0.12699999809E+01 0.  1.
</event>
<event>
 5   0  0.7954459E-05  0.2280479E+04  0.7818609E-02  0.8485658E-01
        1   -1    0    0  501    0  0.00000000000E+00  0.00000000000E+00  0.19440891668E+04  0.19440891668E+04  0.50400001928E-02 0.  1.
       -1   -1    0    0    0  501  0.00000000000E+00  0.00000000000E+00 -0.66876875584E+03  0.66876875586E+03  0.50400001928E-02 0. -1.
    10030    2    1    2    0    0  0.00000000000E+00  0.00000000000E+00  0.12753204109E+04  0.26128579226E+04  0.22804789789E+04 0.  0.
        5    1    3    3  502    0 -0.10682260588E+04  0.36955763449E+03  0.46601083053E+03  0.12226479224E+04  0.46999998093E+01 0. -1.
       -5    1    3    3    0  502  0.10682260588E+04 -0.36955763449E+03  0.80930958039E+03  0.13902100003E+04  0.46999998093E+01 0.  1.
</event>
<event>
 5   0  0.8602414E-05  0.1084521E+04  0.7818609E-02  0.9220411E-01
        1   -1    0    0  501    0  0.00000000000E+00  0.00000000000E+00  0.94545947432E+03  0.94545947433E+03  0.50400001928E-02 0.  1.
       -1   -1    0    0    0  501  0.00000000000E+00  0.00000000000E+00 -0.31100927825E+03  0.31100927829E+03  0.50400001928E-02 0. -1.
    10030    2    1    2    0    0  0.00000000000E+00  0.00000000000E+00  0.63445019607E+03  0.12564687526E+04  0.10845214037E+04 0.  0.
        3    1    3    3  502    0  0.52268290466E+03  0.41446145614E+02  0.15697895506E+03  0.54731855838E+03  0.10100000352E+00 0. -1.
       -3    1    3    3    0  502 -0.52268290466E+03 -0.41446145614E+02  0.47747124100E+03  0.70915019425E+03  0.10100000352E+00 0.  1.
</event>
<event>
 5   0  0.7954459E-05  0.2021720E+04  0.7818609E-02  0.8596533E-01
        1   -1    0    0  501    0  0.00000000000E+00  0.00000000000E+00  0.13072961317E+04  0.13072961317E+04  0.50400001928E-02 0. -1.
       -1   -1    0    0    0  501  0.00000000000E+00  0.00000000000E+00 -0.78164212033E+03  0.78164212035E+03  0.50400001928E-02 0.  1.
    10030    2    1    2    0    0  0.00000000000E+00  0.00000000000E+00  0.52565401137E+03  0.20889382521E+04  0.20217197831E+04 0.  0.
        5    1    3    3  502    0  0.15358819817E+03  0.28831336997E+02 -0.76907449975E+03  0.78480459783E+03  0.46999998093E+01 0.  1.
       -5    1    3    3    0  502 -0.15358819817E+03 -0.28831336997E+02  0.12947285111E+04  0.13041336542E+04  0.46999998093E+01 0. -1.
</event>
<event>
 5   0  0.1805501E-04  0.2195344E+04  0.7818609E-02  0.8520369E-01
        2   -1    0    0  501    0  0.00000000000E+00  0.00000000000E+00  0.12998846338E+04  0.12998846338E+04  0.25500000920E-02 0.  1.
       -2   -1    0    0    0  501  0.00000000000E+00  0.00000000000E+00 -0.92691577612E+03  0.92691577612E+03  0.25500000920E-02 0. -1.
    10030    2    1    2    0    0  0.00000000000E+00  0.00000000000E+00  0.37296885767E+03  0.22268004099E+04  0.21953437765E+04 0.  0.
        2    1    3    3  502    0 -0.10134176251E+04  0.41718322193E+03  0.12373976202E+03  0.11028910428E+04  0.25500000920E-02 0.  1.
       -2    1    3    3    0  502  0.10134176251E+04 -0.41718322193E+03  0.24922909565E+03  0.11239093672E+04  0.25500000920E-02 0. -1.
</event>
<event>
 5   0  0.1733962E-04  0.2083857E+04  0.7818609E-02  0.8568388E-01
       -2   -1    0    0    0  501  0.00000000000E+00  0.00000000000E+00  0.15860708013E+04  0.15860708013E+04  0.25500000920E-02 0.  1.
        2   -1    0    0  501    0  0.00000000000E+00  0.00000000000E+00 -0.68446837870E+03  0.68446837871E+03  0.25500000920E-02 0. -1.
    10030    2    1    2    0    0  0.00000000000E+00  0.00000000000E+00  0.90160242264E+03  0.22705391801E+04  0.20838572983E+04 0.  0.
        3    1    3    3  502    0 -0.88756019246E+03  0.33287772063E+03  0.92203198512E+03  0.13223893768E+04  0.10100000352E+00 0.  1.
       -3    1    3    3    0  502  0.88756019246E+03 -0.33287772063E+03 -0.20429562481E+02  0.94814980323E+03  0.10100000352E+00 0. -1.
</event>
<event>
 5   0  0.1733962E-04  0.2203888E+04  0.7818609E-02  0.8516812E-01
       -2   -1    0    0    0  501  0.00000000000E+00  0.00000000000E+00  0.10608518721E+04  0.10608518721E+04  0.25500000920E-02 0.  1.
        2   -1    0    0  501    0  0.00000000000E+00  0.00000000000E+00 -0.11446276678E+04  0.11446276679E+04  0.25500000920E-02 0. -1.
    10030    2    1    2    0    0  0.00000000000E+00  0.00000000000E+00 -0.83775795767E+02  0.22054795399E+04  0.22038878413E+04 0.  0.
        3    1    3    3  502    0 -0.47589513529E+03  0.54609574166E+03  0.78912358299E+03  0.10711735519E+04  0.10100000352E+00 0.  1.
       -3    1    3    3    0  502  0.47589513529E+03 -0.54609574166E+03 -0.87289937876E+03  0.11343059880E+04  0.10100000352E+00 0. -1.
</event>
<event>
 5   0  0.8470971E-05  0.2175880E+04  0.7818609E-02  0.8528535E-01
        1   -1    0    0  501    0  0.00000000000E+00  0.00000000000E+00  0.17692367731E+04  0.17692367731E+04  0.50400001928E-02 0. -1.
       -1   -1    0    0    0  501  0.00000000000E+00  0.00000000000E+00 -0.66899652176E+03  0.66899652178E+03  0.50400001928E-02 0.  1.
    10030    2    1    2    0    0  0.00000000000E+00  0.00000000000E+00  0.11002402513E+04  0.24382332948E+04  0.21758798196E+04 0.  0.
        2    1    3    3  502    0  0.42296566932E+03  0.28334607786E+03 -0.52727986371E+03  0.73294543586E+03  0.25500000920E-02 0.  1.
       -2    1    3    3    0  502 -0.42296566932E+03 -0.28334607786E+03  0.16275201150E+04  0.17052878590E+04  0.25500000920E-02 0. -1.
</event>
<event>
 5   0  0.1798917E-04  0.2229648E+04  0.7818609E-02  0.8506188E-01
        2   -1    0    0  501    0  0.00000000000E+00  0.00000000000E+00  0.15673434418E+04  0.15673434418E+04  0.25500000920E-02 0.  1.
       -2   -1    0    0    0  501  0.00000000000E+00  0.00000000000E+00 -0.79295481329E+03  0.79295481330E+03  0.25500000920E-02 0. -1.
    10030    2    1    2    0    0  0.00000000000E+00  0.00000000000E+00  0.77438862852E+03  0.23602982551E+04  0.22296479778E+04 0.  0.
        4    1    3    3  502    0 -0.30174816064E+03  0.11165941526E+03 -0.74273624777E+03  0.80943098786E+03  0.12699999809E+01 0. -1.
       -4    1    3    3    0  502  0.30174816064E+03 -0.11165941526E+03  0.15171248763E+04  0.15508672672E+04  0.12699999809E+01 0.  1.
</event>
<event>
 5   0  0.1733962E-04  0.2186306E+04  0.7818609E-02  0.8524150E-01
        2   -1    0    0  501    0  0.00000000000E+00  0.00000000000E+00  0.17562721668E+04  0.17562721668E+04  0.25500000920E-02 0.  1.
       -2   -1    0    0    0  501  0.00000000000E+00  0.00000000000E+00 -0.68040882656E+03  0.68040882656E+03  0.25500000920E-02 0. -1.
    10030    2    1    2    0    0  0.00000000000E+00  0.00000000000E+00  0.10758633402E+04  0.24366809934E+04  0.21863056366E+04 0.  0.
        3    1    3    3  502    0 -0.62186025835E+03 -0.82171014533E+03  0.94448756179E+03  0.13978463823E+04  0.10100000352E+00 0.  1.
       -3    1    3    3    0  502  0.62186025835E+03  0.82171014533E+03  0.13137577845E+03  0.10388346111E+04  0.10100000352E+00 0. -1.
</event>
<event>
 5   0  0.1733962E-04  0.2051716E+04  0.7818609E-02  0.8582816E-01
       -2   -1    0    0    0  501  0.00000000000E+00  0.00000000000E+00  0.44376764755E+03  0.44376764755E+03  0.25500000920E-02 0. -1.
        2   -1    0    0  501    0  0.00000000000E+00  0.00000000000E+00 -0.23714758382E+04  0.23714758382E+04  0.25500000920E-02 0.  1.
    10030    2    1    2    0    0  0.00000000000E+00  0.00000000000E+00 -0.19277081907E+04  0.28152434858E+04  0.20517156274E+04 0.  0.
        3    1    3    3  502    0  0.32765711498E+03 -0.11265228307E+03 -0.22887589106E+04  0.23148362972E+04  0.10100000352E+00 0.  1.
       -3    1    3    3    0  502 -0.32765711498E+03  0.11265228307E+03  0.36105071988E+03  0.50040718860E+03  0.10100000352E+00 0. -1.
</event>
<event>
 5   0  0.1733962E-04  0.2195569E+04  0.7818609E-02  0.8520275E-01
        2   -1    0    0  501    0  0.00000000000E+00  0.00000000000E+00  0.16522473910E+04  0.16522473910E+04  0.25500000920E-02 0. -1.
       -2   -1    0    0    0  501  0.00000000000E+00  0.00000000000E+00 -0.72938888844E+03  0.72938888844E+03  0.25500000920E-02 0.  1.
    10030    2    1    2    0    0  0.00000000000E+00  0.00000000000E+00  0.92285850260E+03  0.23816362795E+04  0.21955690725E+04 0.  0.
        3    1    3    3  502    0  0.66566422236E+03  0.35406928133E+02  0.14075674066E+04  0.15574365226E+04  0.10100000352E+00 0. -1.
       -3    1    3    3    0  502 -0.66566422236E+03 -0.35406928133E+02 -0.48470890400E+03  0.82419975692E+03  0.10100000352E+00 0.  1.
</event>
<event>
 5   0  0.1680258E-04  0.2196075E+04  0.7818609E-02  0.8520063E-01
       -2   -1    0    0    0  501  0.00000000000E+00  0.00000000000E+00  0.11179228104E+04  0.11179228104E+04  0.25500000920E-02 0. -1.
        2   -1    0    0  501    0  0.00000000000E+00  0.00000000000E+00 -0.10785060347E+04  0.10785060347E+04  0.25500000920E-02 0.  1.
    10030    2    1    2    0    0  0.00000000000E+00  0.00000000000E+00  0.39416775759E+02  0.21964288451E+04  0.21960751329E+04 0.  0.
        5    1    3    3  502    0  0.87801136963E+03 -0.65692512035E+03  0.76372860557E+02  0.10992313145E+04  0.46999998093E+01 0.  1.
       -5    1    3    3    0  502 -0.87801136963E+03  0.65692512035E+03 -0.36956084798E+02  0.10971975306E+04  0.46999998093E+01 0. -1.
</event>
<event>
 5   0  0.8602414E-05  0.2278802E+04  0.7818609E-02  0.8486326E-01
        1   -1    0    0  501    0  0.00000000000E+00  0.00000000000E+00  0.12125645535E+04  0.12125645535E+04  0.50400001928E-02 0.  1.
       -1   -1    0    0    0  501  0.00000000000E+00  0.00000000000E+00 -0.10706518675E+04  0.10706518675E+04  0.50400001928E-02 0. -1.
    10030    2    1    2    0    0  0.00000000000E+00  0.00000000000E+00  0.14191268596E+03  0.22832164210E+04  0.22788018814E+04 0.  0.
        3    1    3    3  502    0 -0.88641153697E+03  0.65556889911E+03 -0.21724389106E+03  0.11236952046E+04  0.10100000352E+00 0.  1.
       -3    1    3    3    0  502  0.88641153697E+03 -0.65556889911E+03  0.35915657702E+03  0.11595212164E+04  0.10100000352E+00 0. -1.
</event>
<event>
 5   0  0.8470971E-05  0.2171680E+04  0.7818609E-02  0.8530309E-01
        1   -1    0    0  501    0  0.00000000000E+00  0.00000000000E+00  0.13992124714E+04  0.13992124714E+04  0.50400001928E-02 0.  1.
       -1   -1    0    0    0  501  0.00000000000E+00  0.00000000000E+00 -0.84265174964E+03  0.84265174965E+03  0.50400001928E-02 0. -1.
    10030    2    1    2    0    0  0.00000000000E+00  0.00000000000E+00  0.55656072173E+03  0.22418642210E+04  0.21716803053E+04 0.  0.
        2    1    3    3  502    0  0.99242651551E+03  0.41979619848E+03  0.41643210067E+03  0.11552293848E+04  0.25500000920E-02 0.  1.
       -2    1    3    3    0  502 -0.99242651551E+03 -0.41979619848E+03  0.14012862106E+03  0.10866348363E+04  0.25500000920E-02 0. -1.
</event>
<event>
 5   0  0.8784659E-05  0.1489830E+04  0.7818609E-02  0.8891244E-01
       -1   -1    0    0    0  501  0.00000000000E+00  0.00000000000E+00  0.61285737057E+03  0.61285737059E+03  0.50400001928E-02 0.  1.
        1   -1    0    0  501    0  0.00000000000E+00  0.00000000000E+00 -0.90542840337E+03  0.90542840339E+03  0.50400001928E-02 0. -1.
    10030    2    1    2    0    0  0.00000000000E+00  0.00000000000E+00 -0.29257103280E+03  0.15182857740E+04  0.14898301521E+04 0.  0.
        4    1    3    3  502    0  0.27312563403E+03 -0.16812984945E+03  0.53888893530E+03  0.62711095966E+03  0.12699999809E+01 0.  1.
       -4    1    3    3    0  502 -0.27312563403E+03  0.16812984945E+03 -0.83145996809E+03  0.89117481432E+03  0.12699999809E+01 0. -1.
</event>
<event>
 5   0  0.1733962E-04  0.1954507E+04  0.7818609E-02  0.8628191E-01
       -2   -1    0    0    0  501  0.00000000000E+00  0.00000000000E+00  0.36388772078E+03  0.36388772079E+03  0.25500000920E-02 0.  1.
        2   -1    0    0  501    0  0.00000000000E+00  0.00000000000E+00 -0.26245024663E+04  0.26245024663E+04  0.25500000920E-02 0. -1.
    10030    2    1    2    0    0  0.00000000000E+00  0.00000000000E+00 -0.22606147456E+04  0.29883901871E+04  0.19545068132E+04 0.  0.
        3    1    3    3  502    0 -0.86518225698E+03  0.28920986671E+03 -0.16661937461E+04  0.18995747668E+04  0.10100000352E+00 0. -1.
       -3    1    3    3    0  502  0.86518225698E+03 -0.28920986671E+03 -0.59442099942E+03  0.10888154203E+04  0.10100000352E+00 0.  1.
</event>
<event>
 5   0  0.1733962E-04  0.2205232E+04  0.7818609E-02  0.8516254E-01
       -2   -1    0    0    0  501  0.00000000000E+00  0.00000000000E+00  0.13169639233E+04  0.13169639233E+04  0.25500000920E-02 0. -1.
        2   -1    0    0  501    0  0.00000000000E+00  0.00000000000E+00 -0.92315499573E+03  0.92315499574E+03  0.25500000920E-02 0.  1.
    10030    2    1    2    0    0  0.00000000000E+00  0.00000000000E+00  0.39380892760E+03  0.22401189191E+04  0.22052318019E+04 0.  0.
        3    1    3    3  502    0 -0.63650887580E+02 -0.68998843366E+03  0.10681598238E+04  0.12732246045E+04  0.10100000352E+00 0. -1.
       -3    1    3    3    0  502  0.63650887580E+02  0.68998843366E+03 -0.67435089624E+03  0.96689431456E+03  0.10100000352E+00 0.  1.
</event>
<event>
 5   0  0.1754356E-04  0.2170074E+04  0.7818609E-02  0.8530988E-01
        2   -1    0    0  501    0  0.00000000000E+00  0.00000000000E+00  0.98079523185E+03  0.98079523185E+03  0.25500000920E-02 0.  1.
       -2   -1    0    0    0  501  0.00000000000E+00  0.00000000000E+00 -0.12003577984E+04  0.12003577984E+04  0.25500000920E-02 0. -1.
    10030    2    1    2    0    0  0.00000000000E+00  0.00000000000E+00 -0.21956256658E+03  0.21811530303E+04  0.21700739206E+04 0.  0.
        1    1    3    3  502    0  0.70807563605E+03 -0.60822234190E+03  0.44621526630E+03  0.10346079390E+04  0.50400001928E-02 0.  1.
       -1    1    3    3    0  502 -0.70807563605E+03  0.60822234190E+03 -0.66577783288E+03  0.11465450913E+04  0.50400001928E-02 0. -1.
</event>
<event>
 5   0  0.8306787E-05  0.2195029E+04  0.7818609E-02  0.8520500E-01
       -1   -1    0    0    0  501  0.00000000000E+00  0.00000000000E+00  0.76236531734E+03  0.76236531736E+03  0.50400001928E-02 0. -1.
        1   -1    0    0  501    0  0.00000000000E+00  0.00000000000E+00 -0.15800010951E+04  0.15800010951E+04  0.50400001928E-02 0.  1.
    10030    2    1    2    0    0  0.00000000000E+00  0.00000000000E+00 -0.81763577776E+03  0.23423664125E+04  0.21950289623E+04 0.  0.
        1    1    3    3  502    0 -0.54508993864E+03  0.36246665410E+03  0.53124011061E+03  0.84304280537E+03  0.50400001928E-02 0. -1.
       -1    1    3    3    0  502  0.54508993864E+03 -0.36246665410E+03 -0.13488758884E+04  0.14993236071E+04  0.50400001928E-02 0.  1.
</event>
<event>
 5   0  0.1805501E-04  0.1442573E+04  0.7818609E-02  0.8923566E-01
       -2   -1    0    0    0  501  0.00000000000E+00  0.00000000000E+00  0.77079567180E+03  0.77079567180E+03  0.25500000920E-02 0.  1.
        2   -1    0    0  501    0  0.00000000000E+00  0.00000000000E+00 -0.67495707005E+03  0.67495707005E+03  0.25500000920E-02 0. -1.
    10030    2    1    2    0    0  0.00000000000E+00  0.00000000000E+00  0.95838601747E+02  0.14457527419E+04  0.14425726855E+04 0.  0.
        2    1    3    3  502    0  0.17013471994E+03 -0.71677735580E+02  0.74671561709E+03  0.76919941076E+03  0.25500000920E-02 0.  1.
       -2    1    3    3    0  502 -0.17013471994E+03  0.71677735580E+02 -0.65087701534E+03  0.67655333109E+03  0.25500000920E-02 0. -1.
</event>
<event>
 5   0  0.1733962E-04  0.2249391E+04  0.7818609E-02  0.8498147E-01
       -2   -1    0    0    0  501  0.00000000000E+00  0.00000000000E+00  0.64464979738E+03  0.64464979738E+03  0.25500000920E-02 0. -1.
        2   -1    0    0  501    0  0.00000000000E+00  0.00000000000E+00 -0.19622119802E+04  0.19622119802E+04  0.25500000920E-02 0.  1.
    10030    2    1    2    0    0  0.00000000000E+00  0.00000000000E+00 -0.13175621829E+04  0.26068617776E+04  0.22493906335E+04 0.  0.
        3    1    3    3  502    0 -0.59484121239E+03  0.64406276604E+03  0.15764976466E+03  0.89078974683E+03  0.10100000352E+00 0. -1.
       -3    1    3    3    0  502  0.59484121239E+03 -0.64406276604E+03 -0.14752119475E+04  0.17160720308E+04  0.10100000352E+00 0.  1.
</event>
<event>
 5   0  0.8306787E-05  0.2157014E+04  0.7818609E-02  0.8536536E-01
       -1   -1    0    0    0  501  0.00000000000E+00  0.00000000000E+00  0.18029443285E+04  0.18029443285E+04  0.50400001928E-02 0.  1.
        1   -1    0    0  501    0  0.00000000000E+00  0.00000000000E+00 -0.64515417463E+03  0.64515417465E+03  0.50400001928E-02 0. -1.
    10030    2    1    2    0    0  0.00000000000E+00  0.00000000000E+00  0.11577901538E+04  0.24480985031E+04  0.21570137321E+04 0.  0.
        1    1    3    3  502    0  0.57838682269E+03 -0.72311888538E+03 -0.48665325892E+02  0.92725430871E+03  0.50400001928E-02 0. -1.
       -1    1    3    3    0  502 -0.57838682269E+03  0.72311888538E+03  0.12064554797E+04  0.15208441944E+04  0.50400001928E-02 0.  1.
</event>
<event>
 5   0  0.1798917E-04  0.2215941E+04  0.7818609E-02  0.8511822E-01
        2   -1    0    0  501    0  0.00000000000E+00  0.00000000000E+00  0.15350815871E+04  0.15350815871E+04  0.25500000920E-02 0.  1.
       -2   -1    0    0    0  501  0.00000000000E+00  0.00000000000E+00 -0.79969628468E+03  0.79969628468E+03  0.25500000920E-02 0. -1.
    10030    2    1    2    0    0  0.00000000000E+00  0.00000000000E+00  0.73538530242E+03  0.23347778718E+04  0.22159413728E+04 0.  0.
        4    1    3    3  502    0  0.87781791407E+03  0.71872877367E+02  0.10759528243E+04  0.13904697385E+04  0.12699999809E+01 0.  1.
       -4    1    3    3    0  502 -0.87781791407E+03 -0.71872877367E+02 -0.34056752183E+03  0.94430813329E+03  0.12699999809E+01 0. -1.
</event>
<event>
 5   0  0.6250625E-05  0.2191964E+04  0.7818609E-02  0.8521780E-01
        3   -1    0    0  501    0  0.00000000000E+00  0.00000000000E+00  0.96299927694E+03  0.96299928224E+03  0.10100000352E+00 0. -1.
       -3   -1    0    0    0  501  0.00000000000E+00  0.00000000000E+00 -0.12473290554E+04  0.12473290594E+04  0.10100000352E+00 0.  1.
    10030    2    1    2    0    0  0.00000000000E+00  0.00000000000E+00 -0.28432977841E+03  0.22103283417E+04  0.21919644055E+04 0.  0.
        1    1    3    3  502    0  0.12537226381E+03 -0.95370622084E+03 -0.67183038952E+03  0.11732986971E+04  0.50400001928E-02 0.  1.
       -1    1    3    3    0  502 -0.12537226381E+03  0.95370622084E+03  0.38750061111E+03  0.10370296446E+04  0.50400001928E-02 0. -1.
</event>
<event>
 5   0  0.1680258E-04  0.2294045E+04  0.7818609E-02  0.8480273E-01
        2   -1    0    0  501    0  0.00000000000E+00  0.00000000000E+00  0.11512511221E+04  0.11512511221E+04  0.25500000920E-02 0.  1.
       -2   -1    0    0    0  501  0.00000000000E+00  0.00000000000E+00 -0.11428099007E+04  0.11428099007E+04  0.25500000920E-02 0. -1.
    10030    2    1    2    0    0  0.00000000000E+00  0.00000000000E+00  0.84412213803E+01  0.22940610229E+04  0.22940454927E+04 0.  0.
        5    1    3    3  502    0  0.21019196150E+03  0.93791458214E+03  0.63014390552E+03  0.11493336573E+04  0.46999998093E+01 0.  1.
       -5    1    3    3    0  502 -0.21019196150E+03 -0.93791458214E+03 -0.62170268414E+03  0.11447273656E+04  0.46999998093E+01 0. -1.
</event>
<event>
 5   0  0.1798917E-04  0.2311783E+04  0.7818609E-02  0.8473290E-01
       -2   -1    0    0    0  501  0.00000000000E+00  0.00000000000E+00  0.11302704533E+04  0.11302704533E+04  0.25500000920E-02 0. -1.
        2   -1    0    0  501    0  0.00000000000E+00  0.00000000000E+00 -0.11820930867E+04  0.11820930867E+04  0.25500000920E-02 0.  1.
    10030    2    1    2    0    0  0.00000000000E+00  0.00000000000E+00 -0.51822633411E+02  0.23123635400E+04  0.23117827657E+04 0.  0.
        4    1    3    3  502    0  0.26615074189E+03 -0.26956939095E+03  0.10664158712E+04  0.11317015054E+04  0.12699999809E+01 0. -1.
       -4    1    3    3    0  502 -0.26615074189E+03  0.26956939095E+03 -0.11182385046E+04  0.11806620347E+04  0.12699999809E+01 0.  1.
</event>
<event>
 5   0  0.1733962E-04  0.2207656E+04  0.7818609E-02  0.8515248E-01
        2   -1    0    0  501    0  0.00000000000E+00  0.00000000000E+00  0.14973767597E+04  0.14973767597E+04  0.25500000920E-02 0.  1.
       -2   -1    0    0    0  501  0.00000000000E+00  0.00000000000E+00 -0.81371398072E+03  0.81371398072E+03  0.25500000920E-02 0. -1.
    10030    2    1    2    0    0  0.00000000000E+00  0.00000000000E+00  0.68366277897E+03  0.23110907404E+04  0.22076561361E+04 0.  0.
        3    1    3    3  502    0 -0.78912163520E+03 -0.14729822001E+03 -0.45131181062E+03  0.92091915029E+03  0.10100000352E+00 0. -1.
       -3    1    3    3    0  502  0.78912163520E+03  0.14729822001E+03  0.11349745896E+04  0.13901715901E+04  0.10100000352E+00 0.  1.
</event>
<event>
 5   0  0.1733962E-04  0.2163200E+04  0.7818609E-02  0.8533903E-01
       -2   -1    0    0    0  501  0.00000000000E+00  0.00000000000E+00  0.84903323862E+03  0.84903323862E+03  0.25500000920E-02 0. -1.
        2   -1    0    0  501    0  0.00000000000E+00  0.00000000000E+00 -0.13778712254E+04  0.13778712254E+04  0.25500000920E-02 0.  1.
    10030    2    1    2    0    0  0.00000000000E+00  0.00000000000E+00 -0.52883798682E+03  0.22269044641E+04  0.21631999158E+04 0.  0.
        3    1    3    3  502    0  0.10479190813E+04  0.26750123471E+03 -0.27772827286E+03  0.11166128762E+04  0.10100000352E+00 0.  1.
       -3    1    3    3    0  502 -0.10479190813E+04 -0.26750123471E+03 -0.25110971396E+03  0.11102915879E+04  0.10100000352E+00 0. -1.
</event>
<event>
 5   0  0.1798917E-04  0.2398667E+04  0.7818609E-02  0.8440003E-01
        2   -1    0    0  501    0  0.00000000000E+00  0.00000000000E+00  0.20783495771E+04  0.20783495771E+04  0.25500000920E-02 0. -1.
       -2   -1    0    0    0  501  0.00000000000E+00  0.00000000000E+00 -0.69208829733E+03  0.69208829733E+03  0.25500000920E-02 0.  1.
    10030    2    1    2    0    0  0.00000000000E+00  0.00000000000E+00  0.13862612798E+04  0.27704378744E+04  0.23986674801E+04 0.  0.
        4    1    3    3  502    0 -0.71168778189E+03  0.92338431367E+02 -0.41672673222E+03  0.82987268122E+03  0.12699999809E+01 0.  1.
       -4    1    3    3    0  502  0.71168778189E+03 -0.92338431367E+02  0.18029880120E+04  0.19405651932E+04  0.12699999809E+01 0. -1.
</event>
<event>
 5   0  0.1733962E-04  0.2198852E+04  0.7818609E-02  0.8518906E-01
        2   -1    0    0  501    0  0.00000000000E+00  0.00000000000E+00  0.81000560461E+03  0.81000560461E+03  0.25500000920E-02 0. -1.
       -2   -1    0    0    0  501  0.00000000000E+00  0.00000000000E+00 -0.14922586979E+04  0.14922586979E+04  0.25500000920E-02 0.  1.
    10030    2    1    2    0    0  0.00000000000E+00  0.00000000000E+00 -0.68225309333E+03  0.23022643025E+04  0.21988523451E+04 0.  0.
        3    1    3    3  502    0 -0.71114881941E+03 -0.57437854971E+03  0.29841469759E+03  0.96161047397E+03  0.10100000352E+00 0. -1.
       -3    1    3    3    0  502  0.71114881941E+03  0.57437854971E+03 -0.98066779092E+03  0.13406538286E+04  0.10100000352E+00 0.  1.
</event>
<event>
 5   0  0.7954459E-05  0.2190838E+04  0.7818609E-02  0.8522251E-01
       -1   -1    0    0    0  501  0.00000000000E+00  0.00000000000E+00  0.13983630043E+04  0.13983630043E+04  0.50400001928E-02 0.  1.
        1   -1    0    0  501    0  0.00000000000E+00  0.00000000000E+00 -0.85810545904E+03  0.85810545905E+03  0.50400001928E-02 0. -1.
    10030    2    1    2    0    0  0.00000000000E+00  0.00000000000E+00  0.54025754524E+03  0.22564684633E+04  0.21908381298E+04 0.  0.
        5    1    3    3  502    0 -0.10042914718E+04 -0.29311990188E+03  0.60450831244E+03  0.12082934358E+04  0.46999998093E+01 0.  1.
       -5    1    3    3    0  502  0.10042914718E+04  0.29311990188E+03 -0.64250767203E+02  0.10481750275E+04  0.46999998093E+01 0. -1.
</event>
<event>
 5   0  0.1754356E-04  0.2146232E+04  0.7818609E-02  0.8541147E-01
        2   -1    0    0  501    0  0.00000000000E+00  0.00000000000E+00  0.11551015970E+04  0.11551015970E+04  0.25500000920E-02 0. -1.
       -2   -1    0    0    0  501  0.00000000000E+00  0.00000000000E+00 -0.99694947878E+03  0.99694947878E+03  0.25500000920E-02 0.  1.
    10030    2    1    2    0    0  0.00000000000E+00  0.00000000000E+00  0.15815211826E+03  0.21520510758E+04  0.21462319866E+04 0.  0.
        1    1    3    3  502    0 -0.57044855122E+03  0.70930443332E+03  0.64899515410E+03  0.11179083320E+04  0.50400001928E-02 0. -1.
       -1    1    3    3    0  502  0.57044855122E+03 -0.70930443332E+03 -0.49084303584E+03  0.10341427438E+04  0.50400001928E-02 0.  1.
</event>
<event>
 5   0  0.8602414E-05  0.2120949E+04  0.7818609E-02  0.8552071E-01
        1   -1    0    0  501    0  0.00000000000E+00  0.00000000000E+00  0.77632405964E+03  0.77632405966E+03  0.50400001928E-02 0.  1.
       -1   -1    0    0    0  501  0.00000000000E+00  0.00000000000E+00 -0.14486300541E+04  0.14486300541E+04  0.50400001928E-02 0. -1.
    10030    2    1    2    0    0  0.00000000000E+00  0.00000000000E+00 -0.67230599448E+03  0.22249541138E+04  0.21209491880E+04 0.  0.
        3    1    3    3  502    0  0.16940348860E+03 -0.67846914468E+03 -0.11724851369E+04  0.13651883858E+04  0.10100000352E+00 0. -1.
       -3    1    3    3    0  502 -0.16940348860E+03  0.67846914468E+03  0.50017914246E+03  0.85976572796E+03  0.10100000352E+00 0.  1.
</event>
<event>
 5   0  0.1798917E-04  0.2194352E+04  0.7818609E-02  0.8520783E-01
       -2   -1    0    0    0  501  0.00000000000E+00  0.00000000000E+00  0.16428317342E+04  0.16428317342E+04  0.25500000920E-02 0. -1.
        2   -1    0    0  501    0  0.00000000000E+00  0.00000000000E+00 -0.73275624915E+03  0.73275624916E+03  0.25500000920E-02 0.  1.
    10030    2    1    2    0    0  0.00000000000E+00  0.00000000000E+00  0.91007548502E+03  0.23755879833E+04  0.21943520406E+04 0.  0.
        4    1    3    3  502    0  0.14978116534E+03  0.13668086614E+03 -0.71229444394E+03  0.74059506103E+03  0.12699999809E+01 0.  1.
       -4    1    3    3    0  502 -0.14978116534E+03 -0.13668086614E+03  0.16223699290E+04  0.16349929223E+04  0.12699999809E+01 0. -1.
</event>
<event>
 5   0  0.1754356E-04  0.2155894E+04  0.7818609E-02  0.8537014E-01
        2   -1    0    0  501    0  0.00000000000E+00  0.00000000000E+00  0.12974660489E+04  0.12974660489E+04  0.25500000920E-02 0.  1.
       -2   -1    0    0    0  501  0.00000000000E+00  0.00000000000E+00 -0.89556854022E+03  0.89556854022E+03  0.25500000920E-02 0. -1.
    10030    2    1    2    0    0  0.00000000000E+00  0.00000000000E+00  0.40189750863E+03  0.21930345891E+04  0.21558940376E+04 0.  0.
        1    1    3    3  502    0  0.21128981840E+03 -0.16903227232E+02 -0.87416040703E+03  0.89949181414E+03  0.50400001928E-02 0. -1.
       -1    1    3    3    0  502 -0.21128981840E+03  0.16903227232E+02  0.12760579157E+04  0.12935427749E+04  0.50400001928E-02 0.  1.
</event>
<event>
 5   0  0.1798917E-04  0.2203991E+04  0.7818609E-02  0.8516769E-01
       -2   -1    0    0    0  501  0.00000000000E+00  0.00000000000E+00  0.13172061456E+04  0.13172061456E+04  0.25500000920E-02 0. -1.
        2   -1    0    0  501    0  0.00000000000E+00  0.00000000000E+00 -0.92194691380E+03  0.92194691380E+03  0.25500000920E-02 0.  1.
    10030    2    1    2    0    0  0.00000000000E+00  0.00000000000E+00  0.39525923179E+03  0.22391530594E+04  0.22039910533E+04 0.  0.
        4    1    3    3  502    0  0.73069429207E+03 -0.46644838995E+03  0.88885479799E+03  0.12415928132E+04  0.12699999809E+01 0. -1.
       -4    1    3    3    0  502 -0.73069429207E+03  0.46644838995E+03 -0.49359556620E+03  0.99756024621E+03  0.12699999809E+01 0.  1.
</event>
<event>
 5   0  0.1754356E-04  0.2223986E+04  0.7818609E-02  0.8508510E-01
        2   -1    0    0  501    0  0.00000000000E+00  0.00000000000E+00  0.16091606118E+04  0.16091606118E+04  0.25500000920E-02 0. -1.
       -2   -1    0    0    0  501  0.00000000000E+00  0.00000000000E+00 -0.76843100532E+03  0.76843100533E+03  0.25500000920E-02 0.  1.
    10030    2    1    2    0    0  0.00000000000E+00  0.00000000000E+00  0.84072960645E+03  0.23775916171E+04  0.22239864268E+04 0.  0.
        1    1    3    3  502    0 -0.78956151918E+03 -0.73401001024E+03  0.71187114447E+03  0.12918740705E+04  0.50400001928E-02 0.  1.
       -1    1    3    3    0  502  0.78956151918E+03  0.73401001024E+03  0.12885846197E+03  0.10857175466E+04  0.50400001928E-02 0. -1.
</event>
<event>
 5   0  0.8784659E-05  0.2172561E+04  0.7818609E-02  0.8529936E-01
       -1   -1    0    0    0  501  0.00000000000E+00  0.00000000000E+00  0.83912943910E+03  0.83912943912E+03  0.50400001928E-02 0.  1.
        1   -1    0    0  501    0  0.00000000000E+00  0.00000000000E+00 -0.14062257734E+04  0.14062257734E+04  0.50400001928E-02 0. -1.
    10030    2    1    2    0    0  0.00000000000E+00  0.00000000000E+00 -0.56709633429E+03  0.22453552125E+04  0.21725611103E+04 0.  0.
        4    1    3    3  502    0  0.94128409410E+02  0.44575981349E+03 -0.13027140517E+04  0.13800824186E+04  0.12699999809E+01 0. -1.
       -4    1    3    3    0  502 -0.94128409410E+02 -0.44575981349E+03  0.73561771742E+03  0.86527279390E+03  0.12699999809E+01 0.  1.
</event>
<event>
 5   0  0.7954459E-05  0.2206295E+04  0.7818609E-02  0.8515813E-01
        1   -1    0    0  501    0  0.00000000000E+00  0.00000000000E+00  0.15561167737E+04  0.15561167737E+04  0.50400001928E-02 0. -1.
       -1   -1    0    0    0  501  0.00000000000E+00  0.00000000000E+00 -0.78203254296E+03  0.78203254297E+03  0.50400001928E-02 0.  1.
    10030    2    1    2    0    0  0.00000000000E+00  0.00000000000E+00  0.77408423074E+03  0.23381493167E+04  0.22062945929E+04 0.  0.
        5    1    3    3  502    0 -0.88147194632E+02  0.49858433709E+03  0.14256939567E+04  0.15129380745E+04  0.46999998093E+01 0. -1.
       -5    1    3    3    0  502  0.88147194632E+02 -0.49858433709E+03 -0.65160972601E+03  0.82521124213E+03  0.46999998093E+01 0.  1.
</event>
<event>
 5   0  0.1798917E-04  0.2222661E+04  0.7818609E-02  0.8509055E-01
       -2   -1    0    0    0  501  0.00000000000E+00  0.00000000000E+00  0.10321172819E+04  0.10321172819E+04  0.25500000920E-02 0.  1.
        2   -1    0    0  501    0  0.00000000000E+00  0.00000000000E+00 -0.11966228914E+04  0.11966228914E+04  0.25500000920E-02 0. -1.
    10030    2    1    2    0    0  0.00000000000E+00  0.00000000000E+00 -0.16450560950E+03  0.22287401733E+04  0.22226607174E+04 0.  0.
        4    1    3    3  502    0  0.21380684644E+03 -0.74760782791E+03 -0.87841618101E+03  0.11731357261E+04  0.12699999809E+01 0. -1.
       -4    1    3    3    0  502 -0.21380684644E+03  0.74760782791E+03  0.71391057152E+03  0.10556044472E+04  0.12699999809E+01 0.  1.
</event>
<event>
 5   0  0.1754356E-04  0.2182769E+04  0.7818609E-02  0.8525635E-01
       -2   -1    0    0    0  501  0.00000000000E+00  0.00000000000E+00  0.77806422355E+03  0.77806422356E+03  0.25500000920E-02 0. -1.
        2   -1    0    0  501    0  0.00000000000E+00  0.00000000000E+00 -0.15308757640E+04  0.15308757640E+04  0.25500000920E-02 0.  1.
    10030    2    1    2    0    0  0.00000000000E+00  0.00000000000E+00 -0.75281154041E+03  0.23089399875E+04  0.21827685747E+04 0.  0.
        1    1    3    3  502    0 -0.44034851731E+02  0.51891979733E+02  0.77581737309E+03  0.77879679130E+03  0.50400001928E-02 0. -1.
       -1    1    3    3    0  502  0.44034851731E+02 -0.51891979733E+02 -0.15286289135E+04  0.15301431962E+04  0.50400001928E-02 0.  1.
</event>
<event>
 5   0  0.1805501E-04  0.2127234E+04  0.7818609E-02  0.8549341E-01
        2   -1    0    0  501    0  0.00000000000E+00  0.00000000000E+00  0.15791680870E+04  0.15791680870E+04  0.25500000920E-02 0. -1.
       -2   -1    0    0    0  501  0.00000000000E+00  0.00000000000E+00 -0.71637771413E+03  0.71637771414E+03  0.25500000920E-02 0.  1.
    10030    2    1    2    0    0  0.00000000000E+00  0.00000000000E+00  0.86279037288E+03  0.22955458011E+04  0.21272337196E+04 0.  0.
        2    1    3    3  502    0  0.13559702458E+03 -0.10483740510E+04  0.30459888513E+03  0.11001159869E+04  0.25500000920E-02 0. -1.
       -2    1    3    3    0  502 -0.13559702458E+03  0.10483740510E+04  0.55819148775E+03  0.11954298142E+04  0.25500000920E-02 0.  1.
</event>
<event>
 5   0  0.1680258E-04  0.2142803E+04  0.7818609E-02  0.8542619E-01
       -2   -1    0    0    0  501  0.00000000000E+00  0.00000000000E+00  0.10443746793E+04  0.10443746793E+04  0.25500000920E-02 0.  1.
        2   -1    0    0  501    0  0.00000000000E+00  0.00000000000E+00 -0.10991273547E+04  0.10991273547E+04  0.25500000920E-02 0. -1.
    10030    2    1    2    0    0  0.00000000000E+00  0.00000000000E+00 -0.54752675436E+02  0.21435020340E+04  0.21428026307E+04 0.  0.
        5    1    3    3  502    0  0.51476141773E+03 -0.26898570643E+03 -0.92797350972E+03  0.10947554760E+04  0.46999998093E+01 0. -1.
       -5    1    3    3    0  502 -0.51476141773E+03  0.26898570643E+03  0.87322083428E+03  0.10487465580E+04  0.46999998093E+01 0.  1.
</event>
<event>
 5   0  0.1805501E-04  0.2066906E+04  0.7818609E-02  0.8575963E-01
       -2   -1    0    0    0  501  0.00000000000E+00  0.00000000000E+00  0.12410832827E+04  0.12410832827E+04  0.25500000920E-02 0.  1.
        2   -1    0    0  501    0  0.00000000000E+00  0.00000000000E+00 -0.86055860384E+03  0.86055860384E+03  0.25500000920E-02 0. -1.
    10030    2    1    2    0    0  0.00000000000E+00  0.00000000000E+00  0.38052467891E+03  0.21016418866E+04  0.20669058005E+04 0.  0.
        2    1    3    3  502    0  0.28000877552E+03 -0.25784837010E+03 -0.78668341990E+03  0.87393449382E+03  0.25500000920E-02 0. -1.
       -2    1    3    3    0  502 -0.28000877552E+03  0.25784837010E+03  0.11672080988E+04  0.12277073928E+04  0.25500000920E-02 0.  1.
</event>
<event>
 5   0  0.8602414E-05  0.2204594E+04  0.7818609E-02  0.8516518E-01
        1   -1    0    0  501    0  0.00000000000E+00  0.00000000000E+00  0.10776589045E+04  0.10776589045E+04  0.50400001928E-02 0.  1.
       -1   -1    0    0    0  501  0.00000000000E+00  0.00000000000E+00 -0.11274986822E+04  0.11274986822E+04  0.50400001928E-02 0. -1.
    10030    2    1    2    0    0  0.00000000000E+00  0.00000000000E+00 -0.49839777661E+02  0.22051575867E+04  0.22045942889E+04 0.  0.
        3    1    3    3  502    0 -0.95984790563E+03 -0.29154201806E+03 -0.48193293662E+03  0.11129079548E+04  0.10100000352E+00 0. -1.
       -3    1    3    3    0  502  0.95984790563E+03  0.29154201806E+03  0.43209315896E+03  0.10922496319E+04  0.10100000352E+00 0.  1.
</event>
<event>
 5   0  0.1754356E-04  0.1774490E+04  0.7818609E-02  0.8719984E-01
       -2   -1    0    0    0  501  0.00000000000E+00  0.00000000000E+00  0.46253249320E+03  0.46253249320E+03  0.25500000920E-02 0. -1.
        2   -1    0    0  501    0  0.00000000000E+00  0.00000000000E+00 -0.17019432853E+04  0.17019432853E+04  0.25500000920E-02 0.  1.
    10030    2    1    2    0    0  0.00000000000E+00  0.00000000000E+00 -0.12394107921E+04  0.21644757785E+04  0.17744904295E+04 0.  0.
        1    1    3    3  502    0  0.31432698321E+03 -0.72763375278E+03 -0.11060137306E+04  0.13607052226E+04  0.50400001928E-02 0.  1.
       -1    1    3    3    0  502 -0.31432698321E+03  0.72763375278E+03 -0.13339706157E+03  0.80377055595E+03  0.50400001928E-02 0. -1.
</event>
<event>
 5   0  0.8470971E-05  0.1316809E+04  0.7818609E-02  0.9016341E-01
        1   -1    0    0  501    0  0.00000000000E+00  0.00000000000E+00  0.24713098925E+04  0.24713098925E+04  0.50400001928E-02 0. -1.
       -1   -1    0    0    0  501  0.00000000000E+00  0.00000000000E+00 -0.17541167337E+03  0.17541167344E+03  0.50400001928E-02 0.  1.
    10030    2    1    2    0    0  0.00000000000E+00  0.00000000000E+00  0.22958982191E+04  0.26467215659E+04  0.13168091794E+04 0.  0.
        2    1    3    3  502    0 -0.64478683230E+03  0.67598810310E+02  0.91722510263E+03  0.11232192783E+04  0.25500000920E-02 0.  1.
       -2    1    3    3    0  502  0.64478683230E+03 -0.67598810310E+02  0.13786731165E+04  0.15235022876E+04  0.25500000920E-02 0. -1.
</event>
<event>
 5   0  0.8784659E-05  0.2212812E+04  0.7818609E-02  0.8513114E-01
       -1   -1    0    0    0  501  0.00000000000E+00  0.00000000000E+00  0.64235142908E+03  0.64235142910E+03  0.50400001928E-02 0. -1.
        1   -1    0    0  501    0  0.00000000000E+00  0.00000000000E+00 -0.19057082486E+04  0.19057082486E+04  0.50400001928E-02 0.  1.
    10030    2    1    2    0    0  0.00000000000E+00  0.00000000000E+00 -0.12633568196E+04  0.25480596777E+04  0.22128121628E+04 0.  0.
        4    1    3    3  502    0  0.54351394918E+03 -0.15665497047E+02  0.47788293475E+03  0.72389676955E+03  0.12699999809E+01 0. -1.
       -4    1    3    3    0  502 -0.54351394918E+03  0.15665497047E+02 -0.17412397543E+04  0.18241629082E+04  0.12699999809E+01 0.  1.
</event>
<event>
 5   0  0.1733962E-04  0.2031304E+04  0.7818609E-02  0.8592123E-01
       -2   -1    0    0    0  501  0.00000000000E+00  0.00000000000E+00  0.79075495001E+03  0.79075495002E+03  0.25500000920E-02 0.  1.
        2   -1    0    0  501    0  0.00000000000E+00  0.00000000000E+00 -0.13045111450E+04  0.13045111450E+04  0.25500000920E-02 0. -1.
    10030    2    1    2    0    0  0.00000000000E+00  0.00000000000E+00 -0.51375619503E+03  0.20952660951E+04  0.20313036654E+04 0.  0.
        3    1    3    3  502    0  0.89076241842E+03 -0.74401954800E+02 -0.75430291853E+03  0.11696008892E+04  0.10100000352E+00 0.  1.
       -3    1    3    3    0  502 -0.89076241842E+03  0.74401954800E+02  0.24054672350E+03  0.92566520585E+03  0.10100000352E+00 0. -1.
</event>
<event>
 5   0  0.1680258E-04  0.2186156E+04  0.7818609E-02  0.8524212E-01
       -2   -1    0    0    0  501  0.00000000000E+00  0.00000000000E+00  0.12530738883E+04  0.12530738883E+04  0.25500000920E-02 0.  1.
        2   -1    0    0  501    0  0.00000000000E+00  0.00000000000E+00 -0.95351107926E+03  0.95351107927E+03  0.25500000920E-02 0. -1.
    10030    2    1    2    0    0  0.00000000000E+00  0.00000000000E+00  0.29956280905E+03  0.22065849676E+04  0.21861562942E+04 0.  0.
        5    1    3    3  502    0 -0.95588066242E+03 -0.19064388613E+03 -0.34955841074E+03  0.10355028270E+04  0.46999998093E+01 0. -1.
       -5    1    3    3    0  502  0.95588066242E+03  0.19064388613E+03  0.64912121979E+03  0.11710821406E+04  0.46999998093E+01 0.  1.
</event>
<event>
 5   0  0.1680258E-04  0.2200255E+04  0.7818609E-02  0.8518322E-01
       -2   -1    0    0    0  501  0.00000000000E+00  0.00000000000E+00  0.60555538060E+03  0.60555538061E+03  0.25500000920E-02 0.  1.
        2   -1    0    0  501    0  0.00000000000E+00  0.00000000000E+00 -0.19986281758E+04  0.19986281758E+04  0.25500000920E-02 0. -1.
    10030    2    1    2    0    0  0.00000000000E+00  0.00000000000E+00 -0.13930727952E+04  0.26041835564E+04  0.22002545723E+04 0.  0.
        5    1    3    3  502    0 -0.93956416387E+03 -0.30261197927E+03 -0.12714009233E+04  0.16096077864E+04  0.46999998093E+01 0. -1.
       -5    1    3    3    0  502  0.93956416387E+03  0.30261197927E+03 -0.12167187189E+03  0.99457577009E+03  0.46999998093E+01 0.  1.
</event>
<event>
 5   0  0.1754356E-04  0.2209081E+04  0.7818609E-02  0.8514658E-01
        2   -1    0    0  501    0  0.00000000000E+00  0.00000000000E+00  0.10243226649E+04  0.10243226649E+04  0.25500000920E-02 0.  1.
       -2   -1    0    0    0  501  0.00000000000E+00  0.00000000000E+00 -0.11910408983E+04  0.11910408983E+04  0.25500000920E-02 0. -1.
    10030    2    1    2    0    0  0.00000000000E+00  0.00000000000E+00 -0.16671823344E+03  0.22153635632E+04  0.22090814263E+04 0.  0.
        1    1    3    3  502    0  0.43844955953E+03  0.16387147447E+03  0.91994501654E+03  0.10321776542E+04  0.50400001928E-02 0.  1.
       -1    1    3    3    0  502 -0.43844955953E+03 -0.16387147447E+03 -0.10866632500E+04  0.11831859090E+04  0.50400001928E-02 0. -1.
</event>
<event>
 5   0  0.8784659E-05  0.1800983E+04  0.7818609E-02  0.8705777E-01
        1   -1    0    0  501    0  0.00000000000E+00  0.00000000000E+00  0.14928542646E+04  0.14928542646E+04  0.50400001928E-02 0. -1.
       -1   -1    0    0    0  501  0.00000000000E+00  0.00000000000E+00 -0.54317775627E+03  0.54317775630E+03  0.50400001928E-02 0.  1.
    10030    2    1    2    0    0  0.00000000000E+00  0.00000000000E+00  0.94967650833E+03  0.20360320209E+04  0.18009833202E+04 0.  0.
        4    1    3    3  502    0  0.48107003519E+02 -0.17188668759E+03  0.14726541440E+04  0.14834322222E+04  0.12699999809E+01 0. -1.
       -4    1    3    3    0  502 -0.48107003519E+02  0.17188668759E+03 -0.52297763569E+03  0.55259979867E+03  0.12699999809E+01 0.  1.
</event>
<event>
 5   0  0.6250625E-05  0.2047610E+04  0.7818609E-02  0.8584679E-01
        3   -1    0    0  501    0  0.00000000000E+00  0.00000000000E+00  0.87289217251E+03  0.87289217836E+03  0.10100000352E+00 0. -1.
       -3   -1    0    0    0  501  0.00000000000E+00  0.00000000000E+00 -0.12008093291E+04  0.12008093333E+04  0.10100000352E+00 0.  1.
    10030    2    1    2    0    0  0.00000000000E+00  0.00000000000E+00 -0.32791715654E+03  0.20737015117E+04  0.20476103872E+04 0.  0.
        1    1    3    3  502    0 -0.48948435124E+03 -0.29321807757E+02 -0.10741442140E+04  0.11807796115E+04  0.50400001928E-02 0.  1.
       -1    1    3    3    0  502  0.48948435124E+03  0.29321807757E+02  0.74622705742E+03  0.89292190015E+03  0.50400001928E-02 0. -1.
</event>
<event>
 5   0  0.1680258E-04  0.2168753E+04  0.7818609E-02  0.8531547E-01
        2   -1    0    0  501    0  0.00000000000E+00  0.00000000000E+00  0.16591677434E+04  0.16591677434E+04  0.25500000920E-02 0.  1.
       -2   -1    0    0    0  501  0.00000000000E+00  0.00000000000E+00 -0.70871221621E+03  0.70871221622E+03  0.25500000920E-02 0. -1.
    10030    2    1    2    0    0  0.00000000000E+00  0.00000000000E+00  0.95045552723E+03  0.23678799597E+04  0.21687530505E+04 0.  0.
        5    1    3    3  502    0  0.61841717904E+03  0.80873384829E+03  0.67642170058E+02  0.10203371001E+04  0.46999998093E+01 0. -1.
       -5    1    3    3    0  502 -0.61841717904E+03 -0.80873384829E+03  0.88281335717E+03  0.13475428595E+04  0.46999998093E+01 0.  1.
</event>
<event>
 5   0  0.1805501E-04  0.2223884E+04  0.7818609E-02  0.8508552E-01
       -2   -1    0    0    0  501  0.00000000000E+00  0.00000000000E+00  0.13476432664E+04  0.13476432664E+04  0.25500000920E-02 0. -1.
        2   -1    0    0  501    0  0.00000000000E+00  0.00000000000E+00 -0.91746437592E+03  0.91746437593E+03  0.25500000920E-02 0.  1.
    10030    2    1    2    0    0  0.00000000000E+00  0.00000000000E+00  0.43017889049E+03  0.22651076423E+04  0.22238837095E+04 0.  0.
        2    1    3    3  502    0  0.89522092310E+03 -0.10016564952E+03 -0.44888493883E+03  0.10064548409E+04  0.25500000920E-02 0.  1.
       -2    1    3    3    0  502 -0.89522092310E+03  0.10016564952E+03  0.87906382932E+03  0.12586528014E+04  0.25500000920E-02 0. -1.
</event>
<event>
 5   0  0.1733962E-04  0.2215794E+04  0.7818609E-02  0.8511883E-01
       -2   -1    0    0    0  501  0.00000000000E+00  0.00000000000E+00  0.67810701843E+03  0.67810701843E+03  0.25500000920E-02 0.  1.
        2   -1    0    0  501    0  0.00000000000E+00  0.00000000000E+00 -0.18100907489E+04  0.18100907489E+04  0.25500000920E-02 0. -1.
    10030    2    1    2    0    0  0.00000000000E+00  0.00000000000E+00 -0.11319837305E+04  0.24881977674E+04  0.22157935291E+04 0.  0.
        3    1    3    3  502    0 -0.29445312818E+03 -0.93657470185E+03 -0.11424870667E+04  0.15063703146E+04  0.10100000352E+00 0. -1.
       -3    1    3    3    0  502  0.29445312818E+03  0.93657470185E+03  0.10503336170E+02  0.98182745282E+03  0.10100000352E+00 0.  1.
</event>
<event>
 5   0  0.8306787E-05  0.1603445E+04  0.7818609E-02  0.8818434E-01
       -1   -1    0    0    0  501  0.00000000000E+00  0.00000000000E+00  0.78993359617E+03  0.78993359619E+03  0.50400001928E-02 0.  1.
        1   -1    0    0  501    0  0.00000000000E+00  0.00000000000E+00 -0.81368740922E+03  0.81368740923E+03  0.50400001928E-02 0. -1.
    10030    2    1    2    0    0  0.00000000000E+00  0.00000000000E+00 -0.23753813046E+02  0.16036210054E+04  0.16034450678E+04 0.  0.
        1    1    3    3  502    0  0.56399683077E+02 -0.46893799862E+03 -0.65977146054E+03  0.81140751226E+03  0.50400001928E-02 0. -1.
       -1    1    3    3    0  502 -0.56399683077E+02  0.46893799862E+03  0.63601764749E+03  0.79221349316E+03  0.50400001928E-02 0.  1.
</event>
<event>
 5   0  0.1733962E-04  0.2186371E+04  0.7818609E-02  0.8524122E-01
       -2   -1    0    0    0  501  0.00000000000E+00  0.00000000000E+00  0.11569592172E+04  0.11569592172E+04  0.25500000920E-02 0.  1.
        2   -1    0    0  501    0  0.00000000000E+00  0.00000000000E+00 -0.10329271026E+04  0.10329271026E+04  0.25500000920E-02 0. -1.
    10030    2    1    2    0    0  0.00000000000E+00  0.00000000000E+00  0.12403211453E+03  0.21898863198E+04  0.21863709951E+04 0.  0.
        3    1    3    3  502    0  0.27125982827E+03  0.18062752828E+03  0.11071717919E+04  0.11541393267E+04  0.10100000352E+00 0.  1.
       -3    1    3    3    0  502 -0.27125982827E+03 -0.18062752828E+03 -0.98313967735E+03  0.10357469931E+04  0.10100000352E+00 0. -1.
</event>
<event>
 5   0  0.1680258E-04  0.1717765E+04  0.7818609E-02  0.8751297E-01
       -2   -1    0    0    0  501  0.00000000000E+00  0.00000000000E+00  0.50568849327E+03  0.50568849328E+03  0.25500000920E-02 0.  1.
        2   -1    0    0  501    0  0.00000000000E+00  0.00000000000E+00 -0.14587615456E+04  0.14587615456E+04  0.25500000920E-02 0. -1.
    10030    2    1    2    0    0  0.00000000000E+00  0.00000000000E+00 -0.95307305235E+03  0.19644500389E+04  0.17177647430E+04 0.  0.
        5    1    3    3  502    0  0.14946810303E+03 -0.44928972308E+03  0.34292476126E+03  0.58465498456E+03  0.46999998093E+01 0.  1.
       -5    1    3    3    0  502 -0.14946810303E+03  0.44928972308E+03 -0.12959978136E+04  0.13797950543E+04  0.46999998093E+01 0. -1.
</event>
<event>
 5   0  0.8306787E-05  0.2177286E+04  0.7818609E-02  0.8527942E-01
        1   -1    0    0  501    0  0.00000000000E+00  0.00000000000E+00  0.10714791817E+04  0.10714791818E+04  0.50400001928E-02 0. -1.
       -1   -1    0    0    0  501  0.00000000000E+00  0.00000000000E+00 -0.11060814066E+04  0.11060814066E+04  0.50400001928E-02 0.  1.
    10030    2    1    2    0    0  0.00000000000E+00  0.00000000000E+00 -0.34602224815E+02  0.21775605883E+04  0.21772856500E+04 0.  0.
        1    1    3    3  502    0  0.10644321847E+03 -0.52698284601E+03  0.92944513017E+03  0.10737361542E+04  0.50400001928E-02 0. -1.
       -1    1    3    3    0  502 -0.10644321847E+03  0.52698284601E+03 -0.96404735498E+03  0.11038244341E+04  0.50400001928E-02 0.  1.
</event>
<event>
 5   0  0.8470971E-05  0.2124444E+04  0.7818609E-02  0.8550551E-01
        1   -1    0    0  501    0  0.00000000000E+00  0.00000000000E+00  0.22384995067E+04  0.22384995067E+04  0.50400001928E-02 0.  1.
       -1   -1    0    0    0  501  0.00000000000E+00  0.00000000000E+00 -0.50405003673E+03  0.50405003675E+03  0.50400001928E-02 0. -1.
    10030    2    1    2    0    0  0.00000000000E+00  0.00000000000E+00  0.17344494700E+04  0.27425495435E+04  0.21244441707E+04 0.  0.
        2    1    3    3  502    0 -0.53031365158E+01 -0.10620979295E+04  0.84740862039E+03  0.13587426191E+04  0.25500000920E-02 0. -1.
       -2    1    3    3    0  502  0.53031365158E+01  0.10620979295E+04  0.88704084960E+03  0.13838069244E+04  0.25500000920E-02 0.  1.
</event>
<event>
 5   0  0.1798917E-04  0.2071906E+04  0.7818609E-02  0.8573721E-01
        2   -1    0    0  501    0  0.00000000000E+00  0.00000000000E+00  0.61304023898E+03  0.61304023899E+03  0.25500000920E-02 0.  1.
       -2   -1    0    0    0  501  0.00000000000E+00  0.00000000000E+00 -0.17506163327E+04  0.17506163327E+04  0.25500000920E-02 0. -1.
    10030    2    1    2    0    0  0.00000000000E+00  0.00000000000E+00 -0.11375760938E+04  0.23636565717E+04  0.20719056494E+04 0.  0.
        4    1    3    3  502    0 -0.43588575691E+03 -0.92741902551E+03 -0.39542127451E+03  0.10983906587E+04  0.12699999809E+01 0.  1.
       -4    1    3    3    0  502  0.43588575691E+03  0.92741902551E+03 -0.74215481925E+03  0.12652659130E+04  0.12699999809E+01 0. -1.
</event>
<event>
 5   0  0.1798917E-04  0.2187596E+04  0.7818609E-02  0.8523609E-01
       -2   -1    0    0    0  501  0.00000000000E+00  0.00000000000E+00  0.77486779537E+03  0.77486779537E+03  0.25500000920E-02 0.  1.
        2   -1    0    0  501    0  0.00000000000E+00  0.00000000000E+00 -0.15439976406E+04  0.15439976406E+04  0.25500000920E-02 0. -1.
    10030    2    1    2    0    0  0.00000000000E+00  0.00000000000E+00 -0.76912984527E+03  0.23188654360E+04  0.21875959845E+04 0.  0.
        4    1    3    3  502    0 -0.52422667105E+03  0.83726118814E+03  0.11326861115E+03  0.99430945434E+03  0.12699999809E+01 0.  1.
       -4    1    3    3    0  502  0.52422667105E+03 -0.83726118814E+03 -0.88239845642E+03  0.13245559817E+04  0.12699999809E+01 0. -1.
</event>
<event>
 5   0  0.1805501E-04  0.2230387E+04  0.7818609E-02  0.8505886E-01
        2   -1    0    0  501    0  0.00000000000E+00  0.00000000000E+00  0.12104771268E+04  0.12104771268E+04  0.25500000920E-02 0.  1.
       -2   -1    0    0    0  501  0.00000000000E+00  0.00000000000E+00 -0.10274102481E+04  0.10274102481E+04  0.25500000920E-02 0. -1.
    10030    2    1    2    0    0  0.00000000000E+00  0.00000000000E+00  0.18306687871E+03  0.22378873749E+04  0.22303870563E+04 0.  0.
        2    1    3    3  502    0  0.18975035523E+02  0.54544518912E+03 -0.88425226985E+03  0.10391210627E+04  0.25500000920E-02 0. -1.
       -2    1    3    3    0  502 -0.18975035523E+02 -0.54544518912E+03  0.10673191486E+04  0.11987663122E+04  0.25500000920E-02 0.  1.
</event>
<event>
 5   0  0.1754356E-04  0.1689900E+04  0.7818609E-02  0.8767146E-01
        2   -1    0    0  501    0  0.00000000000E+00  0.00000000000E+00  0.18954467291E+04  0.18954467291E+04  0.25500000920E-02 0.  1.
       -2   -1    0    0    0  501  0.00000000000E+00  0.00000000000E+00 -0.37666066016E+03  0.37666066017E+03  0.25500000920E-02 0. -1.
    10030    2    1    2    0    0  0.00000000000E+00  0.00000000000E+00  0.15187860690E+04  0.22721073893E+04  0.16898996613E+04 0.  0.
        1    1    3    3  502    0  0.83417395199E+03  0.13155002265E+03  0.72163552161E+03  0.11108147536E+04  0.50400001928E-02 0.  1.
       -1    1    3    3    0  502 -0.83417395199E+03 -0.13155002265E+03  0.79715054736E+03  0.11612926357E+04  0.50400001928E-02 0. -1.
</event>
<event>
 5   0  0.1798917E-04  0.1540402E+04  0.7818609E-02  0.8858022E-01
       -2   -1    0    0    0  501  0.00000000000E+00  0.00000000000E+00  0.41935115235E+03  0.41935115236E+03  0.25500000920E-02 0.  1.
        2   -1    0    0  501    0  0.00000000000E+00  0.00000000000E+00 -0.14145893559E+04  0.14145893559E+04  0.25500000920E-02 0. -1.
    10030    2    1    2    0    0  0.00000000000E+00  0.00000000000E+00 -0.99523820356E+03  0.18339405083E+04  0.15404021248E+04 0.  0.
        4    1    3    3  502    0 -0.40068550546E+03 -0.59110203651E+03 -0.15409041867E+03  0.73054497594E+03  0.12699999809E+01 0.  1.
       -4    1    3    3    0  502  0.40068550546E+03  0.59110203651E+03 -0.84114778488E+03  0.11033955323E+04  0.12699999809E+01 0. -1.
</event>
<event>
 5   0  0.1733962E-04  0.2352047E+04  0.7818609E-02  0.8457678E-01
       -2   -1    0    0    0  501  0.00000000000E+00  0.00000000000E+00  0.10437878964E+04  0.10437878964E+04  0.25500000920E-02 0.  1.
        2   -1    0    0  501    0  0.00000000000E+00  0.00000000000E+00 -0.13250113425E+04  0.13250113425E+04  0.25500000920E-02 0. -1.
    10030    2    1    2    0    0  0.00000000000E+00  0.00000000000E+00 -0.28122344609E+03  0.23687992390E+04  0.23520465998E+04 0.  0.
        3    1    3    3  502    0  0.76762824920E+03  0.82705307027E+03  0.19304979896E+03  0.11447873799E+04  0.10100000352E+00 0.  1.
       -3    1    3    3    0  502 -0.76762824920E+03 -0.82705307027E+03 -0.47427324506E+03  0.12240118591E+04  0.10100000352E+00 0. -1.
</event>
<event>
 5   0  0.8602414E-05  0.2157342E+04  0.7818609E-02  0.8536396E-01
       -1   -1    0    0    0  501  0.00000000000E+00  0.00000000000E+00  0.45078102161E+03  0.45078102164E+03  0.50400001928E-02 0. -1.
        1   -1    0    0  501    0  0.00000000000E+00  0.00000000000E+00 -0.25811442626E+04  0.25811442626E+04  0.50400001928E-02 0.  1.
    10030    2    1    2    0    0  0.00000000000E+00  0.00000000000E+00 -0.21303632410E+04  0.30319252842E+04  0.21573417418E+04 0.  0.
        3    1    3    3  502    0  0.47763892040E+03 -0.66372088037E+03 -0.20538339007E+04  0.22106329517E+04  0.10100000352E+00 0.  1.
       -3    1    3    3    0  502 -0.47763892040E+03  0.66372088037E+03 -0.76529340260E+02  0.82129233251E+03  0.10100000352E+00 0. -1.
</event>
<event>
 5   0  0.8602414E-05  0.1972351E+04  0.7818609E-02  0.8619658E-01
        1   -1    0    0  501    0  0.00000000000E+00  0.00000000000E+00  0.23213996201E+04  0.23213996201E+04  0.50400001928E-02 0.  1.
       -1   -1    0    0    0  501  0.00000000000E+00  0.00000000000E+00 -0.41894639384E+03  0.41894639387E+03  0.50400001928E-02 0. -1.
    10030    2    1    2    0    0  0.00000000000E+00  0.00000000000E+00  0.19024532262E+04  0.27403460139E+04  0.19723508811E+04 0.  0.
        3    1    3    3  502    0 -0.26557059374E+03  0.55930957892E+03  0.20176945889E+04  0.21105559480E+04  0.10100000352E+00 0.  1.
       -3    1    3    3    0  502  0.26557059374E+03 -0.55930957892E+03 -0.11524136264E+03  0.62979006597E+03  0.10100000352E+00 0. -1.
</event>
<event>
 5   0  0.8784659E-05  0.2184347E+04  0.7818609E-02  0.8524972E-01
        1   -1    0    0  501    0  0.00000000000E+00  0.00000000000E+00  0.14463648166E+04  0.14463648166E+04  0.50400001928E-02 0. -1.
       -1   -1    0    0    0  501  0.00000000000E+00  0.00000000000E+00 -0.82471757707E+03  0.82471757708E+03  0.50400001928E-02 0.  1.
    10030    2    1    2    0    0  0.00000000000E+00  0.00000000000E+00  0.62164723953E+03  0.22710823937E+04  0.21843465724E+04 0.  0.
        4    1    3    3  502    0 -0.28977903290E+03  0.10399225161E+04  0.48302055236E+03  0.11826754391E+04  0.12699999809E+01 0. -1.
       -4    1    3    3    0  502  0.28977903290E+03 -0.10399225161E+04  0.13862668717E+03  0.10884069546E+04  0.12699999809E+01 0.  1.
</event>
<event>
 5   0  0.8306787E-05  0.2140907E+04  0.7818609E-02  0.8543435E-01
        1   -1    0    0  501    0  0.00000000000E+00  0.00000000000E+00  0.15551703079E+04  0.15551703079E+04  0.50400001928E-02 0. -1.
       -1   -1    0    0    0  501  0.00000000000E+00  0.00000000000E+00 -0.73681339643E+03  0.73681339644E+03  0.50400001928E-02 0.  1.
    10030    2    1    2    0    0  0.00000000000E+00  0.00000000000E+00  0.81835691145E+03  0.22919837043E+04  0.21409066459E+04 0.  0.
        1    1    3    3  502    0 -0.96503286057E+03 -0.32919834502E+03  0.75807543020E+03  0.12705661456E+04  0.50400001928E-02 0. -1.
       -1    1    3    3    0  502  0.96503286057E+03  0.32919834502E+03  0.60281481251E+02  0.10214175588E+04  0.50400001928E-02 0.  1.
</event>
<event>
 5   0  0.1754356E-04  0.1980151E+04  0.7818609E-02  0.8615957E-01
       -2   -1    0    0    0  501  0.00000000000E+00  0.00000000000E+00  0.72600859232E+03  0.72600859233E+03  0.25500000920E-02 0.  1.
        2   -1    0    0  501    0  0.00000000000E+00  0.00000000000E+00 -0.13501898171E+04  0.13501898171E+04  0.25500000920E-02 0. -1.
    10030    2    1    2    0    0  0.00000000000E+00  0.00000000000E+00 -0.62418122481E+03  0.20761984095E+04  0.19801509119E+04 0.  0.
        1    1    3    3  502    0  0.50280000789E+03 -0.21691778029E+03 -0.11769568872E+04  0.12981096586E+04  0.50400001928E-02 0. -1.
       -1    1    3    3    0  502 -0.50280000789E+03  0.21691778029E+03  0.55277566237E+03  0.77808875090E+03  0.50400001928E-02 0.  1.
</event>
<event>
 5   0  0.1798917E-04  0.1307967E+04  0.7818609E-02  0.9023271E-01
        2   -1    0    0  501    0  0.00000000000E+00  0.00000000000E+00  0.14167447644E+04  0.14167447644E+04  0.25500000920E-02 0.  1.
       -2   -1    0    0    0  501  0.00000000000E+00  0.00000000000E+00 -0.30188510315E+03  0.30188510316E+03  0.25500000920E-02 0. -1.
    10030    2    1    2    0    0  0.00000000000E+00  0.00000000000E+00  0.11148596612E+04  0.17186298675E+04  0.13079665735E+04 0.  0.
        4    1    3    3  502    0  0.13965245609E+03 -0.39127600850E+03  0.12210732813E+04  0.12898144419E+04  0.12699999809E+01 0.  1.
       -4    1    3    3    0  502 -0.13965245609E+03  0.39127600850E+03 -0.10621362004E+03  0.42881542568E+03  0.12699999809E+01 0. -1.
</event>
<event>
 5   0  0.1805501E-04  0.2213344E+04  0.7818609E-02  0.8512894E-01
       -2   -1    0    0    0  501  0.00000000000E+00  0.00000000000E+00  0.91561578597E+03  0.91561578597E+03  0.25500000920E-02 0.  1.
        2   -1    0    0  501    0  0.00000000000E+00  0.00000000000E+00 -0.13375951999E+04  0.13375951999E+04  0.25500000920E-02 0. -1.
    10030    2    1    2    0    0  0.00000000000E+00  0.00000000000E+00 -0.42197941390E+03  0.22532109858E+04  0.22133443295E+04 0.  0.
        2    1    3    3  502    0 -0.88383418394E+03 -0.10125132013E+03  0.45912866534E+03  0.10011063010E+04  0.25500000920E-02 0.  1.
       -2    1    3    3    0  502  0.88383418394E+03  0.10125132013E+03 -0.88110807924E+03  0.12521046849E+04  0.25500000920E-02 0. -1.
</event>
<event>
 5   0  0.6250625E-05  0.2097617E+04  0.7818609E-02  0.8562294E-01
        3   -1    0    0  501    0  0.00000000000E+00  0.00000000000E+00  0.20699676226E+04  0.20699676251E+04  0.10100000352E+00 0.  1.
       -3   -1    0    0    0  501  0.00000000000E+00  0.00000000000E+00 -0.53140876547E+03  0.53140877507E+03  0.10100000352E+00 0. -1.
    10030    2    1    2    0    0  0.00000000000E+00  0.00000000000E+00  0.15385588571E+04  0.26013764001E+04  0.20976166996E+04 0.  0.
        2    1    3    3  502    0  0.10189970663E+04 -0.54782836505E+02  0.46895938517E+03  0.11230668214E+04  0.25500000920E-02 0. -1.
       -2    1    3    3    0  502 -0.10189970663E+04  0.54782836505E+02  0.10695994720E+04  0.14783095788E+04  0.25500000920E-02 0.  1.
</event>
<event>
 5   0  0.8602414E-05  0.1970793E+04  0.7818609E-02  0.8620399E-01
        1   -1    0    0  501    0  0.00000000000E+00  0.00000000000E+00  0.12790842477E+04  0.12790842478E+04  0.50400001928E-02 0.  1.
       -1   -1    0    0    0  501  0.00000000000E+00  0.00000000000E+00 -0.75914162105E+03  0.75914162106E+03  0.50400001928E-02 0. -1.
    10030    2    1    2    0    0  0.00000000000E+00  0.00000000000E+00  0.51994262669E+03  0.20382258688E+04  0.19707928245E+04 0.  0.
        3    1    3    3  502    0 -0.88302394154E+03  0.26861808064E+03 -0.96974328143E+02  0.92805764105E+03  0.10100000352E+00 0.  1.
       -3    1    3    3    0  502  0.88302394154E+03 -0.26861808064E+03  0.61691695484E+03  0.11101682278E+04  0.10100000352E+00 0. -1.
</event>
<event>
 5   0  0.1754356E-04  0.2217856E+04  0.7818609E-02  0.8511033E-01
        2   -1    0    0  501    0  0.00000000000E+00  0.00000000000E+00  0.12683565238E+04  0.12683565238E+04  0.25500000920E-02 0. -1.
       -2   -1    0    0    0  501  0.00000000000E+00  0.00000000000E+00 -0.96953886530E+03  0.96953886530E+03  0.25500000920E-02 0.  1.
    10030    2    1    2    0    0  0.00000000000E+00  0.00000000000E+00  0.29881765851E+03  0.22378953891E+04  0.22178556715E+04 0.  0.
        1    1    3    3  502    0  0.89531163284E+03  0.39819528572E+03  0.67330974641E+03  0.11889021911E+04  0.50400001928E-02 0. -1.
       -1    1    3    3    0  502 -0.89531163284E+03 -0.39819528572E+03 -0.37449208790E+03  0.10489931980E+04  0.50400001928E-02 0.  1.
</event>
<event>
 5   0  0.8784659E-05  0.2178540E+04  0.7818609E-02  0.8527414E-01
        1   -1    0    0  501    0  0.00000000000E+00  0.00000000000E+00  0.18816216954E+04  0.18816216954E+04  0.50400001928E-02 0. -1.
       -1   -1    0    0    0  501  0.00000000000E+00  0.00000000000E+00 -0.63057795488E+03  0.63057795490E+03  0.50400001928E-02 0.  1.
    10030    2    1    2    0    0  0.00000000000E+00  0.00000000000E+00  0.12510437405E+04  0.25121996503E+04  0.21785400254E+04 0.  0.
        4    1    3    3  502    0  0.92184307582E+02  0.94743245507E+03  0.14912922463E+02  0.95202427051E+03  0.12699999809E+01 0.  1.
       -4    1    3    3    0  502 -0.92184307582E+02 -0.94743245507E+03  0.12361308181E+04  0.15601753798E+04  0.12699999809E+01 0. -1.
</event>
<event>
 5   0  0.8602414E-05  0.2179445E+04  0.7818609E-02  0.8527032E-01
       -1   -1    0    0    0  501  0.00000000000E+00  0.00000000000E+00  0.91481838530E+03  0.91481838531E+03  0.50400001928E-02 0.  1.
        1   -1    0    0  501    0  0.00000000000E+00  0.00000000000E+00 -0.12980670379E+04  0.12980670379E+04  0.50400001928E-02 0. -1.
    10030    2    1    2    0    0  0.00000000000E+00  0.00000000000E+00 -0.38324865263E+03  0.22128854233E+04  0.21794454264E+04 0.  0.
        3    1    3    3  502    0  0.68813567528E+03 -0.48839764504E+03  0.50847138075E+03  0.98519344421E+03  0.10100000352E+00 0.  1.
       -3    1    3    3    0  502 -0.68813567528E+03  0.48839764504E+03 -0.89172003338E+03  0.12276919790E+04  0.10100000352E+00 0. -1.
</event>
<event>
 5   0  0.8306787E-05  0.1185361E+04  0.7818609E-02  0.9125768E-01
        1   -1    0    0  501    0  0.00000000000E+00  0.00000000000E+00  0.67671389208E+03  0.67671389210E+03  0.50400001928E-02 0.  1.
       -1   -1    0    0    0  501  0.00000000000E+00  0.00000000000E+00 -0.51908188371E+03  0.51908188373E+03  0.50400001928E-02 0. -1.
    10030    2    1    2    0    0  0.00000000000E+00  0.00000000000E+00  0.15763200837E+03  0.11957957758E+04  0.11853605727E+04 0.  0.
        1    1    3    3  502    0  0.57518645417E+03  0.12444406580E+03  0.78824232739E+01  0.58854729223E+03  0.50400001928E-02 0.  1.
       -1    1    3    3    0  502 -0.57518645417E+03 -0.12444406580E+03  0.14974958510E+03  0.60724848360E+03  0.50400001928E-02 0. -1.
</event>
<event>
 5   0  0.6250625E-05  0.2128179E+04  0.7818609E-02  0.8548931E-01
       -3   -1    0    0    0  501  0.00000000000E+00  0.00000000000E+00  0.79419753447E+03  0.79419754089E+03  0.10100000352E+00 0.  1.
        3   -1    0    0  501    0  0.00000000000E+00  0.00000000000E+00 -0.14256989555E+04  0.14256989591E+04  0.10100000352E+00 0. -1.
    10030    2    1    2    0    0  0.00000000000E+00  0.00000000000E+00 -0.63150142107E+03  0.22198965000E+04  0.21281791339E+04 0.  0.
        2    1    3    3  502    0 -0.21513033563E+02  0.60126648513E+03  0.59974259717E+03  0.84951479070E+03  0.25500000920E-02 0.  1.
       -2    1    3    3    0  502  0.21513033563E+02 -0.60126648513E+03 -0.12312440182E+04  0.13703817093E+04  0.25500000920E-02 0. -1.
</event>
<event>
 5   0  0.8602414E-05  0.2290911E+04  0.7818609E-02  0.8481513E-01
       -1   -1    0    0    0  501  0.00000000000E+00  0.00000000000E+00  0.96843028911E+03  0.96843028912E+03  0.50400001928E-02 0.  1.
        1   -1    0    0  501    0  0.00000000000E+00  0.00000000000E+00 -0.13548407204E+04  0.13548407204E+04  0.50400001928E-02 0. -1.
    10030    2    1    2    0    0  0.00000000000E+00  0.00000000000E+00 -0.38641043131E+03  0.23232710096E+04  0.22909114261E+04 0.  0.
        3    1    3    3  502    0 -0.91779563609E+03 -0.68348330410E+03 -0.24462170120E+03  0.11701871831E+04  0.10100000352E+00 0. -1.
       -3    1    3    3    0  502  0.91779563609E+03  0.68348330410E+03 -0.14178873012E+03  0.11530838264E+04  0.10100000352E+00 0.  1.
</event>
<event>
 5   0  0.1798917E-04  0.2184039E+04  0.7818609E-02  0.8525101E-01
        2   -1    0    0  501    0  0.00000000000E+00  0.00000000000E+00  0.24179837504E+04  0.24179837504E+04  0.25500000920E-02 0.  1.
       -2   -1    0    0    0  501  0.00000000000E+00  0.00000000000E+00 -0.49318226269E+03  0.49318226269E+03  0.25500000920E-02 0. -1.
    10030    2    1    2    0    0  0.00000000000E+00  0.00000000000E+00  0.19248014877E+04  0.29111660131E+04  0.21840390996E+04 0.  0.
        4    1    3    3  502    0 -0.16795220510E+03 -0.64128706486E+03 -0.19429171724E+03  0.69080237915E+03  0.12699999809E+01 0. -1.
       -4    1    3    3    0  502  0.16795220510E+03  0.64128706486E+03  0.21190932050E+04  0.22203636340E+04  0.12699999809E+01 0.  1.
</event>
<event>
 5   0  0.1754356E-04  0.2196506E+04  0.7818609E-02  0.8519884E-01
       -2   -1    0    0    0  501  0.00000000000E+00  0.00000000000E+00  0.61161014379E+03  0.61161014380E+03  0.25500000920E-02 0.  1.
        2   -1    0    0  501    0  0.00000000000E+00  0.00000000000E+00 -0.19721049002E+04  0.19721049002E+04  0.25500000920E-02 0. -1.
    10030    2    1    2    0    0  0.00000000000E+00  0.00000000000E+00 -0.13604947564E+04  0.25837150440E+04  0.21965057356E+04 0.  0.
        1    1    3    3  502    0  0.65926624099E+03 -0.69564607053E+03 -0.13110735167E+04  0.16240286937E+04  0.50400001928E-02 0. -1.
       -1    1    3    3    0  502 -0.65926624099E+03  0.69564607053E+03 -0.49421239764E+02  0.95968635028E+03  0.50400001928E-02 0.  1.
</event>
<event>
 5   0  0.8784659E-05  0.2160213E+04  0.7818609E-02  0.8535173E-01
       -1   -1    0    0    0  501  0.00000000000E+00  0.00000000000E+00  0.86443109062E+03  0.86443109064E+03  0.50400001928E-02 0.  1.
        1   -1    0    0  501    0  0.00000000000E+00  0.00000000000E+00 -0.13495930846E+04  0.13495930846E+04  0.50400001928E-02 0. -1.
    10030    2    1    2    0    0  0.00000000000E+00  0.00000000000E+00 -0.48516199399E+03  0.22140241753E+04  0.21602131580E+04 0.  0.
        4    1    3    3  502    0  0.38195102839E+03  0.89113153661E+03 -0.73049265882E+03  0.12139288040E+04  0.12699999809E+01 0. -1.
       -4    1    3    3    0  502 -0.38195102839E+03 -0.89113153661E+03  0.24533066484E+03  0.10000953713E+04  0.12699999809E+01 0.  1.
</event>
<event>
 5   0  0.1680258E-04  0.2125057E+04  0.7818609E-02  0.8550285E-01
       -2   -1    0    0    0  501  0.00000000000E+00  0.00000000000E+00  0.16849090209E+04  0.16849090209E+04  0.25500000920E-02 0.  1.
        2   -1    0    0  501    0  0.00000000000E+00  0.00000000000E+00 -0.67004640595E+03  0.67004640596E+03  0.25500000920E-02 0. -1.
    10030    2    1    2    0    0  0.00000000000E+00  0.00000000000E+00  0.10148626149E+04  0.23549554269E+04  0.21250573958E+04 0.  0.
        5    1    3    3  502    0 -0.60369485257E+03 -0.87159615878E+03  0.43051177663E+03  0.11443294188E+04  0.46999998093E+01 0. -1.
       -5    1    3    3    0  502  0.60369485257E+03  0.87159615878E+03  0.58435083831E+03  0.12106260080E+04  0.46999998093E+01 0.  1.
</event>
<event>
 5   0  0.8784659E-05  0.1880326E+04  0.7818609E-02  0.8664712E-01
        1   -1    0    0  501    0  0.00000000000E+00  0.00000000000E+00  0.11465724043E+04  0.11465724043E+04  0.50400001928E-02 0.  1.
       -1   -1    0    0    0  501  0.00000000000E+00  0.00000000000E+00 -0.77091193111E+03  0.77091193113E+03  0.50400001928E-02 0. -1.
    10030    2    1    2    0    0  0.00000000000E+00  0.00000000000E+00  0.37566047320E+03  0.19174843355E+04  0.18803258722E+04 0.  0.
        4    1    3    3  502    0 -0.62924937892E+02 -0.93781079198E+03  0.20960887397E+03  0.96300889005E+03  0.12699999809E+01 0. -1.
       -4    1    3    3    0  502  0.62924937892E+02  0.93781079198E+03  0.16605159923E+03  0.95447544540E+03  0.12699999809E+01 0.  1.
</event>
<event>
 5   0  0.8306787E-05  0.2186226E+04  0.7818609E-02  0.8524183E-01
       -1   -1    0    0    0  501  0.00000000000E+00  0.00000000000E+00  0.63696582242E+03  0.63696582244E+03  0.50400001928E-02 0. -1.
        1   -1    0    0  501    0  0.00000000000E+00  0.00000000000E+00 -0.18759178353E+04  0.18759178353E+04  0.50400001928E-02 0.  1.
    10030    2    1    2    0    0  0.00000000000E+00  0.00000000000E+00 -0.12389520129E+04  0.25128836578E+04  0.21862255573E+04 0.  0.
        1    1    3    3  502    0 -0.56803361587E+02 -0.34103872185E+03 -0.18114167354E+04  0.18441162168E+04  0.50400001928E-02 0.  1.
       -1    1    3    3    0  502  0.56803361587E+02  0.34103872185E+03  0.57246472246E+03  0.66876744103E+03  0.50400001928E-02 0. -1.
</event>
<event>
 5   0  0.8306787E-05  0.2155260E+04  0.7818609E-02  0.8537284E-01
       -1   -1    0    0    0  501  0.00000000000E+00  0.00000000000E+00  0.73163458239E+03  0.73163458240E+03  0.50400001928E-02 0.  1.
        1   -1    0    0  501    0  0.00000000000E+00  0.00000000000E+00 -0.15872496684E+04  0.15872496684E+04  0.50400001928E-02 0. -1.
    10030    2    1    2    0    0  0.00000000000E+00  0.00000000000E+00 -0.85561508600E+03  0.23188842508E+04  0.21552603075E+04 0.  0.
        1    1    3    3  502    0  0.52039637701E+03 -0.77430890110E+03 -0.10081257453E+04  0.13735662277E+04  0.50400001928E-02 0. -1.
       -1    1    3    3    0  502 -0.52039637701E+03  0.77430890110E+03  0.15251065931E+03  0.94531802308E+03  0.50400001928E-02 0.  1.
</event>
<event>
 5   0  0.8602414E-05  0.1758556E+04  0.7818609E-02  0.8728655E-01
        1   -1    0    0  501    0  0.00000000000E+00  0.00000000000E+00  0.96444103942E+03  0.96444103943E+03  0.50400001928E-02 0. -1.
       -1   -1    0    0    0  501  0.00000000000E+00  0.00000000000E+00 -0.80163548147E+03  0.80163548149E+03  0.50400001928E-02 0.  1.
    10030    2    1    2    0    0  0.00000000000E+00  0.00000000000E+00  0.16280555795E+03  0.17660765209E+04  0.17585564046E+04 0.  0.
        3    1    3    3  502    0  0.68820204969E+03  0.52306426487E+03  0.24306275579E+03  0.89794086656E+03  0.10100000352E+00 0. -1.
       -3    1    3    3    0  502 -0.68820204969E+03 -0.52306426487E+03 -0.80257197841E+02  0.86813565437E+03  0.10100000352E+00 0.  1.
</event>
<event>
 5   0  0.1680258E-04  0.2159731E+04  0.7818609E-02  0.8535378E-01
        2   -1    0    0  501    0  0.00000000000E+00  0.00000000000E+00  0.16429046062E+04  0.16429046062E+04  0.25500000920E-02 0. -1.
       -2   -1    0    0    0  501  0.00000000000E+00  0.00000000000E+00 -0.70978548751E+03  0.70978548751E+03  0.25500000920E-02 0.  1.
    10030    2    1    2    0    0  0.00000000000E+00  0.00000000000E+00  0.93311911870E+03  0.23526900937E+04  0.21597313230E+04 0.  0.
        5    1    3    3  502    0 -0.22467921119E+03 -0.37574229350E+03 -0.60876396634E+03  0.74985243600E+03  0.46999998093E+01 0.  1.
       -5    1    3    3    0  502  0.22467921119E+03  0.37574229350E+03  0.15418830850E+04  0.16028376577E+04  0.46999998093E+01 0. -1.
</event>
<event>
 5   0  0.1754356E-04  0.1310250E+04  0.7818609E-02  0.9021476E-01
       -2   -1    0    0    0  501  0.00000000000E+00  0.00000000000E+00  0.44893272063E+03  0.44893272064E+03  0.25500000920E-02 0. -1.
        2   -1    0    0  501    0  0.00000000000E+00  0.00000000000E+00 -0.95602070121E+03  0.95602070121E+03  0.25500000920E-02 0.  1.
    10030    2    1    2    0    0  0.00000000000E+00  0.00000000000E+00 -0.50708798058E+03  0.14049534219E+04  0.13102503187E+04 0.  0.
        1    1    3    3  502    0  0.77139792963E+02  0.45533268274E+02  0.44233522532E+03  0.45131394590E+03  0.50400001928E-02 0. -1.
       -1    1    3    3    0  502 -0.77139792963E+02 -0.45533268274E+02 -0.94942320590E+03  0.95363947596E+03  0.50400001928E-02 0.  1.
</event>
<event>
 5   0  0.8784659E-05  0.1372721E+04  0.7818609E-02  0.8973805E-01
       -1   -1    0    0    0  501  0.00000000000E+00  0.00000000000E+00  0.82848150165E+03  0.82848150166E+03  0.50400001928E-02 0. -1.
        1   -1    0    0  501    0  0.00000000000E+00  0.00000000000E+00 -0.56861925208E+03  0.56861925210E+03  0.50400001928E-02 0.  1.
    10030    2    1    2    0    0  0.00000000000E+00  0.00000000000E+00  0.25986224956E+03  0.13971007538E+04  0.13727207026E+04 0.  0.
        4    1    3    3  502    0  0.37316721422E+03 -0.35016884906E+02  0.71512915784E+03  0.80739784325E+03  0.12699999809E+01 0. -1.
       -4    1    3    3    0  502 -0.37316721422E+03  0.35016884906E+02 -0.45526690828E+03  0.58970291051E+03  0.12699999809E+01 0.  1.
</event>
<event>
 5   0  0.8602414E-05  0.1538946E+04  0.7818609E-02  0.8858960E-01
        1   -1    0    0  501    0  0.00000000000E+00  0.00000000000E+00  0.16167696323E+04  0.16167696323E+04  0.50400001928E-02 0.  1.
       -1   -1    0    0    0  501  0.00000000000E+00  0.00000000000E+00 -0.36621699495E+03  0.36621699499E+03  0.50400001928E-02 0. -1.
    10030    2    1    2    0    0  0.00000000000E+00  0.00000000000E+00  0.12505526374E+04  0.19829866273E+04  0.15389457643E+04 0.  0.
        3    1    3    3  502    0  0.22873394275E+03 -0.17637226081E+03 -0.29371448887E+03  0.41194004675E+03  0.10100000352E+00 0. -1.
       -3    1    3    3    0  502 -0.22873394275E+03  0.17637226081E+03  0.15442671262E+04  0.15710465806E+04  0.10100000352E+00 0.  1.
</event>
<event>
 5   0  0.1680258E-04  0.2213171E+04  0.7818609E-02  0.8512966E-01
        2   -1    0    0  501    0  0.00000000000E+00  0.00000000000E+00  0.11480840319E+04  0.11480840319E+04  0.25500000920E-02 0. -1.
       -2   -1    0    0    0  501  0.00000000000E+00  0.00000000000E+00 -0.10665867211E+04  0.10665867211E+04  0.25500000920E-02 0.  1.
    10030    2    1    2    0    0  0.00000000000E+00  0.00000000000E+00  0.81497310841E+02  0.22146707530E+04  0.22131707418E+04 0.  0.
        5    1    3    3  502    0 -0.12881591729E+03 -0.56685027819E+03  0.98297927001E+03  0.11420083685E+04  0.46999998093E+01 0. -1.
       -5    1    3    3    0  502  0.12881591729E+03  0.56685027819E+03 -0.90148195917E+03  0.10726623845E+04  0.46999998093E+01 0.  1.
</event>
<event>
 5   0  0.7954459E-05  0.2160882E+04  0.7818609E-02  0.8534889E-01
        1   -1    0    0  501    0  0.00000000000E+00  0.00000000000E+00  0.93394944459E+03  0.93394944460E+03  0.50400001928E-02 0.  1.
       -1   -1    0    0    0  501  0.00000000000E+00  0.00000000000E+00 -0.12499100903E+04  0.12499100903E+04  0.50400001928E-02 0. -1.
    10030    2    1    2    0    0  0.00000000000E+00  0.00000000000E+00 -0.31596064568E+03  0.21838595349E+04  0.21608820742E+04 0.  0.
        5    1    3    3  502    0  0.24266079699E+03  0.19086093311E+03 -0.12043732417E+04  0.12433218222E+04  0.46999998093E+01 0. -1.
       -5    1    3    3    0  502 -0.24266079699E+03 -0.19086093311E+03  0.88841259604E+03  0.94053771269E+03  0.46999998093E+01 0.  1.
</event>
<event>
 5   0  0.8602414E-05  0.1896160E+04  0.7818609E-02  0.8656770E-01
       -1   -1    0    0    0  501  0.00000000000E+00  0.00000000000E+00  0.15125062859E+04  0.15125062859E+04  0.50400001928E-02 0. -1.
        1   -1    0    0  501    0  0.00000000000E+00  0.00000000000E+00 -0.59428243215E+03  0.59428243217E+03  0.50400001928E-02 0.  1.
    10030    2    1    2    0    0  0.00000000000E+00  0.00000000000E+00  0.91822385375E+03  0.21067887181E+04  0.18961602403E+04 0.  0.
        3    1    3    3  502    0  0.75462987358E+03 -0.51991683176E+03  0.72916680454E+03  0.11710952127E+04  0.10100000352E+00 0. -1.
       -3    1    3    3    0  502 -0.75462987358E+03  0.51991683176E+03  0.18905704921E+03  0.93569350543E+03  0.10100000352E+00 0.  1.
</event>
<event>
 5   0  0.1798917E-04  0.2443028E+04  0.7818609E-02  0.8423568E-01
        2   -1    0    0  501    0  0.00000000000E+00  0.00000000000E+00  0.86871153829E+03  0.86871153830E+03  0.25500000920E-02 0. -1.
       -2   -1    0    0    0  501  0.00000000000E+00  0.00000000000E+00 -0.17175971365E+04  0.17175971365E+04  0.25500000920E-02 0.  1.
    10030    2    1    2    0    0  0.00000000000E+00  0.00000000000E+00 -0.84888559822E+03  0.25863086748E+04  0.24430279987E+04 0.  0.
        4    1    3    3  502    0 -0.86909659916E+03  0.16894787947E+03  0.46647326236E+03  0.10007353307E+04  0.12699999809E+01 0. -1.
       -4    1    3    3    0  502  0.86909659916E+03 -0.16894787947E+03 -0.13153588606E+04  0.15855733441E+04  0.12699999809E+01 0.  1.
</event>
<event>
 5   0  0.1805501E-04  0.2196277E+04  0.7818609E-02  0.8519979E-01
        2   -1    0    0  501    0  0.00000000000E+00  0.00000000000E+00  0.21785439918E+04  0.21785439918E+04  0.25500000920E-02 0. -1.
       -2   -1    0    0    0  501  0.00000000000E+00  0.00000000000E+00 -0.55353842521E+03  0.55353842522E+03  0.25500000920E-02 0.  1.
    10030    2    1    2    0    0  0.00000000000E+00  0.00000000000E+00  0.16250055666E+04  0.27320824170E+04  0.21962766770E+04 0.  0.
        2    1    3    3  502    0 -0.87158621172E+03  0.66744303239E+03  0.84691094358E+03  0.13865067156E+04  0.25500000920E-02 0.  1.
       -2    1    3    3    0  502  0.87158621172E+03 -0.66744303239E+03  0.77809462298E+03  0.13455757014E+04  0.25500000920E-02 0. -1.
</event>
<event>
 5   0  0.8470971E-05  0.2262379E+04  0.7818609E-02  0.8492904E-01
        1   -1    0    0  501    0  0.00000000000E+00  0.00000000000E+00  0.20428643200E+04  0.20428643200E+04  0.50400001928E-02 0. -1.
       -1   -1    0    0    0  501  0.00000000000E+00  0.00000000000E+00 -0.62637047869E+03  0.62637047871E+03  0.50400001928E-02 0.  1.
    10030    2    1    2    0    0  0.00000000000E+00  0.00000000000E+00  0.14164938413E+04  0.26692347987E+04  0.22623791920E+04 0.  0.
        2    1    3    3  502    0 -0.90443182944E+03  0.43372409953E+03  0.91252429568E+02  0.10071943877E+04  0.25500000920E-02 0.  1.
       -2    1    3    3    0  502  0.90443182944E+03 -0.43372409953E+03  0.13252414117E+04  0.16620404111E+04  0.25500000920E-02 0. -1.
</event>
<event>
 5   0  0.1805501E-04  0.2215922E+04  0.7818609E-02  0.8511830E-01
        2   -1    0    0  501    0  0.00000000000E+00  0.00000000000E+00  0.27949724108E+04  0.27949724108E+04  0.25500000920E-02 0. -1.
       -2   -1    0    0    0  501  0.00000000000E+00  0.00000000000E+00 -0.43920915657E+03  0.43920915658E+03  0.25500000920E-02 0.  1.
    10030    2    1    2    0    0  0.00000000000E+00  0.00000000000E+00  0.23557632542E+04  0.32341815674E+04  0.22159219076E+04 0.  0.
        2    1    3    3  502    0 -0.41195271488E+03  0.34094640456E+03  0.25941632667E+04  0.26487039367E+04  0.25500000920E-02 0. -1.
       -2    1    3    3    0  502  0.41195271488E+03 -0.34094640456E+03 -0.23840001246E+03  0.58547763068E+03  0.25500000920E-02 0.  1.
</event>
<event>
 5   0  0.8470971E-05  0.2180596E+04  0.7818609E-02  0.8526548E-01
        1   -1    0    0  501    0  0.00000000000E+00  0.00000000000E+00  0.13644665509E+04  0.13644665509E+04  0.50400001928E-02 0.  1.
       -1   -1    0    0    0  501  0.00000000000E+00  0.00000000000E+00 -0.87121957797E+03  0.87121957799E+03  0.50400001928E-02 0. -1.
    10030    2    1    2    0    0  0.00000000000E+00  0.00000000000E+00  0.49324697293E+03  0.22356861289E+04  0.21805962237E+04 0.  0.
        2    1    3    3  502    0 -0.64689660420E+03 -0.13906765877E+03  0.11350811408E+04  0.13138585261E+04  0.25500000920E-02 0.  1.
       -2    1    3    3    0  502  0.64689660420E+03  0.13906765877E+03 -0.64183416790E+03  0.92182760283E+03  0.25500000920E-02 0. -1.
</event>
<event>
 5   0  0.8306787E-05  0.2185641E+04  0.7818609E-02  0.8524429E-01
       -1   -1    0    0    0  501  0.00000000000E+00  0.00000000000E+00  0.85746860853E+03  0.85746860854E+03  0.50400001928E-02 0.  1.
        1   -1    0    0  501    0  0.00000000000E+00  0.00000000000E+00 -0.13927698000E+04  0.13927698000E+04  0.50400001928E-02 0. -1.
    10030    2    1    2    0    0  0.00000000000E+00  0.00000000000E+00 -0.53530119151E+03  0.22502384086E+04  0.21856407596E+04 0.  0.
        1    1    3    3  502    0 -0.93586108676E+03  0.44431690357E+03 -0.62578631466E+03  0.12103148335E+04  0.50400001928E-02 0. -1.
       -1    1    3    3    0  502  0.93586108676E+03 -0.44431690357E+03  0.90485123141E+02  0.10399235751E+04  0.50400001928E-02 0.  1.
</event>
<event>
 5   0  0.1805501E-04  0.2217266E+04  0.7818609E-02  0.8511276E-01
       -2   -1    0    0    0  501  0.00000000000E+00  0.00000000000E+00  0.11819869891E+04  0.11819869891E+04  0.25500000920E-02 0. -1.
        2   -1    0    0  501    0  0.00000000000E+00  0.00000000000E+00 -0.10398311701E+04  0.10398311701E+04  0.25500000920E-02 0.  1.
    10030    2    1    2    0    0  0.00000000000E+00  0.00000000000E+00  0.14215581896E+03  0.22218181593E+04  0.22172658063E+04 0.  0.
        2    1    3    3  502    0  0.10252375332E+04  0.30636184135E+03  0.36166871804E+03  0.11295015887E+04  0.25500000920E-02 0. -1.
       -2    1    3    3    0  502 -0.10252375332E+04 -0.30636184135E+03 -0.21951289908E+03  0.10923165705E+04  0.25500000920E-02 0.  1.
</event>
<event>
 5   0  0.1798917E-04  0.2191073E+04  0.7818609E-02  0.8522153E-01
        2   -1    0    0  501    0  0.00000000000E+00  0.00000000000E+00  0.99212090068E+03  0.99212090069E+03  0.25500000920E-02 0.  1.
       -2   -1    0    0    0  501  0.00000000000E+00  0.00000000000E+00 -0.12097323020E+04  0.12097323020E+04  0.25500000920E-02 0. -1.
    10030    2    1    2    0    0  0.00000000000E+00  0.00000000000E+00 -0.21761140134E+03  0.22018532027E+04  0.21910734365E+04 0.  0.
        4    1    3    3  502    0  0.86802306510E+03 -0.61945978578E+03 -0.36104783196E+03  0.11258559489E+04  0.12699999809E+01 0. -1.
       -4    1    3    3    0  502 -0.86802306510E+03  0.61945978578E+03  0.14343643061E+03  0.10759972538E+04  0.12699999809E+01 0.  1.
</event>
<event>
 5   0  0.1754356E-04  0.2147795E+04  0.7818609E-02  0.8540477E-01
        2   -1    0    0  501    0  0.00000000000E+00  0.00000000000E+00  0.22454561182E+04  0.22454561182E+04  0.25500000920E-02 0. -1.
       -2   -1    0    0    0  501  0.00000000000E+00  0.00000000000E+00 -0.51359538113E+03  0.51359538113E+03  0.25500000920E-02 0.  1.
    10030    2    1    2    0    0  0.00000000000E+00  0.00000000000E+00  0.17318607371E+04  0.27590514993E+04  0.21477950469E+04 0.  0.
        1    1    3    3  502    0  0.21117534086E+03 -0.98616845270E+03  0.13398973832E+04  0.16770355510E+04  0.50400001928E-02 0. -1.
       -1    1    3    3    0  502 -0.21117534086E+03  0.98616845270E+03  0.39196335386E+03  0.10820159484E+04  0.50400001928E-02 0.  1.
</event>
<event>
 5   0  0.1754356E-04  0.2196714E+04  0.7818609E-02  0.8519797E-01
       -2   -1    0    0    0  501  0.00000000000E+00  0.00000000000E+00  0.13303589186E+04  0.13303589186E+04  0.25500000920E-02 0.  1.
        2   -1    0    0  501    0  0.00000000000E+00  0.00000000000E+00 -0.90681403646E+03  0.90681403647E+03  0.25500000920E-02 0. -1.
    10030    2    1    2    0    0  0.00000000000E+00  0.00000000000E+00  0.42354488212E+03  0.22371729551E+04  0.21967140378E+04 0.  0.
        1    1    3    3  502    0  0.15220783876E+03  0.79587084279E+03 -0.54337639341E+03  0.97562058687E+03  0.50400001928E-02 0. -1.
       -1    1    3    3    0  502 -0.15220783876E+03 -0.79587084279E+03  0.96692127553E+03  0.12615523682E+04  0.50400001928E-02 0.  1.
</event>
<event>
 5   0  0.8470971E-05  0.2174637E+04  0.7818609E-02  0.8529060E-01
       -1   -1    0    0    0  501  0.00000000000E+00  0.00000000000E+00  0.77680604789E+03  0.77680604791E+03  0.50400001928E-02 0. -1.
        1   -1    0    0  501    0  0.00000000000E+00  0.00000000000E+00 -0.15219516157E+04  0.15219516157E+04  0.50400001928E-02 0.  1.
    10030    2    1    2    0    0  0.00000000000E+00  0.00000000000E+00 -0.74514556778E+03  0.22987576636E+04  0.21746367234E+04 0.  0.
        2    1    3    3  502    0  0.50937009344E+03  0.78561396791E+03  0.21180420975E+03  0.95995219774E+03  0.25500000920E-02 0. -1.
       -2    1    3    3    0  502 -0.50937009344E+03 -0.78561396791E+03 -0.95694977753E+03  0.13388054659E+04  0.25500000920E-02 0.  1.
</event>
<event>
 5   0  0.6250625E-05  0.2137072E+04  0.7818609E-02  0.8545086E-01
       -4   -1    0    0    0  501  0.00000000000E+00  0.00000000000E+00  0.12441056609E+04  0.12441063091E+04  0.12699999809E+01 0.  1.
        4   -1    0    0  501    0  0.00000000000E+00  0.00000000000E+00 -0.91774152913E+03  0.91774240786E+03  0.12699999809E+01 0. -1.
    10030    2    1    2    0    0  0.00000000000E+00  0.00000000000E+00  0.32636413173E+03  0.21618487169E+04  0.21370719053E+04 0.  0.
        4    1    3    3  502    0 -0.40545653008E+03 -0.47747905037E+03  0.10388894628E+04  0.12131257850E+04  0.12699999809E+01 0.  1.
       -4    1    3    3    0  502  0.40545653008E+03  0.47747905037E+03 -0.71252533107E+03  0.94872293197E+03  0.12699999809E+01 0. -1.
</event>
<event>
 5   0  0.1754356E-04  0.2096979E+04  0.7818609E-02  0.8562575E-01
       -2   -1    0    0    0  501  0.00000000000E+00  0.00000000000E+00  0.77373401974E+03  0.77373401974E+03  0.25500000920E-02 0.  1.
        2   -1    0    0  501    0  0.00000000000E+00  0.00000000000E+00 -0.14208117917E+04  0.14208117917E+04  0.25500000920E-02 0. -1.
    10030    2    1    2    0    0  0.00000000000E+00  0.00000000000E+00 -0.64707777191E+03  0.21945458114E+04  0.20969791786E+04 0.  0.
        1    1    3    3  502    0 -0.63626882645E+03  0.63118592806E+03 -0.89300427518E+03  0.12651839119E+04  0.50400001928E-02 0. -1.
       -1    1    3    3    0  502  0.63626882645E+03 -0.63118592806E+03  0.24592650327E+03  0.92936189955E+03  0.50400001928E-02 0.  1.
</event>
<event>
 5   0  0.1680258E-04  0.2184331E+04  0.7818609E-02  0.8524978E-01
       -2   -1    0    0    0  501  0.00000000000E+00  0.00000000000E+00  0.75215791520E+03  0.75215791520E+03  0.25500000920E-02 0.  1.
        2   -1    0    0  501    0  0.00000000000E+00  0.00000000000E+00 -0.15858716297E+04  0.15858716297E+04  0.25500000920E-02 0. -1.
    10030    2    1    2    0    0  0.00000000000E+00  0.00000000000E+00 -0.83371371447E+03  0.23380295449E+04  0.21843313840E+04 0.  0.
        5    1    3    3  502    0 -0.62987185405E+02  0.18179177196E+03 -0.15675793247E+04  0.15793488098E+04  0.46999998093E+01 0. -1.
       -5    1    3    3    0  502  0.62987185405E+02 -0.18179177196E+03  0.73386561022E+03  0.75868073505E+03  0.46999998093E+01 0.  1.
</event>
<event>
 5   0  0.1798917E-04  0.2190987E+04  0.7818609E-02  0.8522189E-01
       -2   -1    0    0    0  501  0.00000000000E+00  0.00000000000E+00  0.75023172188E+03  0.75023172188E+03  0.25500000920E-02 0.  1.
        2   -1    0    0  501    0  0.00000000000E+00  0.00000000000E+00 -0.15996476267E+04  0.15996476267E+04  0.25500000920E-02 0. -1.
    10030    2    1    2    0    0  0.00000000000E+00  0.00000000000E+00 -0.84941590485E+03  0.23498793486E+04  0.21909873513E+04 0.  0.
        4    1    3    3  502    0 -0.81130141391E+03 -0.63163200434E+03 -0.19221625974E+02  0.10283676662E+04  0.12699999809E+01 0.  1.
       -4    1    3    3    0  502  0.81130141391E+03  0.63163200434E+03 -0.83019427887E+03  0.13215116824E+04  0.12699999809E+01 0. -1.
</event>
<event>
 5   0  0.8306787E-05  0.1894202E+04  0.7818609E-02  0.8657748E-01
       -1   -1    0    0    0  501  0.00000000000E+00  0.00000000000E+00  0.89006592213E+03  0.89006592214E+03  0.50400001928E-02 0.  1.
        1   -1    0    0  501    0  0.00000000000E+00  0.00000000000E+00 -0.10077903461E+04  0.10077903461E+04  0.50400001928E-02 0. -1.
    10030    2    1    2    0    0  0.00000000000E+00  0.00000000000E+00 -0.11772442399E+03  0.18978562683E+04  0.18942015138E+04 0.  0.
        1    1    3    3  502    0  0.67565117824E+03  0.58008292234E+03 -0.38197340074E+03  0.96897078921E+03  0.50400001928E-02 0.  1.
       -1    1    3    3    0  502 -0.67565117824E+03 -0.58008292234E+03  0.26424897675E+03  0.92888547905E+03  0.50400001928E-02 0. -1.
</event>
<event>
 5   0  0.1733962E-04  0.2210090E+04  0.7818609E-02  0.8514240E-01
        2   -1    0    0  501    0  0.00000000000E+00  0.00000000000E+00  0.12588406095E+04  0.12588406095E+04  0.25500000920E-02 0. -1.
       -2   -1    0    0    0  501  0.00000000000E+00  0.00000000000E+00 -0.97003858418E+03  0.97003858418E+03  0.25500000920E-02 0.  1.
    10030    2    1    2    0    0  0.00000000000E+00  0.00000000000E+00  0.28880202531E+03  0.22288791937E+04  0.22100895570E+04 0.  0.
        3    1    3    3  502    0  0.69797579594E+03  0.12395187288E+03 -0.71050258302E+03  0.10036673798E+04  0.10100000352E+00 0.  1.
       -3    1    3    3    0  502 -0.69797579594E+03 -0.12395187288E+03  0.99930460833E+03  0.12252118139E+04  0.10100000352E+00 0. -1.
</event>
<event>
 5   0  0.1754356E-04  0.2305744E+04  0.7818609E-02  0.8475660E-01
       -2   -1    0    0    0  501  0.00000000000E+00  0.00000000000E+00  0.14684046536E+04  0.14684046536E+04  0.25500000920E-02 0. -1.
        2   -1    0    0  501    0  0.00000000000E+00  0.00000000000E+00 -0.90514157081E+03  0.90514157082E+03  0.25500000920E-02 0.  1.
    10030    2    1    2    0    0  0.00000000000E+00  0.00000000000E+00  0.56326308277E+03  0.23735462244E+04  0.23057442137E+04 0.  0.
        1    1    3    3  502    0 -0.87350069858E+03 -0.13976378966E+03 -0.47941659455E+03  0.10061697960E+04  0.50400001928E-02 0.  1.
       -1    1    3    3    0  502  0.87350069858E+03  0.13976378966E+03  0.10426796773E+04  0.13673764284E+04  0.50400001928E-02 0. -1.
</event>
<event>
 5   0  0.8784659E-05  0.2204234E+04  0.7818609E-02  0.8516668E-01
       -1   -1    0    0    0  501  0.00000000000E+00  0.00000000000E+00  0.96665380633E+03  0.96665380634E+03  0.50400001928E-02 0.  1.
        1   -1    0    0  501    0  0.00000000000E+00  0.00000000000E+00 -0.12565638875E+04  0.12565638875E+04  0.50400001928E-02 0. -1.
    10030    2    1    2    0    0  0.00000000000E+00  0.00000000000E+00 -0.28991008119E+03  0.22232176939E+04  0.22042343476E+04 0.  0.
        4    1    3    3  502    0 -0.37168802204E+03 -0.95261026390E+03  0.26973345490E+03  0.10575330019E+04  0.12699999809E+01 0.  1.
       -4    1    3    3    0  502  0.37168802204E+03  0.95261026390E+03 -0.55964353609E+03  0.11656846919E+04  0.12699999809E+01 0. -1.
</event>
<event>
 5   0  0.1733962E-04  0.2313146E+04  0.7818609E-02  0.8472756E-01
       -2   -1    0    0    0  501  0.00000000000E+00  0.00000000000E+00  0.94391658100E+03  0.94391658101E+03  0.25500000920E-02 0. -1.
        2   -1    0    0  501    0  0.00000000000E+00  0.00000000000E+00 -0.14171387764E+04  0.14171387764E+04  0.25500000920E-02 0.  1.
    10030    2    1    2    0    0  0.00000000000E+00  0.00000000000E+00 -0.47322219544E+03  0.23610553574E+04  0.23131457271E+04 0.  0.
        3    1    3    3  502    0 -0.28153545094E+03  0.18144302851E+03  0.89332987624E+03  0.95405558576E+03  0.10100000352E+00 0. -1.
       -3    1    3    3    0  502  0.28153545094E+03 -0.18144302851E+03 -0.13665520717E+04  0.14069997717E+04  0.10100000352E+00 0.  1.
</event>
<event>
 5   0  0.1754356E-04  0.2080141E+04  0.7818609E-02  0.8570042E-01
       -2   -1    0    0    0  501  0.00000000000E+00  0.00000000000E+00  0.94949007737E+03  0.94949007737E+03  0.25500000920E-02 0.  1.
        2   -1    0    0  501    0  0.00000000000E+00  0.00000000000E+00 -0.11392922288E+04  0.11392922288E+04  0.25500000920E-02 0. -1.
    10030    2    1    2    0    0  0.00000000000E+00  0.00000000000E+00 -0.18980215141E+03  0.20887823062E+04  0.20801410207E+04 0.  0.
        1    1    3    3  502    0 -0.31277476833E+03 -0.89769852291E+03 -0.51862079376E+03  0.10828934488E+04  0.50400001928E-02 0. -1.
       -1    1    3    3    0  502  0.31277476833E+03  0.89769852291E+03  0.32881864234E+03  0.10058888573E+04  0.50400001928E-02 0.  1.
</event>
<event>
 5   0  0.8470971E-05  0.2203946E+04  0.7818609E-02  0.8516788E-01
        1   -1    0    0  501    0  0.00000000000E+00  0.00000000000E+00  0.17495113534E+04  0.17495113534E+04  0.50400001928E-02 0. -1.
       -1   -1    0    0    0  501  0.00000000000E+00  0.00000000000E+00 -0.69410478585E+03  0.69410478587E+03  0.50400001928E-02 0.  1.
    10030    2    1    2    0    0  0.00000000000E+00  0.00000000000E+00  0.10554065675E+04  0.24436161393E+04  0.22039457374E+04 0.  0.
        2    1    3    3  502    0  0.33771258515E+03 -0.24364851028E+03 -0.60350561142E+03  0.73323489398E+03  0.25500000920E-02 0.  1.
       -2    1    3    3    0  502 -0.33771258515E+03  0.24364851028E+03  0.16589121790E+04  0.17103812453E+04  0.25500000920E-02 0. -1.
</event>
<event>
 5   0  0.1680258E-04  0.2187859E+04  0.7818609E-02  0.8523498E-01
        2   -1    0    0  501    0  0.00000000000E+00  0.00000000000E+00  0.22664456885E+04  0.22664456885E+04  0.25500000920E-02 0. -1.
       -2   -1    0    0    0  501  0.00000000000E+00  0.00000000000E+00 -0.52799944204E+03  0.52799944205E+03  0.25500000920E-02 0.  1.
    10030    2    1    2    0    0  0.00000000000E+00  0.00000000000E+00  0.17384462465E+04  0.27944451305E+04  0.21878592815E+04 0.  0.
        5    1    3    3  502    0 -0.39657433299E+03 -0.88076394740E+03  0.21340283540E+03  0.98923161736E+03  0.46999998093E+01 0. -1.
       -5    1    3    3    0  502  0.39657433299E+03  0.88076394740E+03  0.15250434110E+04  0.18052135132E+04  0.46999998093E+01 0.  1.
</event>
<event>
 5   0  0.8306787E-05  0.2209704E+04  0.7818609E-02  0.8514400E-01
       -1   -1    0    0    0  501  0.00000000000E+00  0.00000000000E+00  0.74512096237E+03  0.74512096239E+03  0.50400001928E-02 0.  1.
        1   -1    0    0  501    0  0.00000000000E+00  0.00000000000E+00 -0.16382554400E+04  0.16382554400E+04  0.50400001928E-02 0. -1.
    10030    2    1    2    0    0  0.00000000000E+00  0.00000000000E+00 -0.89313447761E+03  0.23833764024E+04  0.22097044780E+04 0.  0.
        1    1    3    3  502    0 -0.46706053364E+03 -0.67359650619E+03 -0.12456167148E+04  0.14911199803E+04  0.50400001928E-02 0. -1.
       -1    1    3    3    0  502  0.46706053364E+03  0.67359650619E+03  0.35248223722E+03  0.89225642212E+03  0.50400001928E-02 0.  1.
</event>
<event>
 5   0  0.1754356E-04  0.2234580E+04  0.7818609E-02  0.8504171E-01
       -2   -1    0    0    0  501  0.00000000000E+00  0.00000000000E+00  0.61689476391E+03  0.61689476392E+03  0.25500000920E-02 0.  1.
        2   -1    0    0  501    0  0.00000000000E+00  0.00000000000E+00 -0.20235823250E+04  0.20235823250E+04  0.25500000920E-02 0. -1.
    10030    2    1    2    0    0  0.00000000000E+00  0.00000000000E+00 -0.14066875611E+04  0.26404770889E+04  0.22345803549E+04 0.  0.
        1    1    3    3  502    0 -0.59087327840E+03  0.52636276695E+03  0.22869375517E+03  0.82370493943E+03  0.50400001928E-02 0.  1.
       -1    1    3    3    0  502  0.59087327840E+03 -0.52636276695E+03 -0.16353813162E+04  0.18167721495E+04  0.50400001928E-02 0. -1.
</event>
<event>
 5   0  0.1805501E-04  0.2172448E+04  0.7818609E-02  0.8529984E-01
        2   -1    0    0  501    0  0.00000000000E+00  0.00000000000E+00  0.11231608988E+04  0.11231608988E+04  0.25500000920E-02 0. -1.
       -2   -1    0    0    0  501  0.00000000000E+00  0.00000000000E+00 -0.10505019219E+04  0.10505019219E+04  0.25500000920E-02 0.  1.
    10030    2    1    2    0    0  0.00000000000E+00  0.00000000000E+00  0.72658976865E+02  0.21736628207E+04  0.21724480963E+04 0.  0.
        2    1    3    3  502    0 -0.84222135201E+03 -0.68589807460E+03  0.45806228340E+02  0.10871481891E+04  0.25500000920E-02 0. -1.
       -2    1    3    3    0  502  0.84222135201E+03  0.68589807460E+03  0.26852748525E+02  0.10865146316E+04  0.25500000920E-02 0.  1.
</event>
<event>
 5   0  0.6250625E-05  0.1443856E+04  0.7818609E-02  0.8922671E-01
       -3   -1    0    0    0  501  0.00000000000E+00  0.00000000000E+00  0.17350288067E+04  0.17350288097E+04  0.10100000352E+00 0. -1.
        3   -1    0    0  501    0  0.00000000000E+00  0.00000000000E+00 -0.30038691729E+03  0.30038693426E+03  0.10100000352E+00 0.  1.
    10030    2    1    2    0    0  0.00000000000E+00  0.00000000000E+00  0.14346418895E+04  0.20354157439E+04  0.14438559138E+04 0.  0.
        2    1    3    3  502    0  0.44804883311E+03 -0.11394649984E+03 -0.64334579349E+02  0.46676600110E+03  0.25500000920E-02 0.  1.
       -2    1    3    3    0  502 -0.44804883311E+03  0.11394649984E+03  0.14989764688E+04  0.15686497428E+04  0.25500000920E-02 0. -1.
</event>
<event>
 5   0  0.8602414E-05  0.2458497E+04  0.7818609E-02  0.8417922E-01
       -1   -1    0    0    0  501  0.00000000000E+00  0.00000000000E+00  0.11898087098E+04  0.11898087098E+04  0.50400001928E-02 0. -1.
        1   -1    0    0  501    0  0.00000000000E+00  0.00000000000E+00 -0.12699956143E+04  0.12699956143E+04  0.50400001928E-02 0.  1.
    10030    2    1    2    0    0  0.00000000000E+00  0.00000000000E+00 -0.80186904563E+02  0.24598043241E+04  0.24584969744E+04 0.  0.
        3    1    3    3  502    0 -0.62251687781E+02  0.32682871437E+02  0.11877952301E+04  0.11898743470E+04  0.10100000352E+00 0. -1.
       -3    1    3    3    0  502  0.62251687781E+02 -0.32682871437E+02 -0.12679821347E+04  0.12699299771E+04  0.10100000352E+00 0.  1.
</event>
<event>
 5   0  0.1733962E-04  0.1236652E+04  0.7818609E-02  0.9081367E-01
       -2   -1    0    0    0  501  0.00000000000E+00  0.00000000000E+00  0.16481634073E+03  0.16481634074E+03  0.25500000920E-02 0.  1.
        2   -1    0    0  501    0  0.00000000000E+00  0.00000000000E+00 -0.23197137771E+04  0.23197137771E+04  0.25500000920E-02 0. -1.
    10030    2    1    2    0    0  0.00000000000E+00  0.00000000000E+00 -0.21548974364E+04  0.24845301178E+04  0.12366515051E+04 0.  0.
        3    1    3    3  502    0 -0.59197893419E+03 -0.14156227804E+03 -0.85876543222E+03  0.10525953709E+04  0.10100000352E+00 0.  1.
       -3    1    3    3    0  502  0.59197893419E+03  0.14156227804E+03 -0.12961320041E+04  0.14319347469E+04  0.10100000352E+00 0. -1.
</event>
<event>
 5   0  0.1680258E-04  0.1636739E+04  0.7818609E-02  0.8798290E-01
        2   -1    0    0  501    0  0.00000000000E+00  0.00000000000E+00  0.11313619900E+04  0.11313619900E+04  0.25500000920E-02 0.  1.
       -2   -1    0    0    0  501  0.00000000000E+00  0.00000000000E+00 -0.59196698769E+03  0.59196698770E+03  0.25500000920E-02 0. -1.
    10030    2    1    2    0    0  0.00000000000E+00  0.00000000000E+00  0.53939500229E+03  0.17233289777E+04  0.16367393796E+04 0.  0.
        5    1    3    3  502    0 -0.45491714980E+03 -0.21549468051E+03  0.94906055632E+03  0.10743023783E+04  0.46999998093E+01 0.  1.
       -5    1    3    3    0  502  0.45491714980E+03  0.21549468051E+03 -0.40966555403E+03  0.64902659935E+03  0.46999998093E+01 0. -1.
</event>
<event>
 5   0  0.6250625E-05  0.1142012E+04  0.7818609E-02  0.9165184E-01
        3   -1    0    0  501    0  0.00000000000E+00  0.00000000000E+00  0.80793407371E+03  0.80793408003E+03  0.10100000352E+00 0. -1.
       -3   -1    0    0    0  501  0.00000000000E+00  0.00000000000E+00 -0.40355781133E+03  0.40355782397E+03  0.10100000352E+00 0.  1.
    10030    2    1    2    0    0  0.00000000000E+00  0.00000000000E+00  0.40437626238E+03  0.12114919040E+04  0.11420124657E+04 0.  0.
        2    1    3    3  502    0  0.16842311085E+03 -0.41453443481E+02 -0.37493524438E+03  0.41311157056E+03  0.25500000920E-02 0.  1.
       -2    1    3    3    0  502 -0.16842311085E+03  0.41453443481E+02  0.77931150676E+03  0.79838033344E+03  0.25500000920E-02 0. -1.
</event>
<event>
 5   0  0.1754356E-04  0.2231701E+04  0.7818609E-02  0.8505348E-01
       -2   -1    0    0    0  501  0.00000000000E+00  0.00000000000E+00  0.50668881781E+03  0.50668881781E+03  0.25500000920E-02 0.  1.
        2   -1    0    0  501    0  0.00000000000E+00  0.00000000000E+00 -0.24573704865E+04  0.24573704865E+04  0.25500000920E-02 0. -1.
    10030    2    1    2    0    0  0.00000000000E+00  0.00000000000E+00 -0.19506816686E+04  0.29640593043E+04  0.22317008283E+04 0.  0.
        1    1    3    3  502    0 -0.26196956439E+03 -0.10440085633E+04 -0.58462600424E+03  0.12248957090E+04  0.50400001928E-02 0.  1.
       -1    1    3    3    0  502  0.26196956439E+03  0.10440085633E+04 -0.13660556644E+04  0.17391635953E+04  0.50400001928E-02 0. -1.
</event>
<event>
 5   0  0.8306787E-05  0.2192762E+04  0.7818609E-02  0.8521447E-01
       -1   -1    0    0    0  501  0.00000000000E+00  0.00000000000E+00  0.81286669921E+03  0.81286669923E+03  0.50400001928E-02 0.  1.
        1   -1    0    0  501    0  0.00000000000E+00  0.00000000000E+00 -0.14787797250E+04  0.14787797250E+04  0.50400001928E-02 0. -1.
    10030    2    1    2    0    0  0.00000000000E+00  0.00000000000E+00 -0.66591302578E+03  0.22916464242E+04  0.21927615410E+04 0.  0.
        1    1    3    3  502    0  0.93503164427E+03  0.37129418461E+03  0.12247908673E+03  0.10134814621E+04  0.50400001928E-02 0.  1.
       -1    1    3    3    0  502 -0.93503164427E+03 -0.37129418461E+03 -0.78839211251E+03  0.12781649621E+04  0.50400001928E-02 0. -1.
</event>
<event>
 5   0  0.1733962E-04  0.2226253E+04  0.7818609E-02  0.8507580E-01
        2   -1    0    0  501    0  0.00000000000E+00  0.00000000000E+00  0.16740866378E+04  0.16740866378E+04  0.25500000920E-02 0. -1.
       -2   -1    0    0    0  501  0.00000000000E+00  0.00000000000E+00 -0.74013508015E+03  0.74013508015E+03  0.25500000920E-02 0.  1.
    10030    2    1    2    0    0  0.00000000000E+00  0.00000000000E+00  0.93395155761E+03  0.24142217179E+04  0.22262526791E+04 0.  0.
        3    1    3    3  502    0 -0.90642369935E+03  0.62293003161E+03  0.28102006505E+03  0.11351731296E+04  0.10100000352E+00 0.  1.
       -3    1    3    3    0  502  0.90642369935E+03 -0.62293003161E+03  0.65293149256E+03  0.12790485883E+04  0.10100000352E+00 0. -1.
</event>
<event>
 5   0  0.1798917E-04  0.2190894E+04  0.7818609E-02  0.8522228E-01
       -2   -1    0    0    0  501  0.00000000000E+00  0.00000000000E+00  0.94866974940E+03  0.94866974940E+03  0.25500000920E-02 0.  1.
        2   -1    0    0  501    0  0.00000000000E+00  0.00000000000E+00 -0.12649338037E+04  0.12649338037E+04  0.25500000920E-02 0. -1.
    10030    2    1    2    0    0  0.00000000000E+00  0.00000000000E+00 -0.31626405430E+03  0.22136035531E+04  0.21908942782E+04 0.  0.
        4    1    3    3  502    0 -0.10063125833E+04 -0.76266017425E+02 -0.58860136255E+03  0.11683041974E+04  0.12699999809E+01 0. -1.
       -4    1    3    3    0  502  0.10063125833E+04  0.76266017425E+02  0.27233730826E+03  0.10452993557E+04  0.12699999809E+01 0.  1.
</event>
<event>
 5   0  0.1805501E-04  0.1559698E+04  0.7818609E-02  0.8845697E-01
       -2   -1    0    0    0  501  0.00000000000E+00  0.00000000000E+00  0.75952596340E+03  0.75952596340E+03  0.25500000920E-02 0. -1.
        2   -1    0    0  501    0  0.00000000000E+00  0.00000000000E+00 -0.80071599172E+03  0.80071599173E+03  0.25500000920E-02 0.  1.
    10030    2    1    2    0    0  0.00000000000E+00  0.00000000000E+00 -0.41190028324E+02  0.15602419551E+04  0.15596981567E+04 0.  0.
        2    1    3    3  502    0 -0.55928697337E+03  0.53575894359E+03 -0.11186837802E+03  0.78253057335E+03  0.25500000920E-02 0.  1.
       -2    1    3    3    0  502  0.55928697337E+03 -0.53575894359E+03  0.70678349691E+02  0.77771138178E+03  0.25500000920E-02 0. -1.
</event>
<event>
 5   0  0.1798917E-04  0.2218940E+04  0.7818609E-02  0.8510586E-01
       -2   -1    0    0    0  501  0.00000000000E+00  0.00000000000E+00  0.59805777388E+03  0.59805777388E+03  0.25500000920E-02 0. -1.
        2   -1    0    0  501    0  0.00000000000E+00  0.00000000000E+00 -0.20582018694E+04  0.20582018694E+04  0.25500000920E-02 0.  1.
    10030    2    1    2    0    0  0.00000000000E+00  0.00000000000E+00 -0.14601440955E+04  0.26562596432E+04  0.22189399525E+04 0.  0.
        4    1    3    3  502    0 -0.45739598380E+03  0.66191581826E+03  0.18440870844E+03  0.82544038011E+03  0.12699999809E+01 0. -1.
       -4    1    3    3    0  502  0.45739598380E+03 -0.66191581826E+03 -0.16445528039E+04  0.18308192631E+04  0.12699999809E+01 0.  1.
</event>
<event>
 5   0  0.1754356E-04  0.2241688E+04  0.7818609E-02  0.8501274E-01
        2   -1    0    0  501    0  0.00000000000E+00  0.00000000000E+00  0.64484636408E+03  0.64484636409E+03  0.25500000920E-02 0.  1.
       -2   -1    0    0    0  501  0.00000000000E+00  0.00000000000E+00 -0.19482021865E+04  0.19482021865E+04  0.25500000920E-02 0. -1.
    10030    2    1    2    0    0  0.00000000000E+00  0.00000000000E+00 -0.13033558224E+04  0.25930485506E+04  0.22416878431E+04 0.  0.
        1    1    3    3  502    0  0.18611028094E+03  0.62224725691E+02 -0.19281764220E+04  0.19381365451E+04  0.50400001928E-02 0. -1.
       -1    1    3    3    0  502 -0.18611028094E+03 -0.62224725691E+02  0.62482059960E+03  0.65491200544E+03  0.50400001928E-02 0.  1.
</event>
<event>
 5   0  0.6250625E-05  0.2199634E+04  0.7818609E-02  0.8518580E-01
       -3   -1    0    0    0  501  0.00000000000E+00  0.00000000000E+00  0.14948942330E+04  0.14948942364E+04  0.10100000352E+00 0. -1.
        3   -1    0    0  501    0  0.00000000000E+00  0.00000000000E+00 -0.80915279763E+03  0.80915280394E+03  0.10100000352E+00 0.  1.
    10030    2    1    2    0    0  0.00000000000E+00  0.00000000000E+00  0.68574143538E+03  0.23040470404E+04  0.21996343896E+04 0.  0.
        2    1    3    3  502    0  0.66935542645E+03  0.16507013001E+03 -0.55472641613E+03  0.88487639334E+03  0.25500000920E-02 0.  1.
       -2    1    3    3    0  502 -0.66935542645E+03 -0.16507013001E+03  0.12404678515E+04  0.14191706470E+04  0.25500000920E-02 0. -1.
</event>
<event>
 5   0  0.8306787E-05  0.2296859E+04  0.7818609E-02  0.8479161E-01
       -1   -1    0    0    0  501  0.00000000000E+00  0.00000000000E+00  0.74307748694E+03  0.74307748696E+03  0.50400001928E-02 0.  1.
        1   -1    0    0  501    0  0.00000000000E+00  0.00000000000E+00 -0.17749025344E+04  0.17749025344E+04  0.50400001928E-02 0. -1.
    10030    2    1    2    0    0  0.00000000000E+00  0.00000000000E+00 -0.10318250474E+04  0.25179800213E+04  0.22968588244E+04 0.  0.
        1    1    3    3  502    0  0.18792870438E+03 -0.10873705166E+04 -0.16717029733E+03  0.11160814247E+04  0.50400001928E-02 0.  1.
       -1    1    3    3    0  502 -0.18792870438E+03  0.10873705166E+04 -0.86465475010E+03  0.14018985966E+04  0.50400001928E-02 0. -1.
</event>
<event>
 5   0  0.1754356E-04  0.2178931E+04  0.7818609E-02  0.8527249E-01
       -2   -1    0    0    0  501  0.00000000000E+00  0.00000000000E+00  0.17213324176E+04  0.17213324176E+04  0.25500000920E-02 0. -1.
        2   -1    0    0  501    0  0.00000000000E+00  0.00000000000E+00 -0.68954415150E+03  0.68954415151E+03  0.25500000920E-02 0.  1.
    10030    2    1    2    0    0  0.00000000000E+00  0.00000000000E+00  0.10317882661E+04  0.24108765691E+04  0.21789306564E+04 0.  0.
        1    1    3    3  502    0 -0.68370818630E+03  0.60407570536E+02 -0.42023580237E+03  0.80480065122E+03  0.50400001928E-02 0.  1.
       -1    1    3    3    0  502  0.68370818630E+03 -0.60407570536E+02  0.14520240685E+04  0.16060759179E+04  0.50400001928E-02 0. -1.
</event>
<event>
 5   0  0.8470971E-05  0.1961974E+04  0.7818609E-02  0.8624608E-01
       -1   -1    0    0    0  501  0.00000000000E+00  0.00000000000E+00  0.93559742226E+03  0.93559742228E+03  0.50400001928E-02 0.  1.
        1   -1    0    0  501    0  0.00000000000E+00  0.00000000000E+00 -0.10285786580E+04  0.10285786580E+04  0.50400001928E-02 0. -1.
    10030    2    1    2    0    0  0.00000000000E+00  0.00000000000E+00 -0.92981235747E+02  0.19641760803E+04  0.19619740478E+04 0.  0.
        2    1    3    3  502    0  0.68971959332E+03 -0.62745994136E+03 -0.35165472661E+03  0.99653406473E+03  0.25500000920E-02 0. -1.
       -2    1    3    3    0  502 -0.68971959332E+03  0.62745994136E+03  0.25867349086E+03  0.96764201557E+03  0.25500000920E-02 0.  1.
</event>
<event>
 5   0  0.8602414E-05  0.2851182E+04  0.7818609E-02  0.8287552E-01
        1   -1    0    0  501    0  0.00000000000E+00  0.00000000000E+00  0.64282720239E+03  0.64282720241E+03  0.50400001928E-02 0.  1.
       -1   -1    0    0    0  501  0.00000000000E+00  0.00000000000E+00 -0.31615173107E+04  0.31615173107E+04  0.50400001928E-02 0. -1.
    10030    2    1    2    0    0  0.00000000000E+00  0.00000000000E+00 -0.25186901083E+04  0.38043445131E+04  0.28511817397E+04 0.  0.
        3    1    3    3  502    0  0.55590422659E+03 -0.58074634898E+01 -0.30109194485E+04  0.30618130529E+04  0.10100000352E+00 0. -1.
       -3    1    3    3    0  502 -0.55590422659E+03  0.58074634898E+01  0.49222934019E+03  0.74253146015E+03  0.10100000352E+00 0.  1.
</event>
<event>
 5   0  0.8784659E-05  0.2239899E+04  0.7818609E-02  0.8502002E-01
        1   -1    0    0  501    0  0.00000000000E+00  0.00000000000E+00  0.71368578109E+03  0.71368578111E+03  0.50400001928E-02 0.  1.
       -1   -1    0    0    0  501  0.00000000000E+00  0.00000000000E+00 -0.17574784345E+04  0.17574784346E+04  0.50400001928E-02 0. -1.
    10030    2    1    2    0    0  0.00000000000E+00  0.00000000000E+00 -0.10437926535E+04  0.24711642157E+04  0.22398994346E+04 0.  0.
        4    1    3    3  502    0 -0.55453981601E+03  0.48166631473E+03  0.41083360413E+03  0.84160721805E+03  0.12699999809E+01 0.  1.
       -4    1    3    3    0  502  0.55453981601E+03 -0.48166631473E+03 -0.14546262576E+04  0.16295569976E+04  0.12699999809E+01 0. -1.
</event>
<event>
 5   0  0.1754356E-04  0.2181238E+04  0.7818609E-02  0.8526278E-01
        2   -1    0    0  501    0  0.00000000000E+00  0.00000000000E+00  0.14532839336E+04  0.14532839336E+04  0.25500000920E-02 0.  1.
       -2   -1    0    0    0  501  0.00000000000E+00  0.00000000000E+00 -0.81845667113E+03  0.81845667113E+03  0.25500000920E-02 0. -1.
    10030    2    1    2    0    0  0.00000000000E+00  0.00000000000E+00  0.63482726247E+03  0.22717406047E+04  0.21812381168E+04 0.  0.
        1    1    3    3  502    0 -0.93352116739E+03 -0.18380280326E+03  0.87264153306E+03  0.12910261367E+04  0.50400001928E-02 0.  1.
       -1    1    3    3    0  502  0.93352116739E+03  0.18380280326E+03 -0.23781427059E+03  0.98071446801E+03  0.50400001928E-02 0. -1.
</event>
<event>
 5   0  0.8470971E-05  0.2246418E+04  0.7818609E-02  0.8499353E-01
       -1   -1    0    0    0  501  0.00000000000E+00  0.00000000000E+00  0.96665672441E+03  0.96665672442E+03  0.50400001928E-02 0.  1.
        1   -1    0    0  501    0  0.00000000000E+00  0.00000000000E+00 -0.13051148305E+04  0.13051148305E+04  0.50400001928E-02 0. -1.
    10030    2    1    2    0    0  0.00000000000E+00  0.00000000000E+00 -0.33845810613E+03  0.22717715550E+04  0.22464176166E+04 0.  0.
        2    1    3    3  502    0 -0.73103106765E+03 -0.83229241948E+03 -0.35701525132E+03  0.11638629572E+04  0.25500000920E-02 0.  1.
       -2    1    3    3    0  502  0.73103106765E+03  0.83229241948E+03  0.18557145200E+02  0.11079085978E+04  0.25500000920E-02 0. -1.
</event>
<event>
 5   0  0.7954459E-05  0.2259840E+04  0.7818609E-02  0.8493926E-01
        1   -1    0    0  501    0  0.00000000000E+00  0.00000000000E+00  0.61585110827E+03  0.61585110829E+03  0.50400001928E-02 0.  1.
       -1   -1    0    0    0  501  0.00000000000E+00  0.00000000000E+00 -0.20730978383E+04  0.20730978383E+04  0.50400001928E-02 0. -1.
    10030    2    1    2    0    0  0.00000000000E+00  0.00000000000E+00 -0.14572467301E+04  0.26889489466E+04  0.22598403495E+04 0.  0.
        5    1    3    3  502    0 -0.51543637149E+03 -0.65611195637E+03 -0.16352340994E+04  0.18358023320E+04  0.46999998093E+01 0.  1.
       -5    1    3    3    0  502  0.51543637149E+03  0.65611195637E+03  0.17798736937E+03  0.85314661460E+03  0.46999998093E+01 0. -1.
</event>
<event>
 5   0  0.7954459E-05  0.2166755E+04  0.7818609E-02  0.8532394E-01
       -1   -1    0    0    0  501  0.00000000000E+00  0.00000000000E+00  0.85403805839E+03  0.85403805840E+03  0.50400001928E-02 0. -1.
        1   -1    0    0  501    0  0.00000000000E+00  0.00000000000E+00 -0.13743026158E+04  0.13743026158E+04  0.50400001928E-02 0.  1.
    10030    2    1    2    0    0  0.00000000000E+00  0.00000000000E+00 -0.52026455738E+03  0.22283406742E+04  0.21667549355E+04 0.  0.
        5    1    3    3  502    0  0.67249577902E+03 -0.84826896030E+03 -0.30465059389E+03  0.11245643050E+04  0.46999998093E+01 0. -1.
       -5    1    3    3    0  502 -0.67249577902E+03  0.84826896030E+03 -0.21561396349E+03  0.11037763691E+04  0.46999998093E+01 0.  1.
</event>
<event>
 5   0  0.1754356E-04  0.2175627E+04  0.7818609E-02  0.8528642E-01
        2   -1    0    0  501    0  0.00000000000E+00  0.00000000000E+00  0.14497869272E+04  0.14497869272E+04  0.25500000920E-02 0.  1.
       -2   -1    0    0    0  501  0.00000000000E+00  0.00000000000E+00 -0.81621530311E+03  0.81621530312E+03  0.25500000920E-02 0. -1.
    10030    2    1    2    0    0  0.00000000000E+00  0.00000000000E+00  0.63357162408E+03  0.22660022303E+04  0.21756270602E+04 0.  0.
        1    1    3    3  502    0 -0.35132358257E+03 -0.62789790360E+03  0.11665535371E+04  0.13705951962E+04  0.50400001928E-02 0.  1.
       -1    1    3    3    0  502  0.35132358257E+03  0.62789790360E+03 -0.53298191303E+03  0.89540703406E+03  0.50400001928E-02 0. -1.
</event>
<event>
 5   0  0.7954459E-05  0.2236181E+04  0.7818609E-02  0.8503518E-01
       -1   -1    0    0    0  501  0.00000000000E+00  0.00000000000E+00  0.11499210389E+04  0.11499210389E+04  0.50400001928E-02 0. -1.
        1   -1    0    0  501    0  0.00000000000E+00  0.00000000000E+00 -0.10871413595E+04  0.10871413595E+04  0.50400001928E-02 0.  1.
    10030    2    1    2    0    0  0.00000000000E+00  0.00000000000E+00  0.62779679345E+02  0.22370623984E+04  0.22361813178E+04 0.  0.
        5    1    3    3  502    0 -0.15220541009E+03 -0.10130320767E+03 -0.10720750495E+04  0.10875641721E+04  0.46999998093E+01 0.  1.
       -5    1    3    3    0  502  0.15220541009E+03  0.10130320767E+03  0.11348547288E+04  0.11494982263E+04  0.46999998093E+01 0. -1.
</event>
<event>
 5   0  0.1805501E-04  0.2091205E+04  0.7818609E-02  0.8565128E-01
        2   -1    0    0  501    0  0.00000000000E+00  0.00000000000E+00  0.19720940617E+04  0.19720940617E+04  0.25500000920E-02 0.  1.
       -2   -1    0    0    0  501  0.00000000000E+00  0.00000000000E+00 -0.55437745126E+03  0.55437745127E+03  0.25500000920E-02 0. -1.
    10030    2    1    2    0    0  0.00000000000E+00  0.00000000000E+00  0.14177166105E+04  0.25264715130E+04  0.20912048963E+04 0.  0.
        2    1    3    3  502    0  0.71493221590E+03 -0.13387829524E+03 -0.19864259250E+03  0.75399625385E+03  0.25500000920E-02 0. -1.
       -2    1    3    3    0  502 -0.71493221590E+03  0.13387829524E+03  0.16163592030E+04  0.17724752591E+04  0.25500000920E-02 0.  1.
</event>
<event>
 5   0  0.8470971E-05  0.1394138E+04  0.7818609E-02  0.8958072E-01
       -1   -1    0    0    0  501  0.00000000000E+00  0.00000000000E+00  0.82706311028E+03  0.82706311030E+03  0.50400001928E-02 0.  1.
        1   -1    0    0  501    0  0.00000000000E+00  0.00000000000E+00 -0.58750719699E+03  0.58750719701E+03  0.50400001928E-02 0. -1.
    10030    2    1    2    0    0  0.00000000000E+00  0.00000000000E+00  0.23955591329E+03  0.14145703073E+04  0.13941384862E+04 0.  0.
        2    1    3    3  502    0  0.19250436790E+02 -0.27627255563E+03 -0.52929109932E+03  0.59736602861E+03  0.25500000920E-02 0. -1.
       -2    1    3    3    0  502 -0.19250436790E+02  0.27627255563E+03  0.76884701261E+03  0.81720427870E+03  0.25500000920E-02 0.  1.
</event>
<event>
 5   0  0.1680258E-04  0.2015435E+04  0.7818609E-02  0.8599438E-01
        2   -1    0    0  501    0  0.00000000000E+00  0.00000000000E+00  0.13779149312E+04  0.13779149312E+04  0.25500000920E-02 0. -1.
       -2   -1    0    0    0  501  0.00000000000E+00  0.00000000000E+00 -0.73697940142E+03  0.73697940142E+03  0.25500000920E-02 0.  1.
    10030    2    1    2    0    0  0.00000000000E+00  0.00000000000E+00  0.64093552973E+03  0.21148943326E+04  0.20154353586E+04 0.  0.
        5    1    3    3  502    0  0.17712079517E+03  0.41606705809E+03 -0.62452253557E+03  0.77106034806E+03  0.46999998093E+01 0.  1.
       -5    1    3    3    0  502 -0.17712079517E+03 -0.41606705809E+03  0.12654580653E+04  0.13438339845E+04  0.46999998093E+01 0. -1.
</event>
<event>
 5   0  0.1798917E-04  0.2247396E+04  0.7818609E-02  0.8498956E-01
       -2   -1    0    0    0  501  0.00000000000E+00  0.00000000000E+00  0.15146466177E+04  0.15146466177E+04  0.25500000920E-02 0. -1.
        2   -1    0    0  501    0  0.00000000000E+00  0.00000000000E+00 -0.83365814829E+03  0.83365814830E+03  0.25500000920E-02 0.  1.
    10030    2    1    2    0    0  0.00000000000E+00  0.00000000000E+00  0.68098846940E+03  0.23483047660E+04  0.22473962665E+04 0.  0.
        4    1    3    3  502    0 -0.94812508581E+03  0.59781788924E+03  0.25710835434E+03  0.11499711848E+04  0.12699999809E+01 0. -1.
       -4    1    3    3    0  502  0.94812508581E+03 -0.59781788924E+03  0.42388011506E+03  0.11983335812E+04  0.12699999809E+01 0.  1.
</event>
<event>
 5   0  0.1798917E-04  0.2205021E+04  0.7818609E-02  0.8516341E-01
       -2   -1    0    0    0  501  0.00000000000E+00  0.00000000000E+00  0.67401788141E+03  0.67401788141E+03  0.25500000920E-02 0. -1.
        2   -1    0    0  501    0  0.00000000000E+00  0.00000000000E+00 -0.18034078824E+04  0.18034078824E+04  0.25500000920E-02 0.  1.
    10030    2    1    2    0    0  0.00000000000E+00  0.00000000000E+00 -0.11293900009E+04  0.24774257638E+04  0.22050207801E+04 0.  0.
        4    1    3    3  502    0  0.26940244084E+02  0.70626956141E+03 -0.15153872392E+04  0.16721072237E+04  0.12699999809E+01 0.  1.
       -4    1    3    3    0  502 -0.26940244084E+02 -0.70626956141E+03  0.38599723822E+03  0.80531854004E+03  0.12699999809E+01 0. -1.
</event>
<event>
 5   0  0.6250625E-05  0.2272227E+04  0.7818609E-02  0.8488953E-01
       -3   -1    0    0    0  501  0.00000000000E+00  0.00000000000E+00  0.20921444980E+04  0.20921445005E+04  0.10100000352E+00 0. -1.
        3   -1    0    0  501    0  0.00000000000E+00  0.00000000000E+00 -0.61695237195E+03  0.61695238021E+03  0.10100000352E+00 0.  1.
    10030    2    1    2    0    0  0.00000000000E+00  0.00000000000E+00  0.14751921261E+04  0.27090968807E+04  0.22722266833E+04 0.  0.
        2    1    3    3  502    0 -0.20118424048E+03  0.22821637415E+02  0.20704598658E+04  0.20803365069E+04  0.25500000920E-02 0. -1.
       -2    1    3    3    0  502  0.20118424048E+03 -0.22821637415E+02 -0.59526773972E+03  0.62876037384E+03  0.25500000920E-02 0.  1.
</event>
<event>
 5   0  0.6250625E-05  0.2105251E+04  0.7818609E-02  0.8558934E-01
       -3   -1    0    0    0  501  0.00000000000E+00  0.00000000000E+00  0.87058041868E+03  0.87058042454E+03  0.10100000352E+00 0.  1.
        3   -1    0    0  501    0  0.00000000000E+00  0.00000000000E+00 -0.12727379225E+04  0.12727379266E+04  0.10100000352E+00 0. -1.
    10030    2    1    2    0    0  0.00000000000E+00  0.00000000000E+00 -0.40215750387E+03  0.21433183511E+04  0.21052512668E+04 0.  0.
        3    1    3    3  502    0  0.24061129594E+03 -0.10246578470E+04 -0.21559185923E+03  0.10743823151E+04  0.10100000352E+00 0. -1.
       -3    1    3    3    0  502 -0.24061129594E+03  0.10246578470E+04 -0.18656564464E+03  0.10689360360E+04  0.10100000352E+00 0.  1.
</event>
<event>
 5   0  0.7954459E-05  0.1947521E+04  0.7818609E-02  0.8631557E-01
       -1   -1    0    0    0  501  0.00000000000E+00  0.00000000000E+00  0.92369059436E+03  0.92369059437E+03  0.50400001928E-02 0. -1.
        1   -1    0    0  501    0  0.00000000000E+00  0.00000000000E+00 -0.10265445146E+04  0.10265445146E+04  0.50400001928E-02 0.  1.
    10030    2    1    2    0    0  0.00000000000E+00  0.00000000000E+00 -0.10285392027E+03  0.19502351090E+04  0.19475210016E+04 0.  0.
        5    1    3    3  502    0  0.12017495439E+03  0.53230481636E+03  0.75616889396E+03  0.93252556178E+03  0.46999998093E+01 0. -1.
       -5    1    3    3    0  502 -0.12017495439E+03 -0.53230481636E+03 -0.85902281422E+03  0.10177095472E+04  0.46999998093E+01 0.  1.
</event>
<event>
 5   0  0.1754356E-04  0.2028105E+04  0.7818609E-02  0.8593592E-01
       -2   -1    0    0    0  501  0.00000000000E+00  0.00000000000E+00  0.69760046693E+03  0.69760046694E+03  0.25500000920E-02 0.  1.
        2   -1    0    0  501    0  0.00000000000E+00  0.00000000000E+00 -0.14740567467E+04  0.14740567467E+04  0.25500000920E-02 0. -1.
    10030    2    1    2    0    0  0.00000000000E+00  0.00000000000E+00 -0.77645627980E+03  0.21716572137E+04  0.20281051993E+04 0.  0.
        1    1    3    3  502    0 -0.38577511433E+03  0.88937863242E+02  0.61143114918E+03  0.72840952257E+03  0.50400001928E-02 0.  1.
       -1    1    3    3    0  502  0.38577511433E+03 -0.88937863242E+02 -0.13878874290E+04  0.14432476911E+04  0.50400001928E-02 0. -1.
</event>
<event>
 5   0  0.1680258E-04  0.2222010E+04  0.7818609E-02  0.8509323E-01
       -2   -1    0    0    0  501  0.00000000000E+00  0.00000000000E+00  0.49025129778E+03  0.49025129779E+03  0.25500000920E-02 0. -1.
        2   -1    0    0  501    0  0.00000000000E+00  0.00000000000E+00 -0.25177538146E+04  0.25177538146E+04  0.25500000920E-02 0.  1.
    10030    2    1    2    0    0  0.00000000000E+00  0.00000000000E+00 -0.20275025168E+04  0.30080051124E+04  0.22220099686E+04 0.  0.
        5    1    3    3  502    0  0.82038403814E+03 -0.74298660817E+03 -0.11439554351E+04  0.15917648060E+04  0.46999998093E+01 0.  1.
       -5    1    3    3    0  502 -0.82038403814E+03  0.74298660817E+03 -0.88354708170E+03  0.14162403064E+04  0.46999998093E+01 0. -1.
</event>
<event>
 5   0  0.7954459E-05  0.2154562E+04  0.7818609E-02  0.8537582E-01
       -1   -1    0    0    0  501  0.00000000000E+00  0.00000000000E+00  0.96684095738E+03  0.96684095739E+03  0.50400001928E-02 0.  1.
        1   -1    0    0  501    0  0.00000000000E+00  0.00000000000E+00 -0.12003360260E+04  0.12003360260E+04  0.50400001928E-02 0. -1.
    10030    2    1    2    0    0  0.00000000000E+00  0.00000000000E+00 -0.23349506864E+03  0.21671769834E+04  0.21545617026E+04 0.  0.
        5    1    3    3  502    0  0.37252021921E+03  0.33076462168E+03  0.84400758095E+03  0.98007521924E+03  0.46999998093E+01 0.  1.
       -5    1    3    3    0  502 -0.37252021921E+03 -0.33076462168E+03 -0.10775026496E+04  0.11871017642E+04  0.46999998093E+01 0. -1.
</event>
<event>
 5   0  0.1798917E-04  0.2142760E+04  0.7818609E-02  0.8542638E-01
        2   -1    0    0  501    0  0.00000000000E+00  0.00000000000E+00  0.99769935004E+03  0.99769935004E+03  0.25500000920E-02 0.  1.
       -2   -1    0    0    0  501  0.00000000000E+00  0.00000000000E+00 -0.11505024141E+04  0.11505024141E+04  0.25500000920E-02 0. -1.
    10030    2    1    2    0    0  0.00000000000E+00  0.00000000000E+00 -0.15280306408E+03  0.21482017642E+04  0.21427603793E+04 0.  0.
        4    1    3    3  502    0  0.14268917948E+03  0.30265881553E+03 -0.10967736012E+04  0.11466806468E+04  0.12699999809E+01 0. -1.
       -4    1    3    3    0  502 -0.14268917948E+03 -0.30265881553E+03  0.94397053715E+03  0.10015211173E+04  0.12699999809E+01 0.  1.
</event>
<event>
 5   0  0.1754356E-04  0.2158760E+04  0.7818609E-02  0.8535792E-01
        2   -1    0    0  501    0  0.00000000000E+00  0.00000000000E+00  0.18649288353E+04  0.18649288353E+04  0.25500000920E-02 0.  1.
       -2   -1    0    0    0  501  0.00000000000E+00  0.00000000000E+00 -0.62472125061E+03  0.62472125061E+03  0.25500000920E-02 0. -1.
    10030    2    1    2    0    0  0.00000000000E+00  0.00000000000E+00  0.12402075847E+04  0.24896500859E+04  0.21587595274E+04 0.  0.
        1    1    3    3  502    0  0.97526143726E+03 -0.39621708563E+03  0.34491263218E+03  0.11077398493E+04  0.50400001928E-02 0. -1.
       -1    1    3    3    0  502 -0.97526143726E+03  0.39621708563E+03  0.89529495254E+03  0.13819102366E+04  0.50400001928E-02 0.  1.
</event>
<event>
 5   0  0.8602414E-05  0.2375450E+04  0.7818609E-02  0.8448752E-01
        1   -1    0    0  501    0  0.00000000000E+00  0.00000000000E+00  0.27728308780E+04  0.27728308780E+04  0.50400001928E-02 0. -1.
       -1   -1    0    0    0  501  0.00000000000E+00  0.00000000000E+00 -0.50875446763E+03  0.50875446765E+03  0.50400001928E-02 0.  1.
    10030    2    1    2    0    0  0.00000000000E+00  0.00000000000E+00  0.22640764104E+04  0.32815853457E+04  0.23754495130E+04 0.  0.
        3    1    3    3  502    0 -0.26445015280E+03 -0.85522822461E+03  0.53667554298E+02  0.89678838979E+03  0.10100000352E+00 0.  1.
       -3    1    3    3    0  502  0.26445015280E+03  0.85522822461E+03  0.22104088561E+04  0.23847969559E+04  0.10100000352E+00 0. -1.
</event>
<event>
 5   0  0.1733962E-04  0.2101602E+04  0.7818609E-02  0.8560538E-01
       -2   -1    0    0    0  501  0.00000000000E+00  0.00000000000E+00  0.81720316963E+03  0.81720316963E+03  0.25500000920E-02 0. -1.
        2   -1    0    0  501    0  0.00000000000E+00  0.00000000000E+00 -0.13511728216E+04  0.13511728216E+04  0.25500000920E-02 0.  1.
    10030    2    1    2    0    0  0.00000000000E+00  0.00000000000E+00 -0.53396965193E+03  0.21683759912E+04  0.21016019723E+04 0.  0.
        3    1    3    3  502    0  0.13128415785E+03  0.33161441383E+03  0.75284274462E+03  0.83305213396E+03  0.10100000352E+00 0. -1.
       -3    1    3    3    0  502 -0.13128415785E+03 -0.33161441383E+03 -0.12868123966E+04  0.13353238572E+04  0.10100000352E+00 0.  1.
</event>
<event>
 5   0  0.8602414E-05  0.2204522E+04  0.7818609E-02  0.8516548E-01
        1   -1    0    0  501    0  0.00000000000E+00  0.00000000000E+00  0.96183437489E+03  0.96183437491E+03  0.50400001928E-02 0. -1.
       -1   -1    0    0    0  501  0.00000000000E+00  0.00000000000E+00 -0.12631901419E+04  0.12631901419E+04  0.50400001928E-02 0.  1.
    10030    2    1    2    0    0  0.00000000000E+00  0.00000000000E+00 -0.30135576703E+03  0.22250245168E+04  0.22045223524E+04 0.  0.
        3    1    3    3  502    0  0.44613225374E+03  0.95588948998E+02 -0.11634079906E+04  0.12496757170E+04  0.10100000352E+00 0.  1.
       -3    1    3    3    0  502 -0.44613225374E+03 -0.95588948998E+02  0.86205222354E+03  0.97534879982E+03  0.10100000352E+00 0. -1.
</event>
<event>
 5   0  0.7954459E-05  0.2245585E+04  0.7818609E-02  0.8499691E-01
        1   -1    0    0  501    0  0.00000000000E+00  0.00000000000E+00  0.13363564361E+04  0.13363564361E+04  0.50400001928E-02 0. -1.
       -1   -1    0    0    0  501  0.00000000000E+00  0.00000000000E+00 -0.94335858706E+03  0.94335858707E+03  0.50400001928E-02 0.  1.
    10030    2    1    2    0    0  0.00000000000E+00  0.00000000000E+00  0.39299784906E+03  0.22797150232E+04  0.22455852862E+04 0.  0.
        5    1    3    3  502    0 -0.71296446000E+03 -0.84786557941E+03  0.10834484644E+02  0.11078509999E+04  0.46999998093E+01 0. -1.
       -5    1    3    3    0  502  0.71296446000E+03  0.84786557941E+03  0.38216336441E+03  0.11718640233E+04  0.46999998093E+01 0.  1.
</event>
<event>
 5   0  0.8306787E-05  0.1920096E+04  0.7818609E-02  0.8644917E-01
       -1   -1    0    0    0  501  0.00000000000E+00  0.00000000000E+00  0.11754487799E+04  0.11754487799E+04  0.50400001928E-02 0. -1.
        1   -1    0    0  501    0  0.00000000000E+00  0.00000000000E+00 -0.78411966318E+03  0.78411966320E+03  0.50400001928E-02 0.  1.
    10030    2    1    2    0    0  0.00000000000E+00  0.00000000000E+00  0.39132911672E+03  0.19595684431E+04  0.19200963532E+04 0.  0.
        1    1    3    3  502    0 -0.14438794277E+03 -0.65270830668E+03 -0.50757017165E+03  0.83934706219E+03  0.50400001928E-02 0.  1.
       -1    1    3    3    0  502  0.14438794277E+03  0.65270830668E+03  0.89889928837E+03  0.11202213809E+04  0.50400001928E-02 0. -1.
</event>
<event>
 5   0  0.8306787E-05  0.2081179E+04  0.7818609E-02  0.8569580E-01
       -1   -1    0    0    0  501  0.00000000000E+00  0.00000000000E+00  0.95872132240E+03  0.95872132241E+03  0.50400001928E-02 0.  1.
        1   -1    0    0  501    0  0.00000000000E+00  0.00000000000E+00 -0.11294490362E+04  0.11294490362E+04  0.50400001928E-02 0. -1.
    10030    2    1    2    0    0  0.00000000000E+00  0.00000000000E+00 -0.17072771383E+03  0.20881703587E+04  0.20811793518E+04 0.  0.
        1    1    3    3  502    0 -0.12019516191E+03  0.10229567505E+04  0.63253528314E+02  0.10319342998E+04  0.50400001928E-02 0.  1.
       -1    1    3    3    0  502  0.12019516191E+03 -0.10229567505E+04 -0.23398124214E+03  0.10562360588E+04  0.50400001928E-02 0. -1.
</event>
<event>
 5   0  0.1733962E-04  0.2051936E+04  0.7818609E-02  0.8582717E-01
       -2   -1    0    0    0  501  0.00000000000E+00  0.00000000000E+00  0.83559199862E+03  0.83559199862E+03  0.25500000920E-02 0.  1.
        2   -1    0    0  501    0  0.00000000000E+00  0.00000000000E+00 -0.12597181575E+04  0.12597181575E+04  0.25500000920E-02 0. -1.
    10030    2    1    2    0    0  0.00000000000E+00  0.00000000000E+00 -0.42412615893E+03  0.20953101562E+04  0.20519360740E+04 0.  0.
        3    1    3    3  502    0 -0.27540173757E+03 -0.83169659781E+03  0.33311859217E+03  0.93730110131E+03  0.10100000352E+00 0.  1.
       -3    1    3    3    0  502  0.27540173757E+03  0.83169659781E+03 -0.75724475109E+03  0.11580090549E+04  0.10100000352E+00 0. -1.
</event>
<event>
 5   0  0.8306787E-05  0.2147565E+04  0.7818609E-02  0.8540575E-01
        1   -1    0    0  501    0  0.00000000000E+00  0.00000000000E+00  0.77350086977E+03  0.77350086978E+03  0.50400001928E-02 0. -1.
       -1   -1    0    0    0  501  0.00000000000E+00  0.00000000000E+00 -0.14906371174E+04  0.14906371174E+04  0.50400001928E-02 0.  1.
    10030    2    1    2    0    0  0.00000000000E+00  0.00000000000E+00 -0.71713624764E+03  0.22641379872E+04  0.21475652324E+04 0.  0.
        1    1    3    3  502    0 -0.50346623644E+03  0.90809126431E+03 -0.64710455606E+03  0.12234591542E+04  0.50400001928E-02 0.  1.
       -1    1    3    3    0  502  0.50346623644E+03 -0.90809126431E+03 -0.70031691586E+02  0.10406788330E+04  0.50400001928E-02 0. -1.
</event>
<event>
 5   0  0.8470971E-05  0.2193975E+04  0.7818609E-02  0.8520940E-01
        1   -1    0    0  501    0  0.00000000000E+00  0.00000000000E+00  0.12921069654E+04  0.12921069654E+04  0.50400001928E-02 0.  1.
       -1   -1    0    0    0  501  0.00000000000E+00  0.00000000000E+00 -0.93133256050E+03  0.93133256052E+03  0.50400001928E-02 0. -1.
    10030    2    1    2    0    0  0.00000000000E+00  0.00000000000E+00  0.36077440487E+03  0.22234395259E+04  0.21939747387E+04 0.  0.
        2    1    3    3  502    0  0.52577299548E+03 -0.72996724344E+03 -0.45581099807E+03  0.10084904983E+04  0.25500000920E-02 0. -1.
       -2    1    3    3    0  502 -0.52577299548E+03  0.72996724344E+03  0.81658540294E+03  0.12149490276E+04  0.25500000920E-02 0.  1.
</event>
<event>
 5   0  0.7954459E-05  0.2154107E+04  0.7818609E-02  0.8537776E-01
       -1   -1    0    0    0  501  0.00000000000E+00  0.00000000000E+00  0.60547254173E+03  0.60547254175E+03  0.50400001928E-02 0. -1.
        1   -1    0    0  501    0  0.00000000000E+00  0.00000000000E+00 -0.19159316491E+04  0.19159316491E+04  0.50400001928E-02 0.  1.
    10030    2    1    2    0    0  0.00000000000E+00  0.00000000000E+00 -0.13104591073E+04  0.25214041908E+04  0.21541067804E+04 0.  0.
        5    1    3    3  502    0 -0.45386120604E+03  0.31120825145E+03 -0.17389358536E+04  0.18239409429E+04  0.46999998093E+01 0.  1.
       -5    1    3    3    0  502  0.45386120604E+03 -0.31120825145E+03  0.42847674629E+03  0.69746324794E+03  0.46999998093E+01 0. -1.
</event>
<event>
 5   0  0.1754356E-04  0.2183167E+04  0.7818609E-02  0.8525467E-01
        2   -1    0    0  501    0  0.00000000000E+00  0.00000000000E+00  0.17987503720E+04  0.17987503720E+04  0.25500000920E-02 0. -1.
       -2   -1    0    0    0  501  0.00000000000E+00  0.00000000000E+00 -0.66243466940E+03  0.66243466940E+03  0.25500000920E-02 0.  1.
    10030    2    1    2    0    0  0.00000000000E+00  0.00000000000E+00  0.11363157026E+04  0.24611850414E+04  0.21831670646E+04 0.  0.
        1    1    3    3  502    0  0.88086152273E+03  0.87645103677E+02 -0.15189424094E+03  0.89814839914E+03  0.50400001928E-02 0.  1.
       -1    1    3    3    0  502 -0.88086152273E+03 -0.87645103677E+02  0.12882099436E+04  0.15630366423E+04  0.50400001928E-02 0. -1.
</event>
<event>
 5   0  0.1733962E-04  0.2215425E+04  0.7818609E-02  0.8512035E-01
        2   -1    0    0  501    0  0.00000000000E+00  0.00000000000E+00  0.11770791812E+04  0.11770791812E+04  0.25500000920E-02 0.  1.
       -2   -1    0    0    0  501  0.00000000000E+00  0.00000000000E+00 -0.10424339699E+04  0.10424339699E+04  0.25500000920E-02 0. -1.
    10030    2    1    2    0    0  0.00000000000E+00  0.00000000000E+00  0.13464521129E+03  0.22195131511E+04  0.22154253079E+04 0.  0.
        3    1    3    3  502    0 -0.10666823196E+04 -0.18147771966E+03 -0.17035337442E+03  0.10953381286E+04  0.10100000352E+00 0. -1.
       -3    1    3    3    0  502  0.10666823196E+04  0.18147771966E+03  0.30499858571E+03  0.11241750225E+04  0.10100000352E+00 0.  1.
</event>
<event>
 5   0  0.8306787E-05  0.2201322E+04  0.7818609E-02  0.8517878E-01
        1   -1    0    0  501    0  0.00000000000E+00  0.00000000000E+00  0.97028863917E+03  0.97028863919E+03  0.50400001928E-02 0. -1.
       -1   -1    0    0    0  501  0.00000000000E+00  0.00000000000E+00 -0.12485502845E+04  0.12485502846E+04  0.50400001928E-02 0.  1.
    10030    2    1    2    0    0  0.00000000000E+00  0.00000000000E+00 -0.27826164537E+03  0.22188389237E+04  0.22013215636E+04 0.  0.
        1    1    3    3  502    0  0.79133472280E+03  0.52956516706E+03  0.41735332190E+03  0.10396315237E+04  0.50400001928E-02 0. -1.
       -1    1    3    3    0  502 -0.79133472280E+03 -0.52956516706E+03 -0.69561496727E+03  0.11792074001E+04  0.50400001928E-02 0.  1.
</event>
<event>
 5   0  0.8470971E-05  0.2126851E+04  0.7818609E-02  0.8549507E-01
        1   -1    0    0  501    0  0.00000000000E+00  0.00000000000E+00  0.16066081393E+04  0.16066081393E+04  0.50400001928E-02 0. -1.
       -1   -1    0    0    0  501  0.00000000000E+00  0.00000000000E+00 -0.70388898429E+03  0.70388898431E+03  0.50400001928E-02 0.  1.
    10030    2    1    2    0    0  0.00000000000E+00  0.00000000000E+00  0.90271915500E+03  0.23104971236E+04  0.21268509786E+04 0.  0.
        2    1    3    3  502    0 -0.73304781336E+03  0.46203379863E+03  0.11210632917E+04  0.14169041011E+04  0.25500000920E-02 0. -1.
       -2    1    3    3    0  502  0.73304781336E+03 -0.46203379863E+03 -0.21834413672E+03  0.89359302247E+03  0.25500000920E-02 0.  1.
</event>
<event>
 5   0  0.8784659E-05  0.2203572E+04  0.7818609E-02  0.8516943E-01
       -1   -1    0    0    0  501  0.00000000000E+00  0.00000000000E+00  0.82741198284E+03  0.82741198286E+03  0.50400001928E-02 0. -1.
        1   -1    0    0  501    0  0.00000000000E+00  0.00000000000E+00 -0.14671438741E+04  0.14671438741E+04  0.50400001928E-02 0.  1.
    10030    2    1    2    0    0  0.00000000000E+00  0.00000000000E+00 -0.63973189121E+03  0.22945558569E+04  0.22035720292E+04 0.  0.
        4    1    3    3  502    0  0.53151963897E+03  0.24661638381E+01  0.68507884801E+03  0.86709506368E+03  0.12699999809E+01 0. -1.
       -4    1    3    3    0  502 -0.53151963897E+03 -0.24661638381E+01 -0.13248107392E+04  0.14274607932E+04  0.12699999809E+01 0.  1.
</event>
<event>
 5   0  0.8602414E-05  0.2185317E+04  0.7818609E-02  0.8524564E-01
       -1   -1    0    0    0  501  0.00000000000E+00  0.00000000000E+00  0.55765937162E+03  0.55765937164E+03  0.50400001928E-02 0.  1.
        1   -1    0    0  501    0  0.00000000000E+00  0.00000000000E+00 -0.21409170980E+04  0.21409170980E+04  0.50400001928E-02 0. -1.
    10030    2    1    2    0    0  0.00000000000E+00  0.00000000000E+00 -0.15832577264E+04  0.26985764696E+04  0.21853168956E+04 0.  0.
        3    1    3    3  502    0  0.35895375118E+03 -0.10299925195E+04 -0.71188580230E+03  0.13025028950E+04  0.10100000352E+00 0.  1.
       -3    1    3    3    0  502 -0.35895375118E+03  0.10299925195E+04 -0.87137192407E+03  0.13960735747E+04  0.10100000352E+00 0. -1.
</event>
<event>
 5   0  0.8306787E-05  0.2389164E+04  0.7818609E-02  0.8443572E-01
       -1   -1    0    0    0  501  0.00000000000E+00  0.00000000000E+00  0.13140995177E+04  0.13140995177E+04  0.50400001928E-02 0.  1.
        1   -1    0    0  501    0  0.00000000000E+00  0.00000000000E+00 -0.10859342756E+04  0.10859342756E+04  0.50400001928E-02 0. -1.
    10030    2    1    2    0    0  0.00000000000E+00  0.00000000000E+00  0.22816524216E+03  0.24000337933E+04  0.23891636259E+04 0.  0.
        1    1    3    3  502    0 -0.52681022724E+03 -0.10721028744E+04  0.12372415370E+03  0.12009334932E+04  0.50400001928E-02 0.  1.
       -1    1    3    3    0  502  0.52681022724E+03  0.10721028744E+04  0.10444108846E+03  0.11991003001E+04  0.50400001928E-02 0. -1.
</event>
<event>
 5   0  0.1798917E-04  0.2280355E+04  0.7818609E-02  0.8485707E-01
        2   -1    0    0  501    0  0.00000000000E+00  0.00000000000E+00  0.11631523731E+04  0.11631523731E+04  0.25500000920E-02 0.  1.
       -2   -1    0    0    0  501  0.00000000000E+00  0.00000000000E+00 -0.11176562373E+04  0.11176562373E+04  0.25500000920E-02 0. -1.
    10030    2    1    2    0    0  0.00000000000E+00  0.00000000000E+00  0.45496135759E+02  0.22808086104E+04  0.22803548011E+04 0.  0.
        4    1    3    3  502    0  0.10600787954E+04  0.19795834046E+03 -0.34752600315E+03  0.11330183109E+04  0.12699999809E+01 0. -1.
       -4    1    3    3    0  502 -0.10600787954E+04 -0.19795834046E+03  0.39302213891E+03  0.11477902995E+04  0.12699999809E+01 0.  1.
</event>
<event>
 5   0  0.1798917E-04  0.2184557E+04  0.7818609E-02  0.8524884E-01
        2   -1    0    0  501    0  0.00000000000E+00  0.00000000000E+00  0.72084001984E+03  0.72084001985E+03  0.25500000920E-02 0.  1.
       -2   -1    0    0    0  501  0.00000000000E+00  0.00000000000E+00 -0.16551134236E+04  0.16551134236E+04  0.25500000920E-02 0. -1.
    10030    2    1    2    0    0  0.00000000000E+00  0.00000000000E+00 -0.93427340377E+03  0.23759534435E+04  0.21845566993E+04 0.  0.
        4    1    3    3  502    0  0.84297632140E+03  0.35624375551E+03 -0.11156605903E+04  0.14429895556E+04  0.12699999809E+01 0. -1.
       -4    1    3    3    0  502 -0.84297632140E+03 -0.35624375551E+03  0.18138718654E+03  0.93296388790E+03  0.12699999809E+01 0.  1.
</event>
<event>
 5   0  0.8306787E-05  0.1458977E+04  0.7818609E-02  0.8912200E-01
        1   -1    0    0  501    0  0.00000000000E+00  0.00000000000E+00  0.94896938854E+03  0.94896938856E+03  0.50400001928E-02 0.  1.
       -1   -1    0    0    0  501  0.00000000000E+00  0.00000000000E+00 -0.56077008183E+03  0.56077008185E+03  0.50400001928E-02 0. -1.
    10030    2    1    2    0    0  0.00000000000E+00  0.00000000000E+00  0.38819930672E+03  0.15097394704E+04  0.14589772331E+04 0.  0.
        1    1    3    3  502    0 -0.48808187500E+03 -0.36180119580E+03 -0.22371796783E+03  0.64743629118E+03  0.50400001928E-02 0.  1.
       -1    1    3    3    0  502  0.48808187500E+03  0.36180119580E+03  0.61191727455E+03  0.86230317922E+03  0.50400001928E-02 0. -1.
</event>
<event>
 5   0  0.8784659E-05  0.2182722E+04  0.7818609E-02  0.8525654E-01
       -1   -1    0    0    0  501  0.00000000000E+00  0.00000000000E+00  0.73736108981E+03  0.73736108983E+03  0.50400001928E-02 0. -1.
        1   -1    0    0  501    0  0.00000000000E+00  0.00000000000E+00 -0.16153123172E+04  0.16153123172E+04  0.50400001928E-02 0.  1.
    10030    2    1    2    0    0  0.00000000000E+00  0.00000000000E+00 -0.87795122739E+03  0.23526734070E+04  0.21827216503E+04 0.  0.
        4    1    3    3  502    0  0.41321616508E+03  0.43925431176E+03  0.54144956286E+03  0.81046973509E+03  0.12699999809E+01 0. -1.
       -4    1    3    3    0  502 -0.41321616508E+03 -0.43925431176E+03 -0.14194007902E+04  0.15422036719E+04  0.12699999809E+01 0.  1.
</event>
<event>
 5   0  0.1798917E-04  0.2199118E+04  0.7818609E-02  0.8518795E-01
       -2   -1    0    0    0  501  0.00000000000E+00  0.00000000000E+00  0.19740731311E+04  0.19740731311E+04  0.25500000920E-02 0.  1.
        2   -1    0    0  501    0  0.00000000000E+00  0.00000000000E+00 -0.61245443398E+03  0.61245443399E+03  0.25500000920E-02 0. -1.
    10030    2    1    2    0    0  0.00000000000E+00  0.00000000000E+00  0.13616186972E+04  0.25865275651E+04  0.21991178615E+04 0.  0.
        4    1    3    3  502    0 -0.23052550562E+03  0.64879058815E+03  0.16891321045E+04  0.18240723986E+04  0.12699999809E+01 0.  1.
       -4    1    3    3    0  502  0.23052550562E+03 -0.64879058815E+03 -0.32751340737E+03  0.76245516649E+03  0.12699999809E+01 0. -1.
</event>
<event>
 5   0  0.1798917E-04  0.1892189E+04  0.7818609E-02  0.8658754E-01
       -2   -1    0    0    0  501  0.00000000000E+00  0.00000000000E+00  0.48473272754E+03  0.48473272754E+03  0.25500000920E-02 0.  1.
        2   -1    0    0  501    0  0.00000000000E+00  0.00000000000E+00 -0.18465745601E+04  0.18465745601E+04  0.25500000920E-02 0. -1.
    10030    2    1    2    0    0  0.00000000000E+00  0.00000000000E+00 -0.13618418326E+04  0.23313072877E+04  0.18921893385E+04 0.  0.
        4    1    3    3  502    0  0.53187697140E+03 -0.31855774393E+02 -0.16441320400E+04  0.17283170082E+04  0.12699999809E+01 0. -1.
       -4    1    3    3    0  502 -0.53187697140E+03  0.31855774393E+02  0.28229020737E+03  0.60299027948E+03  0.12699999809E+01 0.  1.
</event>
<event>
 5   0  0.1680258E-04  0.2170649E+04  0.7818609E-02  0.8530745E-01
       -2   -1    0    0    0  501  0.00000000000E+00  0.00000000000E+00  0.65541990549E+03  0.65541990549E+03  0.25500000920E-02 0.  1.
        2   -1    0    0  501    0  0.00000000000E+00  0.00000000000E+00 -0.17972134688E+04  0.17972134688E+04  0.25500000920E-02 0. -1.
    10030    2    1    2    0    0  0.00000000000E+00  0.00000000000E+00 -0.11417935634E+04  0.24526333743E+04  0.21706491950E+04 0.  0.
        5    1    3    3  502    0 -0.11271921824E+03 -0.17304788901E+03  0.63300188350E+03  0.66585634229E+03  0.46999998093E+01 0.  1.
       -5    1    3    3    0  502  0.11271921824E+03  0.17304788901E+03 -0.17747954469E+04  0.17867770320E+04  0.46999998093E+01 0. -1.
</event>
<event>
 5   0  0.1754356E-04  0.1718381E+04  0.7818609E-02  0.8750950E-01
       -2   -1    0    0    0  501  0.00000000000E+00  0.00000000000E+00  0.66890715184E+03  0.66890715184E+03  0.25500000920E-02 0.  1.
        2   -1    0    0  501    0  0.00000000000E+00  0.00000000000E+00 -0.11036039818E+04  0.11036039818E+04  0.25500000920E-02 0. -1.
    10030    2    1    2    0    0  0.00000000000E+00  0.00000000000E+00 -0.43469682994E+03  0.17725111336E+04  0.17183813270E+04 0.  0.
        1    1    3    3  502    0  0.30796039144E+03  0.57925585002E+03 -0.78965147071E+03  0.10266091699E+04  0.50400001928E-02 0. -1.
       -1    1    3    3    0  502 -0.30796039144E+03 -0.57925585002E+03  0.35495464077E+03  0.74590196374E+03  0.50400001928E-02 0.  1.
</event>
<event>
 5   0  0.6250625E-05  0.1782255E+04  0.7818609E-02  0.8715794E-01
        3   -1    0    0  501    0  0.00000000000E+00  0.00000000000E+00  0.44373228450E+03  0.44373229600E+03  0.10100000352E+00 0.  1.
       -3   -1    0    0    0  501  0.00000000000E+00  0.00000000000E+00 -0.17896104032E+04  0.17896104060E+04  0.10100000352E+00 0. -1.
    10030    2    1    2    0    0  0.00000000000E+00  0.00000000000E+00 -0.13458781187E+04  0.22333427020E+04  0.17822546716E+04 0.  0.
        2    1    3    3  502    0  0.67009815892E+01  0.87837311145E+03 -0.86100298592E+03  0.12300042146E+04  0.25500000920E-02 0.  1.
       -2    1    3    3    0  502 -0.67009815892E+01 -0.87837311145E+03 -0.48487513277E+03  0.10033384875E+04  0.25500000920E-02 0. -1.
</event>
<event>
 5   0  0.1680258E-04  0.2216354E+04  0.7818609E-02  0.8511652E-01
        2   -1    0    0  501    0  0.00000000000E+00  0.00000000000E+00  0.19331911110E+04  0.19331911110E+04  0.25500000920E-02 0.  1.
       -2   -1    0    0    0  501  0.00000000000E+00  0.00000000000E+00 -0.63524802902E+03  0.63524802903E+03  0.25500000920E-02 0. -1.
    10030    2    1    2    0    0  0.00000000000E+00  0.00000000000E+00  0.12979430820E+04  0.25684391400E+04  0.22163536207E+04 0.  0.
        5    1    3    3  502    0 -0.77336268355E+03  0.54997069486E+03 -0.14191114895E+02  0.94909487579E+03  0.46999998093E+01 0.  1.
       -5    1    3    3    0  502  0.77336268355E+03 -0.54997069486E+03  0.13121341969E+04  0.16193442642E+04  0.46999998093E+01 0. -1.
</event>
<event>
 5   0  0.8470971E-05  0.2141443E+04  0.7818609E-02  0.8543204E-01
        1   -1    0    0  501    0  0.00000000000E+00  0.00000000000E+00  0.22462435833E+04  0.22462435833E+04  0.50400001928E-02 0.  1.
       -1   -1    0    0    0  501  0.00000000000E+00  0.00000000000E+00 -0.51038310958E+03  0.51038310961E+03  0.50400001928E-02 0. -1.
    10030    2    1    2    0    0  0.00000000000E+00  0.00000000000E+00  0.17358604737E+04  0.27566266929E+04  0.21414432376E+04 0.  0.
        2    1    3    3  502    0 -0.83950769320E+03  0.65400220537E+03  0.10199853532E+04  0.14740631507E+04  0.25500000920E-02 0.  1.
       -2    1    3    3    0  502  0.83950769320E+03 -0.65400220537E+03  0.71587512052E+03  0.12825635422E+04  0.25500000920E-02 0. -1.
</event>
<event>
 5   0  0.1680258E-04  0.2060061E+04  0.7818609E-02  0.8579044E-01
       -2   -1    0    0    0  501  0.00000000000E+00  0.00000000000E+00  0.14031743434E+04  0.14031743434E+04  0.25500000920E-02 0.  1.
        2   -1    0    0  501    0  0.00000000000E+00  0.00000000000E+00 -0.75611648012E+03  0.75611648012E+03  0.25500000920E-02 0. -1.
    10030    2    1    2    0    0  0.00000000000E+00  0.00000000000E+00  0.64705786324E+03  0.21592908235E+04  0.20600614025E+04 0.  0.
        5    1    3    3  502    0 -0.35427782668E+03  0.94975392859E+03  0.13198110054E+03  0.10222457651E+04  0.46999998093E+01 0.  1.
       -5    1    3    3    0  502  0.35427782668E+03 -0.94975392859E+03  0.51507676270E+03  0.11370450584E+04  0.46999998093E+01 0. -1.
</event>
<event>
 5   0  0.8602414E-05  0.2230033E+04  0.7818609E-02  0.8506031E-01
       -1   -1    0    0    0  501  0.00000000000E+00  0.00000000000E+00  0.11863935028E+04  0.11863935028E+04  0.50400001928E-02 0.  1.
        1   -1    0    0  501    0  0.00000000000E+00  0.00000000000E+00 -0.10479333952E+04  0.10479333953E+04  0.50400001928E-02 0. -1.
    10030    2    1    2    0    0  0.00000000000E+00  0.00000000000E+00  0.13846010752E+03  0.22343268980E+04  0.22300326199E+04 0.  0.
        3    1    3    3  502    0  0.51363415683E+03  0.86962269787E+03  0.54257782188E+03  0.11464965707E+04  0.10100000352E+00 0. -1.
       -3    1    3    3    0  502 -0.51363415683E+03 -0.86962269787E+03 -0.40411771436E+03  0.10878303273E+04  0.10100000352E+00 0.  1.
</event>
<event>
 5   0  0.8784659E-05  0.1930108E+04  0.7818609E-02  0.8640013E-01
        1   -1    0    0  501    0  0.00000000000E+00  0.00000000000E+00  0.14252213026E+04  0.14252213026E+04  0.50400001928E-02 0. -1.
       -1   -1    0    0    0  501  0.00000000000E+00  0.00000000000E+00 -0.65346281852E+03  0.65346281854E+03  0.50400001928E-02 0.  1.
    10030    2    1    2    0    0  0.00000000000E+00  0.00000000000E+00  0.77175848409E+03  0.20786841212E+04  0.19301079031E+04 0.  0.
        4    1    3    3  502    0  0.95006424195E+03 -0.12973853978E+03  0.50323213515E+03  0.10829119758E+04  0.12699999809E+01 0. -1.
       -4    1    3    3    0  502 -0.95006424195E+03  0.12973853978E+03  0.26852634894E+03  0.99577214538E+03  0.12699999809E+01 0.  1.
</event>
<event>
 5   0  0.8602414E-05  0.2166025E+04  0.7818609E-02  0.8532704E-01
       -1   -1    0    0    0  501  0.00000000000E+00  0.00000000000E+00  0.10843891866E+04  0.10843891866E+04  0.50400001928E-02 0. -1.
        1   -1    0    0  501    0  0.00000000000E+00  0.00000000000E+00 -0.10816379411E+04  0.10816379411E+04  0.50400001928E-02 0.  1.
    10030    2    1    2    0    0  0.00000000000E+00  0.00000000000E+00  0.27512454931E+01  0.21660271277E+04  0.21660253804E+04 0.  0.
        3    1    3    3  502    0 -0.92018973143E+03 -0.20025720828E+03 -0.53347468074E+03  0.10823342074E+04  0.10100000352E+00 0.  1.
       -3    1    3    3    0  502  0.92018973143E+03  0.20025720828E+03  0.53622592624E+03  0.10836929203E+04  0.10100000352E+00 0. -1.
</event>
<event>
 5   0  0.8602414E-05  0.2168821E+04  0.7818609E-02  0.8531518E-01
       -1   -1    0    0    0  501  0.00000000000E+00  0.00000000000E+00  0.64011193642E+03  0.64011193644E+03  0.50400001928E-02 0.  1.
        1   -1    0    0  501    0  0.00000000000E+00  0.00000000000E+00 -0.18370952749E+04  0.18370952749E+04  0.50400001928E-02 0. -1.
    10030    2    1    2    0    0  0.00000000000E+00  0.00000000000E+00 -0.11969833385E+04  0.24772072113E+04  0.21688214439E+04 0.  0.
        3    1    3    3  502    0 -0.35831416206E+03  0.53129580755E+03 -0.15976846623E+04  0.17214123748E+04  0.10100000352E+00 0. -1.
       -3    1    3    3    0  502  0.35831416206E+03 -0.53129580755E+03  0.40070132379E+03  0.75579483655E+03  0.10100000352E+00 0.  1.
</event>
<event>
 5   0  0.1805501E-04  0.2168478E+04  0.7818609E-02  0.8531664E-01
       -2   -1    0    0    0  501  0.00000000000E+00  0.00000000000E+00  0.12893154924E+04  0.12893154924E+04  0.25500000920E-02 0. -1.
        2   -1    0    0  501    0  0.00000000000E+00  0.00000000000E+00 -0.91178168261E+03  0.91178168261E+03  0.25500000920E-02 0.  1.
    10030    2    1    2    0    0  0.00000000000E+00  0.00000000000E+00  0.37753380984E+03  0.22010971751E+04  0.21684780369E+04 0.  0.
        2    1    3    3  502    0  0.89427249669E+02  0.56820738528E+03 -0.74414343026E+03  0.94053511921E+03  0.25500000920E-02 0.  1.
       -2    1    3    3    0  502 -0.89427249669E+02 -0.56820738528E+03  0.11216772401E+04  0.12605620558E+04  0.25500000920E-02 0. -1.
</event>
<event>
 5   0  0.7954459E-05  0.2227580E+04  0.7818609E-02  0.8507036E-01
        1   -1    0    0  501    0  0.00000000000E+00  0.00000000000E+00  0.13834886254E+04  0.13834886254E+04  0.50400001928E-02 0.  1.
       -1   -1    0    0    0  501  0.00000000000E+00  0.00000000000E+00 -0.89666631923E+03  0.89666631925E+03  0.50400001928E-02 0. -1.
    10030    2    1    2    0    0  0.00000000000E+00  0.00000000000E+00  0.48682230614E+03  0.22801549446E+04  0.22275795415E+04 0.  0.
        5    1    3    3  502    0  0.60287486487E+02 -0.24387586831E+03  0.13540998009E+04  0.13772139925E+04  0.46999998093E+01 0.  1.
       -5    1    3    3    0  502 -0.60287486487E+02  0.24387586831E+03 -0.86727749478E+03  0.90294095218E+03  0.46999998093E+01 0. -1.
</event>
<event>
 5   0  0.8470971E-05  0.2237231E+04  0.7818609E-02  0.8503090E-01
       -1   -1    0    0    0  501  0.00000000000E+00  0.00000000000E+00  0.78487892831E+03  0.78487892833E+03  0.50400001928E-02 0.  1.
        1   -1    0    0  501    0  0.00000000000E+00  0.00000000000E+00 -0.15942589051E+04  0.15942589051E+04  0.50400001928E-02 0. -1.
    10030    2    1    2    0    0  0.00000000000E+00  0.00000000000E+00 -0.80937997677E+03  0.23791378334E+04  0.22372306282E+04 0.  0.
        2    1    3    3  502    0 -0.76156984315E+03  0.28193240231E+03 -0.12227888020E+04  0.14678851998E+04  0.25500000920E-02 0. -1.
       -2    1    3    3    0  502  0.76156984315E+03 -0.28193240231E+03  0.41340882524E+03  0.91125263361E+03  0.25500000920E-02 0.  1.
</event>
<event>
 5   0  0.8602414E-05  0.2250216E+04  0.7818609E-02  0.8497813E-01
        1   -1    0    0  501    0  0.00000000000E+00  0.00000000000E+00  0.12527879525E+04  0.12527879525E+04  0.50400001928E-02 0.  1.
       -1   -1    0    0    0  501  0.00000000000E+00  0.00000000000E+00 -0.10104406893E+04  0.10104406893E+04  0.50400001928E-02 0. -1.
    10030    2    1    2    0    0  0.00000000000E+00  0.00000000000E+00  0.24234726321E+03  0.22632286419E+04  0.22502159206E+04 0.  0.
        3    1    3    3  502    0  0.47332148550E+03  0.11690615903E+03  0.11410234002E+04  0.12408201677E+04  0.10100000352E+00 0.  1.
       -3    1    3    3    0  502 -0.47332148550E+03 -0.11690615903E+03 -0.89867613697E+03  0.10224084742E+04  0.10100000352E+00 0. -1.
</event>
<event>
 5   0  0.1754356E-04  0.2115351E+04  0.7818609E-02  0.8554511E-01
       -2   -1    0    0    0  501  0.00000000000E+00  0.00000000000E+00  0.94339968955E+03  0.94339968955E+03  0.25500000920E-02 0. -1.
        2   -1    0    0  501    0  0.00000000000E+00  0.00000000000E+00 -0.11857938118E+04  0.11857938118E+04  0.25500000920E-02 0.  1.
    10030    2    1    2    0    0  0.00000000000E+00  0.00000000000E+00 -0.24239412226E+03  0.21291935014E+04  0.21153510479E+04 0.  0.
        1    1    3    3  502    0  0.11019966799E+03 -0.81299445136E+03  0.55068398938E+03  0.98810768692E+03  0.50400001928E-02 0. -1.
       -1    1    3    3    0  502 -0.11019966799E+03  0.81299445136E+03 -0.79307811164E+03  0.11410858145E+04  0.50400001928E-02 0.  1.
</event>
<event>
 5   0  0.1805501E-04  0.1899191E+04  0.7818609E-02  0.8655259E-01
       -2   -1    0    0    0  501  0.00000000000E+00  0.00000000000E+00  0.64477039358E+03  0.64477039358E+03  0.25500000920E-02 0. -1.
        2   -1    0    0  501    0  0.00000000000E+00  0.00000000000E+00 -0.13985318789E+04  0.13985318789E+04  0.25500000920E-02 0.  1.
    10030    2    1    2    0    0  0.00000000000E+00  0.00000000000E+00 -0.75376148530E+03  0.20433022725E+04  0.18991913542E+04 0.  0.
        2    1    3    3  502    0  0.44325784475E+03  0.19614349328E+03  0.50164780877E+03  0.69756742394E+03  0.25500000920E-02 0. -1.
       -2    1    3    3    0  502 -0.44325784475E+03 -0.19614349328E+03 -0.12554092941E+04  0.13457348485E+04  0.25500000920E-02 0.  1.
</event>
<event>
 5   0  0.8602414E-05  0.2092565E+04  0.7818609E-02  0.8564526E-01
       -1   -1    0    0    0  501  0.00000000000E+00  0.00000000000E+00  0.12985358367E+04  0.12985358367E+04  0.50400001928E-02 0. -1.
        1   -1    0    0  501    0  0.00000000000E+00  0.00000000000E+00 -0.84303155658E+03  0.84303155659E+03  0.50400001928E-02 0.  1.
    10030    2    1    2    0    0  0.00000000000E+00  0.00000000000E+00  0.45550428010E+03  0.21415673933E+04  0.20925646348E+04 0.  0.
        3    1    3    3  502    0  0.65494729236E+03  0.73058468016E+03 -0.14406934272E+03  0.99169850074E+03  0.10100000352E+00 0. -1.
       -3    1    3    3    0  502 -0.65494729236E+03 -0.73058468016E+03  0.59957362282E+03  0.11498688925E+04  0.10100000352E+00 0.  1.
</event>
<event>
 5   0  0.1754356E-04  0.2194467E+04  0.7818609E-02  0.8520735E-01
       -2   -1    0    0    0  501  0.00000000000E+00  0.00000000000E+00  0.52672013585E+03  0.52672013586E+03  0.25500000920E-02 0. -1.
        2   -1    0    0  501    0  0.00000000000E+00  0.00000000000E+00 -0.22856942336E+04  0.22856942336E+04  0.25500000920E-02 0.  1.
    10030    2    1    2    0    0  0.00000000000E+00  0.00000000000E+00 -0.17589740977E+04  0.28124143694E+04  0.21944668393E+04 0.  0.
        1    1    3    3  502    0 -0.72742649652E+03 -0.71245307983E+03 -0.35546970045E+03  0.10784699378E+04  0.50400001928E-02 0. -1.
       -1    1    3    3    0  502  0.72742649652E+03  0.71245307983E+03 -0.14035043973E+04  0.17339444316E+04  0.50400001928E-02 0.  1.
</event>
<event>
 5   0  0.8306787E-05  0.2280878E+04  0.7818609E-02  0.8485499E-01
        1   -1    0    0  501    0  0.00000000000E+00  0.00000000000E+00  0.17621505149E+04  0.17621505149E+04  0.50400001928E-02 0. -1.
       -1   -1    0    0    0  501  0.00000000000E+00  0.00000000000E+00 -0.73807592499E+03  0.73807592501E+03  0.50400001928E-02 0.  1.
    10030    2    1    2    0    0  0.00000000000E+00  0.00000000000E+00  0.10240745899E+04  0.25002264399E+04  0.22808777883E+04 0.  0.
        1    1    3    3  502    0  0.10528728254E+04  0.23668635882E+03  0.10773198462E+03  0.10845127014E+04  0.50400001928E-02 0.  1.
       -1    1    3    3    0  502 -0.10528728254E+04 -0.23668635882E+03  0.91634260525E+03  0.14157137385E+04  0.50400001928E-02 0. -1.
</event>
<event>
 5   0  0.8602414E-05  0.1413899E+04  0.7818609E-02  0.8943819E-01
        1   -1    0    0  501    0  0.00000000000E+00  0.00000000000E+00  0.11272198811E+04  0.11272198811E+04  0.50400001928E-02 0.  1.
       -1   -1    0    0    0  501  0.00000000000E+00  0.00000000000E+00 -0.44337183229E+03  0.44337183232E+03  0.50400001928E-02 0. -1.
    10030    2    1    2    0    0  0.00000000000E+00  0.00000000000E+00  0.68384804880E+03  0.15705917134E+04  0.14138989272E+04 0.  0.
        3    1    3    3  502    0 -0.16706633795E+03 -0.34892126186E+03  0.99920883878E+03  0.10714828613E+04  0.10100000352E+00 0.  1.
       -3    1    3    3    0  502  0.16706633795E+03  0.34892126186E+03 -0.31536078998E+03  0.49910885217E+03  0.10100000352E+00 0. -1.
</event>
<event>
 5   0  0.1798917E-04  0.2199815E+04  0.7818609E-02  0.8518505E-01
        2   -1    0    0  501    0  0.00000000000E+00  0.00000000000E+00  0.75159320763E+03  0.75159320764E+03  0.25500000920E-02 0. -1.
       -2   -1    0    0    0  501  0.00000000000E+00  0.00000000000E+00 -0.16096423539E+04  0.16096423539E+04  0.25500000920E-02 0.  1.
    10030    2    1    2    0    0  0.00000000000E+00  0.00000000000E+00 -0.85804914622E+03  0.23612355615E+04  0.21998147739E+04 0.  0.
        4    1    3    3  502    0 -0.10434429219E+04 -0.33494496947E+03 -0.52990728201E+03  0.12172775379E+04  0.12699999809E+01 0. -1.
       -4    1    3    3    0  502  0.10434429219E+04  0.33494496947E+03 -0.32814186421E+03  0.11439580236E+04  0.12699999809E+01 0.  1.
</event>
<event>
 5   0  0.1680258E-04  0.2115008E+04  0.7818609E-02  0.8554661E-01
       -2   -1    0    0    0  501  0.00000000000E+00  0.00000000000E+00  0.87101274028E+03  0.87101274028E+03  0.25500000920E-02 0.  1.
        2   -1    0    0  501    0  0.00000000000E+00  0.00000000000E+00 -0.12839244188E+04  0.12839244188E+04  0.25500000920E-02 0. -1.
    10030    2    1    2    0    0  0.00000000000E+00  0.00000000000E+00 -0.41291167855E+03  0.21549371591E+04  0.21150078263E+04 0.  0.
        5    1    3    3  502    0 -0.79533273557E+03 -0.12087258562E+03  0.49289022099E+03  0.94346552781E+03  0.46999998093E+01 0.  1.
       -5    1    3    3    0  502  0.79533273557E+03  0.12087258562E+03 -0.90580189954E+03  0.12114716313E+04  0.46999998093E+01 0. -1.
</event>
<event>
 5   0  0.1754356E-04  0.2329969E+04  0.7818609E-02  0.8466197E-01
        2   -1    0    0  501    0  0.00000000000E+00  0.00000000000E+00  0.12555785798E+04  0.12555785798E+04  0.25500000920E-02 0. -1.
       -2   -1    0    0    0  501  0.00000000000E+00  0.00000000000E+00 -0.10809274106E+04  0.10809274106E+04  0.25500000920E-02 0.  1.
    10030    2    1    2    0    0  0.00000000000E+00  0.00000000000E+00  0.17465116922E+03  0.23365059905E+04  0.23299693587E+04 0.  0.
        1    1    3    3  502    0 -0.63655482450E+03 -0.84532222463E+03  0.57594772286E+03  0.12047769451E+04  0.50400001928E-02 0. -1.
       -1    1    3    3    0  502  0.63655482450E+03  0.84532222463E+03 -0.40129655364E+03  0.11317290453E+04  0.50400001928E-02 0.  1.
</event>
<event>
 5   0  0.1680258E-04  0.1414773E+04  0.7818609E-02  0.8943194E-01
        2   -1    0    0  501    0  0.00000000000E+00  0.00000000000E+00  0.14258498988E+04  0.14258498988E+04  0.25500000920E-02 0. -1.
       -2   -1    0    0    0  501  0.00000000000E+00  0.00000000000E+00 -0.35094532716E+03  0.35094532717E+03  0.25500000920E-02 0.  1.
    10030    2    1    2    0    0  0.00000000000E+00  0.00000000000E+00  0.10749045717E+04  0.17767952260E+04  0.14147725743E+04 0.  0.
        5    1    3    3  502    0  0.33591070663E+03  0.62012898941E+03  0.60597937074E+03  0.92985431874E+03  0.46999998093E+01 0.  1.
       -5    1    3    3    0  502 -0.33591070663E+03 -0.62012898941E+03  0.46892520095E+03  0.84694090727E+03  0.46999998093E+01 0. -1.
</event>
<event>
 5   0  0.1798917E-04  0.2150637E+04  0.7818609E-02  0.8539259E-01
       -2   -1    0    0    0  501  0.00000000000E+00  0.00000000000E+00  0.94785739874E+03  0.94785739874E+03  0.25500000920E-02 0.  1.
        2   -1    0    0  501    0  0.00000000000E+00  0.00000000000E+00 -0.12199201177E+04  0.12199201177E+04  0.25500000920E-02 0. -1.
    10030    2    1    2    0    0  0.00000000000E+00  0.00000000000E+00 -0.27206271895E+03  0.21677775164E+04  0.21506374027E+04 0.  0.
        4    1    3    3  502    0  0.10320393330E+04  0.19669863984E+03 -0.36701518839E+03  0.11128779363E+04  0.12699999809E+01 0. -1.
       -4    1    3    3    0  502 -0.10320393330E+04 -0.19669863984E+03  0.94952469439E+02  0.10548995801E+04  0.12699999809E+01 0.  1.
</event>
<event>
 5   0  0.8602414E-05  0.2212550E+04  0.7818609E-02  0.8513223E-01
        1   -1    0    0  501    0  0.00000000000E+00  0.00000000000E+00  0.11120591902E+04  0.11120591902E+04  0.50400001928E-02 0.  1.
       -1   -1    0    0    0  501  0.00000000000E+00  0.00000000000E+00 -0.11005204660E+04  0.11005204660E+04  0.50400001928E-02 0. -1.
    10030    2    1    2    0    0  0.00000000000E+00  0.00000000000E+00  0.11538724156E+02  0.22125796562E+04  0.22125495685E+04 0.  0.
        3    1    3    3  502    0  0.89588298852E+03  0.54793963163E+03 -0.34208550692E+03  0.11044757459E+04  0.10100000352E+00 0. -1.
       -3    1    3    3    0  502 -0.89588298852E+03 -0.54793963163E+03  0.35362423107E+03  0.11081039103E+04  0.10100000352E+00 0.  1.
</event>
<event>
 5   0  0.8602414E-05  0.2189668E+04  0.7818609E-02  0.8522741E-01
       -1   -1    0    0    0  501  0.00000000000E+00  0.00000000000E+00  0.13488999671E+04  0.13488999671E+04  0.50400001928E-02 0. -1.
        1   -1    0    0  501    0  0.00000000000E+00  0.00000000000E+00 -0.88862154213E+03  0.88862154215E+03  0.50400001928E-02 0.  1.
    10030    2    1    2    0    0  0.00000000000E+00  0.00000000000E+00  0.46027842500E+03  0.22375215093E+04  0.21896680744E+04 0.  0.
        3    1    3    3  502    0  0.35112226016E+02  0.10100734384E+04  0.66026620485E+03  0.12072417698E+04  0.10100000352E+00 0. -1.
       -3    1    3    3    0  502 -0.35112226016E+02 -0.10100734384E+04 -0.19998777985E+03  0.10302797395E+04  0.10100000352E+00 0.  1.
</event>
<event>
 5   0  0.1733962E-04  0.1996920E+04  0.7818609E-02  0.8608062E-01
       -2   -1    0    0    0  501  0.00000000000E+00  0.00000000000E+00  0.61790100815E+03  0.61790100816E+03  0.25500000920E-02 0. -1.
        2   -1    0    0  501    0  0.00000000000E+00  0.00000000000E+00 -0.16134007132E+04  0.16134007132E+04  0.25500000920E-02 0.  1.
    10030    2    1    2    0    0  0.00000000000E+00  0.00000000000E+00 -0.99549970508E+03  0.22313017214E+04  0.19969195550E+04 0.  0.
        3    1    3    3  502    0  0.81671760896E+03  0.96120287929E+02 -0.11304775463E+04  0.13979435809E+04  0.10100000352E+00 0.  1.
       -3    1    3    3    0  502 -0.81671760896E+03 -0.96120287929E+02  0.13497784119E+03  0.83335814051E+03  0.10100000352E+00 0. -1.
</event>
<event>
 5   0  0.1798917E-04  0.2104485E+04  0.7818609E-02  0.8559270E-01
        2   -1    0    0  501    0  0.00000000000E+00  0.00000000000E+00  0.13543720809E+04  0.13543720809E+04  0.25500000920E-02 0.  1.
       -2   -1    0    0    0  501  0.00000000000E+00  0.00000000000E+00 -0.81751108726E+03  0.81751108726E+03  0.25500000920E-02 0. -1.
    10030    2    1    2    0    0  0.00000000000E+00  0.00000000000E+00  0.53686099365E+03  0.21718831682E+04  0.21044849179E+04 0.  0.
        4    1    3    3  502    0  0.17513139837E+02 -0.79271015579E+03  0.98233330599E+03  0.12624089821E+04  0.12699999809E+01 0.  1.
       -4    1    3    3    0  502 -0.17513139837E+02  0.79271015579E+03 -0.44547231234E+03  0.90947418606E+03  0.12699999809E+01 0. -1.
</event>
<event>
 5   0  0.8470971E-05  0.2116902E+04  0.7818609E-02  0.8553834E-01
       -1   -1    0    0    0  501  0.00000000000E+00  0.00000000000E+00  0.14282079347E+04  0.14282079347E+04  0.50400001928E-02 0. -1.
        1   -1    0    0  501    0  0.00000000000E+00  0.00000000000E+00 -0.78442250083E+03  0.78442250084E+03  0.50400001928E-02 0.  1.
    10030    2    1    2    0    0  0.00000000000E+00  0.00000000000E+00  0.64378543386E+03  0.22126304355E+04  0.21169019248E+04 0.  0.
        2    1    3    3  502    0  0.10194555048E+04 -0.19276325541E+03  0.54081910100E+03  0.11700138883E+04  0.25500000920E-02 0. -1.
       -2    1    3    3    0  502 -0.10194555048E+04  0.19276325541E+03  0.10296633286E+03  0.10426165472E+04  0.25500000920E-02 0.  1.
</event>
<event>
 5   0  0.8306787E-05  0.2145722E+04  0.7818609E-02  0.8541366E-01
        1   -1    0    0  501    0  0.00000000000E+00  0.00000000000E+00  0.81927606652E+03  0.81927606654E+03  0.50400001928E-02 0.  1.
       -1   -1    0    0    0  501  0.00000000000E+00  0.00000000000E+00 -0.14049360525E+04  0.14049360525E+04  0.50400001928E-02 0. -1.
    10030    2    1    2    0    0  0.00000000000E+00  0.00000000000E+00 -0.58565998596E+03  0.22242121190E+04  0.21457217740E+04 0.  0.
        1    1    3    3  502    0 -0.71532386858E+03 -0.21510354160E+03  0.50545279532E+03  0.90190925203E+03  0.50400001928E-02 0.  1.
       -1    1    3    3    0  502  0.71532386858E+03  0.21510354160E+03 -0.10911127813E+04  0.13223028670E+04  0.50400001928E-02 0. -1.
</event>
<event>
 5   0  0.8470971E-05  0.2162130E+04  0.7818609E-02  0.8534358E-01
       -1   -1    0    0    0  501  0.00000000000E+00  0.00000000000E+00  0.13217785260E+04  0.13217785261E+04  0.50400001928E-02 0.  1.
        1   -1    0    0  501    0  0.00000000000E+00  0.00000000000E+00 -0.88418858259E+03  0.88418858260E+03  0.50400001928E-02 0. -1.
    10030    2    1    2    0    0  0.00000000000E+00  0.00000000000E+00  0.43758994345E+03  0.22059671087E+04  0.21621299512E+04 0.  0.
        2    1    3    3  502    0 -0.89653502369E+03  0.52361394248E+03 -0.88568472490E+02  0.10420129480E+04  0.25500000920E-02 0. -1.
       -2    1    3    3    0  502  0.89653502369E+03 -0.52361394248E+03  0.52615841594E+03  0.11639541607E+04  0.25500000920E-02 0.  1.
</event>
<event>
 5   0  0.1798917E-04  0.2172509E+04  0.7818609E-02  0.8529958E-01
        2   -1    0    0  501    0  0.00000000000E+00  0.00000000000E+00  0.16118596131E+04  0.16118596131E+04  0.25500000920E-02 0. -1.
       -2   -1    0    0    0  501  0.00000000000E+00  0.00000000000E+00 -0.73204188387E+03  0.73204188387E+03  0.25500000920E-02 0.  1.
    10030    2    1    2    0    0  0.00000000000E+00  0.00000000000E+00  0.87981772920E+03  0.23439014969E+04  0.21725089161E+04 0.  0.
        4    1    3    3  502    0  0.62892032293E+03 -0.53209190772E+03 -0.32396201602E+03  0.88522063440E+03  0.12699999809E+01 0.  1.
       -4    1    3    3    0  502 -0.62892032293E+03  0.53209190772E+03  0.12037797452E+04  0.14586808625E+04  0.12699999809E+01 0. -1.
</event>
<event>
 5   0  0.1798917E-04  0.2215373E+04  0.7818609E-02  0.8512057E-01
       -2   -1    0    0    0  501  0.00000000000E+00  0.00000000000E+00  0.95837688620E+03  0.95837688621E+03  0.25500000920E-02 0. -1.
        2   -1    0    0  501    0  0.00000000000E+00  0.00000000000E+00 -0.12802574182E+04  0.12802574182E+04  0.25500000920E-02 0.  1.
    10030    2    1    2    0    0  0.00000000000E+00  0.00000000000E+00 -0.32188053200E+03  0.22386343044E+04  0.22153727614E+04 0.  0.
        4    1    3    3  502    0 -0.61290663210E+03  0.72864739958E+03 -0.73291001813E+03  0.12015574394E+04  0.12699999809E+01 0.  1.
       -4    1    3    3    0  502  0.61290663210E+03 -0.72864739958E+03  0.41102948612E+03  0.10370768650E+04  0.12699999809E+01 0. -1.
</event>
<event>
 5   0  0.1680258E-04  0.2080176E+04  0.7818609E-02  0.8570027E-01
        2   -1    0    0  501    0  0.00000000000E+00  0.00000000000E+00  0.13750017610E+04  0.13750017610E+04  0.25500000920E-02 0. -1.
       -2   -1    0    0    0  501  0.00000000000E+00  0.00000000000E+00 -0.78675027048E+03  0.78675027048E+03  0.25500000920E-02 0.  1.
    10030    2    1    2    0    0  0.00000000000E+00  0.00000000000E+00  0.58825149052E+03  0.21617520315E+04  0.20801759612E+04 0.  0.
        5    1    3    3  502    0  0.70016202298E+03  0.25164461268E+03  0.10494070251E+04  0.12864015951E+04  0.46999998093E+01 0. -1.
       -5    1    3    3    0  502 -0.70016202298E+03 -0.25164461268E+03 -0.46115553454E+03  0.87535043643E+03  0.46999998093E+01 0.  1.
</event>
<event>
 5   0  0.8602414E-05  0.2228394E+04  0.7818609E-02  0.8506702E-01
       -1   -1    0    0    0  501  0.00000000000E+00  0.00000000000E+00  0.10766909698E+04  0.10766909698E+04  0.50400001928E-02 0.  1.
        1   -1    0    0  501    0  0.00000000000E+00  0.00000000000E+00 -0.11530096566E+04  0.11530096566E+04  0.50400001928E-02 0. -1.
    10030    2    1    2    0    0  0.00000000000E+00  0.00000000000E+00 -0.76318686770E+02  0.22297006264E+04  0.22283941172E+04 0.  0.
        3    1    3    3  502    0  0.12225499227E+03 -0.21754199595E+03  0.10483706227E+04  0.10776603249E+04  0.10100000352E+00 0.  1.
       -3    1    3    3    0  502 -0.12225499227E+03  0.21754199595E+03 -0.11246893095E+04  0.11520403015E+04  0.10100000352E+00 0. -1.
</event>
<event>
 5   0  0.8470971E-05  0.1519682E+04  0.7818609E-02  0.8871469E-01
       -1   -1    0    0    0  501  0.00000000000E+00  0.00000000000E+00  0.93403299488E+03  0.93403299490E+03  0.50400001928E-02 0.  1.
        1   -1    0    0  501    0  0.00000000000E+00  0.00000000000E+00 -0.61813457205E+03  0.61813457207E+03  0.50400001928E-02 0. -1.
    10030    2    1    2    0    0  0.00000000000E+00  0.00000000000E+00  0.31589842283E+03  0.15521675670E+04  0.15196816582E+04 0.  0.
        2    1    3    3  502    0  0.53387373011E+03 -0.33560857351E+03 -0.27502758890E+03  0.68796398814E+03  0.25500000920E-02 0. -1.
       -2    1    3    3    0  502 -0.53387373011E+03  0.33560857351E+03  0.59092601173E+03  0.86420357883E+03  0.25500000920E-02 0.  1.
</event>
<event>
 5   0  0.1754356E-04  0.2774394E+04  0.7818609E-02  0.8311262E-01
       -2   -1    0    0    0  501  0.00000000000E+00  0.00000000000E+00  0.13978072363E+04  0.13978072363E+04  0.25500000920E-02 0. -1.
        2   -1    0    0  501    0  0.00000000000E+00  0.00000000000E+00 -0.13766672848E+04  0.13766672848E+04  0.25500000920E-02 0.  1.
    10030    2    1    2    0    0  0.00000000000E+00  0.00000000000E+00  0.21139951469E+02  0.27744745211E+04  0.27743939826E+04 0.  0.
        1    1    3    3  502    0 -0.40035286950E+03 -0.12262982378E+04  0.52070800909E+03  0.13911242284E+04  0.50400001928E-02 0. -1.
       -1    1    3    3    0  502  0.40035286950E+03  0.12262982378E+04 -0.49956805762E+03  0.13833502927E+04  0.50400001928E-02 0.  1.
</event>
<event>
 5   0  0.8784659E-05  0.2191927E+04  0.7818609E-02  0.8521796E-01
        1   -1    0    0  501    0  0.00000000000E+00  0.00000000000E+00  0.12348108345E+04  0.12348108345E+04  0.50400001928E-02 0. -1.
       -1   -1    0    0    0  501  0.00000000000E+00  0.00000000000E+00 -0.97272833699E+03  0.97272833700E+03  0.50400001928E-02 0.  1.
    10030    2    1    2    0    0  0.00000000000E+00  0.00000000000E+00  0.26208249752E+03  0.22075391715E+04  0.21919265404E+04 0.  0.
        4    1    3    3  502    0 -0.84748052903E+03 -0.60263309972E+02 -0.56618962055E+03  0.10209932482E+04  0.12699999809E+01 0.  1.
       -4    1    3    3    0  502  0.84748052903E+03  0.60263309972E+02  0.82827211807E+03  0.11865459233E+04  0.12699999809E+01 0. -1.
</event>
<event>
 5   0  0.1754356E-04  0.2205977E+04  0.7818609E-02  0.8515944E-01
        2   -1    0    0  501    0  0.00000000000E+00  0.00000000000E+00  0.11136827834E+04  0.11136827834E+04  0.25500000920E-02 0.  1.
       -2   -1    0    0    0  501  0.00000000000E+00  0.00000000000E+00 -0.10923969449E+04  0.10923969449E+04  0.25500000920E-02 0. -1.
    10030    2    1    2    0    0  0.00000000000E+00  0.00000000000E+00  0.21285838456E+02  0.22060797283E+04  0.22059770354E+04 0.  0.
        1    1    3    3  502    0 -0.45237334258E+03 -0.94569420522E+03  0.35359400753E+03  0.11063489020E+04  0.50400001928E-02 0.  1.
       -1    1    3    3    0  502  0.45237334258E+03  0.94569420522E+03 -0.33230816907E+03  0.10997308262E+04  0.50400001928E-02 0. -1.
</event>
<event>
 5   0  0.1805501E-04  0.2200968E+04  0.7818609E-02  0.8518025E-01
        2   -1    0    0  501    0  0.00000000000E+00  0.00000000000E+00  0.10947767619E+04  0.10947767619E+04  0.25500000920E-02 0.  1.
       -2   -1    0    0    0  501  0.00000000000E+00  0.00000000000E+00 -0.11062206152E+04  0.11062206152E+04  0.25500000920E-02 0. -1.
    10030    2    1    2    0    0  0.00000000000E+00  0.00000000000E+00 -0.11443853263E+02  0.22009973771E+04  0.22009676264E+04 0.  0.
        2    1    3    3  502    0 -0.86709251798E+03  0.63955712092E+03 -0.22973807348E+03  0.11016634368E+04  0.25500000920E-02 0. -1.
       -2    1    3    3    0  502  0.86709251798E+03 -0.63955712092E+03  0.21829422022E+03  0.10993339403E+04  0.25500000920E-02 0.  1.
</event>
<event>
 5   0  0.8784659E-05  0.2505105E+04  0.7818609E-02  0.8401169E-01
        1   -1    0    0  501    0  0.00000000000E+00  0.00000000000E+00  0.11517914702E+04  0.11517914702E+04  0.50400001928E-02 0.  1.
       -1   -1    0    0    0  501  0.00000000000E+00  0.00000000000E+00 -0.13621285522E+04  0.13621285522E+04  0.50400001928E-02 0. -1.
    10030    2    1    2    0    0  0.00000000000E+00  0.00000000000E+00 -0.21033708198E+03  0.25139200224E+04  0.25051052255E+04 0.  0.
        4    1    3    3  502    0 -0.10979015604E+04 -0.55964670628E+03  0.11988418354E+03  0.12381300830E+04  0.12699999809E+01 0. -1.
       -4    1    3    3    0  502  0.10979015604E+04  0.55964670628E+03 -0.33022126552E+03  0.12757899393E+04  0.12699999809E+01 0.  1.
</event>
<event>
 5   0  0.1798917E-04  0.2184269E+04  0.7818609E-02  0.8525004E-01
       -2   -1    0    0    0  501  0.00000000000E+00  0.00000000000E+00  0.44973407443E+03  0.44973407443E+03  0.25500000920E-02 0.  1.
        2   -1    0    0  501    0  0.00000000000E+00  0.00000000000E+00 -0.26521412905E+04  0.26521412905E+04  0.25500000920E-02 0. -1.
    10030    2    1    2    0    0  0.00000000000E+00  0.00000000000E+00 -0.22024072161E+04  0.31018753649E+04  0.21842694967E+04 0.  0.
        4    1    3    3  502    0  0.51132194105E+02 -0.85159778666E+03 -0.13290607086E+03  0.86342279799E+03  0.12699999809E+01 0.  1.
       -4    1    3    3    0  502 -0.51132194105E+02  0.85159778666E+03 -0.20695011452E+04  0.22384525669E+04  0.12699999809E+01 0. -1.
</event>
<event>
 5   0  0.8602414E-05  0.2238398E+04  0.7818609E-02  0.8502614E-01
        1   -1    0    0  501    0  0.00000000000E+00  0.00000000000E+00  0.16069147930E+04  0.16069147930E+04  0.50400001928E-02 0.  1.
       -1   -1    0    0    0  501  0.00000000000E+00  0.00000000000E+00 -0.77951030405E+03  0.77951030407E+03  0.50400001928E-02 0. -1.
    10030    2    1    2    0    0  0.00000000000E+00  0.00000000000E+00  0.82740448893E+03  0.23864250971E+04  0.22383982120E+04 0.  0.
        3    1    3    3  502    0  0.77529850892E+03 -0.15325592237E+03  0.12585941738E+04  0.14861475231E+04  0.10100000352E+00 0.  1.
       -3    1    3    3    0  502 -0.77529850892E+03  0.15325592237E+03 -0.43118968491E+03  0.90027757400E+03  0.10100000352E+00 0. -1.
</event>
<event>
 5   0  0.1680258E-04  0.1391566E+04  0.7818609E-02  0.8959946E-01
       -2   -1    0    0    0  501  0.00000000000E+00  0.00000000000E+00  0.45412642487E+03  0.45412642488E+03  0.25500000920E-02 0. -1.
        2   -1    0    0  501    0  0.00000000000E+00  0.00000000000E+00 -0.10660333360E+04  0.10660333360E+04  0.25500000920E-02 0.  1.
    10030    2    1    2    0    0  0.00000000000E+00  0.00000000000E+00 -0.61190691110E+03  0.15201597609E+04  0.13915658916E+04 0.  0.
        5    1    3    3  502    0  0.43938337033E+03 -0.15584206396E+03  0.25824967513E+03  0.53297230672E+03  0.46999998093E+01 0. -1.
       -5    1    3    3    0  502 -0.43938337033E+03  0.15584206396E+03 -0.87015658624E+03  0.98718745413E+03  0.46999998093E+01 0.  1.
</event>
<event>
 5   0  0.1680258E-04  0.2361319E+04  0.7818609E-02  0.8454129E-01
       -2   -1    0    0    0  501  0.00000000000E+00  0.00000000000E+00  0.55431096892E+03  0.55431096893E+03  0.25500000920E-02 0.  1.
        2   -1    0    0  501    0  0.00000000000E+00  0.00000000000E+00 -0.25147560229E+04  0.25147560229E+04  0.25500000920E-02 0. -1.
    10030    2    1    2    0    0  0.00000000000E+00  0.00000000000E+00 -0.19604450540E+04  0.30690669918E+04  0.23613189938E+04 0.  0.
        5    1    3    3  502    0  0.10146626200E+04  0.36566383167E+03 -0.16044759084E+04  0.19332913129E+04  0.46999998093E+01 0. -1.
       -5    1    3    3    0  502 -0.10146626200E+04 -0.36566383167E+03 -0.35596914560E+03  0.11357756789E+04  0.46999998093E+01 0.  1.
</event>
<event>
 5   0  0.1754356E-04  0.2006221E+04  0.7818609E-02  0.8603718E-01
        2   -1    0    0  501    0  0.00000000000E+00  0.00000000000E+00  0.19039649192E+04  0.19039649192E+04  0.25500000920E-02 0. -1.
       -2   -1    0    0    0  501  0.00000000000E+00  0.00000000000E+00 -0.52849219133E+03  0.52849219134E+03  0.25500000920E-02 0.  1.
    10030    2    1    2    0    0  0.00000000000E+00  0.00000000000E+00  0.13754727278E+04  0.24324571105E+04  0.20062209174E+04 0.  0.
        1    1    3    3  502    0  0.11922513503E+02  0.53476675480E+03  0.17166211656E+04  0.17980283242E+04  0.50400001928E-02 0. -1.
       -1    1    3    3    0  502 -0.11922513503E+02 -0.53476675480E+03 -0.34114843773E+03  0.63442878636E+03  0.50400001928E-02 0.  1.
</event>
<event>
 5   0  0.8784659E-05  0.2182161E+04  0.7818609E-02  0.8525890E-01
        1   -1    0    0  501    0  0.00000000000E+00  0.00000000000E+00  0.16272051814E+04  0.16272051814E+04  0.50400001928E-02 0. -1.
       -1   -1    0    0    0  501  0.00000000000E+00  0.00000000000E+00 -0.73159588219E+03  0.73159588221E+03  0.50400001928E-02 0.  1.
    10030    2    1    2    0    0  0.00000000000E+00  0.00000000000E+00  0.89560929921E+03  0.23588010636E+04  0.21821609567E+04 0.  0.
        4    1    3    3  502    0 -0.33116342908E+03  0.30427456611E+03 -0.62674767265E+03  0.77140552657E+03  0.12699999809E+01 0.  1.
       -4    1    3    3    0  502  0.33116342908E+03 -0.30427456611E+03  0.15223569719E+04  0.15873955370E+04  0.12699999809E+01 0. -1.
</event>
<event>
 5   0  0.8602414E-05  0.2214911E+04  0.7818609E-02  0.8512247E-01
       -1   -1    0    0    0  501  0.00000000000E+00  0.00000000000E+00  0.14279030989E+04  0.14279030990E+04  0.50400001928E-02 0.  1.
        1   -1    0    0  501    0  0.00000000000E+00  0.00000000000E+00 -0.85892229948E+03  0.85892229950E+03  0.50400001928E-02 0. -1.
    10030    2    1    2    0    0  0.00000000000E+00  0.00000000000E+00  0.56898079946E+03  0.22868253985E+04  0.22149111162E+04 0.  0.
        3    1    3    3  502    0 -0.63403289216E+03  0.99624460383E+02 -0.64732867380E+03  0.91156851831E+03  0.10100000352E+00 0. -1.
       -3    1    3    3    0  502  0.63403289216E+03 -0.99624460383E+02  0.12163094733E+04  0.13752568801E+04  0.10100000352E+00 0.  1.
</event>
<event>
 5   0  0.8602414E-05  0.2185137E+04  0.7818609E-02  0.8524640E-01
        1   -1    0    0  501    0  0.00000000000E+00  0.00000000000E+00  0.16280915688E+04  0.16280915688E+04  0.50400001928E-02 0.  1.
       -1   -1    0    0    0  501  0.00000000000E+00  0.00000000000E+00 -0.73319307388E+03  0.73319307390E+03  0.50400001928E-02 0. -1.
    10030    2    1    2    0    0  0.00000000000E+00  0.00000000000E+00  0.89489849495E+03  0.23612846427E+04  0.21851365742E+04 0.  0.
        3    1    3    3  502    0  0.52469881888E+03 -0.12827015619E+03  0.14737139482E+04  0.15695843064E+04  0.10100000352E+00 0.  1.
       -3    1    3    3    0  502 -0.52469881888E+03  0.12827015619E+03 -0.57881545323E+03  0.79170033637E+03  0.10100000352E+00 0. -1.
</event>
<event>
 5   0  0.1798917E-04  0.1681329E+04  0.7818609E-02  0.8772085E-01
        2   -1    0    0  501    0  0.00000000000E+00  0.00000000000E+00  0.22118629969E+04  0.22118629969E+04  0.25500000920E-02 0.  1.
       -2   -1    0    0    0  501  0.00000000000E+00  0.00000000000E+00 -0.31951195323E+03  0.31951195324E+03  0.25500000920E-02 0. -1.
    10030    2    1    2    0    0  0.00000000000E+00  0.00000000000E+00  0.18923510436E+04  0.25313749501E+04  0.16813288393E+04 0.  0.
        4    1    3    3  502    0 -0.76267991321E+03 -0.30907981636E+03  0.12047852068E+04  0.14590133620E+04  0.12699999809E+01 0.  1.
       -4    1    3    3    0  502  0.76267991321E+03  0.30907981636E+03  0.68756583681E+03  0.10723615882E+04  0.12699999809E+01 0. -1.
</event>
<event>
 5   0  0.7954459E-05  0.2223809E+04  0.7818609E-02  0.8508583E-01
        1   -1    0    0  501    0  0.00000000000E+00  0.00000000000E+00  0.27532325219E+04  0.27532325219E+04  0.50400001928E-02 0.  1.
       -1   -1    0    0    0  501  0.00000000000E+00  0.00000000000E+00 -0.44904713263E+03  0.44904713266E+03  0.50400001928E-02 0. -1.
    10030    2    1    2    0    0  0.00000000000E+00  0.00000000000E+00  0.23041853893E+04  0.32022796546E+04  0.22238085974E+04 0.  0.
        5    1    3    3  502    0  0.87775897454E+02  0.71320380065E+03  0.23739245783E+04  0.24803032603E+04  0.46999998093E+01 0.  1.
       -5    1    3    3    0  502 -0.87775897454E+02 -0.71320380065E+03 -0.69739189034E+02  0.72197639429E+03  0.46999998093E+01 0. -1.
</event>
<event>
 5   0  0.8784659E-05  0.1469081E+04  0.7818609E-02  0.8905278E-01
        1   -1    0    0  501    0  0.00000000000E+00  0.00000000000E+00  0.14289570783E+04  0.14289570783E+04  0.50400001928E-02 0.  1.
       -1   -1    0    0    0  501  0.00000000000E+00  0.00000000000E+00 -0.37758281932E+03  0.37758281935E+03  0.50400001928E-02 0. -1.
    10030    2    1    2    0    0  0.00000000000E+00  0.00000000000E+00  0.10513742589E+04  0.18065398976E+04  0.14690808587E+04 0.  0.
        4    1    3    3  502    0 -0.50354840510E+03  0.12501968222E+03 -0.11371010976E+03  0.53115206785E+03  0.12699999809E+01 0. -1.
       -4    1    3    3    0  502  0.50354840510E+03 -0.12501968222E+03  0.11650843687E+04  0.12753878298E+04  0.12699999809E+01 0.  1.
</event>
<event>
 5   0  0.8470971E-05  0.2151156E+04  0.7818609E-02  0.8539038E-01
        1   -1    0    0  501    0  0.00000000000E+00  0.00000000000E+00  0.13285279492E+04  0.13285279492E+04  0.50400001928E-02 0.  1.
       -1   -1    0    0    0  501  0.00000000000E+00  0.00000000000E+00 -0.87078900330E+03  0.87078900331E+03  0.50400001928E-02 0. -1.
    10030    2    1    2    0    0  0.00000000000E+00  0.00000000000E+00  0.45773894589E+03  0.21993169525E+04  0.21511555302E+04 0.  0.
        2    1    3    3  502    0  0.62969449232E+03  0.87189466284E+03  0.24147731176E+03  0.11022825177E+04  0.25500000920E-02 0. -1.
       -2    1    3    3    0  502 -0.62969449232E+03 -0.87189466284E+03  0.21626163413E+03  0.10970344348E+04  0.25500000920E-02 0.  1.
</event>
<event>
 5   0  0.1733962E-04  0.2155282E+04  0.7818609E-02  0.8537275E-01
       -2   -1    0    0    0  501  0.00000000000E+00  0.00000000000E+00  0.11024089535E+04  0.11024089535E+04  0.25500000920E-02 0.  1.
        2   -1    0    0  501    0  0.00000000000E+00  0.00000000000E+00 -0.10534293557E+04  0.10534293557E+04  0.25500000920E-02 0. -1.
    10030    2    1    2    0    0  0.00000000000E+00  0.00000000000E+00  0.48979597743E+02  0.21558383092E+04  0.21552818411E+04 0.  0.
        3    1    3    3  502    0  0.88599590908E+03  0.11401819005E+03  0.62740660857E+03  0.10916171313E+04  0.10100000352E+00 0.  1.
       -3    1    3    3    0  502 -0.88599590908E+03 -0.11401819005E+03 -0.57842701082E+03  0.10642211780E+04  0.10100000352E+00 0. -1.
</event>
<event>
 5   0  0.1798917E-04  0.2136506E+04  0.7818609E-02  0.8545331E-01
       -2   -1    0    0    0  501  0.00000000000E+00  0.00000000000E+00  0.75138470700E+03  0.75138470701E+03  0.25500000920E-02 0.  1.
        2   -1    0    0  501    0  0.00000000000E+00  0.00000000000E+00 -0.15187479737E+04  0.15187479737E+04  0.25500000920E-02 0. -1.
    10030    2    1    2    0    0  0.00000000000E+00  0.00000000000E+00 -0.76736326669E+03  0.22701326807E+04  0.21365055593E+04 0.  0.
        4    1    3    3  502    0  0.26129278539E+03 -0.10169698676E+04 -0.17476049148E+03  0.10644456179E+04  0.12699999809E+01 0. -1.
       -4    1    3    3    0  502 -0.26129278539E+03  0.10169698676E+04 -0.59260277521E+03  0.12056870628E+04  0.12699999809E+01 0.  1.
</event>
<event>
 5   0  0.1754356E-04  0.2252796E+04  0.7818609E-02  0.8496769E-01
       -2   -1    0    0    0  501  0.00000000000E+00  0.00000000000E+00  0.51628779845E+03  0.51628779846E+03  0.25500000920E-02 0. -1.
        2   -1    0    0  501    0  0.00000000000E+00  0.00000000000E+00 -0.24574915032E+04  0.24574915032E+04  0.25500000920E-02 0.  1.
    10030    2    1    2    0    0  0.00000000000E+00  0.00000000000E+00 -0.19412037047E+04  0.29737793016E+04  0.22527963760E+04 0.  0.
        1    1    3    3  502    0 -0.36970806303E+03 -0.91750461408E+03 -0.16818005390E+04  0.19511411588E+04  0.50400001928E-02 0.  1.
       -1    1    3    3    0  502  0.36970806303E+03  0.91750461408E+03 -0.25940316577E+03  0.10226381428E+04  0.50400001928E-02 0. -1.
</event>
<event>
 5   0  0.1733962E-04  0.2208944E+04  0.7818609E-02  0.8514715E-01
        2   -1    0    0  501    0  0.00000000000E+00  0.00000000000E+00  0.16285158056E+04  0.16285158056E+04  0.25500000920E-02 0.  1.
       -2   -1    0    0    0  501  0.00000000000E+00  0.00000000000E+00 -0.74906122677E+03  0.74906122677E+03  0.25500000920E-02 0. -1.
    10030    2    1    2    0    0  0.00000000000E+00  0.00000000000E+00  0.87945457881E+03  0.23775770324E+04  0.22089436816E+04 0.  0.
        3    1    3    3  502    0 -0.10003378460E+04 -0.46791210392E+03  0.42303553716E+03  0.11826143154E+04  0.10100000352E+00 0. -1.
       -3    1    3    3    0  502  0.10003378460E+04  0.46791210392E+03  0.45641904165E+03  0.11949627169E+04  0.10100000352E+00 0.  1.
</event>
<event>
 5   0  0.7954459E-05  0.2172855E+04  0.7818609E-02  0.8529812E-01
        1   -1    0    0  501    0  0.00000000000E+00  0.00000000000E+00  0.17051629336E+04  0.17051629336E+04  0.50400001928E-02 0. -1.
       -1   -1    0    0    0  501  0.00000000000E+00  0.00000000000E+00 -0.69220612405E+03  0.69220612406E+03  0.50400001928E-02 0.  1.
    10030    2    1    2    0    0  0.00000000000E+00  0.00000000000E+00  0.10129568095E+04  0.23973690577E+04  0.21728545512E+04 0.  0.
        5    1    3    3  502    0 -0.47794064260E+03 -0.94168432459E+03  0.22495590334E+03  0.10797332418E+04  0.46999998093E+01 0. -1.
       -5    1    3    3    0  502  0.47794064260E+03  0.94168432459E+03  0.78800090620E+03  0.13176358158E+04  0.46999998093E+01 0.  1.
</event>
<event>
 5   0  0.8784659E-05  0.1140223E+04  0.7818609E-02  0.9166851E-01
       -1   -1    0    0    0  501  0.00000000000E+00  0.00000000000E+00  0.20386620317E+03  0.20386620323E+03  0.50400001928E-02 0.  1.
        1   -1    0    0  501    0  0.00000000000E+00  0.00000000000E+00 -0.15943148445E+04  0.15943148446E+04  0.50400001928E-02 0. -1.
    10030    2    1    2    0    0  0.00000000000E+00  0.00000000000E+00 -0.13904486414E+04  0.17981810478E+04  0.11402226345E+04 0.  0.
        4    1    3    3  502    0  0.13935787239E+03 -0.26573701985E+03  0.69257358350E+02  0.30795287772E+03  0.12699999809E+01 0.  1.
       -4    1    3    3    0  502 -0.13935787239E+03  0.26573701985E+03 -0.14597059997E+04  0.14902281701E+04  0.12699999809E+01 0. -1.
</event>
<event>
 5   0  0.7954459E-05  0.2187381E+04  0.7818609E-02  0.8523699E-01
       -1   -1    0    0    0  501  0.00000000000E+00  0.00000000000E+00  0.42221509157E+03  0.42221509160E+03  0.50400001928E-02 0. -1.
        1   -1    0    0  501    0  0.00000000000E+00  0.00000000000E+00 -0.28330562390E+04  0.28330562390E+04  0.50400001928E-02 0.  1.
    10030    2    1    2    0    0  0.00000000000E+00  0.00000000000E+00 -0.24108411474E+04  0.32552713306E+04  0.21873811734E+04 0.  0.
        5    1    3    3  502    0  0.30732916345E+03  0.56333634384E+03 -0.25234173263E+04  0.26037388778E+04  0.46999998093E+01 0.  1.
       -5    1    3    3    0  502 -0.30732916345E+03 -0.56333634384E+03  0.11257617888E+03  0.65153245280E+03  0.46999998093E+01 0. -1.
</event>
<event>
 5   0  0.8306787E-05  0.2152877E+04  0.7818609E-02  0.8538302E-01
       -1   -1    0    0    0  501  0.00000000000E+00  0.00000000000E+00  0.49604731695E+03  0.49604731698E+03  0.50400001928E-02 0.  1.
        1   -1    0    0  501    0  0.00000000000E+00  0.00000000000E+00 -0.23359053984E+04  0.23359053984E+04  0.50400001928E-02 0. -1.
    10030    2    1    2    0    0  0.00000000000E+00  0.00000000000E+00 -0.18398580814E+04  0.28319527154E+04  0.21528767782E+04 0.  0.
        1    1    3    3  502    0  0.65585958942E+03  0.25451017925E+03  0.15179495228E+03  0.71970059048E+03  0.50400001928E-02 0.  1.
       -1    1    3    3    0  502 -0.65585958942E+03 -0.25451017925E+03 -0.19916530337E+04  0.21122521249E+04  0.50400001928E-02 0. -1.
</event>
<event>
 5   0  0.1798917E-04  0.2180932E+04  0.7818609E-02  0.8526407E-01
       -2   -1    0    0    0  501  0.00000000000E+00  0.00000000000E+00  0.65869656692E+03  0.65869656692E+03  0.25500000920E-02 0. -1.
        2   -1    0    0  501    0  0.00000000000E+00  0.00000000000E+00 -0.18052566055E+04  0.18052566055E+04  0.25500000920E-02 0.  1.
    10030    2    1    2    0    0  0.00000000000E+00  0.00000000000E+00 -0.11465600386E+04  0.24639531724E+04  0.21809322121E+04 0.  0.
        4    1    3    3  502    0 -0.10469017992E+04  0.27433188024E+03 -0.42232406811E+03  0.11617317199E+04  0.12699999809E+01 0. -1.
       -4    1    3    3    0  502  0.10469017992E+04 -0.27433188024E+03 -0.72423597049E+03  0.13022214525E+04  0.12699999809E+01 0.  1.
</event>
<event>
 5   0  0.1754356E-04  0.1375153E+04  0.7818609E-02  0.8972003E-01
        2   -1    0    0  501    0  0.00000000000E+00  0.00000000000E+00  0.16167571635E+04  0.16167571635E+04  0.25500000920E-02 0.  1.
       -2   -1    0    0    0  501  0.00000000000E+00  0.00000000000E+00 -0.29241344328E+03  0.29241344329E+03  0.25500000920E-02 0. -1.
    10030    2    1    2    0    0  0.00000000000E+00  0.00000000000E+00  0.13243437202E+04  0.19091706068E+04  0.13751531248E+04 0.  0.
        1    1    3    3  502    0  0.17420487440E+03  0.14938316856E+03  0.15620204301E+04  0.15787876657E+04  0.50400001928E-02 0.  1.
       -1    1    3    3    0  502 -0.17420487440E+03 -0.14938316856E+03 -0.23767670988E+03  0.33038294109E+03  0.50400001928E-02 0. -1.
</event>
<event>
 5   0  0.1805501E-04  0.2111188E+04  0.7818609E-02  0.8556331E-01
        2   -1    0    0  501    0  0.00000000000E+00  0.00000000000E+00  0.23084392285E+04  0.23084392285E+04  0.25500000920E-02 0.  1.
       -2   -1    0    0    0  501  0.00000000000E+00  0.00000000000E+00 -0.48269785833E+03  0.48269785834E+03  0.25500000920E-02 0. -1.
    10030    2    1    2    0    0  0.00000000000E+00  0.00000000000E+00  0.18257413702E+04  0.27911370868E+04  0.21111879800E+04 0.  0.
        2    1    3    3  502    0  0.73383469929E+03 -0.74575001492E+03  0.72767607420E+03  0.12744288602E+04  0.25500000920E-02 0.  1.
       -2    1    3    3    0  502 -0.73383469929E+03  0.74575001492E+03  0.10980652960E+04  0.15167082267E+04  0.25500000920E-02 0. -1.
</event>
<event>
 5   0  0.8602414E-05  0.2214609E+04  0.7818609E-02  0.8512372E-01
       -1   -1    0    0    0  501  0.00000000000E+00  0.00000000000E+00  0.75126610267E+03  0.75126610269E+03  0.50400001928E-02 0. -1.
        1   -1    0    0  501    0  0.00000000000E+00  0.00000000000E+00 -0.16320763518E+04  0.16320763519E+04  0.50400001928E-02 0.  1.
    10030    2    1    2    0    0  0.00000000000E+00  0.00000000000E+00 -0.88081024918E+03  0.23833424545E+04  0.22146093472E+04 0.  0.
        3    1    3    3  502    0  0.54398829780E+03  0.76825259640E+03  0.18710583156E+03  0.95976243020E+03  0.10100000352E+00 0. -1.
       -3    1    3    3    0  502 -0.54398829780E+03 -0.76825259640E+03 -0.10679160807E+04  0.14235800243E+04  0.10100000352E+00 0.  1.
</event>
<event>
 5   0  0.1733962E-04  0.2095113E+04  0.7818609E-02  0.8563399E-01
       -2   -1    0    0    0  501  0.00000000000E+00  0.00000000000E+00  0.49871611139E+03  0.49871611140E+03  0.25500000920E-02 0. -1.
        2   -1    0    0  501    0  0.00000000000E+00  0.00000000000E+00 -0.22003989144E+04  0.22003989144E+04  0.25500000920E-02 0.  1.
    10030    2    1    2    0    0  0.00000000000E+00  0.00000000000E+00 -0.17016828030E+04  0.26991150258E+04  0.20951127799E+04 0.  0.
        3    1    3    3  502    0 -0.87000745112E+03 -0.18223618003E+03 -0.15649444955E+04  0.17997706172E+04  0.10100000352E+00 0.  1.
       -3    1    3    3    0  502  0.87000745112E+03  0.18223618003E+03 -0.13673830749E+03  0.89934440859E+03  0.10100000352E+00 0. -1.
</event>
<event>
 5   0  0.1680258E-04  0.2152714E+04  0.7818609E-02  0.8538371E-01
       -2   -1    0    0    0  501  0.00000000000E+00  0.00000000000E+00  0.91672222893E+03  0.91672222893E+03  0.25500000920E-02 0.  1.
        2   -1    0    0  501    0  0.00000000000E+00  0.00000000000E+00 -0.12637900225E+04  0.12637900225E+04  0.25500000920E-02 0. -1.
    10030    2    1    2    0    0  0.00000000000E+00  0.00000000000E+00 -0.34706779360E+03  0.21805122515E+04  0.21527140139E+04 0.  0.
        5    1    3    3  502    0 -0.44813243255E+03  0.90564066088E+03 -0.54915211620E+03  0.11500425298E+04  0.46999998093E+01 0.  1.
       -5    1    3    3    0  502  0.44813243255E+03 -0.90564066088E+03  0.20208432260E+03  0.10304697216E+04  0.46999998093E+01 0. -1.
</event>
<event>
 5   0  0.1754356E-04  0.2196099E+04  0.7818609E-02  0.8520053E-01
        2   -1    0    0  501    0  0.00000000000E+00  0.00000000000E+00  0.10577978995E+04  0.10577978995E+04  0.25500000920E-02 0.  1.
       -2   -1    0    0    0  501  0.00000000000E+00  0.00000000000E+00 -0.11398330569E+04  0.11398330569E+04  0.25500000920E-02 0. -1.
    10030    2    1    2    0    0  0.00000000000E+00  0.00000000000E+00 -0.82035157382E+02  0.21976309563E+04  0.21960992813E+04 0.  0.
        1    1    3    3  502    0 -0.86265971064E+03  0.51239669953E+03 -0.48740139945E+03  0.11154784974E+04  0.50400001928E-02 0. -1.
       -1    1    3    3    0  502  0.86265971064E+03 -0.51239669953E+03  0.40536624207E+03  0.10821524589E+04  0.50400001928E-02 0.  1.
</event>
<event>
 5   0  0.8602414E-05  0.1465608E+04  0.7818609E-02  0.8907651E-01
        1   -1    0    0  501    0  0.00000000000E+00  0.00000000000E+00  0.13903178033E+04  0.13903178033E+04  0.50400001928E-02 0.  1.
       -1   -1    0    0    0  501  0.00000000000E+00  0.00000000000E+00 -0.38624371781E+03  0.38624371785E+03  0.50400001928E-02 0. -1.
    10030    2    1    2    0    0  0.00000000000E+00  0.00000000000E+00  0.10040740854E+04  0.17765615211E+04  0.14656077474E+04 0.  0.
        3    1    3    3  502    0 -0.23665802927E+03  0.95080392629E+02 -0.33070871413E+03  0.41763089886E+03  0.10100000352E+00 0. -1.
       -3    1    3    3    0  502  0.23665802927E+03 -0.95080392629E+02  0.13347827996E+04  0.13589306223E+04  0.10100000352E+00 0.  1.
</event>
<event>
 5   0  0.8784659E-05  0.1778361E+04  0.7818609E-02  0.8717892E-01
        1   -1    0    0  501    0  0.00000000000E+00  0.00000000000E+00  0.17860355911E+04  0.17860355911E+04  0.50400001928E-02 0. -1.
       -1   -1    0    0    0  501  0.00000000000E+00  0.00000000000E+00 -0.44268000742E+03  0.44268000744E+03  0.50400001928E-02 0.  1.
    10030    2    1    2    0    0  0.00000000000E+00  0.00000000000E+00  0.13433555837E+04  0.22287155985E+04  0.17783613230E+04 0.  0.
        4    1    3    3  502    0 -0.53570989508E+03 -0.60307016715E+03  0.11405339130E+04  0.13969602492E+04  0.12699999809E+01 0. -1.
       -4    1    3    3    0  502  0.53570989508E+03  0.60307016715E+03  0.20282167067E+03  0.83175534935E+03  0.12699999809E+01 0.  1.
</event>
<event>
 5   0  0.8602414E-05  0.2191019E+04  0.7818609E-02  0.8522176E-01
       -1   -1    0    0    0  501  0.00000000000E+00  0.00000000000E+00  0.97771045618E+03  0.97771045619E+03  0.50400001928E-02 0. -1.
        1   -1    0    0  501    0  0.00000000000E+00  0.00000000000E+00 -0.12275014125E+04  0.12275014125E+04  0.50400001928E-02 0.  1.
    10030    2    1    2    0    0  0.00000000000E+00  0.00000000000E+00 -0.24979095636E+03  0.22052118687E+04  0.21910189100E+04 0.  0.
        3    1    3    3  502    0  0.78184729920E+03  0.36733084358E+03 -0.80299849460E+03  0.11794166950E+04  0.10100000352E+00 0.  1.
       -3    1    3    3    0  502 -0.78184729920E+03 -0.36733084358E+03  0.55320753824E+03  0.10257951737E+04  0.10100000352E+00 0. -1.
</event>
<event>
 5   0  0.1754356E-04  0.2099727E+04  0.7818609E-02  0.8561364E-01
       -2   -1    0    0    0  501  0.00000000000E+00  0.00000000000E+00  0.80159407585E+03  0.80159407585E+03  0.25500000920E-02 0.  1.
        2   -1    0    0  501    0  0.00000000000E+00  0.00000000000E+00 -0.13750265763E+04  0.13750265763E+04  0.25500000920E-02 0. -1.
    10030    2    1    2    0    0  0.00000000000E+00  0.00000000000E+00 -0.57343250046E+03  0.21766206522E+04  0.20997267991E+04 0.  0.
        1    1    3    3  502    0 -0.17303435752E+03  0.45761546447E+03  0.67620376068E+03  0.83462825748E+03  0.50400001928E-02 0.  1.
       -1    1    3    3    0  502  0.17303435752E+03 -0.45761546447E+03 -0.12496362611E+04  0.13419923947E+04  0.50400001928E-02 0. -1.
</event>
<event>
 5   0  0.1680258E-04  0.1247452E+04  0.7818609E-02  0.9072307E-01
       -2   -1    0    0    0  501  0.00000000000E+00  0.00000000000E+00  0.61943155330E+03  0.61943155331E+03  0.25500000920E-02 0. -1.
        2   -1    0    0  501    0  0.00000000000E+00  0.00000000000E+00 -0.62804984800E+03  0.62804984801E+03  0.25500000920E-02 0.  1.
    10030    2    1    2    0    0  0.00000000000E+00  0.00000000000E+00 -0.86182947019E+01  0.12474814013E+04  0.12474516310E+04 0.  0.
        5    1    3    3  502    0 -0.40334337593E+03  0.39584139730E+02 -0.47840802704E+03  0.62701603916E+03  0.46999998093E+01 0.  1.
       -5    1    3    3    0  502  0.40334337593E+03 -0.39584139730E+02  0.46978973234E+03  0.62046536216E+03  0.46999998093E+01 0. -1.
</event>
<event>
 5   0  0.1805501E-04  0.2231878E+04  0.7818609E-02  0.8505276E-01
        2   -1    0    0  501    0  0.00000000000E+00  0.00000000000E+00  0.26070177810E+04  0.26070177810E+04  0.25500000920E-02 0.  1.
       -2   -1    0    0    0  501  0.00000000000E+00  0.00000000000E+00 -0.47767964217E+03  0.47767964218E+03  0.25500000920E-02 0. -1.
    10030    2    1    2    0    0  0.00000000000E+00  0.00000000000E+00  0.21293381389E+04  0.30846974232E+04  0.22318775242E+04 0.  0.
        2    1    3    3  502    0  0.78117330345E+03  0.66010558982E+03  0.44757926308E+03  0.11163773182E+04  0.25500000920E-02 0. -1.
       -2    1    3    3    0  502 -0.78117330345E+03 -0.66010558982E+03  0.16817588758E+04  0.19683201051E+04  0.25500000920E-02 0.  1.
</event>
<event>
 5   0  0.1733962E-04  0.2183666E+04  0.7818609E-02  0.8525257E-01
        2   -1    0    0  501    0  0.00000000000E+00  0.00000000000E+00  0.20501772367E+04  0.20501772367E+04  0.25500000920E-02 0.  1.
       -2   -1    0    0    0  501  0.00000000000E+00  0.00000000000E+00 -0.58146167511E+03  0.58146167512E+03  0.25500000920E-02 0. -1.
    10030    2    1    2    0    0  0.00000000000E+00  0.00000000000E+00  0.14687155615E+04  0.26316389118E+04  0.21836661744E+04 0.  0.
        3    1    3    3  502    0 -0.95299497179E+02 -0.42970571551E+02 -0.57541645494E+03  0.58483550764E+03  0.10100000352E+00 0. -1.
       -3    1    3    3    0  502  0.95299497179E+02  0.42970571551E+02  0.20441320165E+04  0.20468034041E+04  0.10100000352E+00 0.  1.
</event>
<event>
 5   0  0.1805501E-04  0.2249001E+04  0.7818609E-02  0.8498305E-01
       -2   -1    0    0    0  501  0.00000000000E+00  0.00000000000E+00  0.77316703059E+03  0.77316703060E+03  0.25500000920E-02 0.  1.
        2   -1    0    0  501    0  0.00000000000E+00  0.00000000000E+00 -0.16354823958E+04  0.16354823958E+04  0.25500000920E-02 0. -1.
    10030    2    1    2    0    0  0.00000000000E+00  0.00000000000E+00 -0.86231536520E+03  0.24086494264E+04  0.22490007270E+04 0.  0.
        2    1    3    3  502    0  0.51784624486E+02 -0.20820907860E+03 -0.16133581683E+04  0.16275617490E+04  0.25500000920E-02 0. -1.
       -2    1    3    3    0  502 -0.51784624486E+02  0.20820907860E+03  0.75104280305E+03  0.78108767739E+03  0.25500000920E-02 0.  1.
</event>
<event>
 5   0  0.1733962E-04  0.1761430E+04  0.7818609E-02  0.8727084E-01
        2   -1    0    0  501    0  0.00000000000E+00  0.00000000000E+00  0.94702542720E+03  0.94702542721E+03  0.25500000920E-02 0.  1.
       -2   -1    0    0    0  501  0.00000000000E+00  0.00000000000E+00 -0.81904762403E+03  0.81904762403E+03  0.25500000920E-02 0. -1.
    10030    2    1    2    0    0  0.00000000000E+00  0.00000000000E+00  0.12797780318E+03  0.17660730512E+04  0.17614300168E+04 0.  0.
        3    1    3    3  502    0 -0.69183658667E+02  0.26875992080E+02  0.94388418980E+03  0.94679779865E+03  0.10100000352E+00 0.  1.
       -3    1    3    3    0  502  0.69183658667E+02 -0.26875992080E+02 -0.81590638662E+03  0.81927525259E+03  0.10100000352E+00 0. -1.
</event>
<event>
 5   0  0.1733962E-04  0.2227750E+04  0.7818609E-02  0.8506966E-01
       -2   -1    0    0    0  501  0.00000000000E+00  0.00000000000E+00  0.71669350463E+03  0.71669350463E+03  0.25500000920E-02 0.  1.
        2   -1    0    0  501    0  0.00000000000E+00  0.00000000000E+00 -0.17311692757E+04  0.17311692757E+04  0.25500000920E-02 0. -1.
    10030    2    1    2    0    0  0.00000000000E+00  0.00000000000E+00 -0.10144757710E+04  0.24478627803E+04  0.22277502331E+04 0.  0.
        3    1    3    3  502    0  0.98878957598E+03 -0.15280518567E+03 -0.10451626436E+04  0.14468653055E+04  0.10100000352E+00 0. -1.
       -3    1    3    3    0  502 -0.98878957598E+03  0.15280518567E+03  0.30686872560E+02  0.10009974749E+04  0.10100000352E+00 0.  1.
</event>
<event>
 5   0  0.1798917E-04  0.2211043E+04  0.7818609E-02  0.8513846E-01
        2   -1    0    0  501    0  0.00000000000E+00  0.00000000000E+00  0.24832260482E+04  0.24832260482E+04  0.25500000920E-02 0. -1.
       -2   -1    0    0    0  501  0.00000000000E+00  0.00000000000E+00 -0.49217349409E+03  0.49217349410E+03  0.25500000920E-02 0.  1.
    10030    2    1    2    0    0  0.00000000000E+00  0.00000000000E+00  0.19910525541E+04  0.29753995423E+04  0.22110432296E+04 0.  0.
        4    1    3    3  502    0  0.23444503851E+01  0.70499538876E+03 -0.15041592149E+03  0.72086791921E+03  0.12699999809E+01 0.  1.
       -4    1    3    3    0  502 -0.23444503851E+01 -0.70499538876E+03  0.21414684756E+04  0.22545316231E+04  0.12699999809E+01 0. -1.
</event>
<event>
 5   0  0.7954459E-05  0.2289745E+04  0.7818609E-02  0.8481976E-01
        1   -1    0    0  501    0  0.00000000000E+00  0.00000000000E+00  0.14622890979E+04  0.14622890979E+04  0.50400001928E-02 0.  1.
       -1   -1    0    0    0  501  0.00000000000E+00  0.00000000000E+00 -0.89635685891E+03  0.89635685892E+03  0.50400001928E-02 0. -1.
    10030    2    1    2    0    0  0.00000000000E+00  0.00000000000E+00  0.56593223898E+03  0.23586459568E+04  0.22897448440E+04 0.  0.
        5    1    3    3  502    0 -0.20567298979E+03 -0.11244233424E+04  0.34877549234E+03  0.11951132438E+04  0.46999998093E+01 0.  1.
       -5    1    3    3    0  502  0.20567298979E+03  0.11244233424E+04  0.21715674664E+03  0.11635327130E+04  0.46999998093E+01 0. -1.
</event>
<event>
 5   0  0.8470971E-05  0.2192478E+04  0.7818609E-02  0.8521566E-01
        1   -1    0    0  501    0  0.00000000000E+00  0.00000000000E+00  0.48064431745E+03  0.48064431747E+03  0.50400001928E-02 0. -1.
       -1   -1    0    0    0  501  0.00000000000E+00  0.00000000000E+00 -0.25002678593E+04  0.25002678593E+04  0.50400001928E-02 0.  1.
    10030    2    1    2    0    0  0.00000000000E+00  0.00000000000E+00 -0.20196235418E+04  0.29809121767E+04  0.21924776293E+04 0.  0.
        2    1    3    3  502    0 -0.61704652090E+03  0.79602853922E+03 -0.15982754207E+04  0.18891511757E+04  0.25500000920E-02 0.  1.
       -2    1    3    3    0  502  0.61704652090E+03 -0.79602853922E+03 -0.42134812108E+03  0.10917610010E+04  0.25500000920E-02 0. -1.
</event>
<event>
 5   0  0.8470971E-05  0.2234675E+04  0.7818609E-02  0.8504133E-01
       -1   -1    0    0    0  501  0.00000000000E+00  0.00000000000E+00  0.67712584231E+03  0.67712584232E+03  0.50400001928E-02 0.  1.
        1   -1    0    0  501    0  0.00000000000E+00  0.00000000000E+00 -0.18437381097E+04  0.18437381097E+04  0.50400001928E-02 0. -1.
    10030    2    1    2    0    0  0.00000000000E+00  0.00000000000E+00 -0.11666122674E+04  0.25208639520E+04  0.22346746703E+04 0.  0.
        2    1    3    3  502    0 -0.39363118292E+02 -0.11000493589E+04 -0.36695032762E+03  0.11603062484E+04  0.25500000920E-02 0.  1.
       -2    1    3    3    0  502  0.39363118292E+02  0.11000493589E+04 -0.79966193975E+03  0.13605577036E+04  0.25500000920E-02 0. -1.
</event>
<event>
 5   0  0.8602414E-05  0.2068831E+04  0.7818609E-02  0.8575099E-01
       -1   -1    0    0    0  501  0.00000000000E+00  0.00000000000E+00  0.15424567568E+04  0.15424567568E+04  0.50400001928E-02 0. -1.
        1   -1    0    0  501    0  0.00000000000E+00  0.00000000000E+00 -0.69370883044E+03  0.69370883046E+03  0.50400001928E-02 0.  1.
    10030    2    1    2    0    0  0.00000000000E+00  0.00000000000E+00  0.84874792635E+03  0.22361655873E+04  0.20688314313E+04 0.  0.
        3    1    3    3  502    0  0.76755494267E+03 -0.23772147798E+03  0.11284961097E+04  0.13853359055E+04  0.10100000352E+00 0. -1.
       -3    1    3    3    0  502 -0.76755494267E+03  0.23772147798E+03 -0.27974818338E+03  0.85082968179E+03  0.10100000352E+00 0.  1.
</event>
<event>
 5   0  0.1754356E-04  0.1830338E+04  0.7818609E-02  0.8690331E-01
        2   -1    0    0  501    0  0.00000000000E+00  0.00000000000E+00  0.80680990327E+03  0.80680990327E+03  0.25500000920E-02 0. -1.
       -2   -1    0    0    0  501  0.00000000000E+00  0.00000000000E+00 -0.10380808266E+04  0.10380808266E+04  0.25500000920E-02 0.  1.
    10030    2    1    2    0    0  0.00000000000E+00  0.00000000000E+00 -0.23127092329E+03  0.18448907298E+04  0.18303375550E+04 0.  0.
        1    1    3    3  502    0  0.27464200282E+03 -0.67434327166E+03  0.44317939706E+03  0.85239372108E+03  0.50400001928E-02 0. -1.
       -1    1    3    3    0  502 -0.27464200282E+03  0.67434327166E+03 -0.67445032035E+03  0.99249700876E+03  0.50400001928E-02 0.  1.
</event>
<event>
 5   0  0.8602414E-05  0.2170355E+04  0.7818609E-02  0.8530869E-01
        1   -1    0    0  501    0  0.00000000000E+00  0.00000000000E+00  0.12188707019E+04  0.12188707019E+04  0.50400001928E-02 0.  1.
       -1   -1    0    0    0  501  0.00000000000E+00  0.00000000000E+00 -0.96614872479E+03  0.96614872480E+03  0.50400001928E-02 0. -1.
    10030    2    1    2    0    0  0.00000000000E+00  0.00000000000E+00  0.25272197715E+03  0.21850194267E+04  0.21703551547E+04 0.  0.
        3    1    3    3  502    0 -0.74467188452E+03  0.78815528836E+03  0.17007544647E+03  0.10975657802E+04  0.10100000352E+00 0. -1.
       -3    1    3    3    0  502  0.74467188452E+03 -0.78815528836E+03  0.82646530678E+02  0.10874536466E+04  0.10100000352E+00 0.  1.
</event>
<event>
 5   0  0.1733962E-04  0.2157706E+04  0.7818609E-02  0.8536241E-01
       -2   -1    0    0    0  501  0.00000000000E+00  0.00000000000E+00  0.51991303817E+03  0.51991303818E+03  0.25500000920E-02 0. -1.
        2   -1    0    0  501    0  0.00000000000E+00  0.00000000000E+00 -0.22386892953E+04  0.22386892953E+04  0.25500000920E-02 0.  1.
    10030    2    1    2    0    0  0.00000000000E+00  0.00000000000E+00 -0.17187762571E+04  0.27586023334E+04  0.21577059605E+04 0.  0.
        3    1    3    3  502    0 -0.35279363116E+03 -0.38651325776E+03 -0.20655578074E+04  0.21308178971E+04  0.10100000352E+00 0.  1.
       -3    1    3    3    0  502  0.35279363116E+03  0.38651325776E+03  0.34678155036E+03  0.62778443632E+03  0.10100000352E+00 0. -1.
</event>
<event>
 5   0  0.8306787E-05  0.2205515E+04  0.7818609E-02  0.8516136E-01
        1   -1    0    0  501    0  0.00000000000E+00  0.00000000000E+00  0.13262552205E+04  0.13262552205E+04  0.50400001928E-02 0. -1.
       -1   -1    0    0    0  501  0.00000000000E+00  0.00000000000E+00 -0.91692291867E+03  0.91692291869E+03  0.50400001928E-02 0.  1.
    10030    2    1    2    0    0  0.00000000000E+00  0.00000000000E+00  0.40933230185E+03  0.22431781392E+04  0.22055147315E+04 0.  0.
        1    1    3    3  502    0 -0.73835927995E+03 -0.78760259066E+03 -0.24077910244E+02  0.10798481434E+04  0.50400001928E-02 0.  1.
       -1    1    3    3    0  502  0.73835927995E+03  0.78760259066E+03  0.43341021210E+03  0.11633299958E+04  0.50400001928E-02 0. -1.
</event>
<event>
 5   0  0.1798917E-04  0.2218567E+04  0.7818609E-02  0.8510740E-01
        2   -1    0    0  501    0  0.00000000000E+00  0.00000000000E+00  0.14972458142E+04  0.14972458142E+04  0.25500000920E-02 0. -1.
       -2   -1    0    0    0  501  0.00000000000E+00  0.00000000000E+00 -0.82184874552E+03  0.82184874553E+03  0.25500000920E-02 0.  1.
    10030    2    1    2    0    0  0.00000000000E+00  0.00000000000E+00  0.67539706872E+03  0.23190945598E+04  0.22185667393E+04 0.  0.
        4    1    3    3  502    0  0.85148545442E+03  0.69533930483E+03  0.18271096027E+03  0.11144097702E+04  0.12699999809E+01 0.  1.
       -4    1    3    3    0  502 -0.85148545442E+03 -0.69533930483E+03  0.49268610845E+03  0.12046847896E+04  0.12699999809E+01 0. -1.
</event>
<event>
 5   0  0.1798917E-04  0.2143682E+04  0.7818609E-02  0.8542241E-01
        2   -1    0    0  501    0  0.00000000000E+00  0.00000000000E+00  0.15544355578E+04  0.15544355578E+04  0.25500000920E-02 0.  1.
       -2   -1    0    0    0  501  0.00000000000E+00  0.00000000000E+00 -0.73907420588E+03  0.73907420589E+03  0.25500000920E-02 0. -1.
    10030    2    1    2    0    0  0.00000000000E+00  0.00000000000E+00  0.81536135191E+03  0.22935097637E+04  0.21436820898E+04 0.  0.
        4    1    3    3  502    0 -0.12499367737E+03  0.90499312488E+03 -0.19203748427E+03  0.93355020418E+03  0.12699999809E+01 0. -1.
       -4    1    3    3    0  502  0.12499367737E+03 -0.90499312488E+03  0.10073988362E+04  0.13599595595E+04  0.12699999809E+01 0.  1.
</event>
<event>
 5   0  0.7954459E-05  0.2149920E+04  0.7818609E-02  0.8539566E-01
        1   -1    0    0  501    0  0.00000000000E+00  0.00000000000E+00  0.16337585856E+04  0.16337585856E+04  0.50400001928E-02 0.  1.
       -1   -1    0    0    0  501  0.00000000000E+00  0.00000000000E+00 -0.70728879686E+03  0.70728879688E+03  0.50400001928E-02 0. -1.
    10030    2    1    2    0    0  0.00000000000E+00  0.00000000000E+00  0.92646978876E+03  0.23410473825E+04  0.21499201329E+04 0.  0.
        5    1    3    3  502    0 -0.16792749423E+03  0.19808281160E+03  0.15990781743E+04  0.16200338086E+04  0.46999998093E+01 0.  1.
       -5    1    3    3    0  502  0.16792749423E+03 -0.19808281160E+03 -0.67260838549E+03  0.72101357393E+03  0.46999998093E+01 0. -1.
</event>
<event>
 5   0  0.8602414E-05  0.2143566E+04  0.7818609E-02  0.8542291E-01
       -1   -1    0    0    0  501  0.00000000000E+00  0.00000000000E+00  0.11242188682E+04  0.11242188682E+04  0.50400001928E-02 0. -1.
        1   -1    0    0  501    0  0.00000000000E+00  0.00000000000E+00 -0.10217932801E+04  0.10217932801E+04  0.50400001928E-02 0.  1.
    10030    2    1    2    0    0  0.00000000000E+00  0.00000000000E+00  0.10242558816E+03  0.21460121483E+04  0.21435664533E+04 0.  0.
        3    1    3    3  502    0 -0.51753320773E+03  0.90849197657E+03 -0.18468495355E+03  0.10617470673E+04  0.10100000352E+00 0.  1.
       -3    1    3    3    0  502  0.51753320773E+03 -0.90849197657E+03  0.28711054172E+03  0.10842650810E+04  0.10100000352E+00 0. -1.
</event>
<event>
 5   0  0.8470971E-05  0.2201631E+04  0.7818609E-02  0.8517749E-01
        1   -1    0    0  501    0  0.00000000000E+00  0.00000000000E+00  0.13061267926E+04  0.13061267926E+04  0.50400001928E-02 0. -1.
       -1   -1    0    0    0  501  0.00000000000E+00  0.00000000000E+00 -0.92777747254E+03  0.92777747256E+03  0.50400001928E-02 0.  1.
    10030    2    1    2    0    0  0.00000000000E+00  0.00000000000E+00  0.37834932007E+03  0.22339042652E+04  0.22016312266E+04 0.  0.
        2    1    3    3  502    0  0.69364964363E+02  0.76731248777E+03 -0.60861751443E+03  0.98183258809E+03  0.25500000920E-02 0.  1.
       -2    1    3    3    0  502 -0.69364964363E+02 -0.76731248777E+03  0.98696683450E+03  0.12520716771E+04  0.25500000920E-02 0. -1.
</event>
<event>
 5   0  0.1798917E-04  0.2145979E+04  0.7818609E-02  0.8541255E-01
        2   -1    0    0  501    0  0.00000000000E+00  0.00000000000E+00  0.13900490115E+04  0.13900490115E+04  0.25500000920E-02 0. -1.
       -2   -1    0    0    0  501  0.00000000000E+00  0.00000000000E+00 -0.82824891616E+03  0.82824891617E+03  0.25500000920E-02 0.  1.
    10030    2    1    2    0    0  0.00000000000E+00  0.00000000000E+00  0.56180009537E+03  0.22182979277E+04  0.21459791119E+04 0.  0.
        4    1    3    3  502    0  0.59084661525E+03  0.87391107445E+03  0.48368622760E+03  0.11605060398E+04  0.12699999809E+01 0.  1.
       -4    1    3    3    0  502 -0.59084661525E+03 -0.87391107445E+03  0.78113867765E+02  0.10577918879E+04  0.12699999809E+01 0. -1.
</event>
<event>
 5   0  0.8602414E-05  0.2141341E+04  0.7818609E-02  0.8543248E-01
        1   -1    0    0  501    0  0.00000000000E+00  0.00000000000E+00  0.12670135044E+04  0.12670135044E+04  0.50400001928E-02 0. -1.
       -1   -1    0    0    0  501  0.00000000000E+00  0.00000000000E+00 -0.90475379834E+03  0.90475379835E+03  0.50400001928E-02 0.  1.
    10030    2    1    2    0    0  0.00000000000E+00  0.00000000000E+00  0.36225970609E+03  0.21717673028E+04  0.21413409637E+04 0.  0.
        3    1    3    3  502    0 -0.91584746329E+03  0.51313194675E+03 -0.32226314449E+02  0.10502949663E+04  0.10100000352E+00 0.  1.
       -3    1    3    3    0  502  0.91584746329E+03 -0.51313194675E+03  0.39448602054E+03  0.11214723364E+04  0.10100000352E+00 0. -1.
</event>
<event>
 5   0  0.1805501E-04  0.1772633E+04  0.7818609E-02  0.8720990E-01
       -2   -1    0    0    0  501  0.00000000000E+00  0.00000000000E+00  0.29426373642E+03  0.29426373643E+03  0.25500000920E-02 0.  1.
        2   -1    0    0  501    0  0.00000000000E+00  0.00000000000E+00 -0.26695673237E+04  0.26695673237E+04  0.25500000920E-02 0. -1.
    10030    2    1    2    0    0  0.00000000000E+00  0.00000000000E+00 -0.23753035873E+04  0.29638310601E+04  0.17726329065E+04 0.  0.
        2    1    3    3  502    0  0.98913469157E+02 -0.46741055266E+03 -0.24358377680E+04  0.24822494095E+04  0.25500000920E-02 0. -1.
       -2    1    3    3    0  502 -0.98913469157E+02  0.46741055266E+03  0.60534180750E+02  0.48158165057E+03  0.25500000920E-02 0.  1.
</event>
<event>
 5   0  0.1798917E-04  0.2080148E+04  0.7818609E-02  0.8570039E-01
        2   -1    0    0  501    0  0.00000000000E+00  0.00000000000E+00  0.68959290065E+03  0.68959290065E+03  0.25500000920E-02 0. -1.
       -2   -1    0    0    0  501  0.00000000000E+00  0.00000000000E+00 -0.15686852530E+04  0.15686852530E+04  0.25500000920E-02 0.  1.
    10030    2    1    2    0    0  0.00000000000E+00  0.00000000000E+00 -0.87909235232E+03  0.22582781536E+04  0.20801482772E+04 0.  0.
        4    1    3    3  502    0  0.80368144695E+03 -0.59343818205E+03 -0.12549993190E+03  0.10068885688E+04  0.12699999809E+01 0. -1.
       -4    1    3    3    0  502 -0.80368144695E+03  0.59343818205E+03 -0.75359242042E+03  0.12513895849E+04  0.12699999809E+01 0.  1.
</event>
<event>
 5   0  0.7954459E-05  0.1849917E+04  0.7818609E-02  0.8680195E-01
        1   -1    0    0  501    0  0.00000000000E+00  0.00000000000E+00  0.10938578329E+04  0.10938578330E+04  0.50400001928E-02 0.  1.
       -1   -1    0    0    0  501  0.00000000000E+00  0.00000000000E+00 -0.78213842287E+03  0.78213842289E+03  0.50400001928E-02 0. -1.
    10030    2    1    2    0    0  0.00000000000E+00  0.00000000000E+00  0.31171941008E+03  0.18759962559E+04  0.18499170147E+04 0.  0.
        5    1    3    3  502    0  0.74384257772E+02 -0.52701296119E+03 -0.61127706548E+03  0.81052909871E+03  0.46999998093E+01 0. -1.
       -5    1    3    3    0  502 -0.74384257772E+02  0.52701296119E+03  0.92299647556E+03  0.10654671571E+04  0.46999998093E+01 0.  1.
</event>
<event>
 5   0  0.6250625E-05  0.2186920E+04  0.7818609E-02  0.8523892E-01
       -4   -1    0    0    0  501  0.00000000000E+00  0.00000000000E+00  0.83649122455E+03  0.83649218863E+03  0.12699999809E+01 0.  1.
        4   -1    0    0  501    0  0.00000000000E+00  0.00000000000E+00 -0.14293672666E+04  0.14293678308E+04  0.12699999809E+01 0. -1.
    10030    2    1    2    0    0  0.00000000000E+00  0.00000000000E+00 -0.59287604200E+03  0.22658600194E+04  0.21869201234E+04 0.  0.
        5    1    3    3  502    0 -0.19988516104E+03 -0.23565477479E+03  0.79030092652E+03  0.84857816078E+03  0.46999998093E+01 0.  1.
       -5    1    3    3    0  502  0.19988516104E+03  0.23565477479E+03 -0.13831769685E+04  0.14172818586E+04  0.46999998093E+01 0. -1.
</event>
<event>
 5   0  0.1805501E-04  0.2197155E+04  0.7818609E-02  0.8519613E-01
       -2   -1    0    0    0  501  0.00000000000E+00  0.00000000000E+00  0.69871818711E+03  0.69871818711E+03  0.25500000920E-02 0. -1.
        2   -1    0    0  501    0  0.00000000000E+00  0.00000000000E+00 -0.17272668769E+04  0.17272668769E+04  0.25500000920E-02 0.  1.
    10030    2    1    2    0    0  0.00000000000E+00  0.00000000000E+00 -0.10285486898E+04  0.24259850640E+04  0.21971552343E+04 0.  0.
        2    1    3    3  502    0  0.97730246105E+02  0.55024867898E+03  0.53003508188E+03  0.77023502761E+03  0.25500000920E-02 0. -1.
       -2    1    3    3    0  502 -0.97730246105E+02 -0.55024867898E+03 -0.15585837716E+04  0.16557500364E+04  0.25500000920E-02 0.  1.
</event>
<event>
 5   0  0.1733962E-04  0.2202680E+04  0.7818609E-02  0.8517313E-01
       -2   -1    0    0    0  501  0.00000000000E+00  0.00000000000E+00  0.87090267927E+03  0.87090267927E+03  0.25500000920E-02 0. -1.
        2   -1    0    0  501    0  0.00000000000E+00  0.00000000000E+00 -0.13927502088E+04  0.13927502088E+04  0.25500000920E-02 0.  1.
    10030    2    1    2    0    0  0.00000000000E+00  0.00000000000E+00 -0.52184752949E+03  0.22636528880E+04  0.22026800842E+04 0.  0.
        3    1    3    3  502    0  0.29365938631E+03  0.75546017553E+03 -0.10272142735E+04  0.13084819776E+04  0.10100000352E+00 0.  1.
       -3    1    3    3    0  502 -0.29365938631E+03 -0.75546017553E+03  0.50536674397E+03  0.95517091041E+03  0.10100000352E+00 0. -1.
</event>
<event>
 5   0  0.1680258E-04  0.2108092E+04  0.7818609E-02  0.8557687E-01
       -2   -1    0    0    0  501  0.00000000000E+00  0.00000000000E+00  0.84247764081E+03  0.84247764081E+03  0.25500000920E-02 0.  1.
        2   -1    0    0  501    0  0.00000000000E+00  0.00000000000E+00 -0.13187443229E+04  0.13187443229E+04  0.25500000920E-02 0. -1.
    10030    2    1    2    0    0  0.00000000000E+00  0.00000000000E+00 -0.47626668213E+03  0.21612219638E+04  0.21080916546E+04 0.  0.
        5    1    3    3  502    0 -0.33439275600E+03  0.19749072343E+03  0.76644501619E+03  0.85923288691E+03  0.46999998093E+01 0.  1.
       -5    1    3    3    0  502  0.33439275600E+03 -0.19749072343E+03 -0.12427116983E+04  0.13019890769E+04  0.46999998093E+01 0. -1.
</event>
<event>
 5   0  0.8470971E-05  0.2156005E+04  0.7818609E-02  0.8536966E-01
        1   -1    0    0  501    0  0.00000000000E+00  0.00000000000E+00  0.19193831885E+04  0.19193831885E+04  0.50400001928E-02 0. -1.
       -1   -1    0    0    0  501  0.00000000000E+00  0.00000000000E+00 -0.60544953797E+03  0.60544953799E+03  0.50400001928E-02 0.  1.
    10030    2    1    2    0    0  0.00000000000E+00  0.00000000000E+00  0.13139336506E+04  0.25248327265E+04  0.21560052548E+04 0.  0.
        2    1    3    3  502    0 -0.77865576982E+03 -0.18204612754E+03  0.15035815293E+04  0.17029982430E+04  0.25500000920E-02 0. -1.
       -2    1    3    3    0  502  0.77865576982E+03  0.18204612754E+03 -0.18964787872E+03  0.82183448354E+03  0.25500000920E-02 0.  1.
</event>
<event>
 5   0  0.1805501E-04  0.2195673E+04  0.7818609E-02  0.8520231E-01
        2   -1    0    0  501    0  0.00000000000E+00  0.00000000000E+00  0.15225005265E+04  0.15225005265E+04  0.25500000920E-02 0.  1.
       -2   -1    0    0    0  501  0.00000000000E+00  0.00000000000E+00 -0.79162191430E+03  0.79162191430E+03  0.25500000920E-02 0. -1.
    10030    2    1    2    0    0  0.00000000000E+00  0.00000000000E+00  0.73087861220E+03  0.23141224408E+04  0.21956728184E+04 0.  0.
        2    1    3    3  502    0  0.44865360779E+03  0.82345330896E+03  0.96709376834E+03  0.13470841728E+04  0.25500000920E-02 0.  1.
       -2    1    3    3    0  502 -0.44865360779E+03 -0.82345330896E+03 -0.23621515614E+03  0.96703826802E+03  0.25500000920E-02 0. -1.
</event>
<event>
 5   0  0.8470971E-05  0.2206537E+04  0.7818609E-02  0.8515712E-01
        1   -1    0    0  501    0  0.00000000000E+00  0.00000000000E+00  0.14667865336E+04  0.14667865336E+04  0.50400001928E-02 0.  1.
       -1   -1    0    0    0  501  0.00000000000E+00  0.00000000000E+00 -0.82984254790E+03  0.82984254791E+03  0.50400001928E-02 0. -1.
    10030    2    1    2    0    0  0.00000000000E+00  0.00000000000E+00  0.63694398568E+03  0.22966290815E+04  0.22065374452E+04 0.  0.
        2    1    3    3  502    0 -0.49971438010E+03  0.93696941004E+03  0.69600125772E+01  0.10619202318E+04  0.25500000920E-02 0. -1.
       -2    1    3    3    0  502  0.49971438010E+03 -0.93696941004E+03  0.62998397310E+03  0.12347088496E+04  0.25500000920E-02 0.  1.
</event>
<event>
 5   0  0.1680258E-04  0.2246321E+04  0.7818609E-02  0.8499392E-01
       -2   -1    0    0    0  501  0.00000000000E+00  0.00000000000E+00  0.96015159565E+03  0.96015159565E+03  0.25500000920E-02 0. -1.
        2   -1    0    0  501    0  0.00000000000E+00  0.00000000000E+00 -0.13138443551E+04  0.13138443551E+04  0.25500000920E-02 0.  1.
    10030    2    1    2    0    0  0.00000000000E+00  0.00000000000E+00 -0.35369275942E+03  0.22739959507E+04  0.22463212183E+04 0.  0.
        5    1    3    3  502    0  0.53759219704E+03  0.32342294811E+03  0.76622081135E+03  0.99031520004E+03  0.46999998093E+01 0. -1.
       -5    1    3    3    0  502 -0.53759219704E+03 -0.32342294811E+03 -0.11199135708E+04  0.12836807507E+04  0.46999998093E+01 0.  1.
</event>
<event>
 5   0  0.8306787E-05  0.2754816E+04  0.7818609E-02  0.8317435E-01
       -1   -1    0    0    0  501  0.00000000000E+00  0.00000000000E+00  0.17196494755E+04  0.17196494755E+04  0.50400001928E-02 0. -1.
        1   -1    0    0  501    0  0.00000000000E+00  0.00000000000E+00 -0.11032785203E+04  0.11032785203E+04  0.50400001928E-02 0.  1.
    10030    2    1    2    0    0  0.00000000000E+00  0.00000000000E+00  0.61637095520E+03  0.28229279958E+04  0.27548156590E+04 0.  0.
        1    1    3    3  502    0 -0.13019866327E+04 -0.39945929660E+03  0.96894753972E+02  0.13653298190E+04  0.50400001928E-02 0. -1.
       -1    1    3    3    0  502  0.13019866327E+04  0.39945929660E+03  0.51947620123E+03  0.14575981768E+04  0.50400001928E-02 0.  1.
</event>
<event>
 5   0  0.8470971E-05  0.2211349E+04  0.7818609E-02  0.8513719E-01
        1   -1    0    0  501    0  0.00000000000E+00  0.00000000000E+00  0.13356381993E+04  0.13356381993E+04  0.50400001928E-02 0. -1.
       -1   -1    0    0    0  501  0.00000000000E+00  0.00000000000E+00 -0.91530518486E+03  0.91530518488E+03  0.50400001928E-02 0.  1.
    10030    2    1    2    0    0  0.00000000000E+00  0.00000000000E+00  0.42033301446E+03  0.22509433842E+04  0.22113494242E+04 0.  0.
        2    1    3    3  502    0 -0.19689167955E+03  0.10364593953E+04  0.54700253478E+03  0.11883712318E+04  0.25500000920E-02 0. -1.
       -2    1    3    3    0  502  0.19689167955E+03 -0.10364593953E+04 -0.12666952032E+03  0.10625721524E+04  0.25500000920E-02 0.  1.
</event>
<event>
 5   0  0.8306787E-05  0.2224607E+04  0.7818609E-02  0.8508255E-01
       -1   -1    0    0    0  501  0.00000000000E+00  0.00000000000E+00  0.82800875517E+03  0.82800875519E+03  0.50400001928E-02 0. -1.
        1   -1    0    0  501    0  0.00000000000E+00  0.00000000000E+00 -0.14942102892E+04  0.14942102892E+04  0.50400001928E-02 0.  1.
    10030    2    1    2    0    0  0.00000000000E+00  0.00000000000E+00 -0.66620153399E+03  0.23222190444E+04  0.22246071127E+04 0.  0.
        1    1    3    3  502    0 -0.45472965035E+03 -0.10955779141E+01 -0.13927472312E+04  0.14651024214E+04  0.50400001928E-02 0.  1.
       -1    1    3    3    0  502  0.45472965035E+03  0.10955779141E+01  0.72654569720E+03  0.85711662295E+03  0.50400001928E-02 0. -1.
</event>
<event>
 5   0  0.1680258E-04  0.2115842E+04  0.7818609E-02  0.8554297E-01
        2   -1    0    0  501    0  0.00000000000E+00  0.00000000000E+00  0.98573686755E+03  0.98573686755E+03  0.25500000920E-02 0. -1.
       -2   -1    0    0    0  501  0.00000000000E+00  0.00000000000E+00 -0.11353907260E+04  0.11353907260E+04  0.25500000920E-02 0.  1.
    10030    2    1    2    0    0  0.00000000000E+00  0.00000000000E+00 -0.14965385846E+03  0.21211275936E+04  0.21158416743E+04 0.  0.
        5    1    3    3  502    0 -0.60883624577E+03 -0.59804017281E+03  0.55190751785E+03  0.10163452271E+04  0.46999998093E+01 0. -1.
       -5    1    3    3    0  502  0.60883624577E+03  0.59804017281E+03 -0.70156137631E+03  0.11047823664E+04  0.46999998093E+01 0.  1.
</event>
<event>
 5   0  0.7954459E-05  0.2263809E+04  0.7818609E-02  0.8492329E-01
        1   -1    0    0  501    0  0.00000000000E+00  0.00000000000E+00  0.12827450974E+04  0.12827450974E+04  0.50400001928E-02 0.  1.
       -1   -1    0    0    0  501  0.00000000000E+00  0.00000000000E+00 -0.99880158546E+03  0.99880158547E+03  0.50400001928E-02 0. -1.
    10030    2    1    2    0    0  0.00000000000E+00  0.00000000000E+00  0.28394351190E+03  0.22815466828E+04  0.22638090352E+04 0.  0.
        5    1    3    3  502    0  0.10613582212E+04  0.21434332769E+03  0.47434571276E+03  0.11821380127E+04  0.46999998093E+01 0.  1.
       -5    1    3    3    0  502 -0.10613582212E+04 -0.21434332769E+03 -0.19040220086E+03  0.10994086701E+04  0.46999998093E+01 0. -1.
</event>
<event>
 5   0  0.8602414E-05  0.1820220E+04  0.7818609E-02  0.8695620E-01
       -1   -1    0    0    0  501  0.00000000000E+00  0.00000000000E+00  0.56481822958E+03  0.56481822960E+03  0.50400001928E-02 0.  1.
        1   -1    0    0  501    0  0.00000000000E+00  0.00000000000E+00 -0.14664892284E+04  0.14664892284E+04  0.50400001928E-02 0. -1.
    10030    2    1    2    0    0  0.00000000000E+00  0.00000000000E+00 -0.90167099879E+03  0.20313074580E+04  0.18202196018E+04 0.  0.
        3    1    3    3  502    0 -0.55377628716E+03  0.15542841124E+02  0.35497562663E+03  0.65796463570E+03  0.10100000352E+00 0.  1.
       -3    1    3    3    0  502  0.55377628716E+03 -0.15542841124E+02 -0.12566466254E+04  0.13733428223E+04  0.10100000352E+00 0. -1.
</event>
<event>
 5   0  0.1754356E-04  0.2174751E+04  0.7818609E-02  0.8529011E-01
        2   -1    0    0  501    0  0.00000000000E+00  0.00000000000E+00  0.16427695559E+04  0.16427695559E+04  0.25500000920E-02 0. -1.
       -2   -1    0    0    0  501  0.00000000000E+00  0.00000000000E+00 -0.71975109493E+03  0.71975109494E+03  0.25500000920E-02 0.  1.
    10030    2    1    2    0    0  0.00000000000E+00  0.00000000000E+00  0.92301846095E+03  0.23625206508E+04  0.21747507320E+04 0.  0.
        1    1    3    3  502    0 -0.89253742173E+03  0.41954923162E+03 -0.36007121760E+02  0.98688455241E+03  0.50400001928E-02 0.  1.
       -1    1    3    3    0  502  0.89253742173E+03 -0.41954923162E+03  0.95902558271E+03  0.13756360984E+04  0.50400001928E-02 0. -1.
</event>
<event>
 5   0  0.8602414E-05  0.2208137E+04  0.7818609E-02  0.8515049E-01
       -1   -1    0    0    0  501  0.00000000000E+00  0.00000000000E+00  0.14882282407E+04  0.14882282407E+04  0.50400001928E-02 0. -1.
        1   -1    0    0  501    0  0.00000000000E+00  0.00000000000E+00 -0.81907296073E+03  0.81907296074E+03  0.50400001928E-02 0.  1.
    10030    2    1    2    0    0  0.00000000000E+00  0.00000000000E+00  0.66915527999E+03  0.23073012015E+04  0.22081372343E+04 0.  0.
        3    1    3    3  502    0 -0.16483945415E+03  0.43047296227E+03 -0.71371524065E+03  0.84962843162E+03  0.10100000352E+00 0.  1.
       -3    1    3    3    0  502  0.16483945415E+03 -0.43047296227E+03  0.13828705206E+04  0.14576727698E+04  0.10100000352E+00 0. -1.
</event>
<event>
 5   0  0.1733962E-04  0.2151018E+04  0.7818609E-02  0.8539097E-01
        2   -1    0    0  501    0  0.00000000000E+00  0.00000000000E+00  0.76713422193E+03  0.76713422193E+03  0.25500000920E-02 0. -1.
       -2   -1    0    0    0  501  0.00000000000E+00  0.00000000000E+00 -0.15078449033E+04  0.15078449033E+04  0.25500000920E-02 0.  1.
    10030    2    1    2    0    0  0.00000000000E+00  0.00000000000E+00 -0.74071068137E+03  0.22749791252E+04  0.21510178304E+04 0.  0.
        3    1    3    3  502    0 -0.12013499029E+03  0.72043691322E+02  0.75744470165E+03  0.77028903381E+03  0.10100000352E+00 0. -1.
       -3    1    3    3    0  502  0.12013499029E+03 -0.72043691322E+02 -0.14981553830E+04  0.15046900914E+04  0.10100000352E+00 0.  1.
</event>
<event>
 5   0  0.8306787E-05  0.2170658E+04  0.7818609E-02  0.8530741E-01
        1   -1    0    0  501    0  0.00000000000E+00  0.00000000000E+00  0.12688585837E+04  0.12688585837E+04  0.50400001928E-02 0.  1.
       -1   -1    0    0    0  501  0.00000000000E+00  0.00000000000E+00 -0.92834548881E+03  0.92834548882E+03  0.50400001928E-02 0. -1.
    10030    2    1    2    0    0  0.00000000000E+00  0.00000000000E+00  0.34051309486E+03  0.21972040725E+04  0.21706580957E+04 0.  0.
        1    1    3    3  502    0  0.10200405379E+03 -0.24049292434E+02 -0.92321176890E+03  0.92914109032E+03  0.50400001928E-02 0. -1.
       -1    1    3    3    0  502 -0.10200405379E+03  0.24049292434E+02  0.12637248638E+04  0.12680629822E+04  0.50400001928E-02 0.  1.
</event>
<event>
 5   0  0.8306787E-05  0.2216821E+04  0.7818609E-02  0.8511459E-01
       -1   -1    0    0    0  501  0.00000000000E+00  0.00000000000E+00  0.10169244823E+04  0.10169244823E+04  0.50400001928E-02 0.  1.
        1   -1    0    0  501    0  0.00000000000E+00  0.00000000000E+00 -0.12081267903E+04  0.12081267903E+04  0.50400001928E-02 0. -1.
    10030    2    1    2    0    0  0.00000000000E+00  0.00000000000E+00 -0.19120230806E+03  0.22250512726E+04  0.22168208866E+04 0.  0.
        1    1    3    3  502    0 -0.10422641221E+03 -0.11012070354E+04 -0.24248327208E+02  0.11063941708E+04  0.50400001928E-02 0.  1.
       -1    1    3    3    0  502  0.10422641221E+03  0.11012070354E+04 -0.16695398085E+03  0.11186571018E+04  0.50400001928E-02 0. -1.
</event>
<event>
 5   0  0.1754356E-04  0.2206323E+04  0.7818609E-02  0.8515801E-01
        2   -1    0    0  501    0  0.00000000000E+00  0.00000000000E+00  0.20059902202E+04  0.20059902202E+04  0.25500000920E-02 0. -1.
       -2   -1    0    0    0  501  0.00000000000E+00  0.00000000000E+00 -0.60666535768E+03  0.60666535769E+03  0.25500000920E-02 0.  1.
    10030    2    1    2    0    0  0.00000000000E+00  0.00000000000E+00  0.13993248625E+04  0.26126555778E+04  0.22063225280E+04 0.  0.
        1    1    3    3  502    0  0.84568556194E+03 -0.70866586447E+02 -0.13495196732E+03  0.85931261847E+03  0.50400001928E-02 0.  1.
       -1    1    3    3    0  502 -0.84568556194E+03  0.70866586447E+02  0.15342768298E+04  0.17533429594E+04  0.50400001928E-02 0. -1.
</event>
<event>
 5   0  0.8602414E-05  0.2269071E+04  0.7818609E-02  0.8490217E-01
        1   -1    0    0  501    0  0.00000000000E+00  0.00000000000E+00  0.16421523329E+04  0.16421523329E+04  0.50400001928E-02 0. -1.
       -1   -1    0    0    0  501  0.00000000000E+00  0.00000000000E+00 -0.78383153191E+03  0.78383153192E+03  0.50400001928E-02 0.  1.
    10030    2    1    2    0    0  0.00000000000E+00  0.00000000000E+00  0.85832080097E+03  0.24259838648E+04  0.22690709806E+04 0.  0.
        3    1    3    3  502    0  0.88369483982E+03  0.63626415116E+03  0.88668969332E+02  0.10925249820E+04  0.10100000352E+00 0. -1.
       -3    1    3    3    0  502 -0.88369483982E+03 -0.63626415116E+03  0.76965183163E+03  0.13334588828E+04  0.10100000352E+00 0.  1.
</event>
<event>
 5   0  0.8306787E-05  0.2166548E+04  0.7818609E-02  0.8532482E-01
        1   -1    0    0  501    0  0.00000000000E+00  0.00000000000E+00  0.13541280606E+04  0.13541280606E+04  0.50400001928E-02 0. -1.
       -1   -1    0    0    0  501  0.00000000000E+00  0.00000000000E+00 -0.86659624300E+03  0.86659624302E+03  0.50400001928E-02 0.  1.
    10030    2    1    2    0    0  0.00000000000E+00  0.00000000000E+00  0.48753181763E+03  0.22207243037E+04  0.21665477515E+04 0.  0.
        1    1    3    3  502    0  0.18652080446E+03  0.76200954630E+03 -0.52193049171E+03  0.94226323145E+03  0.50400001928E-02 0.  1.
       -1    1    3    3    0  502 -0.18652080446E+03 -0.76200954630E+03  0.10094623093E+04  0.12784610722E+04  0.50400001928E-02 0. -1.
</event>
<event>
 5   0  0.1733962E-04  0.2150236E+04  0.7818609E-02  0.8539431E-01
        2   -1    0    0  501    0  0.00000000000E+00  0.00000000000E+00  0.67756452198E+03  0.67756452198E+03  0.25500000920E-02 0. -1.
       -2   -1    0    0    0  501  0.00000000000E+00  0.00000000000E+00 -0.17059312854E+04  0.17059312854E+04  0.25500000920E-02 0.  1.
    10030    2    1    2    0    0  0.00000000000E+00  0.00000000000E+00 -0.10283667635E+04  0.23834958074E+04  0.21502358159E+04 0.  0.
        3    1    3    3  502    0 -0.48047138201E+03 -0.54738524374E+03  0.36242487293E+03  0.81353251485E+03  0.10100000352E+00 0. -1.
       -3    1    3    3    0  502  0.48047138201E+03  0.54738524374E+03 -0.13907916364E+04  0.15699632926E+04  0.10100000352E+00 0.  1.
</event>
<event>
 5   0  0.1680258E-04  0.2262595E+04  0.7818609E-02  0.8492817E-01
        2   -1    0    0  501    0  0.00000000000E+00  0.00000000000E+00  0.16071311216E+04  0.16071311216E+04  0.25500000920E-02 0. -1.
       -2   -1    0    0    0  501  0.00000000000E+00  0.00000000000E+00 -0.79634674196E+03  0.79634674196E+03  0.25500000920E-02 0.  1.
    10030    2    1    2    0    0  0.00000000000E+00  0.00000000000E+00  0.81078437966E+03  0.24034778636E+04  0.22625946456E+04 0.  0.
        5    1    3    3  502    0  0.46281166253E+03  0.54313360580E+03  0.13379039056E+04  0.15163105550E+04  0.46999998093E+01 0. -1.
       -5    1    3    3    0  502 -0.46281166253E+03 -0.54313360580E+03 -0.52711952593E+03  0.88716730854E+03  0.46999998093E+01 0.  1.
</event>
<event>
 5   0  0.1805501E-04  0.2066053E+04  0.7818609E-02  0.8576346E-01
        2   -1    0    0  501    0  0.00000000000E+00  0.00000000000E+00  0.12328834187E+04  0.12328834187E+04  0.25500000920E-02 0. -1.
       -2   -1    0    0    0  501  0.00000000000E+00  0.00000000000E+00 -0.86556764550E+03  0.86556764551E+03  0.25500000920E-02 0.  1.
    10030    2    1    2    0    0  0.00000000000E+00  0.00000000000E+00  0.36731577320E+03  0.20984510642E+04  0.20660532403E+04 0.  0.
        2    1    3    3  502    0  0.71985348858E+03 -0.24889427398E+03 -0.52514382512E+03  0.92515590131E+03  0.25500000920E-02 0.  1.
       -2    1    3    3    0  502 -0.71985348858E+03  0.24889427398E+03  0.89245959833E+03  0.11732951629E+04  0.25500000920E-02 0. -1.
</event>
<event>
 5   0  0.1805501E-04  0.1502843E+04  0.7818609E-02  0.8882565E-01
        2   -1    0    0  501    0  0.00000000000E+00  0.00000000000E+00  0.15857778663E+04  0.15857778663E+04  0.25500000920E-02 0.  1.
       -2   -1    0    0    0  501  0.00000000000E+00  0.00000000000E+00 -0.35606141178E+03  0.35606141179E+03  0.25500000920E-02 0. -1.
    10030    2    1    2    0    0  0.00000000000E+00  0.00000000000E+00  0.12297164546E+04  0.19418392781E+04  0.15028430469E+04 0.  0.
        2    1    3    3  502    0 -0.35283284986E+03  0.19240459565E+03 -0.20552892756E+03  0.45138973010E+03  0.25500000920E-02 0. -1.
       -2    1    3    3    0  502  0.35283284986E+03 -0.19240459565E+03  0.14352453821E+04  0.14904495480E+04  0.25500000920E-02 0.  1.
</event>
<event>
 5   0  0.1733962E-04  0.2271379E+04  0.7818609E-02  0.8489292E-01
       -2   -1    0    0    0  501  0.00000000000E+00  0.00000000000E+00  0.80400736526E+03  0.80400736526E+03  0.25500000920E-02 0. -1.
        2   -1    0    0  501    0  0.00000000000E+00  0.00000000000E+00 -0.16042020883E+04  0.16042020883E+04  0.25500000920E-02 0.  1.
    10030    2    1    2    0    0  0.00000000000E+00  0.00000000000E+00 -0.80019472303E+03  0.24082094536E+04  0.22713786953E+04 0.  0.
        3    1    3    3  502    0  0.81277404179E+03 -0.77226727204E+03 -0.59209151791E+03  0.12679001373E+04  0.10100000352E+00 0.  1.
       -3    1    3    3    0  502 -0.81277404179E+03  0.77226727204E+03 -0.20810320512E+03  0.11403093162E+04  0.10100000352E+00 0. -1.
</event>
<event>
 5   0  0.8470971E-05  0.2138623E+04  0.7818609E-02  0.8544418E-01
        1   -1    0    0  501    0  0.00000000000E+00  0.00000000000E+00  0.10851780673E+04  0.10851780674E+04  0.50400001928E-02 0.  1.
       -1   -1    0    0    0  501  0.00000000000E+00  0.00000000000E+00 -0.10536773125E+04  0.10536773126E+04  0.50400001928E-02 0. -1.
    10030    2    1    2    0    0  0.00000000000E+00  0.00000000000E+00  0.31500754796E+02  0.21388553799E+04  0.21386233980E+04 0.  0.
        2    1    3    3  502    0 -0.61852230474E+03 -0.52245660044E+03  0.71432222150E+03  0.10797161557E+04  0.25500000920E-02 0.  1.
       -2    1    3    3    0  502  0.61852230474E+03  0.52245660044E+03 -0.68282146671E+03  0.10591392242E+04  0.25500000920E-02 0. -1.
</event>
<event>
 5   0  0.1754356E-04  0.1873882E+04  0.7818609E-02  0.8667968E-01
        2   -1    0    0  501    0  0.00000000000E+00  0.00000000000E+00  0.14535959512E+04  0.14535959512E+04  0.25500000920E-02 0.  1.
       -2   -1    0    0    0  501  0.00000000000E+00  0.00000000000E+00 -0.60392162950E+03  0.60392162950E+03  0.25500000920E-02 0. -1.
    10030    2    1    2    0    0  0.00000000000E+00  0.00000000000E+00  0.84967432170E+03  0.20575175807E+04  0.18738815710E+04 0.  0.
        1    1    3    3  502    0 -0.12074617170E+03 -0.70433140058E+03 -0.24051288893E+03  0.75399523181E+03  0.50400001928E-02 0. -1.
       -1    1    3    3    0  502  0.12074617170E+03  0.70433140058E+03  0.10901872106E+04  0.13035223489E+04  0.50400001928E-02 0.  1.
</event>
<event>
 5   0  0.8602414E-05  0.2237877E+04  0.7818609E-02  0.8502826E-01
       -1   -1    0    0    0  501  0.00000000000E+00  0.00000000000E+00  0.99774209722E+03  0.99774209724E+03  0.50400001928E-02 0. -1.
        1   -1    0    0  501    0  0.00000000000E+00  0.00000000000E+00 -0.12548562401E+04  0.12548562401E+04  0.50400001928E-02 0.  1.
    10030    2    1    2    0    0  0.00000000000E+00  0.00000000000E+00 -0.25711414284E+03  0.22525983373E+04  0.22378765799E+04 0.  0.
        3    1    3    3  502    0  0.73493343393E+03 -0.52626667602E+03  0.53528055341E+03  0.10505279852E+04  0.10100000352E+00 0. -1.
       -3    1    3    3    0  502 -0.73493343393E+03  0.52626667602E+03 -0.79239469626E+03  0.12020703521E+04  0.10100000352E+00 0.  1.
</event>
<event>
 5   0  0.8602414E-05  0.2140971E+04  0.7818609E-02  0.8543407E-01
        1   -1    0    0  501    0  0.00000000000E+00  0.00000000000E+00  0.79621507772E+03  0.79621507773E+03  0.50400001928E-02 0.  1.
       -1   -1    0    0    0  501  0.00000000000E+00  0.00000000000E+00 -0.14392328895E+04  0.14392328895E+04  0.50400001928E-02 0. -1.
    10030    2    1    2    0    0  0.00000000000E+00  0.00000000000E+00 -0.64301781179E+03  0.22354479672E+04  0.21409707396E+04 0.  0.
        3    1    3    3  502    0  0.26192846992E+03  0.67356292442E+03  0.50305190192E+03  0.88054231172E+03  0.10100000352E+00 0.  1.
       -3    1    3    3    0  502 -0.26192846992E+03 -0.67356292442E+03 -0.11460697137E+04  0.13549056555E+04  0.10100000352E+00 0. -1.
</event>
<event>
 5   0  0.8784659E-05  0.2209909E+04  0.7818609E-02  0.8514315E-01
        1   -1    0    0  501    0  0.00000000000E+00  0.00000000000E+00  0.80299260876E+03  0.80299260877E+03  0.50400001928E-02 0. -1.
       -1   -1    0    0    0  501  0.00000000000E+00  0.00000000000E+00 -0.15204671912E+04  0.15204671912E+04  0.50400001928E-02 0.  1.
    10030    2    1    2    0    0  0.00000000000E+00  0.00000000000E+00 -0.71747458245E+03  0.23234598000E+04  0.22099085198E+04 0.  0.
        4    1    3    3  502    0  0.60370916302E+03  0.43313330682E+03 -0.12185942988E+04  0.14272501158E+04  0.12699999809E+01 0.  1.
       -4    1    3    3    0  502 -0.60370916302E+03 -0.43313330682E+03  0.50111971638E+03  0.89620968419E+03  0.12699999809E+01 0. -1.
</event>
<event>
 5   0  0.1798917E-04  0.2216616E+04  0.7818609E-02  0.8511544E-01
        2   -1    0    0  501    0  0.00000000000E+00  0.00000000000E+00  0.16373942278E+04  0.16373942278E+04  0.25500000920E-02 0.  1.
       -2   -1    0    0    0  501  0.00000000000E+00  0.00000000000E+00 -0.75018358574E+03  0.75018358575E+03  0.25500000920E-02 0. -1.
    10030    2    1    2    0    0  0.00000000000E+00  0.00000000000E+00  0.88721064203E+03  0.23875778135E+04  0.22166156844E+04 0.  0.
        4    1    3    3  502    0 -0.43516914659E+03 -0.55710430975E+03 -0.47581453883E+03  0.85213759825E+03  0.12699999809E+01 0. -1.
       -4    1    3    3    0  502  0.43516914659E+03  0.55710430975E+03  0.13630251809E+04  0.15354402153E+04  0.12699999809E+01 0.  1.
</event>
<event>
 5   0  0.8602414E-05  0.2020907E+04  0.7818609E-02  0.8596908E-01
        1   -1    0    0  501    0  0.00000000000E+00  0.00000000000E+00  0.67823870062E+03  0.67823870064E+03  0.50400001928E-02 0. -1.
       -1   -1    0    0    0  501  0.00000000000E+00  0.00000000000E+00 -0.15053930297E+04  0.15053930297E+04  0.50400001928E-02 0.  1.
    10030    2    1    2    0    0  0.00000000000E+00  0.00000000000E+00 -0.82715432903E+03  0.21836317303E+04  0.20209065415E+04 0.  0.
        3    1    3    3  502    0  0.32376069023E+03 -0.69498704085E+03  0.29758933532E+03  0.82242774405E+03  0.10100000352E+00 0. -1.
       -3    1    3    3    0  502 -0.32376069023E+03  0.69498704085E+03 -0.11247436644E+04  0.13612039863E+04  0.10100000352E+00 0.  1.
</event>
<event>
 5   0  0.1680258E-04  0.1158721E+04  0.7818609E-02  0.9149776E-01
       -2   -1    0    0    0  501  0.00000000000E+00  0.00000000000E+00  0.14164394469E+03  0.14164394471E+03  0.25500000920E-02 0.  1.
        2   -1    0    0  501    0  0.00000000000E+00  0.00000000000E+00 -0.23697345037E+04  0.23697345037E+04  0.25500000920E-02 0. -1.
    10030    2    1    2    0    0  0.00000000000E+00  0.00000000000E+00 -0.22280905590E+04  0.25113784484E+04  0.11587209207E+04 0.  0.
        5    1    3    3  502    0 -0.31636395374E+03  0.17760491580E+03 -0.13510627663E+03  0.38717625614E+03  0.46999998093E+01 0.  1.
       -5    1    3    3    0  502  0.31636395374E+03 -0.17760491580E+03 -0.20929842823E+04  0.21242021922E+04  0.46999998093E+01 0. -1.
</event>
<event>
 5   0  0.8602414E-05  0.1941577E+04  0.7818609E-02  0.8634433E-01
        1   -1    0    0  501    0  0.00000000000E+00  0.00000000000E+00  0.24173403042E+04  0.24173403042E+04  0.50400001928E-02 0. -1.
       -1   -1    0    0    0  501  0.00000000000E+00  0.00000000000E+00 -0.38986238131E+03  0.38986238134E+03  0.50400001928E-02 0.  1.
    10030    2    1    2    0    0  0.00000000000E+00  0.00000000000E+00  0.20274779229E+04  0.28072026856E+04  0.19415767278E+04 0.  0.
        3    1    3    3  502    0 -0.57610648509E+02 -0.90138801917E+03  0.49927566097E+03  0.10320346621E+04  0.10100000352E+00 0.  1.
       -3    1    3    3    0  502  0.57610648509E+02  0.90138801917E+03  0.15282022620E+04  0.17751680235E+04  0.10100000352E+00 0. -1.
</event>
<event>
 5   0  0.1754356E-04  0.2050580E+04  0.7818609E-02  0.8583331E-01
        2   -1    0    0  501    0  0.00000000000E+00  0.00000000000E+00  0.84080227294E+03  0.84080227295E+03  0.25500000920E-02 0.  1.
       -2   -1    0    0    0  501  0.00000000000E+00  0.00000000000E+00 -0.12502572786E+04  0.12502572786E+04  0.25500000920E-02 0. -1.
    10030    2    1    2    0    0  0.00000000000E+00  0.00000000000E+00 -0.40945500569E+03  0.20910595516E+04  0.20505795880E+04 0.  0.
        1    1    3    3  502    0  0.22271263199E+03 -0.33769085227E+03 -0.11654418839E+04  0.12336493882E+04  0.50400001928E-02 0. -1.
       -1    1    3    3    0  502 -0.22271263199E+03  0.33769085227E+03  0.75598687825E+03  0.85741016338E+03  0.50400001928E-02 0.  1.
</event>
<event>
 5   0  0.8602414E-05  0.2216779E+04  0.7818609E-02  0.8511477E-01
        1   -1    0    0  501    0  0.00000000000E+00  0.00000000000E+00  0.13444481878E+04  0.13444481878E+04  0.50400001928E-02 0.  1.
       -1   -1    0    0    0  501  0.00000000000E+00  0.00000000000E+00 -0.91377785012E+03  0.91377785013E+03  0.50400001928E-02 0. -1.
    10030    2    1    2    0    0  0.00000000000E+00  0.00000000000E+00  0.43067033768E+03  0.22582260379E+04  0.22167787212E+04 0.  0.
        3    1    3    3  502    0 -0.67420653230E+03  0.85819431050E+03  0.41253935467E+03  0.11667221829E+04  0.10100000352E+00 0.  1.
       -3    1    3    3    0  502  0.67420653230E+03 -0.85819431050E+03  0.18130983010E+02  0.10915038550E+04  0.10100000352E+00 0. -1.
</event>
<event>
 5   0  0.1680258E-04  0.2142971E+04  0.7818609E-02  0.8542547E-01
        2   -1    0    0  501    0  0.00000000000E+00  0.00000000000E+00  0.12633773351E+04  0.12633773351E+04  0.25500000920E-02 0. -1.
       -2   -1    0    0    0  501  0.00000000000E+00  0.00000000000E+00 -0.90873934612E+03  0.90873934613E+03  0.25500000920E-02 0.  1.
    10030    2    1    2    0    0  0.00000000000E+00  0.00000000000E+00  0.35463798900E+03  0.21721166813E+04  0.21429705490E+04 0.  0.
        5    1    3    3  502    0 -0.73595541609E+02  0.26193240887E+03  0.12277702517E+04  0.12575638240E+04  0.46999998093E+01 0. -1.
       -5    1    3    3    0  502  0.73595541609E+02 -0.26193240887E+03 -0.87313226268E+03  0.91455285724E+03  0.46999998093E+01 0.  1.
</event>
<event>
 5   0  0.1733962E-04  0.1991478E+04  0.7818609E-02  0.8610615E-01
       -2   -1    0    0    0  501  0.00000000000E+00  0.00000000000E+00  0.41772925504E+03  0.41772925504E+03  0.25500000920E-02 0. -1.
        2   -1    0    0  501    0  0.00000000000E+00  0.00000000000E+00 -0.23735376255E+04  0.23735376255E+04  0.25500000920E-02 0.  1.
    10030    2    1    2    0    0  0.00000000000E+00  0.00000000000E+00 -0.19558083705E+04  0.27912668805E+04  0.19914779478E+04 0.  0.
        3    1    3    3  502    0  0.31132552656E+03 -0.94515936958E+03 -0.10273845700E+04  0.14303037727E+04  0.10100000352E+00 0. -1.
       -3    1    3    3    0  502 -0.31132552656E+03  0.94515936958E+03 -0.92842380049E+03  0.13609631078E+04  0.10100000352E+00 0.  1.
</event>
<event>
 5   0  0.1733962E-04  0.1507973E+04  0.7818609E-02  0.8879168E-01
        2   -1    0    0  501    0  0.00000000000E+00  0.00000000000E+00  0.12266141935E+04  0.12266141935E+04  0.25500000920E-02 0. -1.
       -2   -1    0    0    0  501  0.00000000000E+00  0.00000000000E+00 -0.46346732983E+03  0.46346732984E+03  0.25500000920E-02 0.  1.
    10030    2    1    2    0    0  0.00000000000E+00  0.00000000000E+00  0.76314686370E+03  0.16900815234E+04  0.15079729507E+04 0.  0.
        3    1    3    3  502    0  0.58118286777E+03 -0.10108643586E+03 -0.14471272423E+03  0.60739919004E+03  0.10100000352E+00 0.  1.
       -3    1    3    3    0  502 -0.58118286777E+03  0.10108643586E+03  0.90785958793E+03  0.10826823333E+04  0.10100000352E+00 0. -1.
</event>
<event>
 5   0  0.8306787E-05  0.2185498E+04  0.7818609E-02  0.8524489E-01
        1   -1    0    0  501    0  0.00000000000E+00  0.00000000000E+00  0.17236071980E+04  0.17236071980E+04  0.50400001928E-02 0.  1.
       -1   -1    0    0    0  501  0.00000000000E+00  0.00000000000E+00 -0.69279119083E+03  0.69279119084E+03  0.50400001928E-02 0. -1.
    10030    2    1    2    0    0  0.00000000000E+00  0.00000000000E+00  0.10308160072E+04  0.24163983889E+04  0.21854975482E+04 0.  0.
        1    1    3    3  502    0 -0.13783042342E+03 -0.66662660566E+03 -0.42972128688E+03  0.80501468398E+03  0.50400001928E-02 0. -1.
       -1    1    3    3    0  502  0.13783042342E+03  0.66662660566E+03  0.14605372941E+04  0.16113837049E+04  0.50400001928E-02 0.  1.
</event>
<event>
 5   0  0.8784659E-05  0.2244162E+04  0.7818609E-02  0.8500268E-01
        1   -1    0    0  501    0  0.00000000000E+00  0.00000000000E+00  0.12384802215E+04  0.12384802215E+04  0.50400001928E-02 0. -1.
       -1   -1    0    0    0  501  0.00000000000E+00  0.00000000000E+00 -0.10166217573E+04  0.10166217573E+04  0.50400001928E-02 0.  1.
    10030    2    1    2    0    0  0.00000000000E+00  0.00000000000E+00  0.22185846418E+03  0.22551019788E+04  0.22441621503E+04 0.  0.
        4    1    3    3  502    0 -0.91246255873E+03  0.59379378692E+03  0.38407287803E+03  0.11544230468E+04  0.12699999809E+01 0. -1.
       -4    1    3    3    0  502  0.91246255873E+03 -0.59379378692E+03 -0.16221441385E+03  0.11006789320E+04  0.12699999809E+01 0.  1.
</event>
<event>
 5   0  0.8306787E-05  0.2194019E+04  0.7818609E-02  0.8520922E-01
       -1   -1    0    0    0  501  0.00000000000E+00  0.00000000000E+00  0.10424937500E+04  0.10424937501E+04  0.50400001928E-02 0.  1.
        1   -1    0    0  501    0  0.00000000000E+00  0.00000000000E+00 -0.11543759475E+04  0.11543759475E+04  0.50400001928E-02 0. -1.
    10030    2    1    2    0    0  0.00000000000E+00  0.00000000000E+00 -0.11188219746E+03  0.21968696976E+04  0.21940188791E+04 0.  0.
        1    1    3    3  502    0  0.99967723099E+03 -0.45174603125E+03 -0.56759201165E+02  0.10984765131E+04  0.50400001928E-02 0. -1.
       -1    1    3    3    0  502 -0.99967723099E+03  0.45174603125E+03 -0.55122996296E+02  0.10983931845E+04  0.50400001928E-02 0.  1.
</event>
<event>
 5   0  0.6250625E-05  0.2332670E+04  0.7818609E-02  0.8465150E-01
       -3   -1    0    0    0  501  0.00000000000E+00  0.00000000000E+00  0.15796470643E+04  0.15796470675E+04  0.10100000352E+00 0.  1.
        3   -1    0    0  501    0  0.00000000000E+00  0.00000000000E+00 -0.86116543503E+03  0.86116544095E+03  0.10100000352E+00 0. -1.
    10030    2    1    2    0    0  0.00000000000E+00  0.00000000000E+00  0.71848162925E+03  0.24408125085E+04  0.23326701117E+04 0.  0.
        3    1    3    3  502    0  0.42872269396E+03 -0.19904104891E+03 -0.75645413953E+03  0.89198843203E+03  0.10100000352E+00 0. -1.
       -3    1    3    3    0  502 -0.42872269396E+03  0.19904104891E+03  0.14749357688E+04  0.15488240764E+04  0.10100000352E+00 0.  1.
</event>
<event>
 5   0  0.7954459E-05  0.2209962E+04  0.7818609E-02  0.8514293E-01
        1   -1    0    0  501    0  0.00000000000E+00  0.00000000000E+00  0.87398262529E+03  0.87398262530E+03  0.50400001928E-02 0. -1.
       -1   -1    0    0    0  501  0.00000000000E+00  0.00000000000E+00 -0.13970341131E+04  0.13970341131E+04  0.50400001928E-02 0.  1.
    10030    2    1    2    0    0  0.00000000000E+00  0.00000000000E+00 -0.52305148778E+03  0.22710167384E+04  0.22099624809E+04 0.  0.
        5    1    3    3  502    0  0.65051579491E+03 -0.53368127631E+03  0.47448391281E+03  0.96599357018E+03  0.46999998093E+01 0. -1.
       -5    1    3    3    0  502 -0.65051579491E+03  0.53368127631E+03 -0.99753540060E+03  0.13050231682E+04  0.46999998093E+01 0.  1.
</event>
<event>
 5   0  0.8784659E-05  0.1151055E+04  0.7818609E-02  0.9156811E-01
       -1   -1    0    0    0  501  0.00000000000E+00  0.00000000000E+00  0.50655424937E+03  0.50655424940E+03  0.50400001928E-02 0. -1.
        1   -1    0    0  501    0  0.00000000000E+00  0.00000000000E+00 -0.65389248187E+03  0.65389248188E+03  0.50400001928E-02 0.  1.
    10030    2    1    2    0    0  0.00000000000E+00  0.00000000000E+00 -0.14733823249E+03  0.11604467313E+04  0.11510551948E+04 0.  0.
        4    1    3    3  502    0  0.94412579661E+02 -0.55649335149E+03  0.39639248788E+02  0.56583696273E+03  0.12699999809E+01 0.  1.
       -4    1    3    3    0  502 -0.94412579661E+02  0.55649335149E+03 -0.18697748128E+03  0.59460976855E+03  0.12699999809E+01 0. -1.
</event>
<event>
 5   0  0.8470971E-05  0.2251174E+04  0.7818609E-02  0.8497425E-01
       -1   -1    0    0    0  501  0.00000000000E+00  0.00000000000E+00  0.11998337687E+04  0.11998337687E+04  0.50400001928E-02 0.  1.
        1   -1    0    0  501    0  0.00000000000E+00  0.00000000000E+00 -0.10559351371E+04  0.10559351371E+04  0.50400001928E-02 0. -1.
    10030    2    1    2    0    0  0.00000000000E+00  0.00000000000E+00  0.14389863167E+03  0.22557689058E+04  0.22511744802E+04 0.  0.
        2    1    3    3  502    0  0.84248010374E+03  0.33815463285E+03  0.73875867734E+03  0.11704211482E+04  0.25500000920E-02 0.  1.
       -2    1    3    3    0  502 -0.84248010374E+03 -0.33815463285E+03 -0.59486004567E+03  0.10853477576E+04  0.25500000920E-02 0. -1.
</event>
<event>
 5   0  0.1805501E-04  0.1554122E+04  0.7818609E-02  0.8849239E-01
        2   -1    0    0  501    0  0.00000000000E+00  0.00000000000E+00  0.15348817387E+04  0.15348817387E+04  0.25500000920E-02 0.  1.
       -2   -1    0    0    0  501  0.00000000000E+00  0.00000000000E+00 -0.39340066655E+03  0.39340066656E+03  0.25500000920E-02 0. -1.
    10030    2    1    2    0    0  0.00000000000E+00  0.00000000000E+00  0.11414810721E+04  0.19282824052E+04  0.15541216157E+04 0.  0.
        2    1    3    3  502    0  0.16332038680E+03 -0.75961819139E+03  0.55658540881E+03  0.95576182323E+03  0.25500000920E-02 0. -1.
       -2    1    3    3    0  502 -0.16332038680E+03  0.75961819139E+03  0.58489566329E+03  0.97252058198E+03  0.25500000920E-02 0.  1.
</event>
<event>
 5   0  0.7954459E-05  0.2152670E+04  0.7818609E-02  0.8538390E-01
        1   -1    0    0  501    0  0.00000000000E+00  0.00000000000E+00  0.15823974414E+04  0.15823974414E+04  0.50400001928E-02 0. -1.
       -1   -1    0    0    0  501  0.00000000000E+00  0.00000000000E+00 -0.73211507094E+03  0.73211507096E+03  0.50400001928E-02 0.  1.
    10030    2    1    2    0    0  0.00000000000E+00  0.00000000000E+00  0.85028237050E+03  0.23145125124E+04  0.21526699841E+04 0.  0.
        5    1    3    3  502    0 -0.70608351659E+03 -0.78663576103E+03  0.64318106933E+03  0.12373575598E+04  0.46999998093E+01 0. -1.
       -5    1    3    3    0  502  0.70608351659E+03  0.78663576103E+03  0.20710130116E+03  0.10771549526E+04  0.46999998093E+01 0.  1.
</event>
<event>
 5   0  0.8602414E-05  0.1964784E+04  0.7818609E-02  0.8623265E-01
        1   -1    0    0  501    0  0.00000000000E+00  0.00000000000E+00  0.15813370350E+04  0.15813370350E+04  0.50400001928E-02 0.  1.
       -1   -1    0    0    0  501  0.00000000000E+00  0.00000000000E+00 -0.61030237155E+03  0.61030237157E+03  0.50400001928E-02 0. -1.
    10030    2    1    2    0    0  0.00000000000E+00  0.00000000000E+00  0.97103466344E+03  0.21916394066E+04  0.19647836957E+04 0.  0.
        3    1    3    3  502    0 -0.61870288732E+03  0.10176479107E+03  0.13291070152E+04  0.14695832074E+04  0.10100000352E+00 0.  1.
       -3    1    3    3    0  502  0.61870288732E+03 -0.10176479107E+03 -0.35807235173E+03  0.72205619917E+03  0.10100000352E+00 0. -1.
</event>
<event>
 5   0  0.1805501E-04  0.1131083E+04  0.7818609E-02  0.9175414E-01
       -2   -1    0    0    0  501  0.00000000000E+00  0.00000000000E+00  0.33031583561E+03  0.33031583562E+03  0.25500000920E-02 0.  1.
        2   -1    0    0  501    0  0.00000000000E+00  0.00000000000E+00 -0.96827770532E+03  0.96827770532E+03  0.25500000920E-02 0. -1.
    10030    2    1    2    0    0  0.00000000000E+00  0.00000000000E+00 -0.63796186971E+03  0.12985935409E+04  0.11310834794E+04 0.  0.
        2    1    3    3  502    0  0.35543663942E+03 -0.36715678696E+03 -0.40823430917E+02  0.51264594348E+03  0.25500000920E-02 0.  1.
       -2    1    3    3    0  502 -0.35543663942E+03  0.36715678696E+03 -0.59713843879E+03  0.78594759745E+03  0.25500000920E-02 0. -1.
</event>
<event>
 5   0  0.8470971E-05  0.2273437E+04  0.7818609E-02  0.8488469E-01
        1   -1    0    0  501    0  0.00000000000E+00  0.00000000000E+00  0.14894186294E+04  0.14894186294E+04  0.50400001928E-02 0. -1.
       -1   -1    0    0    0  501  0.00000000000E+00  0.00000000000E+00 -0.86753880356E+03  0.86753880357E+03  0.50400001928E-02 0.  1.
    10030    2    1    2    0    0  0.00000000000E+00  0.00000000000E+00  0.62187982580E+03  0.23569574329E+04  0.22734365667E+04 0.  0.
        2    1    3    3  502    0 -0.17397143329E+02  0.89741885283E+02  0.14856018048E+04  0.14884115657E+04  0.25500000920E-02 0. -1.
       -2    1    3    3    0  502  0.17397143329E+02 -0.89741885283E+02 -0.86372197896E+03  0.86854586725E+03  0.25500000920E-02 0.  1.
</event>
<event>
 5   0  0.7954459E-05  0.2290023E+04  0.7818609E-02  0.8481865E-01
       -1   -1    0    0    0  501  0.00000000000E+00  0.00000000000E+00  0.10225166905E+04  0.10225166905E+04  0.50400001928E-02 0.  1.
        1   -1    0    0  501    0  0.00000000000E+00  0.00000000000E+00 -0.12821810869E+04  0.12821810869E+04  0.50400001928E-02 0. -1.
    10030    2    1    2    0    0  0.00000000000E+00  0.00000000000E+00 -0.25966439641E+03  0.23046977774E+04  0.22900231977E+04 0.  0.
        5    1    3    3  502    0 -0.89229967602E+03  0.42139673393E+03 -0.71429066632E+03  0.12181983275E+04  0.46999998093E+01 0. -1.
       -5    1    3    3    0  502  0.89229967602E+03 -0.42139673393E+03  0.45462626991E+03  0.10864994498E+04  0.46999998093E+01 0.  1.
</event>
<event>
 5   0  0.1754356E-04  0.2196510E+04  0.7818609E-02  0.8519882E-01
       -2   -1    0    0    0  501  0.00000000000E+00  0.00000000000E+00  0.98672199639E+03  0.98672199639E+03  0.25500000920E-02 0.  1.
        2   -1    0    0  501    0  0.00000000000E+00  0.00000000000E+00 -0.12223952329E+04  0.12223952329E+04  0.25500000920E-02 0. -1.
    10030    2    1    2    0    0  0.00000000000E+00  0.00000000000E+00 -0.23567323654E+03  0.22091172293E+04  0.21965101999E+04 0.  0.
        1    1    3    3  502    0  0.52622198627E+02  0.63203795604E+03 -0.10196004593E+04  0.12007606632E+04  0.50400001928E-02 0. -1.
       -1    1    3    3    0  502 -0.52622198627E+02 -0.63203795604E+03  0.78392722281E+03  0.10083565661E+04  0.50400001928E-02 0.  1.
</event>
<event>
 5   0  0.1805501E-04  0.2340153E+04  0.7818609E-02  0.8462255E-01
       -2   -1    0    0    0  501  0.00000000000E+00  0.00000000000E+00  0.88799066002E+03  0.88799066002E+03  0.25500000920E-02 0. -1.
        2   -1    0    0  501    0  0.00000000000E+00  0.00000000000E+00 -0.15417724953E+04  0.15417724953E+04  0.25500000920E-02 0.  1.
    10030    2    1    2    0    0  0.00000000000E+00  0.00000000000E+00 -0.65378183527E+03  0.24297631553E+04  0.23401534785E+04 0.  0.
        2    1    3    3  502    0  0.21844097004E+03 -0.43183136301E+03  0.77921187525E+03  0.91726001222E+03  0.25500000920E-02 0. -1.
       -2    1    3    3    0  502 -0.21844097004E+03  0.43183136301E+03 -0.14329937105E+04  0.15125031431E+04  0.25500000920E-02 0.  1.
</event>
<event>
 5   0  0.1798917E-04  0.2192148E+04  0.7818609E-02  0.8521704E-01
       -2   -1    0    0    0  501  0.00000000000E+00  0.00000000000E+00  0.10485169812E+04  0.10485169812E+04  0.25500000920E-02 0. -1.
        2   -1    0    0  501    0  0.00000000000E+00  0.00000000000E+00 -0.11457876635E+04  0.11457876635E+04  0.25500000920E-02 0.  1.
    10030    2    1    2    0    0  0.00000000000E+00  0.00000000000E+00 -0.97270682255E+02  0.21943046447E+04  0.21921476428E+04 0.  0.
        4    1    3    3  502    0 -0.35026213321E+03  0.10320892761E+04 -0.16487183580E+03  0.11023049356E+04  0.12699999809E+01 0.  1.
       -4    1    3    3    0  502  0.35026213321E+03 -0.10320892761E+04  0.67601153550E+02  0.10919997091E+04  0.12699999809E+01 0. -1.
</event>
<event>
 5   0  0.1680258E-04  0.1993873E+04  0.7818609E-02  0.8609491E-01
        2   -1    0    0  501    0  0.00000000000E+00  0.00000000000E+00  0.10263037912E+04  0.10263037912E+04  0.25500000920E-02 0.  1.
       -2   -1    0    0    0  501  0.00000000000E+00  0.00000000000E+00 -0.96840940010E+03  0.96840940010E+03  0.25500000920E-02 0. -1.
    10030    2    1    2    0    0  0.00000000000E+00  0.00000000000E+00  0.57894391056E+02  0.19947131913E+04  0.19938728532E+04 0.  0.
        5    1    3    3  502    0 -0.94876480162E+03 -0.23185039702E+03  0.22890863142E+03  0.10031602598E+04  0.46999998093E+01 0.  1.
       -5    1    3    3    0  502  0.94876480162E+03  0.23185039702E+03 -0.17101424037E+03  0.99155293141E+03  0.46999998093E+01 0. -1.
</event>
<event>
 5   0  0.1798917E-04  0.1702919E+04  0.7818609E-02  0.8759701E-01
        2   -1    0    0  501    0  0.00000000000E+00  0.00000000000E+00  0.86995186206E+03  0.86995186206E+03  0.25500000920E-02 0.  1.
       -2   -1    0    0    0  501  0.00000000000E+00  0.00000000000E+00 -0.83336065277E+03  0.83336065277E+03  0.25500000920E-02 0. -1.
    10030    2    1    2    0    0  0.00000000000E+00  0.00000000000E+00  0.36591209292E+02  0.17033125148E+04  0.17029194363E+04 0.  0.
        4    1    3    3  502    0  0.67256590608E+02 -0.36523586094E+03 -0.74808054665E+03  0.83519267254E+03  0.12699999809E+01 0. -1.
       -4    1    3    3    0  502 -0.67256590608E+02  0.36523586094E+03  0.78467175594E+03  0.86811984229E+03  0.12699999809E+01 0.  1.
</event>
<event>
 5   0  0.1754356E-04  0.2133042E+04  0.7818609E-02  0.8546826E-01
        2   -1    0    0  501    0  0.00000000000E+00  0.00000000000E+00  0.58720287813E+03  0.58720287814E+03  0.25500000920E-02 0.  1.
       -2   -1    0    0    0  501  0.00000000000E+00  0.00000000000E+00 -0.19370945053E+04  0.19370945053E+04  0.25500000920E-02 0. -1.
    10030    2    1    2    0    0  0.00000000000E+00  0.00000000000E+00 -0.13498916272E+04  0.25242973835E+04  0.21330423988E+04 0.  0.
        1    1    3    3  502    0  0.86435819915E+03  0.24651957166E+03  0.44482776581E+01  0.89883634932E+03  0.50400001928E-02 0.  1.
       -1    1    3    3    0  502 -0.86435819915E+03 -0.24651957166E+03 -0.13543399049E+04  0.16254610342E+04  0.50400001928E-02 0. -1.
</event>
<event>
 5   0  0.8470971E-05  0.2208603E+04  0.7818609E-02  0.8514856E-01
        1   -1    0    0  501    0  0.00000000000E+00  0.00000000000E+00  0.14275212537E+04  0.14275212537E+04  0.50400001928E-02 0.  1.
       -1   -1    0    0    0  501  0.00000000000E+00  0.00000000000E+00 -0.85426529403E+03  0.85426529405E+03  0.50400001928E-02 0. -1.
    10030    2    1    2    0    0  0.00000000000E+00  0.00000000000E+00  0.57325595965E+03  0.22817865477E+04  0.22086030549E+04 0.  0.
        2    1    3    3  502    0  0.53819775141E+03  0.95612630257E+03  0.15739292048E+03  0.11084253956E+04  0.25500000920E-02 0. -1.
       -2    1    3    3    0  502 -0.53819775141E+03 -0.95612630257E+03  0.41586303917E+03  0.11733611522E+04  0.25500000920E-02 0.  1.
</event>
<event>
 5   0  0.1805501E-04  0.2173475E+04  0.7818609E-02  0.8529550E-01
       -2   -1    0    0    0  501  0.00000000000E+00  0.00000000000E+00  0.11154014615E+04  0.11154014615E+04  0.25500000920E-02 0. -1.
        2   -1    0    0  501    0  0.00000000000E+00  0.00000000000E+00 -0.10588106294E+04  0.10588106294E+04  0.25500000920E-02 0.  1.
    10030    2    1    2    0    0  0.00000000000E+00  0.00000000000E+00  0.56590832091E+02  0.21742120909E+04  0.21734754873E+04 0.  0.
        2    1    3    3  502    0 -0.48754463766E+03 -0.82741417926E+03 -0.48048773526E+03  0.10738633346E+04  0.25500000920E-02 0.  1.
       -2    1    3    3    0  502  0.48754463766E+03  0.82741417926E+03  0.53707856736E+03  0.11003487562E+04  0.25500000920E-02 0. -1.
</event>
<event>
 5   0  0.1733962E-04  0.1171008E+04  0.7818609E-02  0.9138619E-01
        2   -1    0    0  501    0  0.00000000000E+00  0.00000000000E+00  0.32424455338E+03  0.32424455339E+03  0.25500000920E-02 0. -1.
       -2   -1    0    0    0  501  0.00000000000E+00  0.00000000000E+00 -0.10572725489E+04  0.10572725489E+04  0.25500000920E-02 0.  1.
    10030    2    1    2    0    0  0.00000000000E+00  0.00000000000E+00 -0.73302799553E+03  0.13815171023E+04  0.11710078829E+04 0.  0.
        3    1    3    3  502    0  0.31352119723E+03 -0.41146284988E+03 -0.69007508841E+03  0.86243889974E+03  0.10100000352E+00 0.  1.
       -3    1    3    3    0  502 -0.31352119723E+03  0.41146284988E+03 -0.42952907117E+02  0.51907820256E+03  0.10100000352E+00 0. -1.
</event>
<event>
 5   0  0.1680258E-04  0.2336670E+04  0.7818609E-02  0.8463601E-01
        2   -1    0    0  501    0  0.00000000000E+00  0.00000000000E+00  0.13165743848E+04  0.13165743848E+04  0.25500000920E-02 0. -1.
       -2   -1    0    0    0  501  0.00000000000E+00  0.00000000000E+00 -0.10367869599E+04  0.10367869599E+04  0.25500000920E-02 0.  1.
    10030    2    1    2    0    0  0.00000000000E+00  0.00000000000E+00  0.27978742492E+03  0.23533613447E+04  0.23366704123E+04 0.  0.
        5    1    3    3  502    0 -0.10588286653E+04  0.40088279396E+03 -0.15054075395E+03  0.11421513759E+04  0.46999998093E+01 0.  1.
       -5    1    3    3    0  502  0.10588286653E+04 -0.40088279396E+03  0.43032817886E+03  0.12112099688E+04  0.46999998093E+01 0. -1.
</event>
<event>
 5   0  0.1754356E-04  0.2171675E+04  0.7818609E-02  0.8530311E-01
        2   -1    0    0  501    0  0.00000000000E+00  0.00000000000E+00  0.10925055955E+04  0.10925055955E+04  0.25500000920E-02 0.  1.
       -2   -1    0    0    0  501  0.00000000000E+00  0.00000000000E+00 -0.10792099123E+04  0.10792099123E+04  0.25500000920E-02 0. -1.
    10030    2    1    2    0    0  0.00000000000E+00  0.00000000000E+00  0.13295683162E+02  0.21717155078E+04  0.21716748079E+04 0.  0.
        1    1    3    3  502    0 -0.51402980586E+03  0.31568644940E+03  0.90952593224E+03  0.10913853568E+04  0.50400001928E-02 0.  1.
       -1    1    3    3    0  502  0.51402980586E+03 -0.31568644940E+03 -0.89623024908E+03  0.10803301509E+04  0.50400001928E-02 0. -1.
</event>
<event>
 5   0  0.8306787E-05  0.2196115E+04  0.7818609E-02  0.8520047E-01
       -1   -1    0    0    0  501  0.00000000000E+00  0.00000000000E+00  0.10940383943E+04  0.10940383943E+04  0.50400001928E-02 0.  1.
        1   -1    0    0  501    0  0.00000000000E+00  0.00000000000E+00 -0.11020909957E+04  0.11020909957E+04  0.50400001928E-02 0. -1.
    10030    2    1    2    0    0  0.00000000000E+00  0.00000000000E+00 -0.80526014094E+01  0.21961293901E+04  0.21961146267E+04 0.  0.
        1    1    3    3  502    0  0.37309471728E+03 -0.42618983047E+03  0.93666723128E+03  0.10946154310E+04  0.50400001928E-02 0.  1.
       -1    1    3    3    0  502 -0.37309471728E+03  0.42618983047E+03 -0.94471983269E+03  0.11015139590E+04  0.50400001928E-02 0. -1.
</event>
<event>
 5   0  0.1805501E-04  0.2158242E+04  0.7818609E-02  0.8536012E-01
       -2   -1    0    0    0  501  0.00000000000E+00  0.00000000000E+00  0.52058359002E+03  0.52058359002E+03  0.25500000920E-02 0.  1.
        2   -1    0    0  501    0  0.00000000000E+00  0.00000000000E+00 -0.22369173343E+04  0.22369173343E+04  0.25500000920E-02 0. -1.
    10030    2    1    2    0    0  0.00000000000E+00  0.00000000000E+00 -0.17163337443E+04  0.27575009243E+04  0.21582423001E+04 0.  0.
        2    1    3    3  502    0  0.59877685521E+03 -0.35018969762E+03  0.19800011480E+03  0.72136716873E+03  0.25500000920E-02 0.  1.
       -2    1    3    3    0  502 -0.59877685521E+03  0.35018969762E+03 -0.19143338591E+04  0.20361337556E+04  0.25500000920E-02 0. -1.
</event>
<event>
 5   0  0.7954459E-05  0.2202712E+04  0.7818609E-02  0.8517300E-01
        1   -1    0    0  501    0  0.00000000000E+00  0.00000000000E+00  0.11178183837E+04  0.11178183837E+04  0.50400001928E-02 0. -1.
       -1   -1    0    0    0  501  0.00000000000E+00  0.00000000000E+00 -0.10851360760E+04  0.10851360760E+04  0.50400001928E-02 0.  1.
    10030    2    1    2    0    0  0.00000000000E+00  0.00000000000E+00  0.32682307735E+02  0.22029544597E+04  0.22027120144E+04 0.  0.
        5    1    3    3  502    0 -0.10657227350E+04 -0.11039092207E+03 -0.23866114605E+03  0.10976940996E+04  0.46999998093E+01 0.  1.
       -5    1    3    3    0  502  0.10657227350E+04  0.11039092207E+03  0.27134345379E+03  0.11052603601E+04  0.46999998093E+01 0. -1.
</event>
<event>
 5   0  0.1680258E-04  0.2190216E+04  0.7818609E-02  0.8522512E-01
        2   -1    0    0  501    0  0.00000000000E+00  0.00000000000E+00  0.73028744944E+03  0.73028744945E+03  0.25500000920E-02 0. -1.
       -2   -1    0    0    0  501  0.00000000000E+00  0.00000000000E+00 -0.16421772728E+04  0.16421772728E+04  0.25500000920E-02 0.  1.
    10030    2    1    2    0    0  0.00000000000E+00  0.00000000000E+00 -0.91188982339E+03  0.23724647223E+04  0.21902159274E+04 0.  0.
        5    1    3    3  502    0 -0.10874488204E+04 -0.33271334487E+02 -0.32070643349E+03  0.11342515705E+04  0.46999998093E+01 0.  1.
       -5    1    3    3    0  502  0.10874488204E+04  0.33271334487E+02 -0.59118338990E+03  0.12382131518E+04  0.46999998093E+01 0. -1.
</event>
<event>
 5   0  0.8784659E-05  0.2212264E+04  0.7818609E-02  0.8513341E-01
       -1   -1    0    0    0  501  0.00000000000E+00  0.00000000000E+00  0.10252854457E+04  0.10252854457E+04  0.50400001928E-02 0.  1.
        1   -1    0    0  501    0  0.00000000000E+00  0.00000000000E+00 -0.11933532139E+04  0.11933532139E+04  0.50400001928E-02 0. -1.
    10030    2    1    2    0    0  0.00000000000E+00  0.00000000000E+00 -0.16806776812E+03  0.22186386596E+04  0.22122637110E+04 0.  0.
        4    1    3    3  502    0  0.73231428587E+02  0.33098520769E+03 -0.11399744445E+04  0.11893096304E+04  0.12699999809E+01 0. -1.
       -4    1    3    3    0  502 -0.73231428587E+02 -0.33098520769E+03  0.97190667641E+03  0.10293290292E+04  0.12699999809E+01 0.  1.
</event>
<event>
 5   0  0.1798917E-04  0.2212811E+04  0.7818609E-02  0.8513115E-01
        2   -1    0    0  501    0  0.00000000000E+00  0.00000000000E+00  0.24673772627E+04  0.24673772627E+04  0.25500000920E-02 0.  1.
       -2   -1    0    0    0  501  0.00000000000E+00  0.00000000000E+00 -0.49612738129E+03  0.49612738130E+03  0.25500000920E-02 0. -1.
    10030    2    1    2    0    0  0.00000000000E+00  0.00000000000E+00  0.19712498814E+04  0.29635046440E+04  0.22128112617E+04 0.  0.
        4    1    3    3  502    0 -0.31087620372E+03 -0.10510435197E+04  0.11878262745E+04  0.16162516406E+04  0.12699999809E+01 0. -1.
       -4    1    3    3    0  502  0.31087620372E+03  0.10510435197E+04  0.78342360688E+03  0.13472530034E+04  0.12699999809E+01 0.  1.
</event>
<event>
 5   0  0.8306787E-05  0.2155176E+04  0.7818609E-02  0.8537320E-01
       -1   -1    0    0    0  501  0.00000000000E+00  0.00000000000E+00  0.12318880634E+04  0.12318880635E+04  0.50400001928E-02 0.  1.
        1   -1    0    0  501    0  0.00000000000E+00  0.00000000000E+00 -0.94261479281E+03  0.94261479283E+03  0.50400001928E-02 0. -1.
    10030    2    1    2    0    0  0.00000000000E+00  0.00000000000E+00  0.28927327063E+03  0.21745028563E+04  0.21551760130E+04 0.  0.
        1    1    3    3  502    0  0.42127315050E+03  0.95639544359E+02 -0.85142341539E+03  0.95474594636E+03  0.50400001928E-02 0. -1.
       -1    1    3    3    0  502 -0.42127315050E+03 -0.95639544359E+02  0.11406966860E+04  0.12197569099E+04  0.50400001928E-02 0.  1.
</event>
<event>
 5   0  0.1754356E-04  0.1139123E+04  0.7818609E-02  0.9167877E-01
       -2   -1    0    0    0  501  0.00000000000E+00  0.00000000000E+00  0.41436512194E+03  0.41436512194E+03  0.25500000920E-02 0. -1.
        2   -1    0    0  501    0  0.00000000000E+00  0.00000000000E+00 -0.78288541262E+03  0.78288541263E+03  0.25500000920E-02 0.  1.
    10030    2    1    2    0    0  0.00000000000E+00  0.00000000000E+00 -0.36852029069E+03  0.11972505346E+04  0.11391231882E+04 0.  0.
        1    1    3    3  502    0  0.26021724743E+03 -0.57348201956E+02  0.34481387107E+03  0.43577337899E+03  0.50400001928E-02 0. -1.
       -1    1    3    3    0  502 -0.26021724743E+03  0.57348201956E+02 -0.71333416175E+03  0.76147715559E+03  0.50400001928E-02 0.  1.
</event>
<event>
 5   0  0.8784659E-05  0.2189532E+04  0.7818609E-02  0.8522798E-01
        1   -1    0    0  501    0  0.00000000000E+00  0.00000000000E+00  0.10319781635E+04  0.10319781635E+04  0.50400001928E-02 0.  1.
       -1   -1    0    0    0  501  0.00000000000E+00  0.00000000000E+00 -0.11613739674E+04  0.11613739674E+04  0.50400001928E-02 0. -1.
    10030    2    1    2    0    0  0.00000000000E+00  0.00000000000E+00 -0.12939580391E+03  0.21933521309E+04  0.21895319810E+04 0.  0.
        4    1    3    3  502    0  0.71298488145E+03  0.54784512114E+02 -0.89509666081E+03  0.11456650597E+04  0.12699999809E+01 0. -1.
       -4    1    3    3    0  502 -0.71298488145E+03 -0.54784512114E+02  0.76570085691E+03  0.10476870712E+04  0.12699999809E+01 0.  1.
</event>
<event>
 5   0  0.1733962E-04  0.2109077E+04  0.7818609E-02  0.8557255E-01
        2   -1    0    0  501    0  0.00000000000E+00  0.00000000000E+00  0.10975752563E+04  0.10975752563E+04  0.25500000920E-02 0. -1.
       -2   -1    0    0    0  501  0.00000000000E+00  0.00000000000E+00 -0.10131891042E+04  0.10131891042E+04  0.25500000920E-02 0.  1.
    10030    2    1    2    0    0  0.00000000000E+00  0.00000000000E+00  0.84386152141E+02  0.21107643605E+04  0.21090768509E+04 0.  0.
        3    1    3    3  502    0  0.59817480397E+03  0.49424901267E+03 -0.67249040220E+03  0.10268098821E+04  0.10100000352E+00 0.  1.
       -3    1    3    3    0  502 -0.59817480397E+03 -0.49424901267E+03  0.75687655434E+03  0.10839544784E+04  0.10100000352E+00 0. -1.
</event>
<event>
 5   0  0.8602414E-05  0.1752973E+04  0.7818609E-02  0.8731715E-01
        1   -1    0    0  501    0  0.00000000000E+00  0.00000000000E+00  0.96007047687E+03  0.96007047688E+03  0.50400001928E-02 0. -1.
       -1   -1    0    0    0  501  0.00000000000E+00  0.00000000000E+00 -0.80017981344E+03  0.80017981346E+03  0.50400001928E-02 0.  1.
    10030    2    1    2    0    0  0.00000000000E+00  0.00000000000E+00  0.15989066343E+03  0.17602502903E+04  0.17529734911E+04 0.  0.
        3    1    3    3  502    0  0.51824789186E+03 -0.66960606655E+03  0.30732701701E+03  0.90077914461E+03  0.10100000352E+00 0.  1.
       -3    1    3    3    0  502 -0.51824789186E+03  0.66960606655E+03 -0.14743635358E+03  0.85947114573E+03  0.10100000352E+00 0. -1.
</event>
<event>
 5   0  0.1754356E-04  0.2205858E+04  0.7818609E-02  0.8515994E-01
       -2   -1    0    0    0  501  0.00000000000E+00  0.00000000000E+00  0.13284318422E+04  0.13284318422E+04  0.25500000920E-02 0. -1.
        2   -1    0    0  501    0  0.00000000000E+00  0.00000000000E+00 -0.91570562535E+03  0.91570562536E+03  0.25500000920E-02 0.  1.
    10030    2    1    2    0    0  0.00000000000E+00  0.00000000000E+00  0.41272621681E+03  0.22441374675E+04  0.22058581194E+04 0.  0.
        1    1    3    3  502    0  0.92030866007E+03  0.47045948903E+03 -0.18522198766E+03  0.10500511156E+04  0.50400001928E-02 0.  1.
       -1    1    3    3    0  502 -0.92030866007E+03 -0.47045948903E+03  0.59794820447E+03  0.11940863519E+04  0.50400001928E-02 0. -1.
</event>
<event>
 5   0  0.8784659E-05  0.2027105E+04  0.7818609E-02  0.8594052E-01
       -1   -1    0    0    0  501  0.00000000000E+00  0.00000000000E+00  0.58898088339E+03  0.58898088341E+03  0.50400001928E-02 0. -1.
        1   -1    0    0  501    0  0.00000000000E+00  0.00000000000E+00 -0.17441799092E+04  0.17441799092E+04  0.50400001928E-02 0.  1.
    10030    2    1    2    0    0  0.00000000000E+00  0.00000000000E+00 -0.11551990258E+04  0.23331607926E+04  0.20271049541E+04 0.  0.
        4    1    3    3  502    0  0.21758794660E+03 -0.44899879689E+02  0.56060824535E+03  0.60302879812E+03  0.12699999809E+01 0. -1.
       -4    1    3    3    0  502 -0.21758794660E+03  0.44899879689E+02 -0.17158072711E+04  0.17301319945E+04  0.12699999809E+01 0.  1.
</event>
<event>
 5   0  0.1733962E-04  0.2172865E+04  0.7818609E-02  0.8529808E-01
       -2   -1    0    0    0  501  0.00000000000E+00  0.00000000000E+00  0.14402795964E+04  0.14402795964E+04  0.25500000920E-02 0.  1.
        2   -1    0    0  501    0  0.00000000000E+00  0.00000000000E+00 -0.81951800658E+03  0.81951800658E+03  0.25500000920E-02 0. -1.
    10030    2    1    2    0    0  0.00000000000E+00  0.00000000000E+00  0.62076158980E+03  0.22597976030E+04  0.21728645275E+04 0.  0.
        3    1    3    3  502    0 -0.96780174179E+03 -0.49349288622E+03  0.32352007393E+03  0.11335081335E+04  0.10100000352E+00 0.  1.
       -3    1    3    3    0  502  0.96780174179E+03  0.49349288622E+03  0.29724151587E+03  0.11262894695E+04  0.10100000352E+00 0. -1.
</event>
<event>
 5   0  0.8784659E-05  0.2119543E+04  0.7818609E-02  0.8552683E-01
       -1   -1    0    0    0  501  0.00000000000E+00  0.00000000000E+00  0.91785266750E+03  0.91785266752E+03  0.50400001928E-02 0.  1.
        1   -1    0    0  501    0  0.00000000000E+00  0.00000000000E+00 -0.12236339358E+04  0.12236339358E+04  0.50400001928E-02 0. -1.
    10030    2    1    2    0    0  0.00000000000E+00  0.00000000000E+00 -0.30578126831E+03  0.21414866033E+04  0.21195430376E+04 0.  0.
        4    1    3    3  502    0  0.14971476859E+03  0.99543274332E+03 -0.48770215806E+03  0.11185507884E+04  0.12699999809E+01 0. -1.
       -4    1    3    3    0  502 -0.14971476859E+03 -0.99543274332E+03  0.18192088975E+03  0.10229358149E+04  0.12699999809E+01 0.  1.
</event>
<event>
 5   0  0.6250625E-05  0.2168469E+04  0.7818609E-02  0.8531668E-01
        3   -1    0    0  501    0  0.00000000000E+00  0.00000000000E+00  0.69332644199E+03  0.69332644935E+03  0.10100000352E+00 0.  1.
       -3   -1    0    0    0  501  0.00000000000E+00  0.00000000000E+00 -0.16955427457E+04  0.16955427488E+04  0.10100000352E+00 0. -1.
    10030    2    1    2    0    0  0.00000000000E+00  0.00000000000E+00 -0.10022163038E+04  0.23888691981E+04  0.21684691665E+04 0.  0.
        3    1    3    3  502    0  0.77870847863E+03  0.12848147128E+03  0.31786970268E+03  0.85084401698E+03  0.10100000352E+00 0.  1.
       -3    1    3    3    0  502 -0.77870847863E+03 -0.12848147128E+03 -0.13200860064E+04  0.15380251811E+04  0.10100000352E+00 0. -1.
</event>
<event>
 5   0  0.8784659E-05  0.2155623E+04  0.7818609E-02  0.8537129E-01
        1   -1    0    0  501    0  0.00000000000E+00  0.00000000000E+00  0.15043814098E+04  0.15043814098E+04  0.50400001928E-02 0.  1.
       -1   -1    0    0    0  501  0.00000000000E+00  0.00000000000E+00 -0.77219606436E+03  0.77219606438E+03  0.50400001928E-02 0. -1.
    10030    2    1    2    0    0  0.00000000000E+00  0.00000000000E+00  0.73218534544E+03  0.22765774742E+04  0.21556227907E+04 0.  0.
        4    1    3    3  502    0 -0.46464232750E+03 -0.22433709303E+03 -0.63329004219E+03  0.81687056150E+03  0.12699999809E+01 0. -1.
       -4    1    3    3    0  502  0.46464232750E+03  0.22433709303E+03  0.13654753876E+04  0.14597069127E+04  0.12699999809E+01 0.  1.
</event>
<event>
 5   0  0.7954459E-05  0.2062167E+04  0.7818609E-02  0.8578095E-01
        1   -1    0    0  501    0  0.00000000000E+00  0.00000000000E+00  0.80614861127E+03  0.80614861129E+03  0.50400001928E-02 0. -1.
       -1   -1    0    0    0  501  0.00000000000E+00  0.00000000000E+00 -0.13187804463E+04  0.13187804463E+04  0.50400001928E-02 0.  1.
    10030    2    1    2    0    0  0.00000000000E+00  0.00000000000E+00 -0.51263183504E+03  0.21249290576E+04  0.20621668462E+04 0.  0.
        5    1    3    3  502    0  0.47318523805E+03 -0.87050824942E+03 -0.55034592899E+03  0.11333982589E+04  0.46999998093E+01 0.  1.
       -5    1    3    3    0  502 -0.47318523805E+03  0.87050824942E+03  0.37714093948E+02  0.99153079866E+03  0.46999998093E+01 0. -1.
</event>
<event>
 5   0  0.1805501E-04  0.2077536E+04  0.7818609E-02  0.8571204E-01
       -2   -1    0    0    0  501  0.00000000000E+00  0.00000000000E+00  0.89506689295E+03  0.89506689295E+03  0.25500000920E-02 0. -1.
        2   -1    0    0  501    0  0.00000000000E+00  0.00000000000E+00 -0.12055397342E+04  0.12055397342E+04  0.25500000920E-02 0.  1.
    10030    2    1    2    0    0  0.00000000000E+00  0.00000000000E+00 -0.31047284121E+03  0.21006066271E+04  0.20775357558E+04 0.  0.
        2    1    3    3  502    0 -0.62914845943E+02  0.86716697548E+03  0.41949634274E+03  0.96535694061E+03  0.25500000920E-02 0.  1.
       -2    1    3    3    0  502  0.62914845943E+02 -0.86716697548E+03 -0.72996918395E+03  0.11352496865E+04  0.25500000920E-02 0. -1.
</event>
<event>
 5   0  0.1798917E-04  0.2117506E+04  0.7818609E-02  0.8553571E-01
       -2   -1    0    0    0  501  0.00000000000E+00  0.00000000000E+00  0.12004492858E+04  0.12004492858E+04  0.25500000920E-02 0.  1.
        2   -1    0    0  501    0  0.00000000000E+00  0.00000000000E+00 -0.93378218749E+03  0.93378218749E+03  0.25500000920E-02 0. -1.
    10030    2    1    2    0    0  0.00000000000E+00  0.00000000000E+00  0.26666709831E+03  0.21342314733E+04  0.21175062315E+04 0.  0.
        4    1    3    3  502    0 -0.57700625872E+03  0.31719435517E+03 -0.70231590693E+03  0.96270334350E+03  0.12699999809E+01 0. -1.
       -4    1    3    3    0  502  0.57700625872E+03 -0.31719435517E+03  0.96898300524E+03  0.11715281298E+04  0.12699999809E+01 0.  1.
</event>
<event>
 5   0  0.1680258E-04  0.2199079E+04  0.7818609E-02  0.8518812E-01
        2   -1    0    0  501    0  0.00000000000E+00  0.00000000000E+00  0.17319844785E+04  0.17319844785E+04  0.25500000920E-02 0. -1.
       -2   -1    0    0    0  501  0.00000000000E+00  0.00000000000E+00 -0.69803571960E+03  0.69803571960E+03  0.25500000920E-02 0.  1.
    10030    2    1    2    0    0  0.00000000000E+00  0.00000000000E+00  0.10339487589E+04  0.24300201981E+04  0.21990789270E+04 0.  0.
        5    1    3    3  502    0 -0.62913739118E+03  0.48683952735E+03  0.13557242427E+04  0.15718895937E+04  0.46999998093E+01 0. -1.
       -5    1    3    3    0  502  0.62913739118E+03 -0.48683952735E+03 -0.32177548379E+03  0.85813060447E+03  0.46999998093E+01 0.  1.
</event>
<event>
 5   0  0.1680258E-04  0.2191644E+04  0.7818609E-02  0.8521914E-01
       -2   -1    0    0    0  501  0.00000000000E+00  0.00000000000E+00  0.11309529762E+04  0.11309529762E+04  0.25500000920E-02 0. -1.
        2   -1    0    0  501    0  0.00000000000E+00  0.00000000000E+00 -0.10617818344E+04  0.10617818344E+04  0.25500000920E-02 0.  1.
    10030    2    1    2    0    0  0.00000000000E+00  0.00000000000E+00  0.69171141813E+02  0.21927348106E+04  0.21916435164E+04 0.  0.
        5    1    3    3  502    0 -0.95299086903E+03 -0.52406226525E+03  0.16870597191E+03  0.11005983142E+04  0.46999998093E+01 0. -1.
       -5    1    3    3    0  502  0.95299086903E+03  0.52406226525E+03 -0.99534830097E+02  0.10921364964E+04  0.46999998093E+01 0.  1.
</event>
<event>
 5   0  0.8784659E-05  0.2217781E+04  0.7818609E-02  0.8511063E-01
        1   -1    0    0  501    0  0.00000000000E+00  0.00000000000E+00  0.15893737778E+04  0.15893737778E+04  0.50400001928E-02 0. -1.
       -1   -1    0    0    0  501  0.00000000000E+00  0.00000000000E+00 -0.77366234507E+03  0.77366234509E+03  0.50400001928E-02 0.  1.
    10030    2    1    2    0    0  0.00000000000E+00  0.00000000000E+00  0.81571143274E+03  0.23630361229E+04  0.22177814538E+04 0.  0.
        4    1    3    3  502    0 -0.87709579993E+03  0.57418226253E+03  0.79299175789E+03  0.13144656153E+04  0.12699999809E+01 0. -1.
       -4    1    3    3    0  502  0.87709579993E+03 -0.57418226253E+03  0.22719674850E+02  0.10485705076E+04  0.12699999809E+01 0.  1.
</event>
<event>
 5   0  0.8306787E-05  0.1503882E+04  0.7818609E-02  0.8881876E-01
        1   -1    0    0  501    0  0.00000000000E+00  0.00000000000E+00  0.78640576953E+03  0.78640576954E+03  0.50400001928E-02 0.  1.
       -1   -1    0    0    0  501  0.00000000000E+00  0.00000000000E+00 -0.71898665454E+03  0.71898665456E+03  0.50400001928E-02 0. -1.
    10030    2    1    2    0    0  0.00000000000E+00  0.00000000000E+00  0.67419114984E+02  0.15053924241E+04  0.15038819812E+04 0.  0.
        1    1    3    3  502    0 -0.53893614690E+03  0.41228556205E+03 -0.29062774772E+03  0.73817074100E+03  0.50400001928E-02 0. -1.
       -1    1    3    3    0  502  0.53893614690E+03 -0.41228556205E+03  0.35804686270E+03  0.76722168310E+03  0.50400001928E-02 0.  1.
</event>
<event>
 5   0  0.1733962E-04  0.2190049E+04  0.7818609E-02  0.8522581E-01
       -2   -1    0    0    0  501  0.00000000000E+00  0.00000000000E+00  0.12609654625E+04  0.12609654625E+04  0.25500000920E-02 0. -1.
        2   -1    0    0  501    0  0.00000000000E+00  0.00000000000E+00 -0.95092137939E+03  0.95092137939E+03  0.25500000920E-02 0.  1.
    10030    2    1    2    0    0  0.00000000000E+00  0.00000000000E+00  0.31004408307E+03  0.22118868419E+04  0.21900493300E+04 0.  0.
        3    1    3    3  502    0  0.29804462344E+03 -0.57576181372E+03  0.10462876108E+04  0.12308736890E+04  0.10100000352E+00 0. -1.
       -3    1    3    3    0  502 -0.29804462344E+03  0.57576181372E+03 -0.73624352771E+03  0.98101315282E+03  0.10100000352E+00 0.  1.
</event>
<event>
 5   0  0.1754356E-04  0.2202730E+04  0.7818609E-02  0.8517293E-01
       -2   -1    0    0    0  501  0.00000000000E+00  0.00000000000E+00  0.66424268966E+03  0.66424268967E+03  0.25500000920E-02 0. -1.
        2   -1    0    0  501    0  0.00000000000E+00  0.00000000000E+00 -0.18261473877E+04  0.18261473877E+04  0.25500000920E-02 0.  1.
    10030    2    1    2    0    0  0.00000000000E+00  0.00000000000E+00 -0.11619046980E+04  0.24903900774E+04  0.22027301719E+04 0.  0.
        1    1    3    3  502    0 -0.18858441195E+02  0.61942715029E+03 -0.16103252039E+04  0.17254544033E+04  0.50400001928E-02 0.  1.
       -1    1    3    3    0  502  0.18858441195E+02 -0.61942715029E+03  0.44842050591E+03  0.76493567407E+03  0.50400001928E-02 0. -1.
</event>
<event>
 5   0  0.1680258E-04  0.1635679E+04  0.7818609E-02  0.8798924E-01
        2   -1    0    0  501    0  0.00000000000E+00  0.00000000000E+00  0.15482365915E+04  0.15482365915E+04  0.25500000920E-02 0. -1.
       -2   -1    0    0    0  501  0.00000000000E+00  0.00000000000E+00 -0.43201498472E+03  0.43201498472E+03  0.25500000920E-02 0.  1.
    10030    2    1    2    0    0  0.00000000000E+00  0.00000000000E+00  0.11162216067E+04  0.19802515762E+04  0.16356789507E+04 0.  0.
        5    1    3    3  502    0 -0.77686310972E+03 -0.86681052856E+02  0.26702460544E+03  0.82604729046E+03  0.46999998093E+01 0.  1.
       -5    1    3    3    0  502  0.77686310972E+03  0.86681052856E+02  0.84919700130E+03  0.11542042857E+04  0.46999998093E+01 0. -1.
</event>
<event>
 5   0  0.8602414E-05  0.2229837E+04  0.7818609E-02  0.8506111E-01
        1   -1    0    0  501    0  0.00000000000E+00  0.00000000000E+00  0.74174415942E+03  0.74174415944E+03  0.50400001928E-02 0.  1.
       -1   -1    0    0    0  501  0.00000000000E+00  0.00000000000E+00 -0.16758384327E+04  0.16758384327E+04  0.50400001928E-02 0. -1.
    10030    2    1    2    0    0  0.00000000000E+00  0.00000000000E+00 -0.93409427325E+03  0.24175825921E+04  0.22298370968E+04 0.  0.
        3    1    3    3  502    0 -0.15999800020E+03  0.22661939697E+03  0.70372878226E+03  0.75643236336E+03  0.10100000352E+00 0.  1.
       -3    1    3    3    0  502  0.15999800020E+03 -0.22661939697E+03 -0.16378230555E+04  0.16611502288E+04  0.10100000352E+00 0. -1.
</event>
<event>
 5   0  0.1805501E-04  0.2195682E+04  0.7818609E-02  0.8520227E-01
       -2   -1    0    0    0  501  0.00000000000E+00  0.00000000000E+00  0.67938647571E+03  0.67938647571E+03  0.25500000920E-02 0. -1.
        2   -1    0    0  501    0  0.00000000000E+00  0.00000000000E+00 -0.17740349040E+04  0.17740349040E+04  0.25500000920E-02 0.  1.
    10030    2    1    2    0    0  0.00000000000E+00  0.00000000000E+00 -0.10946484282E+04  0.24534213797E+04  0.21956824189E+04 0.  0.
        2    1    3    3  502    0  0.10167233726E+04  0.41195279749E+03 -0.49960526033E+03  0.12054198190E+04  0.25500000920E-02 0. -1.
       -2    1    3    3    0  502 -0.10167233726E+04 -0.41195279749E+03 -0.59504316792E+03  0.12480015607E+04  0.25500000920E-02 0.  1.
</event>
<event>
 5   0  0.8306787E-05  0.2201292E+04  0.7818609E-02  0.8517890E-01
       -1   -1    0    0    0  501  0.00000000000E+00  0.00000000000E+00  0.84777224941E+03  0.84777224943E+03  0.50400001928E-02 0.  1.
        1   -1    0    0  501    0  0.00000000000E+00  0.00000000000E+00 -0.14289473104E+04  0.14289473104E+04  0.50400001928E-02 0. -1.
    10030    2    1    2    0    0  0.00000000000E+00  0.00000000000E+00 -0.58117506099E+03  0.22767195598E+04  0.22012922347E+04 0.  0.
        1    1    3    3  502    0  0.37746127919E+03 -0.84857480015E+03  0.32029956720E+03  0.98241947330E+03  0.50400001928E-02 0.  1.
       -1    1    3    3    0  502 -0.37746127919E+03  0.84857480015E+03 -0.90147462819E+03  0.12943000865E+04  0.50400001928E-02 0. -1.
</event>
<event>
 5   0  0.1733962E-04  0.2320738E+04  0.7818609E-02  0.8469789E-01
        2   -1    0    0  501    0  0.00000000000E+00  0.00000000000E+00  0.18290643312E+04  0.18290643312E+04  0.25500000920E-02 0.  1.
       -2   -1    0    0    0  501  0.00000000000E+00  0.00000000000E+00 -0.73614453517E+03  0.73614453517E+03  0.25500000920E-02 0. -1.
    10030    2    1    2    0    0  0.00000000000E+00  0.00000000000E+00  0.10929197960E+04  0.25652088664E+04  0.23207375654E+04 0.  0.
        3    1    3    3  502    0 -0.84488867541E+03 -0.68464788076E+03  0.99392020852E+03  0.14732470891E+04  0.10100000352E+00 0.  1.
       -3    1    3    3    0  502  0.84488867541E+03  0.68464788076E+03  0.98999587509E+02  0.10919617773E+04  0.10100000352E+00 0. -1.
</event>
<event>
 5   0  0.1805501E-04  0.2195158E+04  0.7818609E-02  0.8520446E-01
        2   -1    0    0  501    0  0.00000000000E+00  0.00000000000E+00  0.15054807986E+04  0.15054807986E+04  0.25500000920E-02 0.  1.
       -2   -1    0    0    0  501  0.00000000000E+00  0.00000000000E+00 -0.80019576968E+03  0.80019576969E+03  0.25500000920E-02 0. -1.
    10030    2    1    2    0    0  0.00000000000E+00  0.00000000000E+00  0.70528502892E+03  0.23056765683E+04  0.21951577314E+04 0.  0.
        2    1    3    3  502    0 -0.31966499427E+03  0.10214453139E+04  0.60808010045E+03  0.12309742672E+04  0.25500000920E-02 0. -1.
       -2    1    3    3    0  502  0.31966499427E+03 -0.10214453139E+04  0.97204928465E+02  0.10747023011E+04  0.25500000920E-02 0.  1.
</event>
<event>
 5   0  0.8306787E-05  0.2071490E+04  0.7818609E-02  0.8573907E-01
       -1   -1    0    0    0  501  0.00000000000E+00  0.00000000000E+00  0.61417919419E+03  0.61417919421E+03  0.50400001928E-02 0. -1.
        1   -1    0    0  501    0  0.00000000000E+00  0.00000000000E+00 -0.17466681400E+04  0.17466681400E+04  0.50400001928E-02 0.  1.
    10030    2    1    2    0    0  0.00000000000E+00  0.00000000000E+00 -0.11324889458E+04  0.23608473342E+04  0.20714895421E+04 0.  0.
        1    1    3    3  502    0  0.49139599448E+03 -0.63882410661E+03  0.17516560528E+03  0.82477224243E+03  0.50400001928E-02 0. -1.
       -1    1    3    3    0  502 -0.49139599448E+03  0.63882410661E+03 -0.13076545511E+04  0.15360750918E+04  0.50400001928E-02 0.  1.
</event>
<event>
 5   0  0.1680258E-04  0.2203837E+04  0.7818609E-02  0.8516833E-01
        2   -1    0    0  501    0  0.00000000000E+00  0.00000000000E+00  0.99794667914E+03  0.99794667914E+03  0.25500000920E-02 0.  1.
       -2   -1    0    0    0  501  0.00000000000E+00  0.00000000000E+00 -0.12167227696E+04  0.12167227696E+04  0.25500000920E-02 0. -1.
    10030    2    1    2    0    0  0.00000000000E+00  0.00000000000E+00 -0.21877609045E+03  0.22146694487E+04  0.22038370605E+04 0.  0.
        5    1    3    3  502    0  0.10687667740E+04 -0.23605413362E+03  0.18589345262E+02  0.10946924796E+04  0.46999998093E+01 0. -1.
       -5    1    3    3    0  502 -0.10687667740E+04  0.23605413362E+03 -0.23736543571E+03  0.11199769691E+04  0.46999998093E+01 0.  1.
</event>
<event>
 5   0  0.1805501E-04  0.2178595E+04  0.7818609E-02  0.8527391E-01
        2   -1    0    0  501    0  0.00000000000E+00  0.00000000000E+00  0.82018068899E+03  0.82018068899E+03  0.25500000920E-02 0. -1.
       -2   -1    0    0    0  501  0.00000000000E+00  0.00000000000E+00 -0.14467164038E+04  0.14467164038E+04  0.25500000920E-02 0.  1.
    10030    2    1    2    0    0  0.00000000000E+00  0.00000000000E+00 -0.62653571484E+03  0.22668970928E+04  0.21785948287E+04 0.  0.
        2    1    3    3  502    0  0.10673577148E+03 -0.94212788615E+03 -0.87126010664E+03  0.12876690771E+04  0.25500000920E-02 0.  1.
       -2    1    3    3    0  502 -0.10673577148E+03  0.94212788615E+03  0.24472439179E+03  0.97922801569E+03  0.25500000920E-02 0. -1.
</event>
<event>
 5   0  0.1680258E-04  0.2150245E+04  0.7818609E-02  0.8539427E-01
        2   -1    0    0  501    0  0.00000000000E+00  0.00000000000E+00  0.16293960590E+04  0.16293960590E+04  0.25500000920E-02 0.  1.
       -2   -1    0    0    0  501  0.00000000000E+00  0.00000000000E+00 -0.70939707655E+03  0.70939707656E+03  0.25500000920E-02 0. -1.
    10030    2    1    2    0    0  0.00000000000E+00  0.00000000000E+00  0.91999898249E+03  0.23387931356E+04  0.21502453821E+04 0.  0.
        5    1    3    3  502    0  0.84076517409E+03 -0.65183996741E+03  0.29119666076E+03  0.11029954698E+04  0.46999998093E+01 0.  1.
       -5    1    3    3    0  502 -0.84076517409E+03  0.65183996741E+03  0.62880232174E+03  0.12357976658E+04  0.46999998093E+01 0. -1.
</event>
<event>
 5   0  0.8306787E-05  0.2154883E+04  0.7818609E-02  0.8537445E-01
       -1   -1    0    0    0  501  0.00000000000E+00  0.00000000000E+00  0.15322663463E+04  0.15322663463E+04  0.50400001928E-02 0. -1.
        1   -1    0    0  501    0  0.00000000000E+00  0.00000000000E+00 -0.75762316433E+03  0.75762316434E+03  0.50400001928E-02 0.  1.
    10030    2    1    2    0    0  0.00000000000E+00  0.00000000000E+00  0.77464318192E+03  0.22898895106E+04  0.21548832710E+04 0.  0.
        1    1    3    3  502    0  0.22283597978E+03 -0.89036495058E+03  0.98701372854E+03  0.13478136813E+04  0.50400001928E-02 0. -1.
       -1    1    3    3    0  502 -0.22283597978E+03  0.89036495058E+03 -0.21237054661E+03  0.94207582932E+03  0.50400001928E-02 0.  1.
</event>
<event>
 5   0  0.1798917E-04  0.2088756E+04  0.7818609E-02  0.8566213E-01
        2   -1    0    0  501    0  0.00000000000E+00  0.00000000000E+00  0.13569233339E+04  0.13569233339E+04  0.25500000920E-02 0.  1.
       -2   -1    0    0    0  501  0.00000000000E+00  0.00000000000E+00 -0.80382226467E+03  0.80382226467E+03  0.25500000920E-02 0. -1.
    10030    2    1    2    0    0  0.00000000000E+00  0.00000000000E+00  0.55310106925E+03  0.21607455986E+04  0.20887557897E+04 0.  0.
        4    1    3    3  502    0  0.12031715365E+03 -0.24765011169E+03  0.13187028232E+04  0.13471397641E+04  0.12699999809E+01 0.  1.
       -4    1    3    3    0  502 -0.12031715365E+03  0.24765011169E+03 -0.76560175396E+03  0.81360583445E+03  0.12699999809E+01 0. -1.
</event>
<event>
 5   0  0.1733962E-04  0.2244338E+04  0.7818609E-02  0.8500197E-01
       -2   -1    0    0    0  501  0.00000000000E+00  0.00000000000E+00  0.78044405583E+03  0.78044405584E+03  0.25500000920E-02 0.  1.
        2   -1    0    0  501    0  0.00000000000E+00  0.00000000000E+00 -0.16135219893E+04  0.16135219893E+04  0.25500000920E-02 0. -1.
    10030    2    1    2    0    0  0.00000000000E+00  0.00000000000E+00 -0.83307793344E+03  0.23939660451E+04  0.22443383395E+04 0.  0.
        3    1    3    3  502    0  0.38556858354E+03  0.67553067932E+03 -0.12793276608E+04  0.14972254691E+04  0.10100000352E+00 0. -1.
       -3    1    3    3    0  502 -0.38556858354E+03 -0.67553067932E+03  0.44624972738E+03  0.89674057603E+03  0.10100000352E+00 0.  1.
</event>
<event>
 5   0  0.1680258E-04  0.2193614E+04  0.7818609E-02  0.8521091E-01
        2   -1    0    0  501    0  0.00000000000E+00  0.00000000000E+00  0.13595554616E+04  0.13595554616E+04  0.25500000920E-02 0. -1.
       -2   -1    0    0    0  501  0.00000000000E+00  0.00000000000E+00 -0.88483741887E+03  0.88483741888E+03  0.25500000920E-02 0.  1.
    10030    2    1    2    0    0  0.00000000000E+00  0.00000000000E+00  0.47471804272E+03  0.22443928805E+04  0.21936139546E+04 0.  0.
        5    1    3    3  502    0 -0.59821663561E+03 -0.66126777240E+03  0.89075391389E+03  0.12603978876E+04  0.46999998093E+01 0. -1.
       -5    1    3    3    0  502  0.59821663561E+03  0.66126777240E+03 -0.41603587117E+03  0.98399499289E+03  0.46999998093E+01 0.  1.
</event>
<event>
 5   0  0.1733962E-04  0.2172182E+04  0.7818609E-02  0.8530097E-01
        2   -1    0    0  501    0  0.00000000000E+00  0.00000000000E+00  0.16092107739E+04  0.16092107739E+04  0.25500000920E-02 0. -1.
       -2   -1    0    0    0  501  0.00000000000E+00  0.00000000000E+00 -0.73302616427E+03  0.73302616427E+03  0.25500000920E-02 0.  1.
    10030    2    1    2    0    0  0.00000000000E+00  0.00000000000E+00  0.87618460959E+03  0.23422369381E+04  0.21721819455E+04 0.  0.
        3    1    3    3  502    0  0.61884026187E+03 -0.84078787767E+03  0.76104992157E+03  0.12919305393E+04  0.10100000352E+00 0. -1.
       -3    1    3    3    0  502 -0.61884026187E+03  0.84078787767E+03  0.11513468802E+03  0.10503063989E+04  0.10100000352E+00 0.  1.
</event>
<event>
 5   0  0.8602414E-05  0.2342430E+04  0.7818609E-02  0.8461377E-01
        1   -1    0    0  501    0  0.00000000000E+00  0.00000000000E+00  0.16965337242E+04  0.16965337242E+04  0.50400001928E-02 0. -1.
       -1   -1    0    0    0  501  0.00000000000E+00  0.00000000000E+00 -0.80855722657E+03  0.80855722659E+03  0.50400001928E-02 0.  1.
    10030    2    1    2    0    0  0.00000000000E+00  0.00000000000E+00  0.88797649764E+03  0.25050909508E+04  0.23424300227E+04 0.  0.
        3    1    3    3  502    0  0.11468309762E+04 -0.72716553052E+02  0.20191721901E+03  0.11667388562E+04  0.10100000352E+00 0.  1.
       -3    1    3    3    0  502 -0.11468309762E+04  0.72716553052E+02  0.68605927863E+03  0.13383520946E+04  0.10100000352E+00 0. -1.
</event>
<event>
 5   0  0.8602414E-05  0.2208049E+04  0.7818609E-02  0.8515086E-01
        1   -1    0    0  501    0  0.00000000000E+00  0.00000000000E+00  0.11610891665E+04  0.11610891665E+04  0.50400001928E-02 0.  1.
       -1   -1    0    0    0  501  0.00000000000E+00  0.00000000000E+00 -0.10497641911E+04  0.10497641911E+04  0.50400001928E-02 0. -1.
    10030    2    1    2    0    0  0.00000000000E+00  0.00000000000E+00  0.11132497542E+03  0.22108533576E+04  0.22080487582E+04 0.  0.
        3    1    3    3  502    0  0.82942435687E+03  0.72851496033E+03  0.69500616476E+02  0.11061234818E+04  0.10100000352E+00 0.  1.
       -3    1    3    3    0  502 -0.82942435687E+03 -0.72851496033E+03  0.41824358943E+02  0.11047298758E+04  0.10100000352E+00 0. -1.
</event>
<event>
 5   0  0.1798917E-04  0.2225799E+04  0.7818609E-02  0.8507766E-01
        2   -1    0    0  501    0  0.00000000000E+00  0.00000000000E+00  0.14956774675E+04  0.14956774675E+04  0.25500000920E-02 0.  1.
       -2   -1    0    0    0  501  0.00000000000E+00  0.00000000000E+00 -0.82808341041E+03  0.82808341041E+03  0.25500000920E-02 0. -1.
    10030    2    1    2    0    0  0.00000000000E+00  0.00000000000E+00  0.66759405710E+03  0.23237608779E+04  0.22257993604E+04 0.  0.
        4    1    3    3  502    0 -0.56711475400E+03 -0.36273999284E+03  0.12589969008E+04  0.14276814266E+04  0.12699999809E+01 0.  1.
       -4    1    3    3    0  502  0.56711475400E+03  0.36273999284E+03 -0.59140284374E+03  0.89607945133E+03  0.12699999809E+01 0. -1.
</event>
<event>
 5   0  0.7954459E-05  0.2137154E+04  0.7818609E-02  0.8545051E-01
       -1   -1    0    0    0  501  0.00000000000E+00  0.00000000000E+00  0.75663753578E+03  0.75663753579E+03  0.50400001928E-02 0.  1.
        1   -1    0    0  501    0  0.00000000000E+00  0.00000000000E+00 -0.15091205416E+04  0.15091205416E+04  0.50400001928E-02 0. -1.
    10030    2    1    2    0    0  0.00000000000E+00  0.00000000000E+00 -0.75248300579E+03  0.22657580774E+04  0.21371544144E+04 0.  0.
        5    1    3    3  502    0  0.97846041673E+03 -0.92652209864E+02 -0.82084052388E+03  0.12805352298E+04  0.46999998093E+01 0. -1.
       -5    1    3    3    0  502 -0.97846041673E+03  0.92652209864E+02  0.68357518095E+02  0.98522284757E+03  0.46999998093E+01 0.  1.
</event>
<event>
 5   0  0.7954459E-05  0.1443298E+04  0.7818609E-02  0.8923060E-01
        1   -1    0    0  501    0  0.00000000000E+00  0.00000000000E+00  0.44740452123E+03  0.44740452126E+03  0.50400001928E-02 0.  1.
       -1   -1    0    0    0  501  0.00000000000E+00  0.00000000000E+00 -0.11639957557E+04  0.11639957557E+04  0.50400001928E-02 0. -1.
    10030    2    1    2    0    0  0.00000000000E+00  0.00000000000E+00 -0.71659123449E+03  0.16114002770E+04  0.14432975630E+04 0.  0.
        5    1    3    3  502    0 -0.72253803403E+02  0.47535791098E+03 -0.95908697588E+03  0.10728726266E+04  0.46999998093E+01 0. -1.
       -5    1    3    3    0  502  0.72253803403E+02 -0.47535791098E+03  0.24249574139E+03  0.53852765038E+03  0.46999998093E+01 0.  1.
</event>
<event>
 5   0  0.6250625E-05  0.2095771E+04  0.7818609E-02  0.8563109E-01
        3   -1    0    0  501    0  0.00000000000E+00  0.00000000000E+00  0.13336091152E+04  0.13336091190E+04  0.10100000352E+00 0.  1.
       -3   -1    0    0    0  501  0.00000000000E+00  0.00000000000E+00 -0.82337758868E+03  0.82337759487E+03  0.10100000352E+00 0. -1.
    10030    2    1    2    0    0  0.00000000000E+00  0.00000000000E+00  0.51023152649E+03  0.21569867139E+04  0.20957708542E+04 0.  0.
        5    1    3    3  502    0  0.41799588878E+03  0.48280768771E+03  0.11101761739E+04  0.12807564380E+04  0.46999998093E+01 0.  1.
       -5    1    3    3    0  502 -0.41799588878E+03 -0.48280768771E+03 -0.59994464744E+03  0.87623027586E+03  0.46999998093E+01 0. -1.
</event>
<event>
 5   0  0.8602414E-05  0.2268728E+04  0.7818609E-02  0.8490354E-01
       -1   -1    0    0    0  501  0.00000000000E+00  0.00000000000E+00  0.89763213103E+03  0.89763213105E+03  0.50400001928E-02 0. -1.
        1   -1    0    0  501    0  0.00000000000E+00  0.00000000000E+00 -0.14335288560E+04  0.14335288560E+04  0.50400001928E-02 0.  1.
    10030    2    1    2    0    0  0.00000000000E+00  0.00000000000E+00 -0.53589672498E+03  0.23311609871E+04  0.22687278920E+04 0.  0.
        3    1    3    3  502    0  0.79251301695E+03  0.42498091569E+03  0.44252428332E+03  0.10022541655E+04  0.10100000352E+00 0. -1.
       -3    1    3    3    0  502 -0.79251301695E+03 -0.42498091569E+03 -0.97842100829E+03  0.13289068216E+04  0.10100000352E+00 0.  1.
</event>
<event>
 5   0  0.1754356E-04  0.2230723E+04  0.7818609E-02  0.8505748E-01
        2   -1    0    0  501    0  0.00000000000E+00  0.00000000000E+00  0.18931998389E+04  0.18931998389E+04  0.25500000920E-02 0.  1.
       -2   -1    0    0    0  501  0.00000000000E+00  0.00000000000E+00 -0.65710509039E+03  0.65710509039E+03  0.25500000920E-02 0. -1.
    10030    2    1    2    0    0  0.00000000000E+00  0.00000000000E+00  0.12360947485E+04  0.25503049293E+04  0.22307229781E+04 0.  0.
        1    1    3    3  502    0 -0.47489354521E+03 -0.63755206630E+03  0.15124529637E+04  0.17086575093E+04  0.50400001928E-02 0.  1.
       -1    1    3    3    0  502  0.47489354521E+03  0.63755206630E+03 -0.27635821518E+03  0.84164742004E+03  0.50400001928E-02 0. -1.
</event>
<event>
 5   0  0.8470971E-05  0.2214620E+04  0.7818609E-02  0.8512368E-01
        1   -1    0    0  501    0  0.00000000000E+00  0.00000000000E+00  0.17151379129E+04  0.17151379130E+04  0.50400001928E-02 0. -1.
       -1   -1    0    0    0  501  0.00000000000E+00  0.00000000000E+00 -0.71489017744E+03  0.71489017746E+03  0.50400001928E-02 0.  1.
    10030    2    1    2    0    0  0.00000000000E+00  0.00000000000E+00  0.10002477355E+04  0.24300280904E+04  0.22146198292E+04 0.  0.
        2    1    3    3  502    0 -0.33642749907E+02  0.68652315465E+03 -0.45247114822E+03  0.82290705214E+03  0.25500000920E-02 0.  1.
       -2    1    3    3    0  502  0.33642749907E+02 -0.68652315465E+03  0.14527188837E+04  0.16071210383E+04  0.25500000920E-02 0. -1.
</event>
<event>
 5   0  0.8602414E-05  0.2214495E+04  0.7818609E-02  0.8512419E-01
        1   -1    0    0  501    0  0.00000000000E+00  0.00000000000E+00  0.82421019209E+03  0.82421019211E+03  0.50400001928E-02 0. -1.
       -1   -1    0    0    0  501  0.00000000000E+00  0.00000000000E+00 -0.14874808360E+04  0.14874808360E+04  0.50400001928E-02 0.  1.
    10030    2    1    2    0    0  0.00000000000E+00  0.00000000000E+00 -0.66327064392E+03  0.23116910281E+04  0.22144948549E+04 0.  0.
        3    1    3    3  502    0  0.21190530111E+03  0.10867443660E+04 -0.32231707400E+03  0.11531719213E+04  0.10100000352E+00 0. -1.
       -3    1    3    3    0  502 -0.21190530111E+03 -0.10867443660E+04 -0.34095356991E+03  0.11585191068E+04  0.10100000352E+00 0.  1.
</event>
<event>
 5   0  0.8470971E-05  0.2184309E+04  0.7818609E-02  0.8524988E-01
        1   -1    0    0  501    0  0.00000000000E+00  0.00000000000E+00  0.46690663537E+03  0.46690663539E+03  0.50400001928E-02 0.  1.
       -1   -1    0    0    0  501  0.00000000000E+00  0.00000000000E+00 -0.25546882766E+04  0.25546882766E+04  0.50400001928E-02 0. -1.
    10030    2    1    2    0    0  0.00000000000E+00  0.00000000000E+00 -0.20877816412E+04  0.30215949120E+04  0.21843085017E+04 0.  0.
        2    1    3    3  502    0 -0.25786066268E+03 -0.10159516838E+04 -0.14683487455E+04  0.18040781534E+04  0.25500000920E-02 0. -1.
       -2    1    3    3    0  502  0.25786066268E+03  0.10159516838E+04 -0.61943289576E+03  0.12175167586E+04  0.25500000920E-02 0.  1.
</event>
<event>
 5   0  0.8602414E-05  0.2161285E+04  0.7818609E-02  0.8534717E-01
       -1   -1    0    0    0  501  0.00000000000E+00  0.00000000000E+00  0.63403202628E+03  0.63403202630E+03  0.50400001928E-02 0.  1.
        1   -1    0    0  501    0  0.00000000000E+00  0.00000000000E+00 -0.18418437934E+04  0.18418437934E+04  0.50400001928E-02 0. -1.
    10030    2    1    2    0    0  0.00000000000E+00  0.00000000000E+00 -0.12078117671E+04  0.24758758197E+04  0.21612847591E+04 0.  0.
        3    1    3    3  502    0  0.20617730329E+03 -0.48419919277E+03 -0.16851264185E+04  0.17653920231E+04  0.10100000352E+00 0. -1.
       -3    1    3    3    0  502 -0.20617730329E+03  0.48419919277E+03  0.47731465136E+03  0.71048379663E+03  0.10100000352E+00 0.  1.
</event>
<event>
 5   0  0.1680258E-04  0.2197581E+04  0.7818609E-02  0.8519436E-01
        2   -1    0    0  501    0  0.00000000000E+00  0.00000000000E+00  0.94528393947E+03  0.94528393947E+03  0.25500000920E-02 0. -1.
       -2   -1    0    0    0  501  0.00000000000E+00  0.00000000000E+00 -0.12772249220E+04  0.12772249220E+04  0.25500000920E-02 0.  1.
    10030    2    1    2    0    0  0.00000000000E+00  0.00000000000E+00 -0.33194098248E+03  0.22225088614E+04  0.21975806750E+04 0.  0.
        5    1    3    3  502    0  0.45652847502E+03  0.97035801899E+03 -0.40807095599E+03  0.11474131464E+04  0.46999998093E+01 0. -1.
       -5    1    3    3    0  502 -0.45652847502E+03 -0.97035801899E+03  0.76129973506E+02  0.10750957150E+04  0.46999998093E+01 0.  1.
</event>
<event>
 5   0  0.1754356E-04  0.2211724E+04  0.7818609E-02  0.8513564E-01
        2   -1    0    0  501    0  0.00000000000E+00  0.00000000000E+00  0.13278204947E+04  0.13278204948E+04  0.25500000920E-02 0.  1.
       -2   -1    0    0    0  501  0.00000000000E+00  0.00000000000E+00 -0.92100631906E+03  0.92100631906E+03  0.25500000920E-02 0. -1.
    10030    2    1    2    0    0  0.00000000000E+00  0.00000000000E+00  0.40681417569E+03  0.22488268138E+04  0.22117242742E+04 0.  0.
        1    1    3    3  502    0 -0.23407377462E+03 -0.54351018176E+03 -0.74646860562E+03  0.95258030047E+03  0.50400001928E-02 0. -1.
       -1    1    3    3    0  502  0.23407377462E+03  0.54351018176E+03  0.11532827813E+04  0.12962465133E+04  0.50400001928E-02 0.  1.
</event>
<event>
 5   0  0.8306787E-05  0.2253655E+04  0.7818609E-02  0.8496422E-01
        1   -1    0    0  501    0  0.00000000000E+00  0.00000000000E+00  0.80975505761E+03  0.80975505763E+03  0.50400001928E-02 0.  1.
       -1   -1    0    0    0  501  0.00000000000E+00  0.00000000000E+00 -0.15680546474E+04  0.15680546474E+04  0.50400001928E-02 0. -1.
    10030    2    1    2    0    0  0.00000000000E+00  0.00000000000E+00 -0.75829958981E+03  0.23778097051E+04  0.22536549704E+04 0.  0.
        1    1    3    3  502    0 -0.16335421376E+02  0.61095234090E+03 -0.13779869741E+04  0.15074407815E+04  0.50400001928E-02 0. -1.
       -1    1    3    3    0  502  0.16335421376E+02 -0.61095234090E+03  0.61968738430E+03  0.87036892357E+03  0.50400001928E-02 0.  1.
</event>
<event>
 5   0  0.1805501E-04  0.2218401E+04  0.7818609E-02  0.8510808E-01
       -2   -1    0    0    0  501  0.00000000000E+00  0.00000000000E+00  0.10172818691E+04  0.10172818691E+04  0.25500000920E-02 0.  1.
        2   -1    0    0  501    0  0.00000000000E+00  0.00000000000E+00 -0.12094245265E+04  0.12094245265E+04  0.25500000920E-02 0. -1.
    10030    2    1    2    0    0  0.00000000000E+00  0.00000000000E+00 -0.19214265745E+03  0.22267063956E+04  0.22184009041E+04 0.  0.
        2    1    3    3  502    0  0.10171040441E+04 -0.18215763523E+03 -0.50087217823E+03  0.11482834926E+04  0.25500000920E-02 0. -1.
       -2    1    3    3    0  502 -0.10171040441E+04  0.18215763523E+03  0.30872952077E+03  0.10784229029E+04  0.25500000920E-02 0.  1.
</event>
<event>
 5   0  0.1680258E-04  0.2143688E+04  0.7818609E-02  0.8542239E-01
        2   -1    0    0  501    0  0.00000000000E+00  0.00000000000E+00  0.64544761251E+03  0.64544761252E+03  0.25500000920E-02 0.  1.
       -2   -1    0    0    0  501  0.00000000000E+00  0.00000000000E+00 -0.17799270910E+04  0.17799270910E+04  0.25500000920E-02 0. -1.
    10030    2    1    2    0    0  0.00000000000E+00  0.00000000000E+00 -0.11344794785E+04  0.24253747036E+04  0.21436881223E+04 0.  0.
        5    1    3    3  502    0  0.12117993391E+03 -0.92374992346E+03 -0.11668075368E+04  0.14931377751E+04  0.46999998093E+01 0. -1.
       -5    1    3    3    0  502 -0.12117993391E+03  0.92374992346E+03  0.32328058259E+02  0.93223692848E+03  0.46999998093E+01 0.  1.
</event>
<event>
 5   0  0.8470971E-05  0.2139291E+04  0.7818609E-02  0.8544130E-01
       -1   -1    0    0    0  501  0.00000000000E+00  0.00000000000E+00  0.69215946348E+03  0.69215946350E+03  0.50400001928E-02 0. -1.
        1   -1    0    0  501    0  0.00000000000E+00  0.00000000000E+00 -0.16530034675E+04  0.16530034675E+04  0.50400001928E-02 0.  1.
    10030    2    1    2    0    0  0.00000000000E+00  0.00000000000E+00 -0.96084400405E+03  0.23451629310E+04  0.21392914652E+04 0.  0.
        2    1    3    3  502    0 -0.72175316854E+03  0.41211876843E+03 -0.12185482318E+04  0.14750014606E+04  0.25500000920E-02 0.  1.
       -2    1    3    3    0  502  0.72175316854E+03 -0.41211876843E+03  0.25770422776E+03  0.87016147042E+03  0.25500000920E-02 0. -1.
</event>
<event>
 5   0  0.1805501E-04  0.2166360E+04  0.7818609E-02  0.8532562E-01
       -2   -1    0    0    0  501  0.00000000000E+00  0.00000000000E+00  0.74917885346E+03  0.74917885346E+03  0.25500000920E-02 0.  1.
        2   -1    0    0  501    0  0.00000000000E+00  0.00000000000E+00 -0.15660862273E+04  0.15660862273E+04  0.25500000920E-02 0. -1.
    10030    2    1    2    0    0  0.00000000000E+00  0.00000000000E+00 -0.81690737379E+03  0.23152650807E+04  0.21663597893E+04 0.  0.
        2    1    3    3  502    0 -0.40868751479E+03  0.37449546062E+03 -0.14030129664E+04  0.15085482156E+04  0.25500000920E-02 0. -1.
       -2    1    3    3    0  502  0.40868751479E+03 -0.37449546062E+03  0.58610559263E+03  0.80671686513E+03  0.25500000920E-02 0.  1.
</event>
<event>
 5   0  0.1733962E-04  0.2145467E+04  0.7818609E-02  0.8541475E-01
       -2   -1    0    0    0  501  0.00000000000E+00  0.00000000000E+00  0.10154244885E+04  0.10154244885E+04  0.25500000920E-02 0. -1.
        2   -1    0    0  501    0  0.00000000000E+00  0.00000000000E+00 -0.11332772794E+04  0.11332772794E+04  0.25500000920E-02 0.  1.
    10030    2    1    2    0    0  0.00000000000E+00  0.00000000000E+00 -0.11785279087E+03  0.21487017680E+04  0.21454673168E+04 0.  0.
        3    1    3    3  502    0  0.16553839609E+03 -0.33828357601E+03  0.94703736439E+03  0.10191754109E+04  0.10100000352E+00 0. -1.
       -3    1    3    3    0  502 -0.16553839609E+03  0.33828357601E+03 -0.10648901553E+04  0.11295263571E+04  0.10100000352E+00 0.  1.
</event>
<event>
 5   0  0.6250625E-05  0.2209544E+04  0.7818609E-02  0.8514466E-01
        3   -1    0    0  501    0  0.00000000000E+00  0.00000000000E+00  0.98767365101E+03  0.98767365618E+03  0.10100000352E+00 0. -1.
       -3   -1    0    0    0  501  0.00000000000E+00  0.00000000000E+00 -0.12357537391E+04  0.12357537432E+04  0.10100000352E+00 0.  1.
    10030    2    1    2    0    0  0.00000000000E+00  0.00000000000E+00 -0.24808008806E+03  0.22234273994E+04  0.22095442223E+04 0.  0.
        3    1    3    3  502    0 -0.26878421189E+03 -0.25487202944E+02  0.95396453788E+03  0.99143476831E+03  0.10100000352E+00 0. -1.
       -3    1    3    3    0  502  0.26878421189E+03  0.25487202944E+02 -0.12020446259E+04  0.12319926311E+04  0.10100000352E+00 0.  1.
</event>
<event>
 5   0  0.7954459E-05  0.2082229E+04  0.7818609E-02  0.8569112E-01
        1   -1    0    0  501    0  0.00000000000E+00  0.00000000000E+00  0.11933356144E+04  0.11933356144E+04  0.50400001928E-02 0.  1.
       -1   -1    0    0    0  501  0.00000000000E+00  0.00000000000E+00 -0.90831056524E+03  0.90831056525E+03  0.50400001928E-02 0. -1.
    10030    2    1    2    0    0  0.00000000000E+00  0.00000000000E+00  0.28502504912E+03  0.21016461796E+04  0.20822289465E+04 0.  0.
        5    1    3    3  502    0  0.51918730713E+02 -0.53715104021E+02  0.11906161570E+04  0.11929668018E+04  0.46999998093E+01 0.  1.
       -5    1    3    3    0  502 -0.51918730713E+02  0.53715104021E+02 -0.90559110786E+03  0.90867937780E+03  0.46999998093E+01 0. -1.
</event>
<event>
 5   0  0.1754356E-04  0.2148125E+04  0.7818609E-02  0.8540335E-01
       -2   -1    0    0    0  501  0.00000000000E+00  0.00000000000E+00  0.58186604869E+03  0.58186604869E+03  0.25500000920E-02 0. -1.
        2   -1    0    0  501    0  0.00000000000E+00  0.00000000000E+00 -0.19826045116E+04  0.19826045116E+04  0.25500000920E-02 0.  1.
    10030    2    1    2    0    0  0.00000000000E+00  0.00000000000E+00 -0.14007384629E+04  0.25644705603E+04  0.21481249994E+04 0.  0.
        1    1    3    3  502    0 -0.64670835346E+03  0.85391279878E+03 -0.79445763419E+03  0.13336272699E+04  0.50400001928E-02 0.  1.
       -1    1    3    3    0  502  0.64670835346E+03 -0.85391279878E+03 -0.60628082873E+03  0.12308432905E+04  0.50400001928E-02 0. -1.
</event>
<event>
 5   0  0.8784659E-05  0.2177579E+04  0.7818609E-02  0.8527818E-01
        1   -1    0    0  501    0  0.00000000000E+00  0.00000000000E+00  0.16742208364E+04  0.16742208364E+04  0.50400001928E-02 0. -1.
       -1   -1    0    0    0  501  0.00000000000E+00  0.00000000000E+00 -0.70806846030E+03  0.70806846032E+03  0.50400001928E-02 0.  1.
    10030    2    1    2    0    0  0.00000000000E+00  0.00000000000E+00  0.96615237609E+03  0.23822892967E+04  0.21775793624E+04 0.  0.
        4    1    3    3  502    0 -0.46024923034E+03 -0.67016564922E+03 -0.30923793295E+03  0.86981668384E+03  0.12699999809E+01 0.  1.
       -4    1    3    3    0  502  0.46024923034E+03  0.67016564922E+03  0.12753903090E+04  0.15124726129E+04  0.12699999809E+01 0. -1.
</event>
<event>
 5   0  0.8470971E-05  0.2186732E+04  0.7818609E-02  0.8523971E-01
        1   -1    0    0  501    0  0.00000000000E+00  0.00000000000E+00  0.89272335034E+03  0.89272335036E+03  0.50400001928E-02 0.  1.
       -1   -1    0    0    0  501  0.00000000000E+00  0.00000000000E+00 -0.13391033845E+04  0.13391033845E+04  0.50400001928E-02 0. -1.
    10030    2    1    2    0    0  0.00000000000E+00  0.00000000000E+00 -0.44638003413E+03  0.22318267348E+04  0.21867316798E+04 0.  0.
        2    1    3    3  502    0 -0.46814985010E+03  0.96462895997E+03 -0.44155437432E+03  0.11595876759E+04  0.25500000920E-02 0. -1.
       -2    1    3    3    0  502  0.46814985010E+03 -0.96462895997E+03 -0.48256598075E+01  0.10722390590E+04  0.25500000920E-02 0.  1.
</event>
<event>
 5   0  0.1798917E-04  0.1673700E+04  0.7818609E-02  0.8776508E-01
        2   -1    0    0  501    0  0.00000000000E+00  0.00000000000E+00  0.23410746436E+04  0.23410746436E+04  0.25500000920E-02 0.  1.
       -2   -1    0    0    0  501  0.00000000000E+00  0.00000000000E+00 -0.29914361375E+03  0.29914361376E+03  0.25500000920E-02 0. -1.
    10030    2    1    2    0    0  0.00000000000E+00  0.00000000000E+00  0.20419310298E+04  0.26402182573E+04  0.16736995297E+04 0.  0.
        4    1    3    3  502    0  0.44671575261E+02  0.35350225966E+02  0.23380109540E+04  0.23387052020E+04  0.12699999809E+01 0.  1.
       -4    1    3    3    0  502 -0.44671575261E+02 -0.35350225966E+02 -0.29607992418E+03  0.30151305530E+03  0.12699999809E+01 0. -1.
</event>
<event>
 5   0  0.1805501E-04  0.2124622E+04  0.7818609E-02  0.8550474E-01
       -2   -1    0    0    0  501  0.00000000000E+00  0.00000000000E+00  0.68848925816E+03  0.68848925816E+03  0.25500000920E-02 0. -1.
        2   -1    0    0  501    0  0.00000000000E+00  0.00000000000E+00 -0.16391034962E+04  0.16391034962E+04  0.25500000920E-02 0.  1.
    10030    2    1    2    0    0  0.00000000000E+00  0.00000000000E+00 -0.95061423805E+03  0.23275927544E+04  0.21246224607E+04 0.  0.
        2    1    3    3  502    0  0.25058671627E+03 -0.74800211490E+03  0.30414265650E+03  0.84546059741E+03  0.25500000920E-02 0. -1.
       -2    1    3    3    0  502 -0.25058671627E+03  0.74800211490E+03 -0.12547568946E+04  0.14821321570E+04  0.25500000920E-02 0.  1.
</event>
<event>
 5   0  0.1680258E-04  0.2113128E+04  0.7818609E-02  0.8555482E-01
       -2   -1    0    0    0  501  0.00000000000E+00  0.00000000000E+00  0.92976992209E+03  0.92976992210E+03  0.25500000920E-02 0. -1.
        2   -1    0    0  501    0  0.00000000000E+00  0.00000000000E+00 -0.12006495249E+04  0.12006495249E+04  0.25500000920E-02 0.  1.
    10030    2    1    2    0    0  0.00000000000E+00  0.00000000000E+00 -0.27087960277E+03  0.21304194470E+04  0.21131283115E+04 0.  0.
        5    1    3    3  502    0  0.22885962034E+03 -0.95937491874E+03 -0.51739174345E+03  0.11137743338E+04  0.46999998093E+01 0.  1.
       -5    1    3    3    0  502 -0.22885962034E+03  0.95937491874E+03  0.24651214068E+03  0.10166451131E+04  0.46999998093E+01 0. -1.
</event>
<event>
 5   0  0.6250625E-05  0.2589559E+04  0.7818609E-02  0.8371757E-01
       -4   -1    0    0    0  501  0.00000000000E+00  0.00000000000E+00  0.98477272693E+03  0.98477354585E+03  0.12699999809E+01 0. -1.
        4   -1    0    0  501    0  0.00000000000E+00  0.00000000000E+00 -0.17023743617E+04  0.17023748355E+04  0.12699999809E+01 0.  1.
    10030    2    1    2    0    0  0.00000000000E+00  0.00000000000E+00 -0.71760163482E+03  0.26871483813E+04  0.25895587108E+04 0.  0.
        1    1    3    3  502    0 -0.81866042126E+02  0.22348850712E+03 -0.16794795249E+04  0.16962607807E+04  0.50400001928E-02 0.  1.
       -1    1    3    3    0  502  0.81866042126E+02 -0.22348850712E+03  0.96187789005E+03  0.99088760062E+03  0.50400001928E-02 0. -1.
</event>
<event>
 5   0  0.1798917E-04  0.2212478E+04  0.7818609E-02  0.8513253E-01
        2   -1    0    0  501    0  0.00000000000E+00  0.00000000000E+00  0.10408884389E+04  0.10408884389E+04  0.25500000920E-02 0. -1.
       -2   -1    0    0    0  501  0.00000000000E+00  0.00000000000E+00 -0.11756921381E+04  0.11756921381E+04  0.25500000920E-02 0.  1.
    10030    2    1    2    0    0  0.00000000000E+00  0.00000000000E+00 -0.13480369920E+03  0.22165805769E+04  0.22124776647E+04 0.  0.
        4    1    3    3  502    0  0.38322245713E+03 -0.69715502549E+03  0.70270963001E+03  0.10614551419E+04  0.12699999809E+01 0. -1.
       -4    1    3    3    0  502 -0.38322245713E+03  0.69715502549E+03 -0.83751332921E+03  0.11551254351E+04  0.12699999809E+01 0.  1.
</event>
<event>
 5   0  0.1733962E-04  0.1966657E+04  0.7818609E-02  0.8622370E-01
       -2   -1    0    0    0  501  0.00000000000E+00  0.00000000000E+00  0.11189029540E+04  0.11189029540E+04  0.25500000920E-02 0. -1.
        2   -1    0    0  501    0  0.00000000000E+00  0.00000000000E+00 -0.86418158614E+03  0.86418158615E+03  0.25500000920E-02 0.  1.
    10030    2    1    2    0    0  0.00000000000E+00  0.00000000000E+00  0.25472136789E+03  0.19830845402E+04  0.19666573973E+04 0.  0.
        3    1    3    3  502    0 -0.29400974264E+03 -0.13795774991E+03 -0.80854135256E+03  0.87132841026E+03  0.10100000352E+00 0.  1.
       -3    1    3    3    0  502  0.29400974264E+03  0.13795774991E+03  0.10632627204E+04  0.11117561299E+04  0.10100000352E+00 0. -1.
</event>
<event>
 5   0  0.7954459E-05  0.2140272E+04  0.7818609E-02  0.8543708E-01
       -1   -1    0    0    0  501  0.00000000000E+00  0.00000000000E+00  0.48351786831E+03  0.48351786834E+03  0.50400001928E-02 0. -1.
        1   -1    0    0  501    0  0.00000000000E+00  0.00000000000E+00 -0.23684572033E+04  0.23684572033E+04  0.50400001928E-02 0.  1.
    10030    2    1    2    0    0  0.00000000000E+00  0.00000000000E+00 -0.18849393350E+04  0.28519750717E+04  0.21402722987E+04 0.  0.
        5    1    3    3  502    0  0.65674528274E+03  0.70703735457E+03 -0.15588318544E+04  0.18333562195E+04  0.46999998093E+01 0.  1.
       -5    1    3    3    0  502 -0.65674528274E+03 -0.70703735457E+03 -0.32610748061E+03  0.10186188522E+04  0.46999998093E+01 0. -1.
</event>
<event>
 5   0  0.1733962E-04  0.2198954E+04  0.7818609E-02  0.8518864E-01
       -2   -1    0    0    0  501  0.00000000000E+00  0.00000000000E+00  0.62475080781E+03  0.62475080781E+03  0.25500000920E-02 0.  1.
        2   -1    0    0  501    0  0.00000000000E+00  0.00000000000E+00 -0.19349301885E+04  0.19349301885E+04  0.25500000920E-02 0. -1.
    10030    2    1    2    0    0  0.00000000000E+00  0.00000000000E+00 -0.13101793807E+04  0.25596809963E+04  0.21989535678E+04 0.  0.
        3    1    3    3  502    0 -0.38898925304E+02  0.26033735360E+03 -0.18977101021E+04  0.19158789904E+04  0.10100000352E+00 0. -1.
       -3    1    3    3    0  502  0.38898925304E+02 -0.26033735360E+03  0.58753072138E+03  0.64380200593E+03  0.10100000352E+00 0.  1.
</event>
<event>
 5   0  0.8470971E-05  0.2000848E+04  0.7818609E-02  0.8606224E-01
       -1   -1    0    0    0  501  0.00000000000E+00  0.00000000000E+00  0.21312598936E+04  0.21312598937E+04  0.50400001928E-02 0.  1.
        1   -1    0    0  501    0  0.00000000000E+00  0.00000000000E+00 -0.46960398059E+03  0.46960398062E+03  0.50400001928E-02 0. -1.
    10030    2    1    2    0    0  0.00000000000E+00  0.00000000000E+00  0.16616559131E+04  0.26008638743E+04  0.20008479500E+04 0.  0.
        2    1    3    3  502    0  0.78037587735E+03 -0.61934451927E+03  0.71258890601E+03  0.12248906451E+04  0.25500000920E-02 0.  1.
       -2    1    3    3    0  502 -0.78037587735E+03  0.61934451927E+03  0.94906700705E+03  0.13759732292E+04  0.25500000920E-02 0. -1.
</event>
<event>
 5   0  0.8306787E-05  0.1467094E+04  0.7818609E-02  0.8906635E-01
        1   -1    0    0  501    0  0.00000000000E+00  0.00000000000E+00  0.51605642780E+03  0.51605642783E+03  0.50400001928E-02 0.  1.
       -1   -1    0    0    0  501  0.00000000000E+00  0.00000000000E+00 -0.10426982226E+04  0.10426982226E+04  0.50400001928E-02 0. -1.
    10030    2    1    2    0    0  0.00000000000E+00  0.00000000000E+00 -0.52664179479E+03  0.15587546504E+04  0.14670938894E+04 0.  0.
        1    1    3    3  502    0  0.46003968648E+03 -0.83742829519E+02  0.33718280452E+03  0.57649077904E+03  0.50400001928E-02 0.  1.
       -1    1    3    3    0  502 -0.46003968648E+03  0.83742829519E+02 -0.86382459931E+03  0.98226387139E+03  0.50400001928E-02 0. -1.
</event>
<event>
 5   0  0.1798917E-04  0.2208977E+04  0.7818609E-02  0.8514701E-01
        2   -1    0    0  501    0  0.00000000000E+00  0.00000000000E+00  0.26891238385E+04  0.26891238385E+04  0.25500000920E-02 0.  1.
       -2   -1    0    0    0  501  0.00000000000E+00  0.00000000000E+00 -0.45364035232E+03  0.45364035233E+03  0.25500000920E-02 0. -1.
    10030    2    1    2    0    0  0.00000000000E+00  0.00000000000E+00  0.22354834861E+04  0.31427641908E+04  0.22089772163E+04 0.  0.
        4    1    3    3  502    0  0.92578120691E+03 -0.57477761167E+03  0.13740426661E+04  0.17536918222E+04  0.12699999809E+01 0. -1.
       -4    1    3    3    0  502 -0.92578120691E+03  0.57477761167E+03  0.86144082003E+03  0.13890723686E+04  0.12699999809E+01 0.  1.
</event>
<event>
 5   0  0.1798917E-04  0.2227246E+04  0.7818609E-02  0.8507173E-01
        2   -1    0    0  501    0  0.00000000000E+00  0.00000000000E+00  0.95833402129E+03  0.95833402129E+03  0.25500000920E-02 0.  1.
       -2   -1    0    0    0  501  0.00000000000E+00  0.00000000000E+00 -0.12940751988E+04  0.12940751988E+04  0.25500000920E-02 0. -1.
    10030    2    1    2    0    0  0.00000000000E+00  0.00000000000E+00 -0.33574117748E+03  0.22524092201E+04  0.22272460925E+04 0.  0.
        4    1    3    3  502    0 -0.47491176035E+03 -0.51416516824E+03  0.70808365322E+03  0.99563601442E+03  0.12699999809E+01 0.  1.
       -4    1    3    3    0  502  0.47491176035E+03  0.51416516824E+03 -0.10438248307E+04  0.12567732057E+04  0.12699999809E+01 0. -1.
</event>
<event>
 5   0  0.1798917E-04  0.1863288E+04  0.7818609E-02  0.8673349E-01
        2   -1    0    0  501    0  0.00000000000E+00  0.00000000000E+00  0.11554782132E+04  0.11554782132E+04  0.25500000920E-02 0.  1.
       -2   -1    0    0    0  501  0.00000000000E+00  0.00000000000E+00 -0.75116998277E+03  0.75116998277E+03  0.25500000920E-02 0. -1.
    10030    2    1    2    0    0  0.00000000000E+00  0.00000000000E+00  0.40430823042E+03  0.19066481960E+04  0.18632880073E+04 0.  0.
        4    1    3    3  502    0 -0.31901902243E+02 -0.94865907161E+02  0.11499601243E+04  0.11543080924E+04  0.12699999809E+01 0.  1.
       -4    1    3    3    0  502  0.31901902243E+02  0.94865907161E+02 -0.74565189389E+03  0.75234010359E+03  0.12699999809E+01 0. -1.
</event>
<event>
 5   0  0.8306787E-05  0.2199175E+04  0.7818609E-02  0.8518772E-01
        1   -1    0    0  501    0  0.00000000000E+00  0.00000000000E+00  0.72789016039E+03  0.72789016040E+03  0.50400001928E-02 0. -1.
       -1   -1    0    0    0  501  0.00000000000E+00  0.00000000000E+00 -0.16610915320E+04  0.16610915320E+04  0.50400001928E-02 0.  1.
    10030    2    1    2    0    0  0.00000000000E+00  0.00000000000E+00 -0.93320137158E+03  0.23889816924E+04  0.21991745557E+04 0.  0.
        1    1    3    3  502    0 -0.49083614228E+03  0.87095125208E+03 -0.96395433973E+03  0.13887707410E+04  0.50400001928E-02 0. -1.
       -1    1    3    3    0  502  0.49083614228E+03 -0.87095125208E+03  0.30752968155E+02  0.10002109513E+04  0.50400001928E-02 0.  1.
</event>
<event>
 5   0  0.1733962E-04  0.2247217E+04  0.7818609E-02  0.8499029E-01
        2   -1    0    0  501    0  0.00000000000E+00  0.00000000000E+00  0.89180304584E+03  0.89180304584E+03  0.25500000920E-02 0. -1.
       -2   -1    0    0    0  501  0.00000000000E+00  0.00000000000E+00 -0.14156664996E+04  0.14156664996E+04  0.25500000920E-02 0.  1.
    10030    2    1    2    0    0  0.00000000000E+00  0.00000000000E+00 -0.52386345372E+03  0.23074695454E+04  0.22472166751E+04 0.  0.
        3    1    3    3  502    0  0.20122930035E+02  0.60170451472E+03 -0.12360742935E+04  0.13748937866E+04  0.10100000352E+00 0.  1.
       -3    1    3    3    0  502 -0.20122930035E+02 -0.60170451472E+03  0.71221083976E+03  0.93257575876E+03  0.10100000352E+00 0. -1.
</event>
<event>
 5   0  0.1754356E-04  0.1170784E+04  0.7818609E-02  0.9138821E-01
       -2   -1    0    0    0  501  0.00000000000E+00  0.00000000000E+00  0.38927636310E+03  0.38927636311E+03  0.25500000920E-02 0. -1.
        2   -1    0    0  501    0  0.00000000000E+00  0.00000000000E+00 -0.88030979091E+03  0.88030979091E+03  0.25500000920E-02 0.  1.
    10030    2    1    2    0    0  0.00000000000E+00  0.00000000000E+00 -0.49103342781E+03  0.12695861540E+04  0.11707840003E+04 0.  0.
        1    1    3    3  502    0 -0.39513685246E+03  0.35345616362E+03 -0.51469755034E+03  0.73890321431E+03  0.50400001928E-02 0.  1.
       -1    1    3    3    0  502  0.39513685246E+03 -0.35345616362E+03  0.23664122535E+02  0.53068293970E+03  0.50400001928E-02 0. -1.
</event>
<event>
 5   0  0.6250625E-05  0.2305754E+04  0.7818609E-02  0.8475656E-01
       -4   -1    0    0    0  501  0.00000000000E+00  0.00000000000E+00  0.80744839100E+03  0.80744938976E+03  0.12699999809E+01 0.  1.
        4   -1    0    0  501    0  0.00000000000E+00  0.00000000000E+00 -0.16460784550E+04  0.16460789449E+04  0.12699999809E+01 0. -1.
    10030    2    1    2    0    0  0.00000000000E+00  0.00000000000E+00 -0.83863006398E+03  0.24535283347E+04  0.23057538691E+04 0.  0.
        5    1    3    3  502    0  0.47750907766E+03  0.10118161700E+04 -0.71519361966E+03  0.13278971665E+04  0.46999998093E+01 0. -1.
       -5    1    3    3    0  502 -0.47750907766E+03 -0.10118161700E+04 -0.12343644432E+03  0.11256311682E+04  0.46999998093E+01 0.  1.
</event>
<event>
 5   0  0.8306787E-05  0.2180245E+04  0.7818609E-02  0.8526696E-01
       -1   -1    0    0    0  501  0.00000000000E+00  0.00000000000E+00  0.96913446973E+03  0.96913446974E+03  0.50400001928E-02 0. -1.
        1   -1    0    0  501    0  0.00000000000E+00  0.00000000000E+00 -0.12262147747E+04  0.12262147747E+04  0.50400001928E-02 0.  1.
    10030    2    1    2    0    0  0.00000000000E+00  0.00000000000E+00 -0.25708030498E+03  0.21953492445E+04  0.21802449454E+04 0.  0.
        1    1    3    3  502    0  0.11893220091E+03 -0.31565421743E+03 -0.11723433609E+04  0.12199063117E+04  0.50400001928E-02 0.  1.
       -1    1    3    3    0  502 -0.11893220091E+03  0.31565421743E+03  0.91526305597E+03  0.97544293274E+03  0.50400001928E-02 0. -1.
</event>
<event>
 5   0  0.8470971E-05  0.2237516E+04  0.7818609E-02  0.8502973E-01
       -1   -1    0    0    0  501  0.00000000000E+00  0.00000000000E+00  0.95840684663E+03  0.95840684664E+03  0.50400001928E-02 0. -1.
        1   -1    0    0  501    0  0.00000000000E+00  0.00000000000E+00 -0.13059375866E+04  0.13059375866E+04  0.50400001928E-02 0.  1.
    10030    2    1    2    0    0  0.00000000000E+00  0.00000000000E+00 -0.34753073998E+03  0.22643444333E+04  0.22375160552E+04 0.  0.
        2    1    3    3  502    0 -0.10671690838E+04  0.26472345442E+03 -0.38286117700E+03  0.11642641632E+04  0.25500000920E-02 0.  1.
       -2    1    3    3    0  502  0.10671690838E+04 -0.26472345442E+03  0.35330437018E+02  0.11000802701E+04  0.25500000920E-02 0. -1.
</event>
<event>
 5   0  0.1733962E-04  0.2183946E+04  0.7818609E-02  0.8525140E-01
       -2   -1    0    0    0  501  0.00000000000E+00  0.00000000000E+00  0.26744089555E+04  0.26744089555E+04  0.25500000920E-02 0.  1.
        2   -1    0    0  501    0  0.00000000000E+00  0.00000000000E+00 -0.44585739958E+03  0.44585739959E+03  0.25500000920E-02 0. -1.
    10030    2    1    2    0    0  0.00000000000E+00  0.00000000000E+00  0.22285515560E+04  0.31202663551E+04  0.21839459905E+04 0.  0.
        3    1    3    3  502    0 -0.15111823865E+03  0.64893414073E+03  0.23503142105E+04  0.24429345344E+04  0.10100000352E+00 0.  1.
       -3    1    3    3    0  502  0.15111823865E+03 -0.64893414073E+03 -0.12176265460E+03  0.67733182069E+03  0.10100000352E+00 0. -1.
</event>
<event>
 5   0  0.8470971E-05  0.2164723E+04  0.7818609E-02  0.8533256E-01
       -1   -1    0    0    0  501  0.00000000000E+00  0.00000000000E+00  0.91347953351E+03  0.91347953353E+03  0.50400001928E-02 0.  1.
        1   -1    0    0  501    0  0.00000000000E+00  0.00000000000E+00 -0.12824656425E+04  0.12824656425E+04  0.50400001928E-02 0. -1.
    10030    2    1    2    0    0  0.00000000000E+00  0.00000000000E+00 -0.36898610900E+03  0.21959451760E+04  0.21647227230E+04 0.  0.
        2    1    3    3  502    0 -0.38050481527E+02 -0.93800413629E+03 -0.73097120010E+03  0.11897976694E+04  0.25500000920E-02 0. -1.
       -2    1    3    3    0  502  0.38050481527E+02  0.93800413629E+03  0.36198509110E+03  0.10061475066E+04  0.25500000920E-02 0.  1.
</event>
<event>
 5   0  0.1798917E-04  0.2195886E+04  0.7818609E-02  0.8520142E-01
        2   -1    0    0  501    0  0.00000000000E+00  0.00000000000E+00  0.97279632646E+03  0.97279632646E+03  0.25500000920E-02 0.  1.
       -2   -1    0    0    0  501  0.00000000000E+00  0.00000000000E+00 -0.12391893623E+04  0.12391893624E+04  0.25500000920E-02 0. -1.
    10030    2    1    2    0    0  0.00000000000E+00  0.00000000000E+00 -0.26639303589E+03  0.22119856888E+04  0.21958860257E+04 0.  0.
        4    1    3    3  502    0 -0.71941567213E+03  0.40603096972E+03 -0.86172595665E+03  0.11937308302E+04  0.12699999809E+01 0.  1.
       -4    1    3    3    0  502  0.71941567213E+03 -0.40603096972E+03  0.59533292076E+03  0.10182548586E+04  0.12699999809E+01 0. -1.
</event>
<event>
 5   0  0.8602414E-05  0.1959675E+04  0.7818609E-02  0.8625709E-01
       -1   -1    0    0    0  501  0.00000000000E+00  0.00000000000E+00  0.14623516612E+04  0.14623516612E+04  0.50400001928E-02 0.  1.
        1   -1    0    0  501    0  0.00000000000E+00  0.00000000000E+00 -0.65653254949E+03  0.65653254951E+03  0.50400001928E-02 0. -1.
    10030    2    1    2    0    0  0.00000000000E+00  0.00000000000E+00  0.80581911175E+03  0.21188842108E+04  0.19596749368E+04 0.  0.
        3    1    3    3  502    0  0.94979098870E+03  0.20438535210E+03  0.26526791341E+03  0.10070965050E+04  0.10100000352E+00 0.  1.
       -3    1    3    3    0  502 -0.94979098870E+03 -0.20438535210E+03  0.54055119834E+03  0.11117877057E+04  0.10100000352E+00 0. -1.
</event>
<event>
 5   0  0.8306787E-05  0.1270429E+04  0.7818609E-02  0.9053350E-01
        1   -1    0    0  501    0  0.00000000000E+00  0.00000000000E+00  0.73754043468E+03  0.73754043469E+03  0.50400001928E-02 0. -1.
       -1   -1    0    0    0  501  0.00000000000E+00  0.00000000000E+00 -0.54708492775E+03  0.54708492777E+03  0.50400001928E-02 0.  1.
    10030    2    1    2    0    0  0.00000000000E+00  0.00000000000E+00  0.19045550693E+03  0.12846253625E+04  0.12704286764E+04 0.  0.
        1    1    3    3  502    0 -0.45790266594E+03 -0.79406289919E+02 -0.34264364601E+03  0.57739490692E+03  0.50400001928E-02 0.  1.
       -1    1    3    3    0  502  0.45790266594E+03  0.79406289919E+02  0.53309915294E+03  0.70723045554E+03  0.50400001928E-02 0. -1.
</event>
<event>
 5   0  0.1798917E-04  0.2369067E+04  0.7818609E-02  0.8451176E-01
       -2   -1    0    0    0  501  0.00000000000E+00  0.00000000000E+00  0.54763311909E+03  0.54763311910E+03  0.25500000920E-02 0. -1.
        2   -1    0    0  501    0  0.00000000000E+00  0.00000000000E+00 -0.25621519570E+04  0.25621519570E+04  0.25500000920E-02 0.  1.
    10030    2    1    2    0    0  0.00000000000E+00  0.00000000000E+00 -0.20145188380E+04  0.31097850761E+04  0.23690667089E+04 0.  0.
        4    1    3    3  502    0  0.11141750161E+04 -0.37398182403E+03 -0.12013794552E+04  0.16806435016E+04  0.12699999809E+01 0. -1.
       -4    1    3    3    0  502 -0.11141750161E+04  0.37398182403E+03 -0.81313938273E+03  0.14291415745E+04  0.12699999809E+01 0.  1.
</event>
<event>
 5   0  0.1680258E-04  0.2280050E+04  0.7818609E-02  0.8485829E-01
       -2   -1    0    0    0  501  0.00000000000E+00  0.00000000000E+00  0.68579583814E+03  0.68579583815E+03  0.25500000920E-02 0.  1.
        2   -1    0    0  501    0  0.00000000000E+00  0.00000000000E+00 -0.18951074871E+04  0.18951074871E+04  0.25500000920E-02 0. -1.
    10030    2    1    2    0    0  0.00000000000E+00  0.00000000000E+00 -0.12093116489E+04  0.25809033252E+04  0.22800498481E+04 0.  0.
        5    1    3    3  502    0  0.26975743345E+03  0.10207690959E+04 -0.10913893839E+04  0.15185162157E+04  0.46999998093E+01 0. -1.
       -5    1    3    3    0  502 -0.26975743345E+03 -0.10207690959E+04 -0.11792226501E+03  0.10623871095E+04  0.46999998093E+01 0.  1.
</event>
<event>
 5   0  0.8470971E-05  0.2082513E+04  0.7818609E-02  0.8568986E-01
        1   -1    0    0  501    0  0.00000000000E+00  0.00000000000E+00  0.18952461667E+04  0.18952461667E+04  0.50400001928E-02 0. -1.
       -1   -1    0    0    0  501  0.00000000000E+00  0.00000000000E+00 -0.57207062378E+03  0.57207062380E+03  0.50400001928E-02 0.  1.
    10030    2    1    2    0    0  0.00000000000E+00  0.00000000000E+00  0.13231755429E+04  0.24673167905E+04  0.20825125755E+04 0.  0.
        2    1    3    3  502    0 -0.99343346407E+03  0.30782430529E+03  0.60177337836E+03  0.12015810623E+04  0.25500000920E-02 0.  1.
       -2    1    3    3    0  502  0.99343346407E+03 -0.30782430529E+03  0.72140216453E+03  0.12657357281E+04  0.25500000920E-02 0. -1.
</event>
<event>
 5   0  0.8470971E-05  0.2102740E+04  0.7818609E-02  0.8560038E-01
        1   -1    0    0  501    0  0.00000000000E+00  0.00000000000E+00  0.13762421617E+04  0.13762421617E+04  0.50400001928E-02 0. -1.
       -1   -1    0    0    0  501  0.00000000000E+00  0.00000000000E+00 -0.80318594054E+03  0.80318594056E+03  0.50400001928E-02 0.  1.
    10030    2    1    2    0    0  0.00000000000E+00  0.00000000000E+00  0.57305622115E+03  0.21794281023E+04  0.21027395037E+04 0.  0.
        2    1    3    3  502    0 -0.74116491538E+03 -0.92978652432E+02 -0.48032573630E+03  0.88807841690E+03  0.25500000920E-02 0.  1.
       -2    1    3    3    0  502  0.74116491538E+03  0.92978652432E+02  0.10533819574E+04  0.12913496854E+04  0.25500000920E-02 0. -1.
</event>
<event>
 5   0  0.8306787E-05  0.2195967E+04  0.7818609E-02  0.8520109E-01
       -1   -1    0    0    0  501  0.00000000000E+00  0.00000000000E+00  0.50711464709E+03  0.50711464712E+03  0.50400001928E-02 0. -1.
        1   -1    0    0  501    0  0.00000000000E+00  0.00000000000E+00 -0.23773072924E+04  0.23773072924E+04  0.50400001928E-02 0.  1.
    10030    2    1    2    0    0  0.00000000000E+00  0.00000000000E+00 -0.18701926453E+04  0.28844219395E+04  0.21959666196E+04 0.  0.
        1    1    3    3  502    0 -0.14147508977E+03 -0.93198873703E+02  0.48984370324E+03  0.51831272869E+03  0.50400001928E-02 0. -1.
       -1    1    3    3    0  502  0.14147508977E+03  0.93198873703E+02 -0.23600363485E+04  0.23661092108E+04  0.50400001928E-02 0.  1.
</event>
<event>
 5   0  0.7954459E-05  0.2184478E+04  0.7818609E-02  0.8524917E-01
        1   -1    0    0  501    0  0.00000000000E+00  0.00000000000E+00  0.10890685841E+04  0.10890685841E+04  0.50400001928E-02 0. -1.
       -1   -1    0    0    0  501  0.00000000000E+00  0.00000000000E+00 -0.10954181619E+04  0.10954181619E+04  0.50400001928E-02 0.  1.
    10030    2    1    2    0    0  0.00000000000E+00  0.00000000000E+00 -0.63495777500E+01  0.21844867460E+04  0.21844775179E+04 0.  0.
        5    1    3    3  502    0  0.87806674186E+03 -0.32710588863E+03 -0.56439365182E+03  0.10938746499E+04  0.46999998093E+01 0.  1.
       -5    1    3    3    0  502 -0.87806674186E+03  0.32710588863E+03  0.55804407407E+03  0.10906120961E+04  0.46999998093E+01 0. -1.
</event>
<event>
 5   0  0.8602414E-05  0.2204309E+04  0.7818609E-02  0.8516637E-01
        1   -1    0    0  501    0  0.00000000000E+00  0.00000000000E+00  0.91176481160E+03  0.91176481161E+03  0.50400001928E-02 0. -1.
       -1   -1    0    0    0  501  0.00000000000E+00  0.00000000000E+00 -0.13323007841E+04  0.13323007842E+04  0.50400001928E-02 0.  1.
    10030    2    1    2    0    0  0.00000000000E+00  0.00000000000E+00 -0.42053597255E+03  0.22440655958E+04  0.22043093916E+04 0.  0.
        3    1    3    3  502    0  0.93688305170E+03 -0.70164419063E+02 -0.79691811184E+03  0.12319705295E+04  0.10100000352E+00 0. -1.
       -3    1    3    3    0  502 -0.93688305170E+03  0.70164419063E+02  0.37638213930E+03  0.10120950663E+04  0.10100000352E+00 0.  1.
</event>
<event>
 5   0  0.1754356E-04  0.1972944E+04  0.7818609E-02  0.8619376E-01
       -2   -1    0    0    0  501  0.00000000000E+00  0.00000000000E+00  0.94045530446E+03  0.94045530446E+03  0.25500000920E-02 0. -1.
        2   -1    0    0  501    0  0.00000000000E+00  0.00000000000E+00 -0.10347400897E+04  0.10347400897E+04  0.25500000920E-02 0.  1.
    10030    2    1    2    0    0  0.00000000000E+00  0.00000000000E+00 -0.94284785269E+02  0.19751953942E+04  0.19729437966E+04 0.  0.
        1    1    3    3  502    0 -0.90890150363E+03 -0.16463221825E+03  0.29954906763E+03  0.97104858505E+03  0.50400001928E-02 0. -1.
       -1    1    3    3    0  502  0.90890150363E+03  0.16463221825E+03 -0.39383385290E+03  0.10041468091E+04  0.50400001928E-02 0.  1.
</event>
<event>
 5   0  0.7954459E-05  0.2215222E+04  0.7818609E-02  0.8512119E-01
       -1   -1    0    0    0  501  0.00000000000E+00  0.00000000000E+00  0.68077733161E+03  0.68077733163E+03  0.50400001928E-02 0.  1.
        1   -1    0    0  501    0  0.00000000000E+00  0.00000000000E+00 -0.18020606515E+04  0.18020606515E+04  0.50400001928E-02 0. -1.
    10030    2    1    2    0    0  0.00000000000E+00  0.00000000000E+00 -0.11212833199E+04  0.24828379832E+04  0.22152219228E+04 0.  0.
        5    1    3    3  502    0  0.70271577467E+03 -0.84675514283E+03 -0.41897483690E+03  0.11774403322E+04  0.46999998093E+01 0.  1.
       -5    1    3    3    0  502 -0.70271577467E+03  0.84675514283E+03 -0.70230848301E+03  0.13053976510E+04  0.46999998093E+01 0. -1.
</event>
<event>
 5   0  0.8306787E-05  0.1967633E+04  0.7818609E-02  0.8621904E-01
        1   -1    0    0  501    0  0.00000000000E+00  0.00000000000E+00  0.22129399123E+04  0.22129399123E+04  0.50400001928E-02 0.  1.
       -1   -1    0    0    0  501  0.00000000000E+00  0.00000000000E+00 -0.43737981932E+03  0.43737981935E+03  0.50400001928E-02 0. -1.
    10030    2    1    2    0    0  0.00000000000E+00  0.00000000000E+00  0.17755600930E+04  0.26503197317E+04  0.19676333592E+04 0.  0.
        1    1    3    3  502    0  0.29907362363E+03  0.83242320376E+03  0.30761493285E+03  0.93648297873E+03  0.50400001928E-02 0. -1.
       -1    1    3    3    0  502 -0.29907362363E+03 -0.83242320376E+03  0.14679451602E+04  0.17138367529E+04  0.50400001928E-02 0.  1.
</event>
<event>
 5   0  0.8602414E-05  0.2163830E+04  0.7818609E-02  0.8533635E-01
        1   -1    0    0  501    0  0.00000000000E+00  0.00000000000E+00  0.17356712151E+04  0.17356712151E+04  0.50400001928E-02 0. -1.
       -1   -1    0    0    0  501  0.00000000000E+00  0.00000000000E+00 -0.67440191148E+03  0.67440191150E+03  0.50400001928E-02 0.  1.
    10030    2    1    2    0    0  0.00000000000E+00  0.00000000000E+00  0.10612693036E+04  0.24100731266E+04  0.21638299242E+04 0.  0.
        3    1    3    3  502    0 -0.52561838119E+03 -0.75802777003E+03 -0.99090002281E+02  0.92773898352E+03  0.10100000352E+00 0.  1.
       -3    1    3    3    0  502  0.52561838119E+03  0.75802777003E+03  0.11603593059E+04  0.14823341431E+04  0.10100000352E+00 0. -1.
</event>
<event>
 5   0  0.8784659E-05  0.2217967E+04  0.7818609E-02  0.8510987E-01
        1   -1    0    0  501    0  0.00000000000E+00  0.00000000000E+00  0.90691365017E+03  0.90691365019E+03  0.50400001928E-02 0.  1.
       -1   -1    0    0    0  501  0.00000000000E+00  0.00000000000E+00 -0.13560763357E+04  0.13560763357E+04  0.50400001928E-02 0. -1.
    10030    2    1    2    0    0  0.00000000000E+00  0.00000000000E+00 -0.44916268553E+03  0.22629899859E+04  0.22179667622E+04 0.  0.
        4    1    3    3  502    0 -0.35020072264E+03  0.61345815554E+03  0.64768272987E+03  0.95836631108E+03  0.12699999809E+01 0.  1.
       -4    1    3    3    0  502  0.35020072264E+03 -0.61345815554E+03 -0.10968454154E+04  0.13046236748E+04  0.12699999809E+01 0. -1.
</event>
<event>
 5   0  0.8602414E-05  0.2194254E+04  0.7818609E-02  0.8520823E-01
       -1   -1    0    0    0  501  0.00000000000E+00  0.00000000000E+00  0.11243605097E+04  0.11243605097E+04  0.50400001928E-02 0. -1.
        1   -1    0    0  501    0  0.00000000000E+00  0.00000000000E+00 -0.10705533140E+04  0.10705533140E+04  0.50400001928E-02 0.  1.
    10030    2    1    2    0    0  0.00000000000E+00  0.00000000000E+00  0.53807195641E+02  0.21949138237E+04  0.21942541966E+04 0.  0.
        3    1    3    3  502    0 -0.60819600313E+03 -0.34478343232E+03  0.87268120273E+03  0.11181907195E+04  0.10100000352E+00 0.  1.
       -3    1    3    3    0  502  0.60819600313E+03  0.34478343232E+03 -0.81887400709E+03  0.10767231042E+04  0.10100000352E+00 0. -1.
</event>
<event>
 5   0  0.1754356E-04  0.1765469E+04  0.7818609E-02  0.8724881E-01
       -2   -1    0    0    0  501  0.00000000000E+00  0.00000000000E+00  0.37414477987E+03  0.37414477988E+03  0.25500000920E-02 0.  1.
        2   -1    0    0  501    0  0.00000000000E+00  0.00000000000E+00 -0.20826712405E+04  0.20826712405E+04  0.25500000920E-02 0. -1.
    10030    2    1    2    0    0  0.00000000000E+00  0.00000000000E+00 -0.17085264606E+04  0.24568160204E+04  0.17654694252E+04 0.  0.
        1    1    3    3  502    0  0.41519295422E+03 -0.29635302471E+03 -0.18568002301E+04  0.19255953363E+04  0.50400001928E-02 0. -1.
       -1    1    3    3    0  502 -0.41519295422E+03  0.29635302471E+03  0.14827376947E+03  0.53122068411E+03  0.50400001928E-02 0.  1.
</event>
<event>
 5   0  0.1733962E-04  0.2181755E+04  0.7818609E-02  0.8526060E-01
       -2   -1    0    0    0  501  0.00000000000E+00  0.00000000000E+00  0.99245257674E+03  0.99245257674E+03  0.25500000920E-02 0. -1.
        2   -1    0    0  501    0  0.00000000000E+00  0.00000000000E+00 -0.11990640377E+04  0.11990640377E+04  0.25500000920E-02 0.  1.
    10030    2    1    2    0    0  0.00000000000E+00  0.00000000000E+00 -0.20661146094E+03  0.21915166144E+04  0.21817554344E+04 0.  0.
        3    1    3    3  502    0 -0.31290124051E+03 -0.93765926585E+03  0.36017178714E+03  0.10520626462E+04  0.10100000352E+00 0. -1.
       -3    1    3    3    0  502  0.31290124051E+03  0.93765926585E+03 -0.56678324808E+03  0.11394539682E+04  0.10100000352E+00 0.  1.
</event>
<event>
 5   0  0.8602414E-05  0.2094966E+04  0.7818609E-02  0.8563464E-01
       -1   -1    0    0    0  501  0.00000000000E+00  0.00000000000E+00  0.10253436405E+04  0.10253436405E+04  0.50400001928E-02 0.  1.
        1   -1    0    0  501    0  0.00000000000E+00  0.00000000000E+00 -0.10701000941E+04  0.10701000941E+04  0.50400001928E-02 0. -1.
    10030    2    1    2    0    0  0.00000000000E+00  0.00000000000E+00 -0.44756453578E+02  0.20954437346E+04  0.20949657050E+04 0.  0.
        3    1    3    3  502    0  0.30841456204E+03 -0.75280935207E+03 -0.68236123091E+03  0.10618184036E+04  0.10100000352E+00 0.  1.
       -3    1    3    3    0  502 -0.30841456204E+03  0.75280935207E+03  0.63760477733E+03  0.10336253310E+04  0.10100000352E+00 0. -1.
</event>
<event>
 5   0  0.1680258E-04  0.1124935E+04  0.7818609E-02  0.9181223E-01
       -2   -1    0    0    0  501  0.00000000000E+00  0.00000000000E+00  0.13786980119E+03  0.13786980121E+03  0.25500000920E-02 0.  1.
        2   -1    0    0  501    0  0.00000000000E+00  0.00000000000E+00 -0.22946998598E+04  0.22946998598E+04  0.25500000920E-02 0. -1.
    10030    2    1    2    0    0  0.00000000000E+00  0.00000000000E+00 -0.21568300586E+04  0.24325696610E+04  0.11249352221E+04 0.  0.
        5    1    3    3  502    0 -0.10583045778E+03  0.50449872782E+03 -0.15649746184E+04  0.16476913238E+04  0.46999998093E+01 0. -1.
       -5    1    3    3    0  502  0.10583045778E+03 -0.50449872782E+03 -0.59185544015E+03  0.78487833719E+03  0.46999998093E+01 0.  1.
</event>
<event>
 5   0  0.8784659E-05  0.2175606E+04  0.7818609E-02  0.8528650E-01
        1   -1    0    0  501    0  0.00000000000E+00  0.00000000000E+00  0.10509941570E+04  0.10509941570E+04  0.50400001928E-02 0. -1.
       -1   -1    0    0    0  501  0.00000000000E+00  0.00000000000E+00 -0.11259014407E+04  0.11259014407E+04  0.50400001928E-02 0.  1.
    10030    2    1    2    0    0  0.00000000000E+00  0.00000000000E+00 -0.74907283701E+02  0.21768955977E+04  0.21756064309E+04 0.  0.
        4    1    3    3  502    0  0.57047800204E+03  0.72029184986E+03  0.54517029519E+03  0.10683996272E+04  0.12699999809E+01 0. -1.
       -4    1    3    3    0  502 -0.57047800204E+03 -0.72029184986E+03 -0.62007757889E+03  0.11084959705E+04  0.12699999809E+01 0.  1.
</event>
<event>
 5   0  0.8470971E-05  0.1242848E+04  0.7818609E-02  0.9076157E-01
       -1   -1    0    0    0  501  0.00000000000E+00  0.00000000000E+00  0.33892542909E+03  0.33892542912E+03  0.50400001928E-02 0.  1.
        1   -1    0    0  501    0  0.00000000000E+00  0.00000000000E+00 -0.11393879658E+04  0.11393879658E+04  0.50400001928E-02 0. -1.
    10030    2    1    2    0    0  0.00000000000E+00  0.00000000000E+00 -0.80046253671E+03  0.14783133949E+04  0.12428476258E+04 0.  0.
        2    1    3    3  502    0  0.12388682353E+03  0.51950038301E+03 -0.22330266976E+02  0.53453459553E+03  0.25500000920E-02 0.  1.
       -2    1    3    3    0  502 -0.12388682353E+03 -0.51950038301E+03 -0.77813226973E+03  0.94377879940E+03  0.25500000920E-02 0. -1.
</event>
<event>
 5   0  0.8306787E-05  0.2280090E+04  0.7818609E-02  0.8485813E-01
        1   -1    0    0  501    0  0.00000000000E+00  0.00000000000E+00  0.12008217680E+04  0.12008217681E+04  0.50400001928E-02 0.  1.
       -1   -1    0    0    0  501  0.00000000000E+00  0.00000000000E+00 -0.10823446889E+04  0.10823446889E+04  0.50400001928E-02 0. -1.
    10030    2    1    2    0    0  0.00000000000E+00  0.00000000000E+00  0.11847707912E+03  0.22831664570E+04  0.22800904044E+04 0.  0.
        1    1    3    3  502    0  0.45739693944E+03 -0.36630126436E+03 -0.91999408870E+03  0.10907693156E+04  0.50400001928E-02 0. -1.
       -1    1    3    3    0  502 -0.45739693944E+03  0.36630126436E+03  0.10384711678E+04  0.11923971414E+04  0.50400001928E-02 0.  1.
</event>
<event>
 5   0  0.7954459E-05  0.2142862E+04  0.7818609E-02  0.8542594E-01
       -1   -1    0    0    0  501  0.00000000000E+00  0.00000000000E+00  0.87996556177E+03  0.87996556178E+03  0.50400001928E-02 0. -1.
        1   -1    0    0  501    0  0.00000000000E+00  0.00000000000E+00 -0.13045564483E+04  0.13045564483E+04  0.50400001928E-02 0.  1.
    10030    2    1    2    0    0  0.00000000000E+00  0.00000000000E+00 -0.42459088654E+03  0.21845220101E+04  0.21428623361E+04 0.  0.
        5    1    3    3  502    0  0.15740987924E+03 -0.82246701751E+03 -0.89365499452E+03  0.12246922896E+04  0.46999998093E+01 0.  1.
       -5    1    3    3    0  502 -0.15740987924E+03  0.82246701751E+03  0.46906410797E+03  0.95982972050E+03  0.46999998093E+01 0. -1.
</event>
<event>
 5   0  0.1680258E-04  0.2235035E+04  0.7818609E-02  0.8503986E-01
       -2   -1    0    0    0  501  0.00000000000E+00  0.00000000000E+00  0.71457297257E+03  0.71457297257E+03  0.25500000920E-02 0. -1.
        2   -1    0    0  501    0  0.00000000000E+00  0.00000000000E+00 -0.17476805520E+04  0.17476805520E+04  0.25500000920E-02 0.  1.
    10030    2    1    2    0    0  0.00000000000E+00  0.00000000000E+00 -0.10331075794E+04  0.24622535246E+04  0.22350349323E+04 0.  0.
        5    1    3    3  502    0 -0.92726262980E+03  0.62317591068E+03 -0.54483448836E+03  0.12429927232E+04  0.46999998093E+01 0. -1.
       -5    1    3    3    0  502  0.92726262980E+03 -0.62317591068E+03 -0.48827309108E+03  0.12192608014E+04  0.46999998093E+01 0.  1.
</event>
<event>
 5   0  0.1798917E-04  0.1770030E+04  0.7818609E-02  0.8722401E-01
        2   -1    0    0  501    0  0.00000000000E+00  0.00000000000E+00  0.13633635901E+04  0.13633635901E+04  0.25500000920E-02 0.  1.
       -2   -1    0    0    0  501  0.00000000000E+00  0.00000000000E+00 -0.57449969779E+03  0.57449969780E+03  0.25500000920E-02 0. -1.
    10030    2    1    2    0    0  0.00000000000E+00  0.00000000000E+00  0.78886389227E+03  0.19378632879E+04  0.17700304749E+04 0.  0.
        4    1    3    3  502    0 -0.16324143697E+03  0.25570647071E+03 -0.51579467166E+03  0.59839729455E+03  0.12699999809E+01 0. -1.
       -4    1    3    3    0  502  0.16324143697E+03 -0.25570647071E+03  0.13046585639E+04  0.13394659933E+04  0.12699999809E+01 0.  1.
</event>
<event>
 5   0  0.7954459E-05  0.2149682E+04  0.7818609E-02  0.8539668E-01
       -1   -1    0    0    0  501  0.00000000000E+00  0.00000000000E+00  0.54721213115E+03  0.54721213117E+03  0.50400001928E-02 0. -1.
        1   -1    0    0  501    0  0.00000000000E+00  0.00000000000E+00 -0.21112161444E+04  0.21112161444E+04  0.50400001928E-02 0.  1.
    10030    2    1    2    0    0  0.00000000000E+00  0.00000000000E+00 -0.15640040133E+04  0.26584282756E+04  0.21496819167E+04 0.  0.
        5    1    3    3  502    0 -0.68843132714E+03 -0.82535538578E+03 -0.79507736653E+03  0.13369066212E+04  0.46999998093E+01 0.  1.
       -5    1    3    3    0  502  0.68843132714E+03  0.82535538578E+03 -0.76892664675E+03  0.13215216544E+04  0.46999998093E+01 0. -1.
</event>
<event>
 5   0  0.6250625E-05  0.2234327E+04  0.7818609E-02  0.8504275E-01
        3   -1    0    0  501    0  0.00000000000E+00  0.00000000000E+00  0.18559164025E+04  0.18559164053E+04  0.10100000352E+00 0. -1.
       -3   -1    0    0    0  501  0.00000000000E+00  0.00000000000E+00 -0.67247311882E+03  0.67247312640E+03  0.10100000352E+00 0.  1.
    10030    2    1    2    0    0  0.00000000000E+00  0.00000000000E+00  0.11834432837E+04  0.25283895317E+04  0.22343266588E+04 0.  0.
        5    1    3    3  502    0  0.19874819701E+03 -0.55225331450E+03  0.16673760202E+04  0.17676678003E+04  0.46999998093E+01 0. -1.
       -5    1    3    3    0  502 -0.19874819701E+03  0.55225331450E+03 -0.48393273653E+03  0.76072173143E+03  0.46999998093E+01 0.  1.
</event>
<event>
 5   0  0.1754356E-04  0.2070672E+04  0.7818609E-02  0.8574274E-01
       -2   -1    0    0    0  501  0.00000000000E+00  0.00000000000E+00  0.88999330579E+03  0.88999330579E+03  0.25500000920E-02 0. -1.
        2   -1    0    0  501    0  0.00000000000E+00  0.00000000000E+00 -0.12044147615E+04  0.12044147615E+04  0.25500000920E-02 0.  1.
    10030    2    1    2    0    0  0.00000000000E+00  0.00000000000E+00 -0.31442145570E+03  0.20944080673E+04  0.20706724271E+04 0.  0.
        1    1    3    3  502    0 -0.29287298120E+03 -0.88839405933E+03 -0.60603413956E+03  0.11145833150E+04  0.50400001928E-02 0.  1.
       -1    1    3    3    0  502  0.29287298120E+03  0.88839405933E+03  0.29161268386E+03  0.97982475228E+03  0.50400001928E-02 0. -1.
</event>
<event>
 5   0  0.1798917E-04  0.2266100E+04  0.7818609E-02  0.8491409E-01
       -2   -1    0    0    0  501  0.00000000000E+00  0.00000000000E+00  0.88916920639E+03  0.88916920639E+03  0.25500000920E-02 0.  1.
        2   -1    0    0  501    0  0.00000000000E+00  0.00000000000E+00 -0.14438224185E+04  0.14438224185E+04  0.25500000920E-02 0. -1.
    10030    2    1    2    0    0  0.00000000000E+00  0.00000000000E+00 -0.55465321208E+03  0.23329916249E+04  0.22661001161E+04 0.  0.
        4    1    3    3  502    0  0.31971130145E+03 -0.10561476195E+04 -0.54209044246E+03  0.12294416502E+04  0.12699999809E+01 0. -1.
       -4    1    3    3    0  502 -0.31971130145E+03  0.10561476195E+04 -0.12562769612E+02  0.11035499747E+04  0.12699999809E+01 0.  1.
</event>
<event>
 5   0  0.1798917E-04  0.2200105E+04  0.7818609E-02  0.8518384E-01
        2   -1    0    0  501    0  0.00000000000E+00  0.00000000000E+00  0.12646281971E+04  0.12646281971E+04  0.25500000920E-02 0.  1.
       -2   -1    0    0    0  501  0.00000000000E+00  0.00000000000E+00 -0.95689452616E+03  0.95689452616E+03  0.25500000920E-02 0. -1.
    10030    2    1    2    0    0  0.00000000000E+00  0.00000000000E+00  0.30773367097E+03  0.22215227233E+04  0.22001052697E+04 0.  0.
        4    1    3    3  502    0  0.94883057450E+03  0.46027523186E+03  0.46993387163E+03  0.11545441545E+04  0.12699999809E+01 0. -1.
       -4    1    3    3    0  502 -0.94883057450E+03 -0.46027523186E+03 -0.16220020066E+03  0.10669785687E+04  0.12699999809E+01 0.  1.
</event>
<event>
 5   0  0.8306787E-05  0.2157364E+04  0.7818609E-02  0.8536386E-01
       -1   -1    0    0    0  501  0.00000000000E+00  0.00000000000E+00  0.11555331969E+04  0.11555331969E+04  0.50400001928E-02 0.  1.
        1   -1    0    0  501    0  0.00000000000E+00  0.00000000000E+00 -0.10069423667E+04  0.10069423668E+04  0.50400001928E-02 0. -1.
    10030    2    1    2    0    0  0.00000000000E+00  0.00000000000E+00  0.14859083019E+03  0.21624755637E+04  0.21573644404E+04 0.  0.
        1    1    3    3  502    0  0.21752097220E+03 -0.45195552067E+03  0.10315323264E+04  0.11470126880E+04  0.50400001928E-02 0.  1.
       -1    1    3    3    0  502 -0.21752097220E+03  0.45195552067E+03 -0.88294149625E+03  0.10154628757E+04  0.50400001928E-02 0. -1.
</event>
<event>
 5   0  0.7954459E-05  0.2068479E+04  0.7818609E-02  0.8575257E-01
        1   -1    0    0  501    0  0.00000000000E+00  0.00000000000E+00  0.22803073419E+04  0.22803073419E+04  0.50400001928E-02 0.  1.
       -1   -1    0    0    0  501  0.00000000000E+00  0.00000000000E+00 -0.46908199971E+03  0.46908199974E+03  0.50400001928E-02 0. -1.
    10030    2    1    2    0    0  0.00000000000E+00  0.00000000000E+00  0.18112253421E+04  0.27493893416E+04  0.20684787917E+04 0.  0.
        5    1    3    3  502    0 -0.38588964072E+03 -0.50438855128E+03  0.19905970172E+04  0.20894538044E+04  0.46999998093E+01 0.  1.
       -5    1    3    3    0  502  0.38588964072E+03  0.50438855128E+03 -0.17937167510E+03  0.65993553724E+03  0.46999998093E+01 0. -1.
</event>
<event>
 5   0  0.8602414E-05  0.2158791E+04  0.7818609E-02  0.8535779E-01
       -1   -1    0    0    0  501  0.00000000000E+00  0.00000000000E+00  0.74907478198E+03  0.74907478199E+03  0.50400001928E-02 0.  1.
        1   -1    0    0  501    0  0.00000000000E+00  0.00000000000E+00 -0.15553776919E+04  0.15553776919E+04  0.50400001928E-02 0. -1.
    10030    2    1    2    0    0  0.00000000000E+00  0.00000000000E+00 -0.80630290995E+03  0.23044524739E+04  0.21587905924E+04 0.  0.
        3    1    3    3  502    0 -0.25602803155E+02 -0.97796827032E+03  0.83711125505E+02  0.98187830407E+03  0.10100000352E+00 0. -1.
       -3    1    3    3    0  502  0.25602803155E+02  0.97796827032E+03 -0.89001403546E+03  0.13225741699E+04  0.10100000352E+00 0.  1.
</event>
<event>
 5   0  0.1754356E-04  0.2176341E+04  0.7818609E-02  0.8528340E-01
        2   -1    0    0  501    0  0.00000000000E+00  0.00000000000E+00  0.10444001101E+04  0.10444001101E+04  0.25500000920E-02 0.  1.
       -2   -1    0    0    0  501  0.00000000000E+00  0.00000000000E+00 -0.11337754129E+04  0.11337754129E+04  0.25500000920E-02 0. -1.
    10030    2    1    2    0    0  0.00000000000E+00  0.00000000000E+00 -0.89375302843E+02  0.21781755231E+04  0.21763411186E+04 0.  0.
        1    1    3    3  502    0  0.19552342781E+03 -0.10405274099E+04  0.20689738524E+03  0.10787646775E+04  0.50400001928E-02 0.  1.
       -1    1    3    3    0  502 -0.19552342781E+03  0.10405274099E+04 -0.29627268809E+03  0.10994108455E+04  0.50400001928E-02 0. -1.
</event>
<event>
 5   0  0.8784659E-05  0.2414615E+04  0.7818609E-02  0.8434052E-01
       -1   -1    0    0    0  501  0.00000000000E+00  0.00000000000E+00  0.90431012670E+03  0.90431012671E+03  0.50400001928E-02 0. -1.
        1   -1    0    0  501    0  0.00000000000E+00  0.00000000000E+00 -0.16118273449E+04  0.16118273449E+04  0.50400001928E-02 0.  1.
    10030    2    1    2    0    0  0.00000000000E+00  0.00000000000E+00 -0.70751721816E+03  0.25161374716E+04  0.24146153238E+04 0.  0.
        4    1    3    3  502    0 -0.19349135527E+03 -0.41632394091E+03  0.80980271445E+03  0.93088483583E+03  0.12699999809E+01 0. -1.
       -4    1    3    3    0  502  0.19349135527E+03  0.41632394091E+03 -0.15173199326E+04  0.15852526357E+04  0.12699999809E+01 0.  1.
</event>
<event>
 5   0  0.1733962E-04  0.2180769E+04  0.7818609E-02  0.8526475E-01
        2   -1    0    0  501    0  0.00000000000E+00  0.00000000000E+00  0.14853164840E+04  0.14853164840E+04  0.25500000920E-02 0. -1.
       -2   -1    0    0    0  501  0.00000000000E+00  0.00000000000E+00 -0.80046125494E+03  0.80046125495E+03  0.25500000920E-02 0.  1.
    10030    2    1    2    0    0  0.00000000000E+00  0.00000000000E+00  0.68485522909E+03  0.22857777390E+04  0.21807689440E+04 0.  0.
        3    1    3    3  502    0 -0.12278619672E+03 -0.41460395835E+03 -0.70675408342E+03  0.82853740834E+03  0.10100000352E+00 0.  1.
       -3    1    3    3    0  502  0.12278619672E+03  0.41460395835E+03  0.13916093125E+04  0.14572403306E+04  0.10100000352E+00 0. -1.
</event>
<event>
 5   0  0.7954459E-05  0.2188366E+04  0.7818609E-02  0.8523286E-01
        1   -1    0    0  501    0  0.00000000000E+00  0.00000000000E+00  0.12317882772E+04  0.12317882772E+04  0.50400001928E-02 0.  1.
       -1   -1    0    0    0  501  0.00000000000E+00  0.00000000000E+00 -0.97194964103E+03  0.97194964104E+03  0.50400001928E-02 0. -1.
    10030    2    1    2    0    0  0.00000000000E+00  0.00000000000E+00  0.25983863619E+03  0.22037379183E+04  0.21883657591E+04 0.  0.
        5    1    3    3  502    0 -0.50738550565E+03 -0.50235788229E+03 -0.70500698474E+03  0.10034243528E+04  0.46999998093E+01 0. -1.
       -5    1    3    3    0  502  0.50738550565E+03  0.50235788229E+03  0.96484562093E+03  0.12003135655E+04  0.46999998093E+01 0.  1.
</event>
<event>
 5   0  0.1733962E-04  0.2155710E+04  0.7818609E-02  0.8537092E-01
       -2   -1    0    0    0  501  0.00000000000E+00  0.00000000000E+00  0.77956607062E+03  0.77956607062E+03  0.25500000920E-02 0. -1.
        2   -1    0    0  501    0  0.00000000000E+00  0.00000000000E+00 -0.14902794362E+04  0.14902794362E+04  0.25500000920E-02 0.  1.
    10030    2    1    2    0    0  0.00000000000E+00  0.00000000000E+00 -0.71071336556E+03  0.22698455068E+04  0.21557098916E+04 0.  0.
        3    1    3    3  502    0 -0.38659457627E+03  0.72680108471E+03  0.37723637786E+03  0.90553988212E+03  0.10100000352E+00 0. -1.
       -3    1    3    3    0  502  0.38659457627E+03 -0.72680108471E+03 -0.10879497434E+04  0.13643056247E+04  0.10100000352E+00 0.  1.
</event>
<event>
 5   0  0.1754356E-04  0.2213256E+04  0.7818609E-02  0.8512931E-01
        2   -1    0    0  501    0  0.00000000000E+00  0.00000000000E+00  0.16966835145E+04  0.16966835145E+04  0.25500000920E-02 0. -1.
       -2   -1    0    0    0  501  0.00000000000E+00  0.00000000000E+00 -0.72177607702E+03  0.72177607702E+03  0.25500000920E-02 0.  1.
    10030    2    1    2    0    0  0.00000000000E+00  0.00000000000E+00  0.97490743751E+03  0.24184595916E+04  0.22132560368E+04 0.  0.
        1    1    3    3  502    0 -0.10440110442E+04  0.15597209370E+03  0.85042488431E+03  0.13555474312E+04  0.50400001928E-02 0. -1.
       -1    1    3    3    0  502  0.10440110442E+04 -0.15597209370E+03  0.12448255320E+03  0.10629121603E+04  0.50400001928E-02 0.  1.
</event>
<event>
 5   0  0.7954459E-05  0.2014777E+04  0.7818609E-02  0.8599743E-01
        1   -1    0    0  501    0  0.00000000000E+00  0.00000000000E+00  0.12938835696E+04  0.12938835696E+04  0.50400001928E-02 0. -1.
       -1   -1    0    0    0  501  0.00000000000E+00  0.00000000000E+00 -0.78432982460E+03  0.78432982462E+03  0.50400001928E-02 0.  1.
    10030    2    1    2    0    0  0.00000000000E+00  0.00000000000E+00  0.50955374502E+03  0.20782133943E+04  0.20147768842E+04 0.  0.
        5    1    3    3  502    0 -0.76343505332E+03 -0.24972860984E+03  0.88187595714E+03  0.11928640966E+04  0.46999998093E+01 0. -1.
       -5    1    3    3    0  502  0.76343505332E+03  0.24972860984E+03 -0.37232221211E+03  0.88534929764E+03  0.46999998093E+01 0.  1.
</event>
<event>
 5   0  0.8470971E-05  0.2132320E+04  0.7818609E-02  0.8547138E-01
        1   -1    0    0  501    0  0.00000000000E+00  0.00000000000E+00  0.13142509205E+04  0.13142509206E+04  0.50400001928E-02 0. -1.
       -1   -1    0    0    0  501  0.00000000000E+00  0.00000000000E+00 -0.86490133225E+03  0.86490133226E+03  0.50400001928E-02 0.  1.
    10030    2    1    2    0    0  0.00000000000E+00  0.00000000000E+00  0.44934958830E+03  0.21791522528E+04  0.21323202125E+04 0.  0.
        2    1    3    3  502    0  0.45873188138E+03 -0.93780918617E+03  0.44570334614E+03  0.11351530652E+04  0.25500000920E-02 0. -1.
       -2    1    3    3    0  502 -0.45873188138E+03  0.93780918617E+03  0.36462421582E+01  0.10439991876E+04  0.25500000920E-02 0.  1.
</event>
<event>
 5   0  0.1805501E-04  0.2210981E+04  0.7818609E-02  0.8513871E-01
        2   -1    0    0  501    0  0.00000000000E+00  0.00000000000E+00  0.21856875545E+04  0.21856875545E+04  0.25500000920E-02 0.  1.
       -2   -1    0    0    0  501  0.00000000000E+00  0.00000000000E+00 -0.55914177675E+03  0.55914177675E+03  0.25500000920E-02 0. -1.
    10030    2    1    2    0    0  0.00000000000E+00  0.00000000000E+00  0.16265457778E+04  0.27448293313E+04  0.22109809793E+04 0.  0.
        2    1    3    3  502    0  0.74131530219E+03  0.20732948225E+03 -0.17176784682E+03  0.78869391064E+03  0.25500000920E-02 0. -1.
       -2    1    3    3    0  502 -0.74131530219E+03 -0.20732948225E+03  0.17983136246E+04  0.19561354206E+04  0.25500000920E-02 0.  1.
</event>
<event>
 5   0  0.1805501E-04  0.2207753E+04  0.7818609E-02  0.8515208E-01
       -2   -1    0    0    0  501  0.00000000000E+00  0.00000000000E+00  0.73159200214E+03  0.73159200214E+03  0.25500000920E-02 0.  1.
        2   -1    0    0  501    0  0.00000000000E+00  0.00000000000E+00 -0.16656046131E+04  0.16656046131E+04  0.25500000920E-02 0. -1.
    10030    2    1    2    0    0  0.00000000000E+00  0.00000000000E+00 -0.93401261092E+03  0.23971966152E+04  0.22077527159E+04 0.  0.
        2    1    3    3  502    0 -0.60179261170E+03  0.65760713117E+03  0.23997219694E+03  0.92314036948E+03  0.25500000920E-02 0.  1.
       -2    1    3    3    0  502  0.60179261170E+03 -0.65760713117E+03 -0.11739848079E+04  0.14740562457E+04  0.25500000920E-02 0. -1.
</event>
<event>
 5   0  0.8602414E-05  0.2207871E+04  0.7818609E-02  0.8515159E-01
        1   -1    0    0  501    0  0.00000000000E+00  0.00000000000E+00  0.17381759165E+04  0.17381759165E+04  0.50400001928E-02 0.  1.
       -1   -1    0    0    0  501  0.00000000000E+00  0.00000000000E+00 -0.70112217872E+03  0.70112217874E+03  0.50400001928E-02 0. -1.
    10030    2    1    2    0    0  0.00000000000E+00  0.00000000000E+00  0.10370537377E+04  0.24392980952E+04  0.22078710883E+04 0.  0.
        3    1    3    3  502    0 -0.10731310712E+04  0.18697089552E+03  0.71648770694E+03  0.13038109741E+04  0.10100000352E+00 0.  1.
       -3    1    3    3    0  502  0.10731310712E+04 -0.18697089552E+03  0.32056603081E+03  0.11354871211E+04  0.10100000352E+00 0. -1.
</event>
<event>
 5   0  0.8470971E-05  0.2126641E+04  0.7818609E-02  0.8549598E-01
        1   -1    0    0  501    0  0.00000000000E+00  0.00000000000E+00  0.11460971292E+04  0.11460971292E+04  0.50400001928E-02 0. -1.
       -1   -1    0    0    0  501  0.00000000000E+00  0.00000000000E+00 -0.98652268089E+03  0.98652268090E+03  0.50400001928E-02 0.  1.
    10030    2    1    2    0    0  0.00000000000E+00  0.00000000000E+00  0.15957444831E+03  0.21326198101E+04  0.21266413073E+04 0.  0.
        2    1    3    3  502    0 -0.90668437931E+03 -0.53274052099E+03  0.23758837913E+03  0.10781174631E+04  0.25500000920E-02 0. -1.
       -2    1    3    3    0  502  0.90668437931E+03  0.53274052099E+03 -0.78013930819E+02  0.10545023470E+04  0.25500000920E-02 0.  1.
</event>
<event>
 5   0  0.1754356E-04  0.2063153E+04  0.7818609E-02  0.8577651E-01
        2   -1    0    0  501    0  0.00000000000E+00  0.00000000000E+00  0.27750902488E+04  0.27750902488E+04  0.25500000920E-02 0. -1.
       -2   -1    0    0    0  501  0.00000000000E+00  0.00000000000E+00 -0.38346484883E+03  0.38346484884E+03  0.25500000920E-02 0.  1.
    10030    2    1    2    0    0  0.00000000000E+00  0.00000000000E+00  0.23916253999E+04  0.31585550976E+04  0.20631525031E+04 0.  0.
        1    1    3    3  502    0  0.51226446910E+03 -0.80018145543E+03  0.58068043957E+03  0.11135057345E+04  0.50400001928E-02 0.  1.
       -1    1    3    3    0  502 -0.51226446910E+03  0.80018145543E+03  0.18109449604E+04  0.20450493631E+04  0.50400001928E-02 0. -1.
</event>
<event>
 5   0  0.8784659E-05  0.2126309E+04  0.7818609E-02  0.8549742E-01
        1   -1    0    0  501    0  0.00000000000E+00  0.00000000000E+00  0.91433076965E+03  0.91433076966E+03  0.50400001928E-02 0.  1.
       -1   -1    0    0    0  501  0.00000000000E+00  0.00000000000E+00 -0.12362021772E+04  0.12362021772E+04  0.50400001928E-02 0. -1.
    10030    2    1    2    0    0  0.00000000000E+00  0.00000000000E+00 -0.32187140755E+03  0.21505329469E+04  0.21263091856E+04 0.  0.
        4    1    3    3  502    0 -0.36993748587E+03 -0.56581417108E+03 -0.99083025613E+03  0.11994772316E+04  0.12699999809E+01 0. -1.
       -4    1    3    3    0  502  0.36993748587E+03  0.56581417108E+03  0.66895884858E+03  0.95105571532E+03  0.12699999809E+01 0.  1.
</event>
<event>
 5   0  0.1754356E-04  0.2225355E+04  0.7818609E-02  0.8507948E-01
       -2   -1    0    0    0  501  0.00000000000E+00  0.00000000000E+00  0.15358166785E+04  0.15358166785E+04  0.25500000920E-02 0. -1.
        2   -1    0    0  501    0  0.00000000000E+00  0.00000000000E+00 -0.80611944887E+03  0.80611944887E+03  0.25500000920E-02 0.  1.
    10030    2    1    2    0    0  0.00000000000E+00  0.00000000000E+00  0.72969722966E+03  0.23419361274E+04  0.22253554273E+04 0.  0.
        1    1    3    3  502    0 -0.20813727875E+03 -0.82374530636E+03 -0.39124195892E+03  0.93538640518E+03  0.50400001928E-02 0.  1.
       -1    1    3    3    0  502  0.20813727875E+03  0.82374530636E+03  0.11209391886E+04  0.14065497222E+04  0.50400001928E-02 0. -1.
</event>
<event>
 5   0  0.8306787E-05  0.1769307E+04  0.7818609E-02  0.8722794E-01
        1   -1    0    0  501    0  0.00000000000E+00  0.00000000000E+00  0.10794989526E+04  0.10794989526E+04  0.50400001928E-02 0.  1.
       -1   -1    0    0    0  501  0.00000000000E+00  0.00000000000E+00 -0.72497704968E+03  0.72497704970E+03  0.50400001928E-02 0. -1.
    10030    2    1    2    0    0  0.00000000000E+00  0.00000000000E+00  0.35452190288E+03  0.18044760023E+04  0.17693071704E+04 0.  0.
        1    1    3    3  502    0  0.19334999739E+03 -0.54342440101E+03  0.86135276857E+03  0.10366401946E+04  0.50400001928E-02 0.  1.
       -1    1    3    3    0  502 -0.19334999739E+03  0.54342440101E+03 -0.50683086569E+03  0.76783580767E+03  0.50400001928E-02 0. -1.
</event>
<event>
 5   0  0.1798917E-04  0.2378361E+04  0.7818609E-02  0.8447650E-01
       -2   -1    0    0    0  501  0.00000000000E+00  0.00000000000E+00  0.49960002298E+03  0.49960002299E+03  0.25500000920E-02 0.  1.
        2   -1    0    0  501    0  0.00000000000E+00  0.00000000000E+00 -0.28305651878E+04  0.28305651878E+04  0.25500000920E-02 0. -1.
    10030    2    1    2    0    0  0.00000000000E+00  0.00000000000E+00 -0.23309651648E+04  0.33301652108E+04  0.23783611441E+04 0.  0.
        4    1    3    3  502    0 -0.71659607400E+03 -0.33187989733E+03 -0.24103910986E+04  0.25364623121E+04  0.12699999809E+01 0. -1.
       -4    1    3    3    0  502  0.71659607400E+03  0.33187989733E+03  0.79425933797E+02  0.79370289869E+03  0.12699999809E+01 0.  1.
</event>
<event>
 5   0  0.6250625E-05  0.1914012E+04  0.7818609E-02  0.8647913E-01
       -3   -1    0    0    0  501  0.00000000000E+00  0.00000000000E+00  0.91910066608E+03  0.91910067163E+03  0.10100000352E+00 0.  1.
        3   -1    0    0  501    0  0.00000000000E+00  0.00000000000E+00 -0.99647412233E+03  0.99647412745E+03  0.10100000352E+00 0. -1.
    10030    2    1    2    0    0  0.00000000000E+00  0.00000000000E+00 -0.77373456252E+02  0.19155747991E+04  0.19140115358E+04 0.  0.
        3    1    3    3  502    0  0.10213781921E+03  0.23843681105E+03  0.88324737593E+03  0.92054884947E+03  0.10100000352E+00 0.  1.
       -3    1    3    3    0  502 -0.10213781921E+03 -0.23843681105E+03 -0.96062083218E+03  0.99502594961E+03  0.10100000352E+00 0. -1.
</event>
<event>
 5   0  0.1733962E-04  0.1707725E+04  0.7818609E-02  0.8756971E-01
       -2   -1    0    0    0  501  0.00000000000E+00  0.00000000000E+00  0.10141881048E+04  0.10141881048E+04  0.25500000920E-02 0.  1.
        2   -1    0    0  501    0  0.00000000000E+00  0.00000000000E+00 -0.71888187356E+03  0.71888187356E+03  0.25500000920E-02 0. -1.
    10030    2    1    2    0    0  0.00000000000E+00  0.00000000000E+00  0.29530623128E+03  0.17330699784E+04  0.17077253233E+04 0.  0.
        3    1    3    3  502    0 -0.54806496029E+03 -0.31506525550E+03 -0.43483400030E+03  0.76728217361E+03  0.10100000352E+00 0. -1.
       -3    1    3    3    0  502  0.54806496029E+03  0.31506525550E+03  0.73014023158E+03  0.96578780480E+03  0.10100000352E+00 0.  1.
</event>
<event>
 5   0  0.1805501E-04  0.2233322E+04  0.7818609E-02  0.8504685E-01
        2   -1    0    0  501    0  0.00000000000E+00  0.00000000000E+00  0.12320660577E+04  0.12320660578E+04  0.25500000920E-02 0.  1.
       -2   -1    0    0    0  501  0.00000000000E+00  0.00000000000E+00 -0.10120656001E+04  0.10120656001E+04  0.25500000920E-02 0. -1.
    10030    2    1    2    0    0  0.00000000000E+00  0.00000000000E+00  0.22000045766E+03  0.22441316578E+04  0.22333218972E+04 0.  0.
        2    1    3    3  502    0 -0.10610821971E+04 -0.17171386403E+03 -0.19403757838E+03  0.10922598875E+04  0.25500000920E-02 0. -1.
       -2    1    3    3    0  502  0.10610821971E+04  0.17171386403E+03  0.41403803604E+03  0.11518717703E+04  0.25500000920E-02 0.  1.
</event>
<event>
 5   0  0.1754356E-04  0.2245774E+04  0.7818609E-02  0.8499614E-01
       -2   -1    0    0    0  501  0.00000000000E+00  0.00000000000E+00  0.24909574468E+04  0.24909574468E+04  0.25500000920E-02 0.  1.
        2   -1    0    0  501    0  0.00000000000E+00  0.00000000000E+00 -0.50618114966E+03  0.50618114967E+03  0.25500000920E-02 0. -1.
    10030    2    1    2    0    0  0.00000000000E+00  0.00000000000E+00  0.19847762971E+04  0.29971385964E+04  0.22457744358E+04 0.  0.
        1    1    3    3  502    0 -0.10155338247E+04  0.47437567680E+03  0.10822559399E+04  0.15580818821E+04  0.50400001928E-02 0. -1.
       -1    1    3    3    0  502  0.10155338247E+04 -0.47437567680E+03  0.90252035719E+03  0.14390567143E+04  0.50400001928E-02 0.  1.
</event>
<event>
 5   0  0.8470971E-05  0.2067948E+04  0.7818609E-02  0.8575495E-01
       -1   -1    0    0    0  501  0.00000000000E+00  0.00000000000E+00  0.76874731574E+03  0.76874731575E+03  0.50400001928E-02 0.  1.
        1   -1    0    0  501    0  0.00000000000E+00  0.00000000000E+00 -0.13907071303E+04  0.13907071303E+04  0.50400001928E-02 0. -1.
    10030    2    1    2    0    0  0.00000000000E+00  0.00000000000E+00 -0.62195981458E+03  0.21594544461E+04  0.20679481361E+04 0.  0.
        2    1    3    3  502    0  0.60984455000E+03  0.36944350400E+03  0.47095578300E+03  0.85451637044E+03  0.25500000920E-02 0.  1.
       -2    1    3    3    0  502 -0.60984455000E+03 -0.36944350400E+03 -0.10929155976E+04  0.13049380756E+04  0.25500000920E-02 0. -1.
</event>
<event>
 5   0  0.1805501E-04  0.1104467E+04  0.7818609E-02  0.9200849E-01
       -2   -1    0    0    0  501  0.00000000000E+00  0.00000000000E+00  0.35816249741E+03  0.35816249742E+03  0.25500000920E-02 0.  1.
        2   -1    0    0  501    0  0.00000000000E+00  0.00000000000E+00 -0.85146170794E+03  0.85146170794E+03  0.25500000920E-02 0. -1.
    10030    2    1    2    0    0  0.00000000000E+00  0.00000000000E+00 -0.49329921053E+03  0.12096242054E+04  0.11044666618E+04 0.  0.
        2    1    3    3  502    0  0.13445876983E+03  0.48265818424E+03 -0.50097350161E+03  0.70852842774E+03  0.25500000920E-02 0. -1.
       -2    1    3    3    0  502 -0.13445876983E+03 -0.48265818424E+03  0.76742910822E+01  0.50109577762E+03  0.25500000920E-02 0.  1.
</event>
<event>
 5   0  0.7954459E-05  0.2185733E+04  0.7818609E-02  0.8524390E-01
       -1   -1    0    0    0  501  0.00000000000E+00  0.00000000000E+00  0.73698933552E+03  0.73698933554E+03  0.50400001928E-02 0.  1.
        1   -1    0    0  501    0  0.00000000000E+00  0.00000000000E+00 -0.16205889703E+04  0.16205889703E+04  0.50400001928E-02 0. -1.
    10030    2    1    2    0    0  0.00000000000E+00  0.00000000000E+00 -0.88359963476E+03  0.23575783058E+04  0.21857326354E+04 0.  0.
        5    1    3    3  502    0 -0.45567870350E+03 -0.21590001385E+03  0.60400640029E+03  0.78683017125E+03  0.46999998093E+01 0.  1.
       -5    1    3    3    0  502  0.45567870350E+03  0.21590001385E+03 -0.14876060351E+04  0.15707481346E+04  0.46999998093E+01 0. -1.
</event>
<event>
 5   0  0.8784659E-05  0.2018996E+04  0.7818609E-02  0.8597791E-01
       -1   -1    0    0    0  501  0.00000000000E+00  0.00000000000E+00  0.57263510002E+03  0.57263510005E+03  0.50400001928E-02 0. -1.
        1   -1    0    0  501    0  0.00000000000E+00  0.00000000000E+00 -0.17796431859E+04  0.17796431859E+04  0.50400001928E-02 0.  1.
    10030    2    1    2    0    0  0.00000000000E+00  0.00000000000E+00 -0.12070080859E+04  0.23522782860E+04  0.20189959423E+04 0.  0.
        4    1    3    3  502    0 -0.60481364755E+02  0.87316992437E+03 -0.17481631450E+02  0.87543756639E+03  0.12699999809E+01 0. -1.
       -4    1    3    3    0  502  0.60481364755E+02 -0.87316992437E+03 -0.11895264544E+04  0.14768407196E+04  0.12699999809E+01 0.  1.
</event>
<event>
 5   0  0.8470971E-05  0.2179072E+04  0.7818609E-02  0.8527190E-01
       -1   -1    0    0    0  501  0.00000000000E+00  0.00000000000E+00  0.97790048818E+03  0.97790048820E+03  0.50400001928E-02 0.  1.
        1   -1    0    0  501    0  0.00000000000E+00  0.00000000000E+00 -0.12139158454E+04  0.12139158454E+04  0.50400001928E-02 0. -1.
    10030    2    1    2    0    0  0.00000000000E+00  0.00000000000E+00 -0.23601535720E+03  0.21918163336E+04  0.21790721859E+04 0.  0.
        2    1    3    3  502    0  0.34324158135E+03  0.86429606916E+03 -0.68901288568E+03  0.11573941571E+04  0.25500000920E-02 0. -1.
       -2    1    3    3    0  502 -0.34324158135E+03 -0.86429606916E+03  0.45299752848E+03  0.10344221765E+04  0.25500000920E-02 0.  1.
</event>
<event>
 5   0  0.7954459E-05  0.2042528E+04  0.7818609E-02  0.8586992E-01
        1   -1    0    0  501    0  0.00000000000E+00  0.00000000000E+00  0.10894357798E+04  0.10894357798E+04  0.50400001928E-02 0.  1.
       -1   -1    0    0    0  501  0.00000000000E+00  0.00000000000E+00 -0.95735783065E+03  0.95735783066E+03  0.50400001928E-02 0. -1.
    10030    2    1    2    0    0  0.00000000000E+00  0.00000000000E+00  0.13207794911E+03  0.20467936104E+04  0.20425277230E+04 0.  0.
        5    1    3    3  502    0  0.78772002716E+03  0.44351820891E+03 -0.41008126766E+03  0.99267314808E+03  0.46999998093E+01 0. -1.
       -5    1    3    3    0  502 -0.78772002716E+03 -0.44351820891E+03  0.54215921678E+03  0.10541204624E+04  0.46999998093E+01 0.  1.
</event>
<event>
 5   0  0.1733962E-04  0.1850735E+04  0.7818609E-02  0.8679775E-01
        2   -1    0    0  501    0  0.00000000000E+00  0.00000000000E+00  0.10356314911E+04  0.10356314911E+04  0.25500000920E-02 0.  1.
       -2   -1    0    0    0  501  0.00000000000E+00  0.00000000000E+00 -0.82684342512E+03  0.82684342512E+03  0.25500000920E-02 0. -1.
    10030    2    1    2    0    0  0.00000000000E+00  0.00000000000E+00  0.20878806602E+03  0.18624749163E+04  0.18507350856E+04 0.  0.
        3    1    3    3  502    0  0.62688753691E+02  0.65887187931E+03 -0.54644100005E+03  0.85827723372E+03  0.10100000352E+00 0. -1.
       -3    1    3    3    0  502 -0.62688753691E+02 -0.65887187931E+03  0.75522906608E+03  0.10041976825E+04  0.10100000352E+00 0.  1.
</event>
<event>
 5   0  0.1798917E-04  0.2232141E+04  0.7818609E-02  0.8505168E-01
       -2   -1    0    0    0  501  0.00000000000E+00  0.00000000000E+00  0.77102406397E+03  0.77102406398E+03  0.25500000920E-02 0. -1.
        2   -1    0    0  501    0  0.00000000000E+00  0.00000000000E+00 -0.16155313387E+04  0.16155313387E+04  0.25500000920E-02 0.  1.
    10030    2    1    2    0    0  0.00000000000E+00  0.00000000000E+00 -0.84450727476E+03  0.23865554027E+04  0.22321411589E+04 0.  0.
        4    1    3    3  502    0 -0.58815360212E+03 -0.66798580036E+03 -0.11422495069E+04  0.14480556750E+04  0.12699999809E+01 0.  1.
       -4    1    3    3    0  502  0.58815360212E+03  0.66798580036E+03  0.29774223211E+03  0.93849972768E+03  0.12699999809E+01 0. -1.
</event>
<event>
 5   0  0.1680258E-04  0.2127856E+04  0.7818609E-02  0.8549071E-01
       -2   -1    0    0    0  501  0.00000000000E+00  0.00000000000E+00  0.44344878196E+03  0.44344878197E+03  0.25500000920E-02 0. -1.
        2   -1    0    0  501    0  0.00000000000E+00  0.00000000000E+00 -0.25525897055E+04  0.25525897055E+04  0.25500000920E-02 0.  1.
    10030    2    1    2    0    0  0.00000000000E+00  0.00000000000E+00 -0.21091409236E+04  0.29960384875E+04  0.21278560062E+04 0.  0.
        5    1    3    3  502    0  0.44036294454E+03  0.90231663788E+03 -0.15500330224E+04  0.18468132819E+04  0.46999998093E+01 0.  1.
       -5    1    3    3    0  502 -0.44036294454E+03 -0.90231663788E+03 -0.55910790122E+03  0.11492252056E+04  0.46999998093E+01 0. -1.
</event>
<event>
 5   0  0.8470971E-05  0.2100793E+04  0.7818609E-02  0.8560894E-01
       -1   -1    0    0    0  501  0.00000000000E+00  0.00000000000E+00  0.99070102881E+03  0.99070102882E+03  0.50400001928E-02 0.  1.
        1   -1    0    0  501    0  0.00000000000E+00  0.00000000000E+00 -0.11136884498E+04  0.11136884498E+04  0.50400001928E-02 0. -1.
    10030    2    1    2    0    0  0.00000000000E+00  0.00000000000E+00 -0.12298742099E+03  0.21043894786E+04  0.21007925105E+04 0.  0.
        2    1    3    3  502    0  0.11929053966E+03  0.10434006003E+04 -0.41032097899E+02  0.10509988956E+04  0.25500000920E-02 0.  1.
       -2    1    3    3    0  502 -0.11929053966E+03 -0.10434006003E+04 -0.81955323091E+02  0.10533905830E+04  0.25500000920E-02 0. -1.
</event>
<event>
 5   0  0.6250625E-05  0.2186506E+04  0.7818609E-02  0.8524066E-01
        4   -1    0    0  501    0  0.00000000000E+00  0.00000000000E+00  0.16016438125E+04  0.16016443160E+04  0.12699999809E+01 0. -1.
       -4   -1    0    0    0  501  0.00000000000E+00  0.00000000000E+00 -0.74623332588E+03  0.74623440657E+03  0.12699999809E+01 0.  1.
    10030    2    1    2    0    0  0.00000000000E+00  0.00000000000E+00  0.85541048660E+03  0.23478787226E+04  0.21865057501E+04 0.  0.
        3    1    3    3  502    0 -0.46260370897E+03 -0.96870704302E+03  0.20553855466E+03  0.10929966305E+04  0.10100000352E+00 0.  1.
       -3    1    3    3    0  502  0.46260370897E+03  0.96870704302E+03  0.64987193194E+03  0.12548820920E+04  0.10100000352E+00 0. -1.
</event>
<event>
 5   0  0.6250625E-05  0.2207116E+04  0.7818609E-02  0.8515472E-01
        3   -1    0    0  501    0  0.00000000000E+00  0.00000000000E+00  0.13492263911E+04  0.13492263949E+04  0.10100000352E+00 0.  1.
       -3   -1    0    0    0  501  0.00000000000E+00  0.00000000000E+00 -0.90262145696E+03  0.90262146261E+03  0.10100000352E+00 0. -1.
    10030    2    1    2    0    0  0.00000000000E+00  0.00000000000E+00  0.44660493418E+03  0.22518478575E+04  0.22071164007E+04 0.  0.
        3    1    3    3  502    0 -0.17904120402E+02 -0.73128493220E+03  0.10663309926E+04  0.12931202595E+04  0.10100000352E+00 0.  1.
       -3    1    3    3    0  502  0.17904120402E+02  0.73128493220E+03 -0.61972605839E+03  0.95872759803E+03  0.10100000352E+00 0. -1.
</event>
<event>
 5   0  0.8784659E-05  0.2320463E+04  0.7818609E-02  0.8469896E-01
       -1   -1    0    0    0  501  0.00000000000E+00  0.00000000000E+00  0.66126825252E+03  0.66126825253E+03  0.50400001928E-02 0. -1.
        1   -1    0    0  501    0  0.00000000000E+00  0.00000000000E+00 -0.20356907519E+04  0.20356907519E+04  0.50400001928E-02 0.  1.
    10030    2    1    2    0    0  0.00000000000E+00  0.00000000000E+00 -0.13744224994E+04  0.26969590044E+04  0.23204634591E+04 0.  0.
        4    1    3    3  502    0  0.84670365912E+03 -0.72338553492E+03 -0.10655095422E+04  0.15412676328E+04  0.12699999809E+01 0.  1.
       -4    1    3    3    0  502 -0.84670365912E+03  0.72338553492E+03 -0.30891295719E+03  0.11556913716E+04  0.12699999809E+01 0. -1.
</event>
<event>
 5   0  0.8602414E-05  0.2191620E+04  0.7818609E-02  0.8521924E-01
       -1   -1    0    0    0  501  0.00000000000E+00  0.00000000000E+00  0.10082024472E+04  0.10082024472E+04  0.50400001928E-02 0.  1.
        1   -1    0    0  501    0  0.00000000000E+00  0.00000000000E+00 -0.11910296598E+04  0.11910296598E+04  0.50400001928E-02 0. -1.
    10030    2    1    2    0    0  0.00000000000E+00  0.00000000000E+00 -0.18282721262E+03  0.21992321069E+04  0.21916195086E+04 0.  0.
        3    1    3    3  502    0  0.39803198255E+03 -0.46647450036E+03  0.81991000834E+03  0.10238556298E+04  0.10100000352E+00 0.  1.
       -3    1    3    3    0  502 -0.39803198255E+03  0.46647450036E+03 -0.10027372210E+04  0.11753764772E+04  0.10100000352E+00 0. -1.
</event>
<event>
 5   0  0.1798917E-04  0.2067767E+04  0.7818609E-02  0.8575577E-01
        2   -1    0    0  501    0  0.00000000000E+00  0.00000000000E+00  0.18819737017E+04  0.18819737017E+04  0.25500000920E-02 0.  1.
       -2   -1    0    0    0  501  0.00000000000E+00  0.00000000000E+00 -0.56797555410E+03  0.56797555411E+03  0.25500000920E-02 0. -1.
    10030    2    1    2    0    0  0.00000000000E+00  0.00000000000E+00  0.13139981476E+04  0.24499492558E+04  0.20677669656E+04 0.  0.
        4    1    3    3  502    0  0.51750993958E+03 -0.24739092515E+02  0.17170630194E+04  0.17935260204E+04  0.12699999809E+01 0.  1.
       -4    1    3    3    0  502 -0.51750993958E+03  0.24739092515E+02 -0.40306487179E+03  0.65642323545E+03  0.12699999809E+01 0. -1.
</event>
<event>
 5   0  0.1680258E-04  0.2200366E+04  0.7818609E-02  0.8518276E-01
       -2   -1    0    0    0  501  0.00000000000E+00  0.00000000000E+00  0.52515350515E+03  0.52515350516E+03  0.25500000920E-02 0. -1.
        2   -1    0    0  501    0  0.00000000000E+00  0.00000000000E+00 -0.23048546554E+04  0.23048546554E+04  0.25500000920E-02 0.  1.
    10030    2    1    2    0    0  0.00000000000E+00  0.00000000000E+00 -0.17797011502E+04  0.28300081605E+04  0.22003658797E+04 0.  0.
        5    1    3    3  502    0 -0.64354773033E+03 -0.78301055897E+03 -0.14402298760E+04  0.17611199284E+04  0.46999998093E+01 0.  1.
       -5    1    3    3    0  502  0.64354773033E+03  0.78301055897E+03 -0.33947127424E+03  0.10688882321E+04  0.46999998093E+01 0. -1.
</event>
<event>
 5   0  0.7954459E-05  0.2182376E+04  0.7818609E-02  0.8525800E-01
       -1   -1    0    0    0  501  0.00000000000E+00  0.00000000000E+00  0.11686165440E+04  0.11686165441E+04  0.50400001928E-02 0. -1.
        1   -1    0    0  501    0  0.00000000000E+00  0.00000000000E+00 -0.10188896526E+04  0.10188896526E+04  0.50400001928E-02 0.  1.
    10030    2    1    2    0    0  0.00000000000E+00  0.00000000000E+00  0.14972689144E+03  0.21875061967E+04  0.21823760488E+04 0.  0.
        5    1    3    3  502    0 -0.49305968280E+03 -0.10191400732E+03 -0.89549017180E+03  0.10273359010E+04  0.46999998093E+01 0.  1.
       -5    1    3    3    0  502  0.49305968280E+03  0.10191400732E+03  0.10452170632E+04  0.11601702957E+04  0.46999998093E+01 0. -1.
</event>
<event>
 5   0  0.1754356E-04  0.2203250E+04  0.7818609E-02  0.8517077E-01
        2   -1    0    0  501    0  0.00000000000E+00  0.00000000000E+00  0.84380535698E+03  0.84380535698E+03  0.25500000920E-02 0.  1.
       -2   -1    0    0    0  501  0.00000000000E+00  0.00000000000E+00 -0.14382193645E+04  0.14382193646E+04  0.25500000920E-02 0. -1.
    10030    2    1    2    0    0  0.00000000000E+00  0.00000000000E+00 -0.59441400757E+03  0.22820247215E+04  0.22032496039E+04 0.  0.
        1    1    3    3  502    0  0.39951395915E+03  0.24768192522E+03  0.73471776743E+03  0.87222011983E+03  0.50400001928E-02 0.  1.
       -1    1    3    3    0  502 -0.39951395915E+03 -0.24768192522E+03 -0.13291317750E+04  0.14098046017E+04  0.50400001928E-02 0. -1.
</event>
<event>
 5   0  0.1805501E-04  0.2149492E+04  0.7818609E-02  0.8539750E-01
       -2   -1    0    0    0  501  0.00000000000E+00  0.00000000000E+00  0.11645715858E+04  0.11645715858E+04  0.25500000920E-02 0. -1.
        2   -1    0    0  501    0  0.00000000000E+00  0.00000000000E+00 -0.99184877714E+03  0.99184877714E+03  0.25500000920E-02 0.  1.
    10030    2    1    2    0    0  0.00000000000E+00  0.00000000000E+00  0.17272280870E+03  0.21564203630E+04  0.21494919431E+04 0.  0.
        2    1    3    3  502    0  0.44459596192E+03 -0.59200341713E+03 -0.69521668278E+03  0.10156081190E+04  0.25500000920E-02 0.  1.
       -2    1    3    3    0  502 -0.44459596192E+03  0.59200341713E+03  0.86793949149E+03  0.11408122440E+04  0.25500000920E-02 0. -1.
</event>
<event>
 5   0  0.1805501E-04  0.1959334E+04  0.7818609E-02  0.8625873E-01
        2   -1    0    0  501    0  0.00000000000E+00  0.00000000000E+00  0.21005313741E+04  0.21005313741E+04  0.25500000920E-02 0.  1.
       -2   -1    0    0    0  501  0.00000000000E+00  0.00000000000E+00 -0.45690720132E+03  0.45690720133E+03  0.25500000920E-02 0. -1.
    10030    2    1    2    0    0  0.00000000000E+00  0.00000000000E+00  0.16436241728E+04  0.25574385754E+04  0.19593344905E+04 0.  0.
        2    1    3    3  502    0  0.52489046699E+03 -0.19345848854E+03 -0.22793715429E+03  0.60406252610E+03  0.25500000920E-02 0. -1.
       -2    1    3    3    0  502 -0.52489046699E+03  0.19345848854E+03  0.18715613271E+04  0.19533760493E+04  0.25500000920E-02 0.  1.
</event>
<event>
 5   0  0.8784659E-05  0.2123658E+04  0.7818609E-02  0.8550893E-01
       -1   -1    0    0    0  501  0.00000000000E+00  0.00000000000E+00  0.14119667186E+04  0.14119667186E+04  0.50400001928E-02 0. -1.
        1   -1    0    0  501    0  0.00000000000E+00  0.00000000000E+00 -0.79851803476E+03  0.79851803478E+03  0.50400001928E-02 0.  1.
    10030    2    1    2    0    0  0.00000000000E+00  0.00000000000E+00  0.61344868387E+03  0.22104847534E+04  0.21236580604E+04 0.  0.
        4    1    3    3  502    0 -0.81710490701E+03 -0.57406728741E+03 -0.68955420259E+02  0.10009845865E+04  0.12699999809E+01 0. -1.
       -4    1    3    3    0  502  0.81710490701E+03  0.57406728741E+03  0.68240410413E+03  0.12095001669E+04  0.12699999809E+01 0.  1.
</event>
<event>
 5   0  0.8306787E-05  0.1278318E+04  0.7818609E-02  0.9046938E-01
       -1   -1    0    0    0  501  0.00000000000E+00  0.00000000000E+00  0.78875795659E+03  0.78875795661E+03  0.50400001928E-02 0. -1.
        1   -1    0    0  501    0  0.00000000000E+00  0.00000000000E+00 -0.51793320506E+03  0.51793320508E+03  0.50400001928E-02 0.  1.
    10030    2    1    2    0    0  0.00000000000E+00  0.00000000000E+00  0.27082475153E+03  0.13066911617E+04  0.12783175451E+04 0.  0.
        1    1    3    3  502    0  0.18975412785E+02 -0.13826682910E+03 -0.50216774428E+03  0.52120075378E+03  0.50400001928E-02 0.  1.
       -1    1    3    3    0  502 -0.18975412785E+02  0.13826682910E+03  0.77299249581E+03  0.78549040791E+03  0.50400001928E-02 0. -1.
</event>
<event>
 5   0  0.1680258E-04  0.2203839E+04  0.7818609E-02  0.8516832E-01
        2   -1    0    0  501    0  0.00000000000E+00  0.00000000000E+00  0.13357260687E+04  0.13357260687E+04  0.25500000920E-02 0. -1.
       -2   -1    0    0    0  501  0.00000000000E+00  0.00000000000E+00 -0.90903847400E+03  0.90903847401E+03  0.25500000920E-02 0.  1.
    10030    2    1    2    0    0  0.00000000000E+00  0.00000000000E+00  0.42668759465E+03  0.22447645427E+04  0.22038388209E+04 0.  0.
        5    1    3    3  502    0  0.22053996520E+03 -0.47249478719E+03  0.12020995867E+04  0.13103261832E+04  0.46999998093E+01 0. -1.
       -5    1    3    3    0  502 -0.22053996520E+03  0.47249478719E+03 -0.77541199203E+03  0.93443835943E+03  0.46999998093E+01 0.  1.
</event>
<event>
 5   0  0.7954459E-05  0.2254954E+04  0.7818609E-02  0.8495897E-01
       -1   -1    0    0    0  501  0.00000000000E+00  0.00000000000E+00  0.56392991385E+03  0.56392991387E+03  0.50400001928E-02 0.  1.
        1   -1    0    0  501    0  0.00000000000E+00  0.00000000000E+00 -0.22541882041E+04  0.22541882041E+04  0.50400001928E-02 0. -1.
    10030    2    1    2    0    0  0.00000000000E+00  0.00000000000E+00 -0.16902582902E+04  0.28181181180E+04  0.22549537998E+04 0.  0.
        5    1    3    3  502    0 -0.34790240543E+03  0.11681586975E+02  0.49507903000E+03  0.60522547792E+03  0.46999998093E+01 0.  1.
       -5    1    3    3    0  502  0.34790240543E+03 -0.11681586975E+02 -0.21853373202E+04  0.22128926401E+04  0.46999998093E+01 0. -1.
</event>
<event>
 5   0  0.1805501E-04  0.2184641E+04  0.7818609E-02  0.8524848E-01
       -2   -1    0    0    0  501  0.00000000000E+00  0.00000000000E+00  0.71582573210E+03  0.71582573210E+03  0.25500000920E-02 0. -1.
        2   -1    0    0  501    0  0.00000000000E+00  0.00000000000E+00 -0.16668356998E+04  0.16668356998E+04  0.25500000920E-02 0.  1.
    10030    2    1    2    0    0  0.00000000000E+00  0.00000000000E+00 -0.95100996768E+03  0.23826614319E+04  0.21846408264E+04 0.  0.
        2    1    3    3  502    0 -0.13520501500E+03  0.10525835731E+04 -0.75770811713E+03  0.13039686212E+04  0.25500000920E-02 0.  1.
       -2    1    3    3    0  502  0.13520501500E+03 -0.10525835731E+04 -0.19330185054E+03  0.10786928107E+04  0.25500000920E-02 0. -1.
</event>
<event>
 5   0  0.1798917E-04  0.2228736E+04  0.7818609E-02  0.8506562E-01
        2   -1    0    0  501    0  0.00000000000E+00  0.00000000000E+00  0.17598675379E+04  0.17598675379E+04  0.25500000920E-02 0.  1.
       -2   -1    0    0    0  501  0.00000000000E+00  0.00000000000E+00 -0.70563057509E+03  0.70563057510E+03  0.25500000920E-02 0. -1.
    10030    2    1    2    0    0  0.00000000000E+00  0.00000000000E+00  0.10542369628E+04  0.24654981130E+04  0.22287362723E+04 0.  0.
        4    1    3    3  502    0 -0.87769588008E+03 -0.25337798298E+03  0.12330850712E+04  0.15346174982E+04  0.12699999809E+01 0.  1.
       -4    1    3    3    0  502  0.87769588008E+03  0.25337798298E+03 -0.17884810839E+03  0.93088061476E+03  0.12699999809E+01 0. -1.
</event>
<event>
 5   0  0.8784659E-05  0.1269519E+04  0.7818609E-02  0.9054092E-01
        1   -1    0    0  501    0  0.00000000000E+00  0.00000000000E+00  0.22542989523E+04  0.22542989523E+04  0.50400001928E-02 0.  1.
       -1   -1    0    0    0  501  0.00000000000E+00  0.00000000000E+00 -0.17873396427E+03  0.17873396434E+03  0.50400001928E-02 0. -1.
    10030    2    1    2    0    0  0.00000000000E+00  0.00000000000E+00  0.20755649881E+04  0.24330329167E+04  0.12695192610E+04 0.  0.
        4    1    3    3  502    0 -0.44545394708E+03  0.71538702263E+02  0.18204636193E+03  0.48650744669E+03  0.12699999809E+01 0. -1.
       -4    1    3    3    0  502  0.44545394708E+03 -0.71538702263E+02  0.18935186261E+04  0.19465254700E+04  0.12699999809E+01 0.  1.
</event>
<event>
 5   0  0.1680258E-04  0.2223340E+04  0.7818609E-02  0.8508776E-01
        2   -1    0    0  501    0  0.00000000000E+00  0.00000000000E+00  0.11881661314E+04  0.11881661314E+04  0.25500000920E-02 0. -1.
       -2   -1    0    0    0  501  0.00000000000E+00  0.00000000000E+00 -0.10400989522E+04  0.10400989522E+04  0.25500000920E-02 0.  1.
    10030    2    1    2    0    0  0.00000000000E+00  0.00000000000E+00  0.14806717921E+03  0.22282650836E+04  0.22233401434E+04 0.  0.
        5    1    3    3  502    0  0.65464165235E+03 -0.51931232299E+03  0.80883381109E+03  0.11629596750E+04  0.46999998093E+01 0. -1.
       -5    1    3    3    0  502 -0.65464165235E+03  0.51931232299E+03 -0.66076663188E+03  0.10653054086E+04  0.46999998093E+01 0.  1.
</event>
<event>
 5   0  0.1733962E-04  0.2235034E+04  0.7818609E-02  0.8503986E-01
        2   -1    0    0  501    0  0.00000000000E+00  0.00000000000E+00  0.88628565014E+03  0.88628565014E+03  0.25500000920E-02 0. -1.
       -2   -1    0    0    0  501  0.00000000000E+00  0.00000000000E+00 -0.14090763371E+04  0.14090763371E+04  0.25500000920E-02 0.  1.
    10030    2    1    2    0    0  0.00000000000E+00  0.00000000000E+00 -0.52279068698E+03  0.22953619873E+04  0.22350339036E+04 0.  0.
        3    1    3    3  502    0  0.13213797234E+03 -0.11016701229E+04 -0.12473737767E+03  0.11165558324E+04  0.10100000352E+00 0. -1.
       -3    1    3    3    0  502 -0.13213797234E+03  0.11016701229E+04 -0.39805330931E+03  0.11788061548E+04  0.10100000352E+00 0.  1.
</event>
<event>
 5   0  0.1798917E-04  0.2218462E+04  0.7818609E-02  0.8510783E-01
       -2   -1    0    0    0  501  0.00000000000E+00  0.00000000000E+00  0.88941374437E+03  0.88941374438E+03  0.25500000920E-02 0.  1.
        2   -1    0    0  501    0  0.00000000000E+00  0.00000000000E+00 -0.13833763224E+04  0.13833763224E+04  0.25500000920E-02 0. -1.
    10030    2    1    2    0    0  0.00000000000E+00  0.00000000000E+00 -0.49396257803E+03  0.22727900668E+04  0.22184624539E+04 0.  0.
        4    1    3    3  502    0  0.21285340463E+03  0.85546987027E+03  0.44274934373E+03  0.98649068170E+03  0.12699999809E+01 0.  1.
       -4    1    3    3    0  502 -0.21285340463E+03 -0.85546987027E+03 -0.93671192175E+03  0.12862993851E+04  0.12699999809E+01 0. -1.
</event>
<event>
 5   0  0.8470971E-05  0.2100984E+04  0.7818609E-02  0.8560810E-01
       -1   -1    0    0    0  501  0.00000000000E+00  0.00000000000E+00  0.13541702702E+04  0.13541702702E+04  0.50400001928E-02 0. -1.
        1   -1    0    0  501    0  0.00000000000E+00  0.00000000000E+00 -0.81491456868E+03  0.81491456869E+03  0.50400001928E-02 0.  1.
    10030    2    1    2    0    0  0.00000000000E+00  0.00000000000E+00  0.53925570155E+03  0.21690848389E+04  0.21009836570E+04 0.  0.
        2    1    3    3  502    0  0.19999442873E+03 -0.89753290541E+03  0.79399860451E+03  0.12149061164E+04  0.25500000920E-02 0. -1.
       -2    1    3    3    0  502 -0.19999442873E+03  0.89753290541E+03 -0.25474290296E+03  0.95417872248E+03  0.25500000920E-02 0.  1.
</event>
<event>
 5   0  0.1680258E-04  0.2038112E+04  0.7818609E-02  0.8589006E-01
       -2   -1    0    0    0  501  0.00000000000E+00  0.00000000000E+00  0.11445977395E+04  0.11445977395E+04  0.25500000920E-02 0. -1.
        2   -1    0    0  501    0  0.00000000000E+00  0.00000000000E+00 -0.90728424303E+03  0.90728424303E+03  0.25500000920E-02 0.  1.
    10030    2    1    2    0    0  0.00000000000E+00  0.00000000000E+00  0.23731349648E+03  0.20518819825E+04  0.20381123558E+04 0.  0.
        5    1    3    3  502    0 -0.64143628970E+03 -0.26143490455E+03  0.87114524271E+03  0.11129711798E+04  0.46999998093E+01 0. -1.
       -5    1    3    3    0  502  0.64143628970E+03  0.26143490455E+03 -0.63383174623E+03  0.93891080279E+03  0.46999998093E+01 0.  1.
</event>
<event>
 5   0  0.7954459E-05  0.2790650E+04  0.7818609E-02  0.8306177E-01
        1   -1    0    0  501    0  0.00000000000E+00  0.00000000000E+00  0.10404442779E+04  0.10404442779E+04  0.50400001928E-02 0.  1.
       -1   -1    0    0    0  501  0.00000000000E+00  0.00000000000E+00 -0.18712509645E+04  0.18712509646E+04  0.50400001928E-02 0. -1.
    10030    2    1    2    0    0  0.00000000000E+00  0.00000000000E+00 -0.83080668668E+03  0.29116952424E+04  0.27906503604E+04 0.  0.
        5    1    3    3  502    0  0.22990347655E+03  0.21694639510E+03 -0.18333916021E+04  0.18604483877E+04  0.46999998093E+01 0. -1.
       -5    1    3    3    0  502 -0.22990347655E+03 -0.21694639510E+03  0.10025849154E+04  0.10512468547E+04  0.46999998093E+01 0.  1.
</event>
<event>
 5   0  0.1798917E-04  0.2215243E+04  0.7818609E-02  0.8512110E-01
       -2   -1    0    0    0  501  0.00000000000E+00  0.00000000000E+00  0.94987276786E+03  0.94987276787E+03  0.25500000920E-02 0.  1.
        2   -1    0    0  501    0  0.00000000000E+00  0.00000000000E+00 -0.12915676266E+04  0.12915676266E+04  0.25500000920E-02 0. -1.
    10030    2    1    2    0    0  0.00000000000E+00  0.00000000000E+00 -0.34169485871E+03  0.22414403944E+04  0.22152425748E+04 0.  0.
        4    1    3    3  502    0  0.74112546348E+03  0.48844649286E+03  0.49954095143E+03  0.10185232958E+04  0.12699999809E+01 0.  1.
       -4    1    3    3    0  502 -0.74112546348E+03 -0.48844649286E+03 -0.84123581014E+03  0.12229170987E+04  0.12699999809E+01 0. -1.
</event>
<event>
 5   0  0.8306787E-05  0.2209322E+04  0.7818609E-02  0.8514558E-01
       -1   -1    0    0    0  501  0.00000000000E+00  0.00000000000E+00  0.62131105489E+03  0.62131105491E+03  0.50400001928E-02 0. -1.
        1   -1    0    0  501    0  0.00000000000E+00  0.00000000000E+00 -0.19640345373E+04  0.19640345373E+04  0.50400001928E-02 0.  1.
    10030    2    1    2    0    0  0.00000000000E+00  0.00000000000E+00 -0.13427234824E+04  0.25853455922E+04  0.22093224031E+04 0.  0.
        1    1    3    3  502    0  0.94853597137E+03  0.54118498619E+03 -0.86603258269E+03  0.13937769235E+04  0.50400001928E-02 0.  1.
       -1    1    3    3    0  502 -0.94853597137E+03 -0.54118498619E+03 -0.47669089969E+03  0.11915686687E+04  0.50400001928E-02 0. -1.
</event>
<event>
 5   0  0.1680258E-04  0.2079501E+04  0.7818609E-02  0.8570327E-01
       -2   -1    0    0    0  501  0.00000000000E+00  0.00000000000E+00  0.67093475106E+03  0.67093475107E+03  0.25500000920E-02 0. -1.
        2   -1    0    0  501    0  0.00000000000E+00  0.00000000000E+00 -0.16113065302E+04  0.16113065302E+04  0.25500000920E-02 0.  1.
    10030    2    1    2    0    0  0.00000000000E+00  0.00000000000E+00 -0.94037177909E+03  0.22822412812E+04  0.20795014265E+04 0.  0.
        5    1    3    3  502    0  0.62797161091E+03 -0.62238882338E+03 -0.10706500334E+04  0.13885351186E+04  0.46999998093E+01 0.  1.
       -5    1    3    3    0  502 -0.62797161091E+03  0.62238882338E+03  0.13027825429E+03  0.89370616263E+03  0.46999998093E+01 0. -1.
</event>
<event>
 5   0  0.7954459E-05  0.2393310E+04  0.7818609E-02  0.8442012E-01
        1   -1    0    0  501    0  0.00000000000E+00  0.00000000000E+00  0.10025039317E+04  0.10025039317E+04  0.50400001928E-02 0. -1.
       -1   -1    0    0    0  501  0.00000000000E+00  0.00000000000E+00 -0.14284065723E+04  0.14284065723E+04  0.50400001928E-02 0.  1.
    10030    2    1    2    0    0  0.00000000000E+00  0.00000000000E+00 -0.42590264060E+03  0.24309105040E+04  0.23933100132E+04 0.  0.
        5    1    3    3  502    0 -0.38122349915E+03  0.10026077388E+03 -0.13605594371E+04  0.14165195555E+04  0.46999998093E+01 0.  1.
       -5    1    3    3    0  502  0.38122349915E+03 -0.10026077388E+03  0.93465679655E+03  0.10143909485E+04  0.46999998093E+01 0. -1.
</event>
<event>
 5   0  0.7954459E-05  0.1943996E+04  0.7818609E-02  0.8633261E-01
       -1   -1    0    0    0  501  0.00000000000E+00  0.00000000000E+00  0.15009728686E+04  0.15009728686E+04  0.50400001928E-02 0.  1.
        1   -1    0    0  501    0  0.00000000000E+00  0.00000000000E+00 -0.62944534266E+03  0.62944534268E+03  0.50400001928E-02 0. -1.
    10030    2    1    2    0    0  0.00000000000E+00  0.00000000000E+00  0.87152752592E+03  0.21304182113E+04  0.19439962774E+04 0.  0.
        5    1    3    3  502    0  0.14167363769E+03 -0.25062534916E+03  0.14531626963E+04  0.14814143232E+04  0.46999998093E+01 0.  1.
       -5    1    3    3    0  502 -0.14167363769E+03  0.25062534916E+03 -0.58163517036E+03  0.64900388801E+03  0.46999998093E+01 0. -1.
</event>
<event>
 5   0  0.1680258E-04  0.2202989E+04  0.7818609E-02  0.8517185E-01
       -2   -1    0    0    0  501  0.00000000000E+00  0.00000000000E+00  0.70927270644E+03  0.70927270645E+03  0.25500000920E-02 0. -1.
        2   -1    0    0  501    0  0.00000000000E+00  0.00000000000E+00 -0.17106115522E+04  0.17106115522E+04  0.25500000920E-02 0.  1.
    10030    2    1    2    0    0  0.00000000000E+00  0.00000000000E+00 -0.10013388458E+04  0.24198842587E+04  0.22029889562E+04 0.  0.
        5    1    3    3  502    0 -0.68995668585E+03 -0.85370406722E+03 -0.39989174238E+03  0.11682407108E+04  0.46999998093E+01 0.  1.
       -5    1    3    3    0  502  0.68995668585E+03  0.85370406722E+03 -0.60144710339E+03  0.12516435479E+04  0.46999998093E+01 0. -1.
</event>
<event>
 5   0  0.8784659E-05  0.2181874E+04  0.7818609E-02  0.8526010E-01
       -1   -1    0    0    0  501  0.00000000000E+00  0.00000000000E+00  0.88051993767E+03  0.88051993768E+03  0.50400001928E-02 0. -1.
        1   -1    0    0  501    0  0.00000000000E+00  0.00000000000E+00 -0.13516376732E+04  0.13516376732E+04  0.50400001928E-02 0.  1.
    10030    2    1    2    0    0  0.00000000000E+00  0.00000000000E+00 -0.47111773551E+03  0.22321576109E+04  0.21818743500E+04 0.  0.
        4    1    3    3  502    0  0.82448007878E+03  0.60961226507E+03 -0.61663185228E+03  0.11965078220E+04  0.12699999809E+01 0.  1.
       -4    1    3    3    0  502 -0.82448007878E+03 -0.60961226507E+03  0.14551411677E+03  0.10356497888E+04  0.12699999809E+01 0. -1.
</event>
<event>
 5   0  0.8784659E-05  0.2187099E+04  0.7818609E-02  0.8523817E-01
        1   -1    0    0  501    0  0.00000000000E+00  0.00000000000E+00  0.78205769794E+03  0.78205769795E+03  0.50400001928E-02 0. -1.
       -1   -1    0    0    0  501  0.00000000000E+00  0.00000000000E+00 -0.15291075204E+04  0.15291075204E+04  0.50400001928E-02 0.  1.
    10030    2    1    2    0    0  0.00000000000E+00  0.00000000000E+00 -0.74704982250E+03  0.23111652184E+04  0.21870988157E+04 0.  0.
        4    1    3    3  502    0  0.10451406994E+04 -0.17925799361E+03 -0.91166916212E+02  0.10643145820E+04  0.12699999809E+01 0. -1.
       -4    1    3    3    0  502 -0.10451406994E+04  0.17925799361E+03 -0.65588290629E+03  0.12468506364E+04  0.12699999809E+01 0.  1.
</event>
<event>
 5   0  0.7954459E-05  0.1923659E+04  0.7818609E-02  0.8643168E-01
        1   -1    0    0  501    0  0.00000000000E+00  0.00000000000E+00  0.12018512957E+04  0.12018512958E+04  0.50400001928E-02 0.  1.
       -1   -1    0    0    0  501  0.00000000000E+00  0.00000000000E+00 -0.76974263085E+03  0.76974263087E+03  0.50400001928E-02 0. -1.
    10030    2    1    2    0    0  0.00000000000E+00  0.00000000000E+00  0.43210866489E+03  0.19715939266E+04  0.19236591988E+04 0.  0.
        5    1    3    3  502    0  0.10422063434E+03 -0.23375727173E+03  0.11662978944E+04  0.11940591573E+04  0.46999998093E+01 0.  1.
       -5    1    3    3    0  502 -0.10422063434E+03  0.23375727173E+03 -0.73418922952E+03  0.77753476929E+03  0.46999998093E+01 0. -1.
</event>
<event>
 5   0  0.8784659E-05  0.2040195E+04  0.7818609E-02  0.8588056E-01
       -1   -1    0    0    0  501  0.00000000000E+00  0.00000000000E+00  0.73609113207E+03  0.73609113208E+03  0.50400001928E-02 0.  1.
        1   -1    0    0  501    0  0.00000000000E+00  0.00000000000E+00 -0.14136815236E+04  0.14136815236E+04  0.50400001928E-02 0. -1.
    10030    2    1    2    0    0  0.00000000000E+00  0.00000000000E+00 -0.67759039150E+03  0.21497726557E+04  0.20401945330E+04 0.  0.
        4    1    3    3  502    0  0.18130657002E+02 -0.56956734927E+03  0.55273354245E+03  0.79388391338E+03  0.12699999809E+01 0.  1.
       -4    1    3    3    0  502 -0.18130657002E+02  0.56956734927E+03 -0.12303239340E+04  0.13558887423E+04  0.12699999809E+01 0. -1.
</event>
<event>
 5   0  0.8784659E-05  0.2169707E+04  0.7818609E-02  0.8531143E-01
       -1   -1    0    0    0  501  0.00000000000E+00  0.00000000000E+00  0.11193123601E+04  0.11193123601E+04  0.50400001928E-02 0.  1.
        1   -1    0    0  501    0  0.00000000000E+00  0.00000000000E+00 -0.10514559014E+04  0.10514559014E+04  0.50400001928E-02 0. -1.
    10030    2    1    2    0    0  0.00000000000E+00  0.00000000000E+00  0.67856458694E+02  0.21707682615E+04  0.21697074333E+04 0.  0.
        4    1    3    3  502    0  0.89845461382E+00  0.12292942056E+03 -0.10444640303E+04  0.10516744616E+04  0.12699999809E+01 0. -1.
       -4    1    3    3    0  502 -0.89845461382E+00 -0.12292942056E+03  0.11123204890E+04  0.11190937999E+04  0.12699999809E+01 0.  1.
</event>
<event>
 5   0  0.8784659E-05  0.2528790E+04  0.7818609E-02  0.8392800E-01
       -1   -1    0    0    0  501  0.00000000000E+00  0.00000000000E+00  0.81479200188E+03  0.81479200190E+03  0.50400001928E-02 0. -1.
        1   -1    0    0  501    0  0.00000000000E+00  0.00000000000E+00 -0.19620889483E+04  0.19620889483E+04  0.50400001928E-02 0.  1.
    10030    2    1    2    0    0  0.00000000000E+00  0.00000000000E+00 -0.11472969464E+04  0.27768809502E+04  0.25287897359E+04 0.  0.
        4    1    3    3  502    0 -0.11894847413E+04  0.22268331105E+03 -0.97596779738E+03  0.15546628449E+04  0.12699999809E+01 0.  1.
       -4    1    3    3    0  502  0.11894847413E+04 -0.22268331105E+03 -0.17132914904E+03  0.12222181053E+04  0.12699999809E+01 0. -1.
</event>
<event>
 5   0  0.8306787E-05  0.2331243E+04  0.7818609E-02  0.8465703E-01
        1   -1    0    0  501    0  0.00000000000E+00  0.00000000000E+00  0.11566909793E+04  0.11566909793E+04  0.50400001928E-02 0.  1.
       -1   -1    0    0    0  501  0.00000000000E+00  0.00000000000E+00 -0.11746207075E+04  0.11746207076E+04  0.50400001928E-02 0. -1.
    10030    2    1    2    0    0  0.00000000000E+00  0.00000000000E+00 -0.17929728294E+02  0.23313116868E+04  0.23312427385E+04 0.  0.
        1    1    3    3  502    0 -0.74114448433E+03 -0.60987567184E+03  0.65243937663E+03  0.11605690940E+04  0.50400001928E-02 0. -1.
       -1    1    3    3    0  502  0.74114448433E+03  0.60987567184E+03 -0.67036910493E+03  0.11707425928E+04  0.50400001928E-02 0.  1.
</event>
<event>
 5   0  0.1805501E-04  0.2184476E+04  0.7818609E-02  0.8524917E-01
       -2   -1    0    0    0  501  0.00000000000E+00  0.00000000000E+00  0.12816463202E+04  0.12816463202E+04  0.25500000920E-02 0.  1.
        2   -1    0    0  501    0  0.00000000000E+00  0.00000000000E+00 -0.93082157432E+03  0.93082157432E+03  0.25500000920E-02 0. -1.
    10030    2    1    2    0    0  0.00000000000E+00  0.00000000000E+00  0.35082474591E+03  0.22124678946E+04  0.21844761803E+04 0.  0.
        2    1    3    3  502    0 -0.76537419278E+03  0.17833522308E+03  0.94367225252E+03  0.12280547329E+04  0.25500000920E-02 0.  1.
       -2    1    3    3    0  502  0.76537419278E+03 -0.17833522308E+03 -0.59284750661E+03  0.98441316167E+03  0.25500000920E-02 0. -1.
</event>
<event>
 5   0  0.8306787E-05  0.2208023E+04  0.7818609E-02  0.8515096E-01
       -1   -1    0    0    0  501  0.00000000000E+00  0.00000000000E+00  0.10344126030E+04  0.10344126030E+04  0.50400001928E-02 0. -1.
        1   -1    0    0  501    0  0.00000000000E+00  0.00000000000E+00 -0.11782930474E+04  0.11782930474E+04  0.50400001928E-02 0.  1.
    10030    2    1    2    0    0  0.00000000000E+00  0.00000000000E+00 -0.14388044447E+03  0.22127056504E+04  0.22080228063E+04 0.  0.
        1    1    3    3  502    0  0.99079372542E+03  0.12151014462E+03  0.40065751462E+03  0.10756223155E+04  0.50400001928E-02 0. -1.
       -1    1    3    3    0  502 -0.99079372542E+03 -0.12151014462E+03 -0.54453795909E+03  0.11370833349E+04  0.50400001928E-02 0.  1.
</event>
<event>
 5   0  0.8306787E-05  0.2169341E+04  0.7818609E-02  0.8531299E-01
       -1   -1    0    0    0  501  0.00000000000E+00  0.00000000000E+00  0.75091588372E+03  0.75091588374E+03  0.50400001928E-02 0. -1.
        1   -1    0    0  501    0  0.00000000000E+00  0.00000000000E+00 -0.15667666803E+04  0.15667666803E+04  0.50400001928E-02 0.  1.
    10030    2    1    2    0    0  0.00000000000E+00  0.00000000000E+00 -0.81585079656E+03  0.23176825640E+04  0.21693409011E+04 0.  0.
        1    1    3    3  502    0  0.74457466678E+03  0.76475618032E+03 -0.61417146042E+03  0.12314422571E+04  0.50400001928E-02 0.  1.
       -1    1    3    3    0  502 -0.74457466678E+03 -0.76475618032E+03 -0.20167933614E+03  0.10862403069E+04  0.50400001928E-02 0. -1.
</event>
<event>
 5   0  0.1680258E-04  0.1656439E+04  0.7818609E-02  0.8786607E-01
        2   -1    0    0  501    0  0.00000000000E+00  0.00000000000E+00  0.14552002487E+04  0.14552002488E+04  0.25500000920E-02 0.  1.
       -2   -1    0    0    0  501  0.00000000000E+00  0.00000000000E+00 -0.47137648478E+03  0.47137648478E+03  0.25500000920E-02 0. -1.
    10030    2    1    2    0    0  0.00000000000E+00  0.00000000000E+00  0.98382376397E+03  0.19265767335E+04  0.16564385626E+04 0.  0.
        5    1    3    3  502    0  0.60826475087E+03 -0.30401919395E+01  0.11456537521E+04  0.12971275418E+04  0.46999998093E+01 0.  1.
       -5    1    3    3    0  502 -0.60826475087E+03  0.30401919395E+01 -0.16182998815E+03  0.62944919174E+03  0.46999998093E+01 0. -1.
</event>
<event>
 5   0  0.1680258E-04  0.2098667E+04  0.7818609E-02  0.8561831E-01
       -2   -1    0    0    0  501  0.00000000000E+00  0.00000000000E+00  0.47197427636E+03  0.47197427637E+03  0.25500000920E-02 0.  1.
        2   -1    0    0  501    0  0.00000000000E+00  0.00000000000E+00 -0.23329682966E+04  0.23329682966E+04  0.25500000920E-02 0. -1.
    10030    2    1    2    0    0  0.00000000000E+00  0.00000000000E+00 -0.18609940202E+04  0.28049425729E+04  0.20986672186E+04 0.  0.
        5    1    3    3  502    0  0.15823603326E+02 -0.70397753047E+03 -0.19702871807E+04  0.20923404155E+04  0.46999998093E+01 0. -1.
       -5    1    3    3    0  502 -0.15823603326E+02  0.70397753047E+03  0.10929316052E+03  0.71260215743E+03  0.46999998093E+01 0.  1.
</event>
<event>
 5   0  0.7954459E-05  0.2252002E+04  0.7818609E-02  0.8497090E-01
       -1   -1    0    0    0  501  0.00000000000E+00  0.00000000000E+00  0.69117327855E+03  0.69117327857E+03  0.50400001928E-02 0.  1.
        1   -1    0    0  501    0  0.00000000000E+00  0.00000000000E+00 -0.18343855351E+04  0.18343855351E+04  0.50400001928E-02 0. -1.
    10030    2    1    2    0    0  0.00000000000E+00  0.00000000000E+00 -0.11432122565E+04  0.25255588136E+04  0.22520020110E+04 0.  0.
        5    1    3    3  502    0 -0.50858870542E+03  0.75014812571E+03  0.17774536948E+03  0.92358009298E+03  0.46999998093E+01 0.  1.
       -5    1    3    3    0  502  0.50858870542E+03 -0.75014812571E+03 -0.13209576260E+04  0.16019787207E+04  0.46999998093E+01 0. -1.
</event>
<event>
 5   0  0.8784659E-05  0.2171111E+04  0.7818609E-02  0.8530550E-01
       -1   -1    0    0    0  501  0.00000000000E+00  0.00000000000E+00  0.76946348523E+03  0.76946348525E+03  0.50400001928E-02 0.  1.
        1   -1    0    0  501    0  0.00000000000E+00  0.00000000000E+00 -0.15314961000E+04  0.15314961000E+04  0.50400001928E-02 0. -1.
    10030    2    1    2    0    0  0.00000000000E+00  0.00000000000E+00 -0.76203261475E+03  0.23009595852E+04  0.21711106160E+04 0.  0.
        4    1    3    3  502    0 -0.53590398219E+03 -0.94405189679E+03 -0.37965418626E+03  0.11500286849E+04  0.12699999809E+01 0.  1.
       -4    1    3    3    0  502  0.53590398219E+03  0.94405189679E+03 -0.38237842849E+03  0.11509309004E+04  0.12699999809E+01 0. -1.
</event>
<event>
 5   0  0.8784659E-05  0.2164788E+04  0.7818609E-02  0.8533229E-01
        1   -1    0    0  501    0  0.00000000000E+00  0.00000000000E+00  0.12208504434E+04  0.12208504434E+04  0.50400001928E-02 0. -1.
       -1   -1    0    0    0  501  0.00000000000E+00  0.00000000000E+00 -0.95964000155E+03  0.95964000156E+03  0.50400001928E-02 0.  1.
    10030    2    1    2    0    0  0.00000000000E+00  0.00000000000E+00  0.26121044185E+03  0.21804904450E+04  0.21647881388E+04 0.  0.
        4    1    3    3  502    0  0.25251932458E+03 -0.99655083156E+03  0.47172934291E+03  0.11311099659E+04  0.12699999809E+01 0. -1.
       -4    1    3    3    0  502 -0.25251932458E+03  0.99655083156E+03 -0.21051890106E+03  0.10493804790E+04  0.12699999809E+01 0.  1.
</event>
<event>
 5   0  0.1798917E-04  0.2225475E+04  0.7818609E-02  0.8507899E-01
       -2   -1    0    0    0  501  0.00000000000E+00  0.00000000000E+00  0.88347709100E+03  0.88347709100E+03  0.25500000920E-02 0.  1.
        2   -1    0    0  501    0  0.00000000000E+00  0.00000000000E+00 -0.14014905931E+04  0.14014905931E+04  0.25500000920E-02 0. -1.
    10030    2    1    2    0    0  0.00000000000E+00  0.00000000000E+00 -0.51801350209E+03  0.22849676841E+04  0.22254750794E+04 0.  0.
        4    1    3    3  502    0  0.42921996416E+03  0.36970901625E+03  0.72433756190E+03  0.91955481121E+03  0.12699999809E+01 0.  1.
       -4    1    3    3    0  502 -0.42921996416E+03 -0.36970901625E+03 -0.12423510640E+04  0.13654128729E+04  0.12699999809E+01 0. -1.
</event>
<event>
 5   0  0.8602414E-05  0.2258998E+04  0.7818609E-02  0.8494265E-01
       -1   -1    0    0    0  501  0.00000000000E+00  0.00000000000E+00  0.11274765722E+04  0.11274765722E+04  0.50400001928E-02 0.  1.
        1   -1    0    0  501    0  0.00000000000E+00  0.00000000000E+00 -0.11315251224E+04  0.11315251224E+04  0.50400001928E-02 0. -1.
    10030    2    1    2    0    0  0.00000000000E+00  0.00000000000E+00 -0.40485502143E+01  0.22590016947E+04  0.22589980668E+04 0.  0.
        3    1    3    3  502    0 -0.74145130657E+03  0.15533738829E+03  0.83576481914E+03  0.11279993738E+04  0.10100000352E+00 0.  1.
       -3    1    3    3    0  502  0.74145130657E+03 -0.15533738829E+03 -0.83981336935E+03  0.11310023208E+04  0.10100000352E+00 0. -1.
</event>
<event>
 5   0  0.1805501E-04  0.2227068E+04  0.7818609E-02  0.8507245E-01
       -2   -1    0    0    0  501  0.00000000000E+00  0.00000000000E+00  0.87386215660E+03  0.87386215660E+03  0.25500000920E-02 0. -1.
        2   -1    0    0  501    0  0.00000000000E+00  0.00000000000E+00 -0.14189405854E+04  0.14189405854E+04  0.25500000920E-02 0.  1.
    10030    2    1    2    0    0  0.00000000000E+00  0.00000000000E+00 -0.54507842883E+03  0.22928027420E+04  0.22270684588E+04 0.  0.
        2    1    3    3  502    0 -0.28015964530E+03 -0.49448822443E+03 -0.12583783599E+04  0.13807693969E+04  0.25500000920E-02 0.  1.
       -2    1    3    3    0  502  0.28015964530E+03  0.49448822443E+03  0.71329993103E+03  0.91203334510E+03  0.25500000920E-02 0. -1.
</event>
<event>
 5   0  0.1680258E-04  0.1982638E+04  0.7818609E-02  0.8614781E-01
        2   -1    0    0  501    0  0.00000000000E+00  0.00000000000E+00  0.18214179611E+04  0.18214179611E+04  0.25500000920E-02 0. -1.
       -2   -1    0    0    0  501  0.00000000000E+00  0.00000000000E+00 -0.53953211877E+03  0.53953211878E+03  0.25500000920E-02 0.  1.
    10030    2    1    2    0    0  0.00000000000E+00  0.00000000000E+00  0.12818858424E+04  0.23609500799E+04  0.19826381331E+04 0.  0.
        5    1    3    3  502    0 -0.64646820655E+01  0.17079208855E+02 -0.53931853005E+03  0.53964808750E+03  0.46999998093E+01 0.  1.
       -5    1    3    3    0  502  0.64646820655E+01 -0.17079208855E+02  0.18212043724E+04  0.18213019924E+04  0.46999998093E+01 0. -1.
</event>
<event>
 5   0  0.1733962E-04  0.2178995E+04  0.7818609E-02  0.8527222E-01
       -2   -1    0    0    0  501  0.00000000000E+00  0.00000000000E+00  0.12239860365E+04  0.12239860365E+04  0.25500000920E-02 0. -1.
        2   -1    0    0  501    0  0.00000000000E+00  0.00000000000E+00 -0.96978657637E+03  0.96978657638E+03  0.25500000920E-02 0.  1.
    10030    2    1    2    0    0  0.00000000000E+00  0.00000000000E+00  0.25419946008E+03  0.21937726128E+04  0.21789953904E+04 0.  0.
        3    1    3    3  502    0 -0.30477176726E+03  0.10829365023E+03 -0.92033642406E+03  0.97551652393E+03  0.10100000352E+00 0.  1.
       -3    1    3    3    0  502  0.30477176726E+03 -0.10829365023E+03  0.11745358841E+04  0.12182560889E+04  0.10100000352E+00 0. -1.
</event>
<event>
 5   0  0.8470971E-05  0.2204153E+04  0.7818609E-02  0.8516702E-01
       -1   -1    0    0    0  501  0.00000000000E+00  0.00000000000E+00  0.49867884641E+03  0.49867884644E+03  0.50400001928E-02 0. -1.
        1   -1    0    0  501    0  0.00000000000E+00  0.00000000000E+00 -0.24355799821E+04  0.24355799821E+04  0.50400001928E-02 0.  1.
    10030    2    1    2    0    0  0.00000000000E+00  0.00000000000E+00 -0.19369011357E+04  0.29342588286E+04  0.22041526407E+04 0.  0.
        2    1    3    3  502    0  0.33539679983E+02 -0.71236986548E+03 -0.20869914697E+04  0.22054770754E+04  0.25500000920E-02 0.  1.
       -2    1    3    3    0  502 -0.33539679983E+02  0.71236986548E+03  0.15009033402E+03  0.72878175317E+03  0.25500000920E-02 0. -1.
</event>
<event>
 5   0  0.1733962E-04  0.1971146E+04  0.7818609E-02  0.8620231E-01
       -2   -1    0    0    0  501  0.00000000000E+00  0.00000000000E+00  0.11412655258E+04  0.11412655258E+04  0.25500000920E-02 0.  1.
        2   -1    0    0  501    0  0.00000000000E+00  0.00000000000E+00 -0.85112005190E+03  0.85112005191E+03  0.25500000920E-02 0. -1.
    10030    2    1    2    0    0  0.00000000000E+00  0.00000000000E+00  0.29014547392E+03  0.19923855777E+04  0.19711458328E+04 0.  0.
        3    1    3    3  502    0 -0.15168273119E+03 -0.95100526829E+03 -0.66793324057E+02  0.96533933391E+03  0.10100000352E+00 0.  1.
       -3    1    3    3    0  502  0.15168273119E+03  0.95100526829E+03  0.35693879797E+03  0.10270462438E+04  0.10100000352E+00 0. -1.
</event>
<event>
 5   0  0.7954459E-05  0.2138909E+04  0.7818609E-02  0.8544295E-01
       -1   -1    0    0    0  501  0.00000000000E+00  0.00000000000E+00  0.69919029553E+03  0.69919029555E+03  0.50400001928E-02 0. -1.
        1   -1    0    0  501    0  0.00000000000E+00  0.00000000000E+00 -0.16357955946E+04  0.16357955946E+04  0.50400001928E-02 0.  1.
    10030    2    1    2    0    0  0.00000000000E+00  0.00000000000E+00 -0.93660529905E+03  0.23349858901E+04  0.21389085116E+04 0.  0.
        5    1    3    3  502    0 -0.21713959862E+03 -0.32602274785E+03  0.61804501804E+03  0.73173914186E+03  0.46999998093E+01 0. -1.
       -5    1    3    3    0  502  0.21713959862E+03  0.32602274785E+03 -0.15546503171E+04  0.16032467483E+04  0.46999998093E+01 0.  1.
</event>
<event>
 5   0  0.8602414E-05  0.2150875E+04  0.7818609E-02  0.8539158E-01
        1   -1    0    0  501    0  0.00000000000E+00  0.00000000000E+00  0.15057310019E+04  0.15057310019E+04  0.50400001928E-02 0.  1.
       -1   -1    0    0    0  501  0.00000000000E+00  0.00000000000E+00 -0.76810898669E+03  0.76810898671E+03  0.50400001928E-02 0. -1.
    10030    2    1    2    0    0  0.00000000000E+00  0.00000000000E+00  0.73762201519E+03  0.22738399886E+04  0.21508747189E+04 0.  0.
        3    1    3    3  502    0 -0.15485982141E+03 -0.86690402496E+03 -0.28378173001E+03  0.92522226155E+03  0.10100000352E+00 0.  1.
       -3    1    3    3    0  502  0.15485982141E+03  0.86690402496E+03  0.10214037452E+04  0.13486177270E+04  0.10100000352E+00 0. -1.
</event>
<event>
 5   0  0.8306787E-05  0.2221450E+04  0.7818609E-02  0.8509553E-01
       -1   -1    0    0    0  501  0.00000000000E+00  0.00000000000E+00  0.60214071471E+03  0.60214071473E+03  0.50400001928E-02 0.  1.
        1   -1    0    0  501    0  0.00000000000E+00  0.00000000000E+00 -0.20488732746E+04  0.20488732746E+04  0.50400001928E-02 0. -1.
    10030    2    1    2    0    0  0.00000000000E+00  0.00000000000E+00 -0.14467325599E+04  0.26510139893E+04  0.22214499931E+04 0.  0.
        1    1    3    3  502    0  0.30925329990E+03  0.81947840765E+03 -0.15384723506E+04  0.17703331996E+04  0.50400001928E-02 0.  1.
       -1    1    3    3    0  502 -0.30925329990E+03 -0.81947840765E+03  0.91739790733E+02  0.88068078969E+03  0.50400001928E-02 0. -1.
</event>
<event>
 5   0  0.1798917E-04  0.2108360E+04  0.7818609E-02  0.8557570E-01
       -2   -1    0    0    0  501  0.00000000000E+00  0.00000000000E+00  0.12595321308E+04  0.12595321308E+04  0.25500000920E-02 0. -1.
        2   -1    0    0  501    0  0.00000000000E+00  0.00000000000E+00 -0.88230812595E+03  0.88230812596E+03  0.25500000920E-02 0.  1.
    10030    2    1    2    0    0  0.00000000000E+00  0.00000000000E+00  0.37722400485E+03  0.21418402568E+04  0.21083599635E+04 0.  0.
        4    1    3    3  502    0  0.59595787613E+03  0.86667202540E+03  0.26050034788E+03  0.10835812078E+04  0.12699999809E+01 0.  1.
       -4    1    3    3    0  502 -0.59595787613E+03 -0.86667202540E+03  0.11672365697E+03  0.10582590490E+04  0.12699999809E+01 0. -1.
</event>
<event>
 5   0  0.8784659E-05  0.2181534E+04  0.7818609E-02  0.8526154E-01
       -1   -1    0    0    0  501  0.00000000000E+00  0.00000000000E+00  0.15692540600E+04  0.15692540600E+04  0.50400001928E-02 0. -1.
        1   -1    0    0  501    0  0.00000000000E+00  0.00000000000E+00 -0.75817712465E+03  0.75817712467E+03  0.50400001928E-02 0.  1.
    10030    2    1    2    0    0  0.00000000000E+00  0.00000000000E+00  0.81107693537E+03  0.23274311847E+04  0.21815338926E+04 0.  0.
        4    1    3    3  502    0 -0.32958216473E+03 -0.94563444594E+03 -0.55720799908E+02  0.10029732445E+04  0.12699999809E+01 0.  1.
       -4    1    3    3    0  502  0.32958216473E+03  0.94563444594E+03  0.86679773528E+03  0.13244579402E+04  0.12699999809E+01 0. -1.
</event>
<event>
 5   0  0.1680258E-04  0.1924997E+04  0.7818609E-02  0.8642513E-01
        2   -1    0    0  501    0  0.00000000000E+00  0.00000000000E+00  0.12344998371E+04  0.12344998371E+04  0.25500000920E-02 0. -1.
       -2   -1    0    0    0  501  0.00000000000E+00  0.00000000000E+00 -0.75042777363E+03  0.75042777364E+03  0.25500000920E-02 0.  1.
    10030    2    1    2    0    0  0.00000000000E+00  0.00000000000E+00  0.48407206349E+03  0.19849276108E+04  0.19249965863E+04 0.  0.
        5    1    3    3  502    0  0.36475825335E+03 -0.82062906524E+03 -0.11501041393E+03  0.90538949155E+03  0.46999998093E+01 0.  1.
       -5    1    3    3    0  502 -0.36475825335E+03  0.82062906524E+03  0.59908247743E+03  0.10795381192E+04  0.46999998093E+01 0. -1.
</event>
<event>
 5   0  0.7954459E-05  0.2322575E+04  0.7818609E-02  0.8469073E-01
       -1   -1    0    0    0  501  0.00000000000E+00  0.00000000000E+00  0.81845551835E+03  0.81845551837E+03  0.50400001928E-02 0. -1.
        1   -1    0    0  501    0  0.00000000000E+00  0.00000000000E+00 -0.16477242819E+04  0.16477242819E+04  0.50400001928E-02 0.  1.
    10030    2    1    2    0    0  0.00000000000E+00  0.00000000000E+00 -0.82926876352E+03  0.24661798002E+04  0.23225753217E+04 0.  0.
        5    1    3    3  502    0  0.87977661095E+03 -0.58299175524E+03  0.99756886929E+02  0.10601225393E+04  0.46999998093E+01 0. -1.
       -5    1    3    3    0  502 -0.87977661095E+03  0.58299175524E+03 -0.92902565045E+03  0.14060572609E+04  0.46999998093E+01 0.  1.
</event>
<event>
 5   0  0.1805501E-04  0.2182239E+04  0.7818609E-02  0.8525857E-01
       -2   -1    0    0    0  501  0.00000000000E+00  0.00000000000E+00  0.84215306129E+03  0.84215306129E+03  0.25500000920E-02 0. -1.
        2   -1    0    0  501    0  0.00000000000E+00  0.00000000000E+00 -0.14136876137E+04  0.14136876137E+04  0.25500000920E-02 0.  1.
    10030    2    1    2    0    0  0.00000000000E+00  0.00000000000E+00 -0.57153455243E+03  0.22558406750E+04  0.21822386227E+04 0.  0.
        2    1    3    3  502    0  0.51437813986E+02 -0.95817735329E+03 -0.82270070991E+03  0.12639565448E+04  0.25500000920E-02 0.  1.
       -2    1    3    3    0  502 -0.51437813986E+02  0.95817735329E+03  0.25116615749E+03  0.99188413020E+03  0.25500000920E-02 0. -1.
</event>
<event>
 5   0  0.1798917E-04  0.2193935E+04  0.7818609E-02  0.8520957E-01
        2   -1    0    0  501    0  0.00000000000E+00  0.00000000000E+00  0.13095495887E+04  0.13095495887E+04  0.25500000920E-02 0. -1.
       -2   -1    0    0    0  501  0.00000000000E+00  0.00000000000E+00 -0.91889406880E+03  0.91889406881E+03  0.25500000920E-02 0.  1.
    10030    2    1    2    0    0  0.00000000000E+00  0.00000000000E+00  0.39065551993E+03  0.22284436575E+04  0.21939346844E+04 0.  0.
        4    1    3    3  502    0  0.42313030825E+03  0.12454041205E+03  0.12155094457E+04  0.12930639572E+04  0.12699999809E+01 0. -1.
       -4    1    3    3    0  502 -0.42313030825E+03 -0.12454041205E+03 -0.82485392578E+03  0.93537970031E+03  0.12699999809E+01 0.  1.
</event>
<event>
 5   0  0.1805501E-04  0.2097220E+04  0.7818609E-02  0.8562469E-01
        2   -1    0    0  501    0  0.00000000000E+00  0.00000000000E+00  0.40713937534E+03  0.40713937535E+03  0.25500000920E-02 0. -1.
       -2   -1    0    0    0  501  0.00000000000E+00  0.00000000000E+00 -0.27007533229E+04  0.27007533229E+04  0.25500000920E-02 0.  1.
    10030    2    1    2    0    0  0.00000000000E+00  0.00000000000E+00 -0.22936139475E+04  0.31078926982E+04  0.20972200846E+04 0.  0.
        2    1    3    3  502    0  0.19311139227E+03 -0.10086823275E+04 -0.14606467199E+04  0.17855589847E+04  0.25500000920E-02 0.  1.
       -2    1    3    3    0  502 -0.19311139227E+03  0.10086823275E+04 -0.83296722761E+03  0.13223337135E+04  0.25500000920E-02 0. -1.
</event>
<event>
 5   0  0.8784659E-05  0.2156835E+04  0.7818609E-02  0.8536612E-01
       -1   -1    0    0    0  501  0.00000000000E+00  0.00000000000E+00  0.11693152761E+04  0.11693152761E+04  0.50400001928E-02 0. -1.
        1   -1    0    0  501    0  0.00000000000E+00  0.00000000000E+00 -0.99458553867E+03  0.99458553868E+03  0.50400001928E-02 0.  1.
    10030    2    1    2    0    0  0.00000000000E+00  0.00000000000E+00  0.17472973740E+03  0.21639008148E+04  0.21568347769E+04 0.  0.
        4    1    3    3  502    0 -0.66325861325E+03  0.80340217454E+03  0.36687300045E+03  0.11045200104E+04  0.12699999809E+01 0. -1.
       -4    1    3    3    0  502  0.66325861325E+03 -0.80340217454E+03 -0.19214326305E+03  0.10593808043E+04  0.12699999809E+01 0.  1.
</event>
<event>
 5   0  0.1680258E-04  0.2187221E+04  0.7818609E-02  0.8523766E-01
        2   -1    0    0  501    0  0.00000000000E+00  0.00000000000E+00  0.15528181542E+04  0.15528181542E+04  0.25500000920E-02 0. -1.
       -2   -1    0    0    0  501  0.00000000000E+00  0.00000000000E+00 -0.77020200982E+03  0.77020200982E+03  0.25500000920E-02 0.  1.
    10030    2    1    2    0    0  0.00000000000E+00  0.00000000000E+00  0.78261614442E+03  0.23230201641E+04  0.21872207600E+04 0.  0.
        5    1    3    3  502    0 -0.32941060905E+02 -0.24791707904E+03  0.15220267508E+04  0.15424446543E+04  0.46999998093E+01 0. -1.
       -5    1    3    3    0  502  0.32941060905E+02  0.24791707904E+03 -0.73941060637E+03  0.78057550973E+03  0.46999998093E+01 0.  1.
</event>
<event>
 5   0  0.8470971E-05  0.2206315E+04  0.7818609E-02  0.8515804E-01
       -1   -1    0    0    0  501  0.00000000000E+00  0.00000000000E+00  0.12647578394E+04  0.12647578394E+04  0.50400001928E-02 0.  1.
        1   -1    0    0  501    0  0.00000000000E+00  0.00000000000E+00 -0.96220548070E+03  0.96220548071E+03  0.50400001928E-02 0. -1.
    10030    2    1    2    0    0  0.00000000000E+00  0.00000000000E+00  0.30255235865E+03  0.22269633201E+04  0.22063154125E+04 0.  0.
        2    1    3    3  502    0 -0.78043786928E+03  0.70121571277E+03  0.49530339329E+03  0.11602207527E+04  0.25500000920E-02 0.  1.
       -2    1    3    3    0  502  0.78043786928E+03 -0.70121571277E+03 -0.19275103464E+03  0.10667425674E+04  0.25500000920E-02 0. -1.
</event>
<event>
 5   0  0.8306787E-05  0.2513562E+04  0.7818609E-02  0.8398170E-01
        1   -1    0    0  501    0  0.00000000000E+00  0.00000000000E+00  0.98749324627E+03  0.98749324628E+03  0.50400001928E-02 0. -1.
       -1   -1    0    0    0  501  0.00000000000E+00  0.00000000000E+00 -0.15995029110E+04  0.15995029110E+04  0.50400001928E-02 0.  1.
    10030    2    1    2    0    0  0.00000000000E+00  0.00000000000E+00 -0.61200966473E+03  0.25869961573E+04  0.25135618727E+04 0.  0.
        1    1    3    3  502    0 -0.73365648266E+03  0.16263422742E+03  0.73079687642E+03  0.10482203018E+04  0.50400001928E-02 0. -1.
       -1    1    3    3    0  502  0.73365648266E+03 -0.16263422742E+03 -0.13428065412E+04  0.15387758555E+04  0.50400001928E-02 0.  1.
</event>
<event>
 5   0  0.7954459E-05  0.2218883E+04  0.7818609E-02  0.8510609E-01
        1   -1    0    0  501    0  0.00000000000E+00  0.00000000000E+00  0.13174616368E+04  0.13174616368E+04  0.50400001928E-02 0.  1.
       -1   -1    0    0    0  501  0.00000000000E+00  0.00000000000E+00 -0.93426687261E+03  0.93426687262E+03  0.50400001928E-02 0. -1.
    10030    2    1    2    0    0  0.00000000000E+00  0.00000000000E+00  0.38319476422E+03  0.22517285095E+04  0.22188832896E+04 0.  0.
        5    1    3    3  502    0  0.57435680433E+03  0.54053296893E+03 -0.60019387281E+03  0.99111876389E+03  0.46999998093E+01 0. -1.
       -5    1    3    3    0  502 -0.57435680433E+03 -0.54053296893E+03  0.98338863702E+03  0.12606097456E+04  0.46999998093E+01 0.  1.
</event>
<event>
 5   0  0.8784659E-05  0.1737491E+04  0.7818609E-02  0.8740266E-01
        1   -1    0    0  501    0  0.00000000000E+00  0.00000000000E+00  0.27919151517E+04  0.27919151517E+04  0.50400001928E-02 0.  1.
       -1   -1    0    0    0  501  0.00000000000E+00  0.00000000000E+00 -0.27032288349E+03  0.27032288354E+03  0.50400001928E-02 0. -1.
    10030    2    1    2    0    0  0.00000000000E+00  0.00000000000E+00  0.25215922682E+04  0.30622380353E+04  0.17374907820E+04 0.  0.
        4    1    3    3  502    0 -0.58036864042E+03  0.40876726658E+03  0.37816567940E+03  0.80431917234E+03  0.12699999809E+01 0. -1.
       -4    1    3    3    0  502  0.58036864042E+03 -0.40876726658E+03  0.21434265888E+04  0.22579188629E+04  0.12699999809E+01 0.  1.
</event>
<event>
 5   0  0.1754356E-04  0.2171439E+04  0.7818609E-02  0.8530411E-01
       -2   -1    0    0    0  501  0.00000000000E+00  0.00000000000E+00  0.10750036531E+04  0.10750036531E+04  0.25500000920E-02 0. -1.
        2   -1    0    0  501    0  0.00000000000E+00  0.00000000000E+00 -0.10965421584E+04  0.10965421584E+04  0.25500000920E-02 0.  1.
    10030    2    1    2    0    0  0.00000000000E+00  0.00000000000E+00 -0.21538505328E+02  0.21715458114E+04  0.21714389938E+04 0.  0.
        1    1    3    3  502    0 -0.42787807078E+03 -0.77250552015E+03  0.62088069345E+03  0.10795078775E+04  0.50400001928E-02 0. -1.
       -1    1    3    3    0  502  0.42787807078E+03  0.77250552015E+03 -0.64241919878E+03  0.10920379339E+04  0.50400001928E-02 0.  1.
</event>
<event>
 5   0  0.8306787E-05  0.2191832E+04  0.7818609E-02  0.8521835E-01
        1   -1    0    0  501    0  0.00000000000E+00  0.00000000000E+00  0.14216091201E+04  0.14216091201E+04  0.50400001928E-02 0. -1.
       -1   -1    0    0    0  501  0.00000000000E+00  0.00000000000E+00 -0.84483979800E+03  0.84483979802E+03  0.50400001928E-02 0.  1.
    10030    2    1    2    0    0  0.00000000000E+00  0.00000000000E+00  0.57676932212E+03  0.22664489181E+04  0.21918320756E+04 0.  0.
        1    1    3    3  502    0  0.21825534194E+03  0.90131549514E+03  0.89224013131E+03  0.12868945054E+04  0.50400001928E-02 0. -1.
       -1    1    3    3    0  502 -0.21825534194E+03 -0.90131549514E+03 -0.31547080919E+03  0.97955441275E+03  0.50400001928E-02 0.  1.
</event>
<event>
 5   0  0.1733962E-04  0.1447357E+04  0.7818609E-02  0.8920235E-01
       -2   -1    0    0    0  501  0.00000000000E+00  0.00000000000E+00  0.48378784734E+03  0.48378784735E+03  0.25500000920E-02 0.  1.
        2   -1    0    0  501    0  0.00000000000E+00  0.00000000000E+00 -0.10825216223E+04  0.10825216223E+04  0.25500000920E-02 0. -1.
    10030    2    1    2    0    0  0.00000000000E+00  0.00000000000E+00 -0.59873377496E+03  0.15663094697E+04  0.14473573234E+04 0.  0.
        3    1    3    3  502    0 -0.30128897441E+03 -0.40597580643E+03 -0.85972533706E+03  0.99735603818E+03  0.10100000352E+00 0. -1.
       -3    1    3    3    0  502  0.30128897441E+03  0.40597580643E+03  0.26099156210E+03  0.56895343148E+03  0.10100000352E+00 0.  1.
</event>
<event>
 5   0  0.1754356E-04  0.2218239E+04  0.7818609E-02  0.8510875E-01
       -2   -1    0    0    0  501  0.00000000000E+00  0.00000000000E+00  0.10911798264E+04  0.10911798264E+04  0.25500000920E-02 0.  1.
        2   -1    0    0  501    0  0.00000000000E+00  0.00000000000E+00 -0.11273539236E+04  0.11273539236E+04  0.25500000920E-02 0. -1.
    10030    2    1    2    0    0  0.00000000000E+00  0.00000000000E+00 -0.36174097214E+02  0.22185337499E+04  0.22182388136E+04 0.  0.
        1    1    3    3  502    0 -0.92189705582E+03  0.49824736557E+02 -0.63279806646E+03  0.11192899887E+04  0.50400001928E-02 0. -1.
       -1    1    3    3    0  502  0.92189705582E+03 -0.49824736557E+02  0.59662396924E+03  0.10992437612E+04  0.50400001928E-02 0.  1.
</event>
<event>
 5   0  0.1754356E-04  0.2145339E+04  0.7818609E-02  0.8541530E-01
        2   -1    0    0  501    0  0.00000000000E+00  0.00000000000E+00  0.73463464289E+03  0.73463464289E+03  0.25500000920E-02 0.  1.
       -2   -1    0    0    0  501  0.00000000000E+00  0.00000000000E+00 -0.15662474959E+04  0.15662474959E+04  0.25500000920E-02 0. -1.
    10030    2    1    2    0    0  0.00000000000E+00  0.00000000000E+00 -0.83161285305E+03  0.23008821388E+04  0.21453388263E+04 0.  0.
        1    1    3    3  502    0 -0.45938359842E+03 -0.89007867272E+03 -0.82749437145E+03  0.12992383418E+04  0.50400001928E-02 0. -1.
       -1    1    3    3    0  502  0.45938359842E+03  0.89007867272E+03 -0.41184816031E+01  0.10016437970E+04  0.50400001928E-02 0.  1.
</event>
<event>
 5   0  0.1680258E-04  0.2280314E+04  0.7818609E-02  0.8485724E-01
        2   -1    0    0  501    0  0.00000000000E+00  0.00000000000E+00  0.16900119630E+04  0.16900119630E+04  0.25500000920E-02 0. -1.
       -2   -1    0    0    0  501  0.00000000000E+00  0.00000000000E+00 -0.76920077645E+03  0.76920077645E+03  0.25500000920E-02 0.  1.
    10030    2    1    2    0    0  0.00000000000E+00  0.00000000000E+00  0.92081118658E+03  0.24592127395E+04  0.22803144644E+04 0.  0.
        5    1    3    3  502    0 -0.10886567326E+03  0.10439810308E+04 -0.19703974096E+02  0.10498373513E+04  0.46999998093E+01 0.  1.
       -5    1    3    3    0  502  0.10886567326E+03 -0.10439810308E+04  0.94051516068E+03  0.14093753882E+04  0.46999998093E+01 0. -1.
</event>
<event>
 5   0  0.7954459E-05  0.2240692E+04  0.7818609E-02  0.8501680E-01
        1   -1    0    0  501    0  0.00000000000E+00  0.00000000000E+00  0.14541179656E+04  0.14541179656E+04  0.50400001928E-02 0. -1.
       -1   -1    0    0    0  501  0.00000000000E+00  0.00000000000E+00 -0.86318656223E+03  0.86318656224E+03  0.50400001928E-02 0.  1.
    10030    2    1    2    0    0  0.00000000000E+00  0.00000000000E+00  0.59093140337E+03  0.23173045279E+04  0.22406919358E+04 0.  0.
        5    1    3    3  502    0 -0.60275653536E+02  0.63320957002E+03 -0.65832884833E+03  0.91542693674E+03  0.46999998093E+01 0.  1.
       -5    1    3    3    0  502  0.60275653536E+02 -0.63320957002E+03  0.12492602517E+04  0.14018775911E+04  0.46999998093E+01 0. -1.
</event>
<event>
 5   0  0.1733962E-04  0.2480883E+04  0.7818609E-02  0.8409828E-01
       -2   -1    0    0    0  501  0.00000000000E+00  0.00000000000E+00  0.75021641091E+03  0.75021641091E+03  0.25500000920E-02 0. -1.
        2   -1    0    0  501    0  0.00000000000E+00  0.00000000000E+00 -0.20510017000E+04  0.20510017000E+04  0.25500000920E-02 0.  1.
    10030    2    1    2    0    0  0.00000000000E+00  0.00000000000E+00 -0.13007852891E+04  0.28012181109E+04  0.24808830155E+04 0.  0.
        3    1    3    3  502    0 -0.10434776529E+04 -0.37879024307E+03 -0.25418630223E+02  0.11103935236E+04  0.10100000352E+00 0. -1.
       -3    1    3    3    0  502  0.10434776529E+04  0.37879024307E+03 -0.12753666589E+04  0.16908245873E+04  0.10100000352E+00 0.  1.
</event>
<event>
 5   0  0.8470971E-05  0.1633800E+04  0.7818609E-02  0.8800048E-01
        1   -1    0    0  501    0  0.00000000000E+00  0.00000000000E+00  0.67934904677E+03  0.67934904678E+03  0.50400001928E-02 0.  1.
       -1   -1    0    0    0  501  0.00000000000E+00  0.00000000000E+00 -0.98230186939E+03  0.98230186940E+03  0.50400001928E-02 0. -1.
    10030    2    1    2    0    0  0.00000000000E+00  0.00000000000E+00 -0.30295282262E+03  0.16616509162E+04  0.16338002799E+04 0.  0.
        2    1    3    3  502    0  0.15348034006E+03  0.67849317307E+03  0.28409582475E+03  0.75141176350E+03  0.25500000920E-02 0.  1.
       -2    1    3    3    0  502 -0.15348034006E+03 -0.67849317307E+03 -0.58704864738E+03  0.91023915268E+03  0.25500000920E-02 0. -1.
</event>
<event>
 5   0  0.8306787E-05  0.2209923E+04  0.7818609E-02  0.8514309E-01
        1   -1    0    0  501    0  0.00000000000E+00  0.00000000000E+00  0.10404642293E+04  0.10404642293E+04  0.50400001928E-02 0. -1.
       -1   -1    0    0    0  501  0.00000000000E+00  0.00000000000E+00 -0.11734565395E+04  0.11734565395E+04  0.50400001928E-02 0.  1.
    10030    2    1    2    0    0  0.00000000000E+00  0.00000000000E+00 -0.13299231021E+03  0.22139207688E+04  0.22099226719E+04 0.  0.
        1    1    3    3  502    0  0.29963049556E+03 -0.10713618539E+03  0.99356893106E+03  0.10432812741E+04  0.50400001928E-02 0. -1.
       -1    1    3    3    0  502 -0.29963049556E+03  0.10713618539E+03 -0.11265612413E+04  0.11706394947E+04  0.50400001928E-02 0.  1.
</event>
<event>
 5   0  0.8602414E-05  0.1927219E+04  0.7818609E-02  0.8641425E-01
        1   -1    0    0  501    0  0.00000000000E+00  0.00000000000E+00  0.91110525756E+03  0.91110525758E+03  0.50400001928E-02 0. -1.
       -1   -1    0    0    0  501  0.00000000000E+00  0.00000000000E+00 -0.10191391723E+04  0.10191391723E+04  0.50400001928E-02 0.  1.
    10030    2    1    2    0    0  0.00000000000E+00  0.00000000000E+00 -0.10803391472E+03  0.19302444299E+04  0.19272187816E+04 0.  0.
        3    1    3    3  502    0 -0.51128238893E+02  0.50770105054E+03  0.76468215189E+03  0.91930041725E+03  0.10100000352E+00 0. -1.
       -3    1    3    3    0  502  0.51128238893E+02 -0.50770105054E+03 -0.87271606661E+03  0.10109440126E+04  0.10100000352E+00 0.  1.
</event>
<event>
 5   0  0.8602414E-05  0.2060506E+04  0.7818609E-02  0.8578843E-01
        1   -1    0    0  501    0  0.00000000000E+00  0.00000000000E+00  0.18726080046E+04  0.18726080046E+04  0.50400001928E-02 0. -1.
       -1   -1    0    0    0  501  0.00000000000E+00  0.00000000000E+00 -0.56681454818E+03  0.56681454820E+03  0.50400001928E-02 0.  1.
    10030    2    1    2    0    0  0.00000000000E+00  0.00000000000E+00  0.13057934564E+04  0.24394225528E+04  0.20605062097E+04 0.  0.
        3    1    3    3  502    0 -0.99762074821E+03  0.23933572615E+03  0.76453934220E+03  0.12794722205E+04  0.10100000352E+00 0. -1.
       -3    1    3    3    0  502  0.99762074821E+03 -0.23933572615E+03  0.54125411424E+03  0.11599503323E+04  0.10100000352E+00 0.  1.
</event>
<event>
 5   0  0.1805501E-04  0.2170164E+04  0.7818609E-02  0.8530950E-01
       -2   -1    0    0    0  501  0.00000000000E+00  0.00000000000E+00  0.82989115460E+03  0.82989115460E+03  0.25500000920E-02 0. -1.
        2   -1    0    0  501    0  0.00000000000E+00  0.00000000000E+00 -0.14187434284E+04  0.14187434284E+04  0.25500000920E-02 0.  1.
    10030    2    1    2    0    0  0.00000000000E+00  0.00000000000E+00 -0.58885227384E+03  0.22486345830E+04  0.21701637007E+04 0.  0.
        2    1    3    3  502    0 -0.23774986006E+03  0.60900129871E+02  0.80075458353E+03  0.83752117873E+03  0.25500000920E-02 0. -1.
       -2    1    3    3    0  502  0.23774986006E+03 -0.60900129871E+02 -0.13896068574E+04  0.14111134043E+04  0.25500000920E-02 0.  1.
</event>
<event>
 5   0  0.7954459E-05  0.2186745E+04  0.7818609E-02  0.8523965E-01
        1   -1    0    0  501    0  0.00000000000E+00  0.00000000000E+00  0.18812838758E+04  0.18812838758E+04  0.50400001928E-02 0.  1.
       -1   -1    0    0    0  501  0.00000000000E+00  0.00000000000E+00 -0.63545100375E+03  0.63545100377E+03  0.50400001928E-02 0. -1.
    10030    2    1    2    0    0  0.00000000000E+00  0.00000000000E+00  0.12458328721E+04  0.25167348796E+04  0.21867452776E+04 0.  0.
        5    1    3    3  502    0 -0.74712303085E+03 -0.11578281239E+03 -0.28611097170E+03  0.80838113598E+03  0.46999998093E+01 0. -1.
       -5    1    3    3    0  502  0.74712303085E+03  0.11578281239E+03  0.15319438438E+04  0.17083537436E+04  0.46999998093E+01 0.  1.
</event>
<event>
 5   0  0.1680258E-04  0.2208126E+04  0.7818609E-02  0.8515054E-01
       -2   -1    0    0    0  501  0.00000000000E+00  0.00000000000E+00  0.10240980754E+04  0.10240980754E+04  0.25500000920E-02 0. -1.
        2   -1    0    0  501    0  0.00000000000E+00  0.00000000000E+00 -0.11902716444E+04  0.11902716444E+04  0.25500000920E-02 0.  1.
    10030    2    1    2    0    0  0.00000000000E+00  0.00000000000E+00 -0.16617356896E+03  0.22143697199E+04  0.22081258119E+04 0.  0.
        5    1    3    3  502    0  0.10048515433E+03  0.97707394757E+03  0.42248364894E+03  0.10692451959E+04  0.46999998093E+01 0.  1.
       -5    1    3    3    0  502 -0.10048515433E+03 -0.97707394757E+03 -0.58865721791E+03  0.11451245240E+04  0.46999998093E+01 0. -1.
</event>
<event>
 5   0  0.8470971E-05  0.2182279E+04  0.7818609E-02  0.8525840E-01
        1   -1    0    0  501    0  0.00000000000E+00  0.00000000000E+00  0.14868334609E+04  0.14868334609E+04  0.50400001928E-02 0. -1.
       -1   -1    0    0    0  501  0.00000000000E+00  0.00000000000E+00 -0.80075213167E+03  0.80075213169E+03  0.50400001928E-02 0.  1.
    10030    2    1    2    0    0  0.00000000000E+00  0.00000000000E+00  0.68608132924E+03  0.22875855926E+04  0.21822786837E+04 0.  0.
        2    1    3    3  502    0 -0.91261028210E+03  0.59785908487E+03  0.32512650507E+03  0.11384200704E+04  0.25500000920E-02 0. -1.
       -2    1    3    3    0  502  0.91261028210E+03 -0.59785908487E+03  0.36095482418E+03  0.11491655222E+04  0.25500000920E-02 0.  1.
</event>
<event>
 5   0  0.6250625E-05  0.2411157E+04  0.7818609E-02  0.8435338E-01
        4   -1    0    0  501    0  0.00000000000E+00  0.00000000000E+00  0.11782287282E+04  0.11782294127E+04  0.12699999809E+01 0. -1.
       -4   -1    0    0    0  501  0.00000000000E+00  0.00000000000E+00 -0.12335618921E+04  0.12335625459E+04  0.12699999809E+01 0.  1.
    10030    2    1    2    0    0  0.00000000000E+00  0.00000000000E+00 -0.55333163923E+02  0.24117919586E+04  0.24111571273E+04 0.  0.
        4    1    3    3  502    0  0.97114950478E+03 -0.62302655354E+03 -0.37722191345E+03  0.12139157433E+04  0.12699999809E+01 0. -1.
       -4    1    3    3    0  502 -0.97114950478E+03  0.62302655354E+03  0.32188874953E+03  0.11978762152E+04  0.12699999809E+01 0.  1.
</event>
<event>
 5   0  0.8306787E-05  0.1228475E+04  0.7818609E-02  0.9088291E-01
        1   -1    0    0  501    0  0.00000000000E+00  0.00000000000E+00  0.38919094515E+03  0.38919094519E+03  0.50400001928E-02 0. -1.
       -1   -1    0    0    0  501  0.00000000000E+00  0.00000000000E+00 -0.96941519433E+03  0.96941519434E+03  0.50400001928E-02 0.  1.
    10030    2    1    2    0    0  0.00000000000E+00  0.00000000000E+00 -0.58022424918E+03  0.13586061395E+04  0.12284748524E+04 0.  0.
        1    1    3    3  502    0  0.53239627430E+03 -0.29091706346E+03 -0.18398276496E+03  0.63397806628E+03  0.50400001928E-02 0. -1.
       -1    1    3    3    0  502 -0.53239627430E+03  0.29091706346E+03 -0.39624148422E+03  0.72462807325E+03  0.50400001928E-02 0.  1.
</event>
<event>
 5   0  0.8470971E-05  0.1555409E+04  0.7818609E-02  0.8848420E-01
        1   -1    0    0  501    0  0.00000000000E+00  0.00000000000E+00  0.20997021858E+04  0.20997021858E+04  0.50400001928E-02 0. -1.
       -1   -1    0    0    0  501  0.00000000000E+00  0.00000000000E+00 -0.28805248089E+03  0.28805248093E+03  0.50400001928E-02 0.  1.
    10030    2    1    2    0    0  0.00000000000E+00  0.00000000000E+00  0.18116497050E+04  0.23877546668E+04  0.15554091729E+04 0.  0.
        2    1    3    3  502    0  0.21823252601E+03 -0.44921884264E+03 -0.93511548383E+01  0.49951020820E+03  0.25500000920E-02 0.  1.
       -2    1    3    3    0  502 -0.21823252601E+03  0.44921884264E+03  0.18210008598E+04  0.18882444586E+04  0.25500000920E-02 0. -1.
</event>
<event>
 5   0  0.1754356E-04  0.2148887E+04  0.7818609E-02  0.8540009E-01
        2   -1    0    0  501    0  0.00000000000E+00  0.00000000000E+00  0.91804504437E+03  0.91804504437E+03  0.25500000920E-02 0. -1.
       -2   -1    0    0    0  501  0.00000000000E+00  0.00000000000E+00 -0.12574862024E+04  0.12574862024E+04  0.25500000920E-02 0.  1.
    10030    2    1    2    0    0  0.00000000000E+00  0.00000000000E+00 -0.33944115800E+03  0.21755312467E+04  0.21488871319E+04 0.  0.
        1    1    3    3  502    0 -0.69319670445E+03  0.81660930175E+03 -0.25476543391E+03  0.11010348991E+04  0.50400001928E-02 0.  1.
       -1    1    3    3    0  502  0.69319670445E+03 -0.81660930175E+03 -0.84675724091E+02  0.10744963476E+04  0.50400001928E-02 0. -1.
</event>
<event>
 5   0  0.1754356E-04  0.2159335E+04  0.7818609E-02  0.8535547E-01
        2   -1    0    0  501    0  0.00000000000E+00  0.00000000000E+00  0.10018653762E+04  0.10018653762E+04  0.25500000920E-02 0.  1.
       -2   -1    0    0    0  501  0.00000000000E+00  0.00000000000E+00 -0.11635113628E+04  0.11635113628E+04  0.25500000920E-02 0. -1.
    10030    2    1    2    0    0  0.00000000000E+00  0.00000000000E+00 -0.16164598661E+03  0.21653767391E+04  0.21593348506E+04 0.  0.
        1    1    3    3  502    0 -0.26917273699E+03 -0.99329456273E+03 -0.40822341830E+03  0.11071289039E+04  0.50400001928E-02 0.  1.
       -1    1    3    3    0  502  0.26917273699E+03  0.99329456273E+03  0.24657743169E+03  0.10582478351E+04  0.50400001928E-02 0. -1.
</event>
<event>
 5   0  0.8784659E-05  0.2157405E+04  0.7818609E-02  0.8536369E-01
       -1   -1    0    0    0  501  0.00000000000E+00  0.00000000000E+00  0.78888588591E+03  0.78888588593E+03  0.50400001928E-02 0. -1.
        1   -1    0    0  501    0  0.00000000000E+00  0.00000000000E+00 -0.14749908804E+04  0.14749908804E+04  0.50400001928E-02 0.  1.
    10030    2    1    2    0    0  0.00000000000E+00  0.00000000000E+00 -0.68610499449E+03  0.22638767663E+04  0.21574053745E+04 0.  0.
        4    1    3    3  502    0 -0.36998883712E+03  0.42267561338E+03  0.62329233704E+03  0.83907172759E+03  0.12699999809E+01 0. -1.
       -4    1    3    3    0  502  0.36998883712E+03 -0.42267561338E+03 -0.13093973315E+04  0.14248050388E+04  0.12699999809E+01 0.  1.
</event>
<event>
 5   0  0.1680258E-04  0.2255393E+04  0.7818609E-02  0.8495720E-01
       -2   -1    0    0    0  501  0.00000000000E+00  0.00000000000E+00  0.22888763405E+04  0.22888763405E+04  0.25500000920E-02 0.  1.
        2   -1    0    0  501    0  0.00000000000E+00  0.00000000000E+00 -0.55560000648E+03  0.55560000648E+03  0.25500000920E-02 0. -1.
    10030    2    1    2    0    0  0.00000000000E+00  0.00000000000E+00  0.17332763341E+04  0.28444763470E+04  0.22553932780E+04 0.  0.
        5    1    3    3  502    0  0.43285147119E+03 -0.21650660048E+03  0.21512206108E+04  0.22049960795E+04  0.46999998093E+01 0.  1.
       -5    1    3    3    0  502 -0.43285147119E+03  0.21650660048E+03 -0.41794427672E+03  0.63948026757E+03  0.46999998093E+01 0. -1.
</event>
<event>
 5   0  0.7954459E-05  0.2117765E+04  0.7818609E-02  0.8553458E-01
        1   -1    0    0  501    0  0.00000000000E+00  0.00000000000E+00  0.16219386461E+04  0.16219386461E+04  0.50400001928E-02 0.  1.
       -1   -1    0    0    0  501  0.00000000000E+00  0.00000000000E+00 -0.69129146168E+03  0.69129146170E+03  0.50400001928E-02 0. -1.
    10030    2    1    2    0    0  0.00000000000E+00  0.00000000000E+00  0.93064718445E+03  0.23132301078E+04  0.21177651782E+04 0.  0.
        5    1    3    3  502    0 -0.18672039063E+03 -0.10251802254E+04  0.67069662275E+03  0.12392397059E+04  0.46999998093E+01 0. -1.
       -5    1    3    3    0  502  0.18672039063E+03  0.10251802254E+04  0.25995056170E+03  0.10739904019E+04  0.46999998093E+01 0.  1.
</event>
<event>
 5   0  0.8470971E-05  0.2196239E+04  0.7818609E-02  0.8519995E-01
       -1   -1    0    0    0  501  0.00000000000E+00  0.00000000000E+00  0.92995389281E+03  0.92995389283E+03  0.50400001928E-02 0. -1.
        1   -1    0    0  501    0  0.00000000000E+00  0.00000000000E+00 -0.12966951846E+04  0.12966951846E+04  0.50400001928E-02 0.  1.
    10030    2    1    2    0    0  0.00000000000E+00  0.00000000000E+00 -0.36674129178E+03  0.22266490774E+04  0.21962392718E+04 0.  0.
        2    1    3    3  502    0 -0.19098002772E+03 -0.44022322221E+03 -0.11847700417E+04  0.12782605009E+04  0.25500000920E-02 0.  1.
       -2    1    3    3    0  502  0.19098002772E+03  0.44022322221E+03  0.81802874994E+03  0.94838857654E+03  0.25500000920E-02 0. -1.
</event>
<event>
 5   0  0.1680258E-04  0.2199663E+04  0.7818609E-02  0.8518568E-01
        2   -1    0    0  501    0  0.00000000000E+00  0.00000000000E+00  0.13021962703E+04  0.13021962703E+04  0.25500000920E-02 0. -1.
       -2   -1    0    0    0  501  0.00000000000E+00  0.00000000000E+00 -0.92891495645E+03  0.92891495645E+03  0.25500000920E-02 0.  1.
    10030    2    1    2    0    0  0.00000000000E+00  0.00000000000E+00  0.37328131387E+03  0.22311112268E+04  0.21996632394E+04 0.  0.
        5    1    3    3  502    0  0.53431334819E+03 -0.42730409248E+03 -0.68679072171E+03  0.96942412129E+03  0.46999998093E+01 0.  1.
       -5    1    3    3    0  502 -0.53431334819E+03  0.42730409248E+03  0.10600720356E+04  0.12616871055E+04  0.46999998093E+01 0. -1.
</event>
<event>
 5   0  0.1754356E-04  0.1434983E+04  0.7818609E-02  0.8928879E-01
       -2   -1    0    0    0  501  0.00000000000E+00  0.00000000000E+00  0.20983019659E+03  0.20983019660E+03  0.25500000920E-02 0. -1.
        2   -1    0    0  501    0  0.00000000000E+00  0.00000000000E+00 -0.24533825048E+04  0.24533825048E+04  0.25500000920E-02 0.  1.
    10030    2    1    2    0    0  0.00000000000E+00  0.00000000000E+00 -0.22435523082E+04  0.26632127014E+04  0.14349825550E+04 0.  0.
        1    1    3    3  502    0  0.32747196870E+03 -0.18490026684E+03  0.12261889705E+02  0.37626633244E+03  0.50400001928E-02 0. -1.
       -1    1    3    3    0  502 -0.32747196870E+03  0.18490026684E+03 -0.22558141980E+04  0.22869463690E+04  0.50400001928E-02 0.  1.
</event>
<event>
 5   0  0.8470971E-05  0.2183717E+04  0.7818609E-02  0.8525236E-01
       -1   -1    0    0    0  501  0.00000000000E+00  0.00000000000E+00  0.56861907571E+03  0.56861907573E+03  0.50400001928E-02 0.  1.
        1   -1    0    0  501    0  0.00000000000E+00  0.00000000000E+00 -0.20965796695E+04  0.20965796695E+04  0.50400001928E-02 0. -1.
    10030    2    1    2    0    0  0.00000000000E+00  0.00000000000E+00 -0.15279605938E+04  0.26651987453E+04  0.21837171922E+04 0.  0.
        2    1    3    3  502    0  0.86627154820E+03  0.62031563020E+03 -0.47275324869E+03  0.11656386706E+04  0.25500000920E-02 0.  1.
       -2    1    3    3    0  502 -0.86627154820E+03 -0.62031563020E+03 -0.10552073451E+04  0.14995600747E+04  0.25500000920E-02 0. -1.
</event>
<event>
 5   0  0.6250625E-05  0.2272827E+04  0.7818609E-02  0.8488713E-01
       -3   -1    0    0    0  501  0.00000000000E+00  0.00000000000E+00  0.72615459705E+03  0.72615460408E+03  0.10100000352E+00 0. -1.
        3   -1    0    0  501    0  0.00000000000E+00  0.00000000000E+00 -0.17784578107E+04  0.17784578135E+04  0.10100000352E+00 0.  1.
    10030    2    1    2    0    0  0.00000000000E+00  0.00000000000E+00 -0.10523032136E+04  0.25046124176E+04  0.22728267222E+04 0.  0.
        4    1    3    3  502    0 -0.58794917964E+03 -0.20508014860E+02 -0.15975862133E+04  0.17024653119E+04  0.12699999809E+01 0.  1.
       -4    1    3    3    0  502  0.58794917964E+03  0.20508014860E+02  0.54528299968E+03  0.80214710568E+03  0.12699999809E+01 0. -1.
</event>
<event>
 5   0  0.7954459E-05  0.2185094E+04  0.7818609E-02  0.8524658E-01
        1   -1    0    0  501    0  0.00000000000E+00  0.00000000000E+00  0.18576766781E+04  0.18576766781E+04  0.50400001928E-02 0. -1.
       -1   -1    0    0    0  501  0.00000000000E+00  0.00000000000E+00 -0.64255456386E+03  0.64255456388E+03  0.50400001928E-02 0.  1.
    10030    2    1    2    0    0  0.00000000000E+00  0.00000000000E+00  0.12151221143E+04  0.25002312420E+04  0.21850937076E+04 0.  0.
        5    1    3    3  502    0  0.99520763864E+03  0.44932887580E+03  0.64884597632E+03  0.12701802524E+04  0.46999998093E+01 0. -1.
       -5    1    3    3    0  502 -0.99520763864E+03 -0.44932887580E+03  0.56627613796E+03  0.12300509896E+04  0.46999998093E+01 0.  1.
</event>
<event>
 5   0  0.8602414E-05  0.1568640E+04  0.7818609E-02  0.8840049E-01
        1   -1    0    0  501    0  0.00000000000E+00  0.00000000000E+00  0.13178785623E+04  0.13178785623E+04  0.50400001928E-02 0. -1.
       -1   -1    0    0    0  501  0.00000000000E+00  0.00000000000E+00 -0.46677861347E+03  0.46677861350E+03  0.50400001928E-02 0.  1.
    10030    2    1    2    0    0  0.00000000000E+00  0.00000000000E+00  0.85109994881E+03  0.17846571758E+04  0.15686395737E+04 0.  0.
        3    1    3    3  502    0  0.16348920779E+03  0.50415182764E+03 -0.23221942475E+03  0.57863948864E+03  0.10100000352E+00 0.  1.
       -3    1    3    3    0  502 -0.16348920779E+03 -0.50415182764E+03  0.10833193736E+04  0.12060176871E+04  0.10100000352E+00 0. -1.
</event>
<event>
 5   0  0.7954459E-05  0.2173813E+04  0.7818609E-02  0.8529407E-01
       -1   -1    0    0    0  501  0.00000000000E+00  0.00000000000E+00  0.82316052043E+03  0.82316052044E+03  0.50400001928E-02 0.  1.
        1   -1    0    0  501    0  0.00000000000E+00  0.00000000000E+00 -0.14351585138E+04  0.14351585138E+04  0.50400001928E-02 0. -1.
    10030    2    1    2    0    0  0.00000000000E+00  0.00000000000E+00 -0.61199799337E+03  0.22583190342E+04  0.21738130822E+04 0.  0.
        5    1    3    3  502    0  0.56968140884E+03 -0.41432984592E+03 -0.11659070202E+04  0.13621921298E+04  0.46999998093E+01 0. -1.
       -5    1    3    3    0  502 -0.56968140884E+03  0.41432984592E+03  0.55390902684E+03  0.89612690441E+03  0.46999998093E+01 0.  1.
</event>
<event>
 5   0  0.8784659E-05  0.2235757E+04  0.7818609E-02  0.8503691E-01
       -1   -1    0    0    0  501  0.00000000000E+00  0.00000000000E+00  0.84871801966E+03  0.84871801968E+03  0.50400001928E-02 0.  1.
        1   -1    0    0  501    0  0.00000000000E+00  0.00000000000E+00 -0.14724003548E+04  0.14724003548E+04  0.50400001928E-02 0. -1.
    10030    2    1    2    0    0  0.00000000000E+00  0.00000000000E+00 -0.62368233512E+03  0.23211183745E+04  0.22357573332E+04 0.  0.
        4    1    3    3  502    0  0.80840416320E+02 -0.11098947577E+04 -0.42195459558E+03  0.11901465623E+04  0.12699999809E+01 0. -1.
       -4    1    3    3    0  502 -0.80840416320E+02  0.11098947577E+04 -0.20172773954E+03  0.11309718122E+04  0.12699999809E+01 0.  1.
</event>
<event>
 5   0  0.7954459E-05  0.2125861E+04  0.7818609E-02  0.8549936E-01
       -1   -1    0    0    0  501  0.00000000000E+00  0.00000000000E+00  0.91291876190E+03  0.91291876192E+03  0.50400001928E-02 0. -1.
        1   -1    0    0  501    0  0.00000000000E+00  0.00000000000E+00 -0.12375925062E+04  0.12375925062E+04  0.50400001928E-02 0.  1.
    10030    2    1    2    0    0  0.00000000000E+00  0.00000000000E+00 -0.32467374434E+03  0.21505112682E+04  0.21258611606E+04 0.  0.
        5    1    3    3  502    0 -0.95799442128E+03 -0.28360671502E+03  0.20465515502E+03  0.10198489606E+04  0.46999998093E+01 0. -1.
       -5    1    3    3    0  502  0.95799442128E+03  0.28360671502E+03 -0.52932889936E+03  0.11306623075E+04  0.46999998093E+01 0.  1.
</event>
<event>
 5   0  0.1798917E-04  0.1118826E+04  0.7818609E-02  0.9187035E-01
        2   -1    0    0  501    0  0.00000000000E+00  0.00000000000E+00  0.90931268114E+03  0.90931268115E+03  0.25500000920E-02 0. -1.
       -2   -1    0    0    0  501  0.00000000000E+00  0.00000000000E+00 -0.34415325502E+03  0.34415325503E+03  0.25500000920E-02 0.  1.
    10030    2    1    2    0    0  0.00000000000E+00  0.00000000000E+00  0.56515942613E+03  0.12534659362E+04  0.11188260259E+04 0.  0.
        4    1    3    3  502    0 -0.26280893283E+03  0.49049991542E+03  0.34676850763E+03  0.65567424304E+03  0.12699999809E+01 0.  1.
       -4    1    3    3    0  502  0.26280893283E+03 -0.49049991542E+03  0.21839091850E+03  0.59779169314E+03  0.12699999809E+01 0. -1.
</event>
<event>
 5   0  0.7954459E-05  0.2270012E+04  0.7818609E-02  0.8489839E-01
       -1   -1    0    0    0  501  0.00000000000E+00  0.00000000000E+00  0.71105287289E+03  0.71105287291E+03  0.50400001928E-02 0.  1.
        1   -1    0    0  501    0  0.00000000000E+00  0.00000000000E+00 -0.18117346542E+04  0.18117346542E+04  0.50400001928E-02 0. -1.
    10030    2    1    2    0    0  0.00000000000E+00  0.00000000000E+00 -0.11006817813E+04  0.25227875271E+04  0.22700124500E+04 0.  0.
        5    1    3    3  502    0  0.81715236984E+02 -0.11296003716E+04 -0.63308014634E+03  0.12974925592E+04  0.46999998093E+01 0. -1.
       -5    1    3    3    0  502 -0.81715236984E+02  0.11296003716E+04 -0.46760163495E+03  0.12252949679E+04  0.46999998093E+01 0.  1.
</event>
<event>
 5   0  0.1733962E-04  0.2206538E+04  0.7818609E-02  0.8515712E-01
       -2   -1    0    0    0  501  0.00000000000E+00  0.00000000000E+00  0.10814298899E+04  0.10814298899E+04  0.25500000920E-02 0.  1.
        2   -1    0    0  501    0  0.00000000000E+00  0.00000000000E+00 -0.11255495675E+04  0.11255495675E+04  0.25500000920E-02 0. -1.
    10030    2    1    2    0    0  0.00000000000E+00  0.00000000000E+00 -0.44119677584E+02  0.22069794573E+04  0.22065384155E+04 0.  0.
        3    1    3    3  502    0  0.35830624668E+03  0.49544362761E+03 -0.94058711251E+03  0.11218519871E+04  0.10100000352E+00 0. -1.
       -3    1    3    3    0  502 -0.35830624668E+03 -0.49544362761E+03  0.89646743493E+03  0.10851274702E+04  0.10100000352E+00 0.  1.
</event>
<event>
 5   0  0.1733962E-04  0.2138244E+04  0.7818609E-02  0.8544581E-01
       -2   -1    0    0    0  501  0.00000000000E+00  0.00000000000E+00  0.77576929919E+03  0.77576929919E+03  0.25500000920E-02 0.  1.
        2   -1    0    0  501    0  0.00000000000E+00  0.00000000000E+00 -0.14734036513E+04  0.14734036513E+04  0.25500000920E-02 0. -1.
    10030    2    1    2    0    0  0.00000000000E+00  0.00000000000E+00 -0.69763435209E+03  0.22491729505E+04  0.21382435016E+04 0.  0.
        3    1    3    3  502    0  0.77633965987E+03  0.53058390763E+03 -0.88393175625E+03  0.12905649579E+04  0.10100000352E+00 0. -1.
       -3    1    3    3    0  502 -0.77633965987E+03 -0.53058390763E+03  0.18629740416E+03  0.95860799262E+03  0.10100000352E+00 0.  1.
</event>
<event>
 5   0  0.6250625E-05  0.2188735E+04  0.7818609E-02  0.8523132E-01
       -4   -1    0    0    0  501  0.00000000000E+00  0.00000000000E+00  0.11351860855E+04  0.11351867959E+04  0.12699999809E+01 0.  1.
        4   -1    0    0  501    0  0.00000000000E+00  0.00000000000E+00 -0.10550151586E+04  0.10550159230E+04  0.12699999809E+01 0. -1.
    10030    2    1    2    0    0  0.00000000000E+00  0.00000000000E+00  0.80170926905E+02  0.21902027189E+04  0.21887349251E+04 0.  0.
        1    1    3    3  502    0 -0.77757522233E+03  0.45003086462E+03  0.66539582424E+03  0.11179904331E+04  0.50400001928E-02 0.  1.
       -1    1    3    3    0  502  0.77757522233E+03 -0.45003086462E+03 -0.58522489734E+03  0.10722122859E+04  0.50400001928E-02 0. -1.
</event>
<event>
 5   0  0.1680258E-04  0.2157261E+04  0.7818609E-02  0.8536431E-01
       -2   -1    0    0    0  501  0.00000000000E+00  0.00000000000E+00  0.80018533779E+03  0.80018533779E+03  0.25500000920E-02 0. -1.
        2   -1    0    0  501    0  0.00000000000E+00  0.00000000000E+00 -0.14539677528E+04  0.14539677528E+04  0.25500000920E-02 0.  1.
    10030    2    1    2    0    0  0.00000000000E+00  0.00000000000E+00 -0.65378241502E+03  0.22541530906E+04  0.21572609276E+04 0.  0.
        5    1    3    3  502    0 -0.23254316684E+03  0.46981402216E+03 -0.13118969981E+04  0.14127623167E+04  0.46999998093E+01 0.  1.
       -5    1    3    3    0  502  0.23254316684E+03 -0.46981402216E+03  0.65811458311E+03  0.84139077387E+03  0.46999998093E+01 0. -1.
</event>
<event>
 5   0  0.7954459E-05  0.2201346E+04  0.7818609E-02  0.8517868E-01
        1   -1    0    0  501    0  0.00000000000E+00  0.00000000000E+00  0.10971151654E+04  0.10971151654E+04  0.50400001928E-02 0. -1.
       -1   -1    0    0    0  501  0.00000000000E+00  0.00000000000E+00 -0.11042420222E+04  0.11042420222E+04  0.50400001928E-02 0.  1.
    10030    2    1    2    0    0  0.00000000000E+00  0.00000000000E+00 -0.71268567758E+01  0.22013571876E+04  0.22013456510E+04 0.  0.
        5    1    3    3  502    0 -0.60284692254E+03 -0.31744765750E+03  0.86088378452E+03  0.10978799605E+04  0.46999998093E+01 0. -1.
       -5    1    3    3    0  502  0.60284692254E+03  0.31744765750E+03 -0.86801064130E+03  0.11034772271E+04  0.46999998093E+01 0.  1.
</event>
<event>
 5   0  0.8470971E-05  0.2144228E+04  0.7818609E-02  0.8542007E-01
        1   -1    0    0  501    0  0.00000000000E+00  0.00000000000E+00  0.16409760955E+04  0.16409760955E+04  0.50400001928E-02 0.  1.
       -1   -1    0    0    0  501  0.00000000000E+00  0.00000000000E+00 -0.70045393697E+03  0.70045393699E+03  0.50400001928E-02 0. -1.
    10030    2    1    2    0    0  0.00000000000E+00  0.00000000000E+00  0.94052215849E+03  0.23414300325E+04  0.21442277552E+04 0.  0.
        2    1    3    3  502    0 -0.10113133948E+03 -0.10640562901E+04  0.56152270445E+03  0.12073736306E+04  0.25500000920E-02 0. -1.
       -2    1    3    3    0  502  0.10113133948E+03  0.10640562901E+04  0.37899945405E+03  0.11340564018E+04  0.25500000920E-02 0.  1.
</event>
<event>
 5   0  0.1680258E-04  0.2209170E+04  0.7818609E-02  0.8514621E-01
       -2   -1    0    0    0  501  0.00000000000E+00  0.00000000000E+00  0.59566947604E+03  0.59566947604E+03  0.25500000920E-02 0.  1.
        2   -1    0    0  501    0  0.00000000000E+00  0.00000000000E+00 -0.20482973274E+04  0.20482973274E+04  0.25500000920E-02 0. -1.
    10030    2    1    2    0    0  0.00000000000E+00  0.00000000000E+00 -0.14526278514E+04  0.26439668035E+04  0.22091701572E+04 0.  0.
        5    1    3    3  502    0  0.28898689546E+03  0.72630345178E+03  0.20770448017E+03  0.80882221216E+03  0.46999998093E+01 0.  1.
       -5    1    3    3    0  502 -0.28898689546E+03 -0.72630345178E+03 -0.16603323316E+04  0.18351445913E+04  0.46999998093E+01 0. -1.
</event>
<event>
 5   0  0.1754356E-04  0.2209510E+04  0.7818609E-02  0.8514480E-01
        2   -1    0    0  501    0  0.00000000000E+00  0.00000000000E+00  0.16390893179E+04  0.16390893179E+04  0.25500000920E-02 0.  1.
       -2   -1    0    0    0  501  0.00000000000E+00  0.00000000000E+00 -0.74461099256E+03  0.74461099257E+03  0.25500000920E-02 0. -1.
    10030    2    1    2    0    0  0.00000000000E+00  0.00000000000E+00  0.89447832530E+03  0.23837003104E+04  0.22095102841E+04 0.  0.
        1    1    3    3  502    0 -0.91782676747E+03 -0.33295192403E+03 -0.11044831096E+03  0.98257915112E+03  0.50400001928E-02 0. -1.
       -1    1    3    3    0  502  0.91782676747E+03  0.33295192403E+03  0.10049266363E+04  0.14011211593E+04  0.50400001928E-02 0.  1.
</event>
<event>
 5   0  0.8470971E-05  0.2186309E+04  0.7818609E-02  0.8524148E-01
       -1   -1    0    0    0  501  0.00000000000E+00  0.00000000000E+00  0.92837926336E+03  0.92837926337E+03  0.50400001928E-02 0. -1.
        1   -1    0    0  501    0  0.00000000000E+00  0.00000000000E+00 -0.12871756775E+04  0.12871756775E+04  0.50400001928E-02 0.  1.
    10030    2    1    2    0    0  0.00000000000E+00  0.00000000000E+00 -0.35879641412E+03  0.22155549409E+04  0.21863094084E+04 0.  0.
        2    1    3    3  502    0  0.47841085148E+03 -0.43520317114E+03  0.71370144329E+03  0.96314510493E+03  0.25500000920E-02 0. -1.
       -2    1    3    3    0  502 -0.47841085148E+03  0.43520317114E+03 -0.10724978574E+04  0.12524098359E+04  0.25500000920E-02 0.  1.
</event>
<event>
 5   0  0.1754356E-04  0.2189990E+04  0.7818609E-02  0.8522606E-01
       -2   -1    0    0    0  501  0.00000000000E+00  0.00000000000E+00  0.17334459047E+04  0.17334459047E+04  0.25500000920E-02 0. -1.
        2   -1    0    0  501    0  0.00000000000E+00  0.00000000000E+00 -0.69169397003E+03  0.69169397003E+03  0.25500000920E-02 0.  1.
    10030    2    1    2    0    0  0.00000000000E+00  0.00000000000E+00  0.10417519347E+04  0.24251398747E+04  0.21899900271E+04 0.  0.
        1    1    3    3  502    0 -0.10745214397E+04 -0.10190643369E+03  0.31658756437E+03  0.11248150655E+04  0.50400001928E-02 0.  1.
       -1    1    3    3    0  502  0.10745214397E+04  0.10190643369E+03  0.72516437030E+03  0.13003248093E+04  0.50400001928E-02 0. -1.
</event>
<event>
 5   0  0.8784659E-05  0.1412240E+04  0.7818609E-02  0.8945006E-01
       -1   -1    0    0    0  501  0.00000000000E+00  0.00000000000E+00  0.40594115078E+03  0.40594115082E+03  0.50400001928E-02 0.  1.
        1   -1    0    0  501    0  0.00000000000E+00  0.00000000000E+00 -0.12282707735E+04  0.12282707735E+04  0.50400001928E-02 0. -1.
    10030    2    1    2    0    0  0.00000000000E+00  0.00000000000E+00 -0.82232962272E+03  0.16342119243E+04  0.14122402789E+04 0.  0.
        4    1    3    3  502    0  0.58277424837E+03 -0.10894074532E+03  0.32669698792E+02  0.59377001665E+03  0.12699999809E+01 0.  1.
       -4    1    3    3    0  502 -0.58277424837E+03  0.10894074532E+03 -0.85499932151E+03  0.10404419077E+04  0.12699999809E+01 0. -1.
</event>
<event>
 5   0  0.1733962E-04  0.2236060E+04  0.7818609E-02  0.8503567E-01
        2   -1    0    0  501    0  0.00000000000E+00  0.00000000000E+00  0.21758247867E+04  0.21758247867E+04  0.25500000920E-02 0.  1.
       -2   -1    0    0    0  501  0.00000000000E+00  0.00000000000E+00 -0.57449093882E+03  0.57449093882E+03  0.25500000920E-02 0. -1.
    10030    2    1    2    0    0  0.00000000000E+00  0.00000000000E+00  0.16013338479E+04  0.27503157255E+04  0.22360604861E+04 0.  0.
        3    1    3    3  502    0  0.21634654067E+03 -0.17270031590E+03 -0.53167200156E+03  0.59942168147E+03  0.10100000352E+00 0. -1.
       -3    1    3    3    0  502 -0.21634654067E+03  0.17270031590E+03  0.21330058494E+04  0.21508940440E+04  0.10100000352E+00 0.  1.
</event>
<event>
 5   0  0.8784659E-05  0.2162855E+04  0.7818609E-02  0.8534050E-01
        1   -1    0    0  501    0  0.00000000000E+00  0.00000000000E+00  0.11933997687E+04  0.11933997687E+04  0.50400001928E-02 0.  1.
       -1   -1    0    0    0  501  0.00000000000E+00  0.00000000000E+00 -0.97996099006E+03  0.97996099007E+03  0.50400001928E-02 0. -1.
    10030    2    1    2    0    0  0.00000000000E+00  0.00000000000E+00  0.21343877860E+03  0.21733607587E+04  0.21628547976E+04 0.  0.
        4    1    3    3  502    0  0.19359954758E+03 -0.23686484289E+03 -0.93557399323E+03  0.98432009444E+03  0.12699999809E+01 0. -1.
       -4    1    3    3    0  502 -0.19359954758E+03  0.23686484289E+03  0.11490127718E+04  0.11890406643E+04  0.12699999809E+01 0.  1.
</event>
<event>
 5   0  0.1733962E-04  0.2183197E+04  0.7818609E-02  0.8525454E-01
       -2   -1    0    0    0  501  0.00000000000E+00  0.00000000000E+00  0.16719803736E+04  0.16719803736E+04  0.25500000920E-02 0. -1.
        2   -1    0    0  501    0  0.00000000000E+00  0.00000000000E+00 -0.71268050864E+03  0.71268050864E+03  0.25500000920E-02 0.  1.
    10030    2    1    2    0    0  0.00000000000E+00  0.00000000000E+00  0.95929986493E+03  0.23846608822E+04  0.21831974927E+04 0.  0.
        3    1    3    3  502    0 -0.27437925737E+03 -0.27375984833E+03 -0.63498826212E+03  0.74393449622E+03  0.10100000352E+00 0.  1.
       -3    1    3    3    0  502  0.27437925737E+03  0.27375984833E+03  0.15942881271E+04  0.16407263860E+04  0.10100000352E+00 0. -1.
</event>
<event>
 5   0  0.1798917E-04  0.1189273E+04  0.7818609E-02  0.9122298E-01
        2   -1    0    0  501    0  0.00000000000E+00  0.00000000000E+00  0.98794665060E+03  0.98794665060E+03  0.25500000920E-02 0. -1.
       -2   -1    0    0    0  501  0.00000000000E+00  0.00000000000E+00 -0.35790652323E+03  0.35790652324E+03  0.25500000920E-02 0.  1.
    10030    2    1    2    0    0  0.00000000000E+00  0.00000000000E+00  0.63004012736E+03  0.13458531738E+04  0.11892729726E+04 0.  0.
        4    1    3    3  502    0 -0.53550166612E+03  0.63529693612E+01  0.22559630087E+02  0.53601580615E+03  0.12699999809E+01 0.  1.
       -4    1    3    3    0  502  0.53550166612E+03 -0.63529693612E+01  0.60748049728E+03  0.80983736769E+03  0.12699999809E+01 0. -1.
</event>
<event>
 5   0  0.1805501E-04  0.2068612E+04  0.7818609E-02  0.8575197E-01
       -2   -1    0    0    0  501  0.00000000000E+00  0.00000000000E+00  0.84159411902E+03  0.84159411902E+03  0.25500000920E-02 0. -1.
        2   -1    0    0  501    0  0.00000000000E+00  0.00000000000E+00 -0.12711461851E+04  0.12711461851E+04  0.25500000920E-02 0.  1.
    10030    2    1    2    0    0  0.00000000000E+00  0.00000000000E+00 -0.42955206608E+03  0.21127403041E+04  0.20686122438E+04 0.  0.
        2    1    3    3  502    0 -0.51181387275E+03 -0.87130058854E+03 -0.44009728285E+03  0.11021813709E+04  0.25500000920E-02 0.  1.
       -2    1    3    3    0  502  0.51181387275E+03  0.87130058854E+03  0.10545216775E+02  0.10105589332E+04  0.25500000920E-02 0. -1.
</event>
<event>
 5   0  0.1805501E-04  0.2220394E+04  0.7818609E-02  0.8509987E-01
        2   -1    0    0  501    0  0.00000000000E+00  0.00000000000E+00  0.96198318456E+03  0.96198318456E+03  0.25500000920E-02 0.  1.
       -2   -1    0    0    0  501  0.00000000000E+00  0.00000000000E+00 -0.12812459359E+04  0.12812459359E+04  0.25500000920E-02 0. -1.
    10030    2    1    2    0    0  0.00000000000E+00  0.00000000000E+00 -0.31926275137E+03  0.22432291205E+04  0.22203936999E+04 0.  0.
        2    1    3    3  502    0  0.88240350706E+03 -0.61062107133E+03  0.12797692227E+03  0.10806813289E+04  0.25500000920E-02 0.  1.
       -2    1    3    3    0  502 -0.88240350706E+03  0.61062107133E+03 -0.44723967364E+03  0.11625477916E+04  0.25500000920E-02 0. -1.
</event>
<event>
 5   0  0.8784659E-05  0.2187546E+04  0.7818609E-02  0.8523630E-01
       -1   -1    0    0    0  501  0.00000000000E+00  0.00000000000E+00  0.11039463975E+04  0.11039463975E+04  0.50400001928E-02 0. -1.
        1   -1    0    0  501    0  0.00000000000E+00  0.00000000000E+00 -0.10836934289E+04  0.10836934289E+04  0.50400001928E-02 0.  1.
    10030    2    1    2    0    0  0.00000000000E+00  0.00000000000E+00  0.20252968608E+02  0.21876398265E+04  0.21875460744E+04 0.  0.
        4    1    3    3  502    0  0.37367576604E+03  0.57596842801E+03  0.86161152647E+03  0.11017028836E+04  0.12699999809E+01 0. -1.
       -4    1    3    3    0  502 -0.37367576604E+03 -0.57596842801E+03 -0.84135855786E+03  0.10859369429E+04  0.12699999809E+01 0.  1.
</event>
<event>
 5   0  0.1805501E-04  0.2200186E+04  0.7818609E-02  0.8518351E-01
        2   -1    0    0  501    0  0.00000000000E+00  0.00000000000E+00  0.13816728211E+04  0.13816728211E+04  0.25500000920E-02 0. -1.
       -2   -1    0    0    0  501  0.00000000000E+00  0.00000000000E+00 -0.87589841285E+03  0.87589841286E+03  0.25500000920E-02 0.  1.
    10030    2    1    2    0    0  0.00000000000E+00  0.00000000000E+00  0.50577440824E+03  0.22575712340E+04  0.22001863840E+04 0.  0.
        2    1    3    3  502    0  0.53037090923E+03 -0.61851855969E+03  0.10113182128E+04  0.12987005188E+04  0.25500000920E-02 0. -1.
       -2    1    3    3    0  502 -0.53037090923E+03  0.61851855969E+03 -0.50554380454E+03  0.95887071514E+03  0.25500000920E-02 0.  1.
</event>
<event>
 5   0  0.1680258E-04  0.2199250E+04  0.7818609E-02  0.8518741E-01
       -2   -1    0    0    0  501  0.00000000000E+00  0.00000000000E+00  0.14686042130E+04  0.14686042130E+04  0.25500000920E-02 0. -1.
        2   -1    0    0  501    0  0.00000000000E+00  0.00000000000E+00 -0.82334953214E+03  0.82334953215E+03  0.25500000920E-02 0.  1.
    10030    2    1    2    0    0  0.00000000000E+00  0.00000000000E+00  0.64525468088E+03  0.22919537452E+04  0.21992495008E+04 0.  0.
        5    1    3    3  502    0 -0.94372622601E+03 -0.49131985190E+03  0.61207221134E+03  0.12274644062E+04  0.46999998093E+01 0. -1.
       -5    1    3    3    0  502  0.94372622601E+03  0.49131985190E+03  0.33182469534E+02  0.10644893390E+04  0.46999998093E+01 0.  1.
</event>
<event>
 5   0  0.1680258E-04  0.2263415E+04  0.7818609E-02  0.8492487E-01
       -2   -1    0    0    0  501  0.00000000000E+00  0.00000000000E+00  0.85097515916E+03  0.85097515917E+03  0.25500000920E-02 0. -1.
        2   -1    0    0  501    0  0.00000000000E+00  0.00000000000E+00 -0.15050518936E+04  0.15050518936E+04  0.25500000920E-02 0.  1.
    10030    2    1    2    0    0  0.00000000000E+00  0.00000000000E+00 -0.65407673442E+03  0.23560270527E+04  0.22634149197E+04 0.  0.
        5    1    3    3  502    0 -0.21967428115E+03 -0.11043428849E+03 -0.14769040686E+04  0.14972375362E+04  0.46999998093E+01 0.  1.
       -5    1    3    3    0  502  0.21967428115E+03  0.11043428849E+03  0.82282733419E+03  0.85878951657E+03  0.46999998093E+01 0. -1.
</event>
<event>
 5   0  0.1733962E-04  0.1546462E+04  0.7818609E-02  0.8854131E-01
        2   -1    0    0  501    0  0.00000000000E+00  0.00000000000E+00  0.60363594393E+03  0.60363594393E+03  0.25500000920E-02 0.  1.
       -2   -1    0    0    0  501  0.00000000000E+00  0.00000000000E+00 -0.99047472945E+03  0.99047472946E+03  0.25500000920E-02 0. -1.
    10030    2    1    2    0    0  0.00000000000E+00  0.00000000000E+00 -0.38683878552E+03  0.15941106734E+04  0.15464619598E+04 0.  0.
        3    1    3    3  502    0 -0.25338520842E+03 -0.72583304849E+03 -0.27872462851E+03  0.81775614144E+03  0.10100000352E+00 0. -1.
       -3    1    3    3    0  502  0.25338520842E+03  0.72583304849E+03 -0.10811415702E+03  0.77635453195E+03  0.10100000352E+00 0.  1.
</event>
<event>
 5   0  0.7954459E-05  0.2177457E+04  0.7818609E-02  0.8527870E-01
       -1   -1    0    0    0  501  0.00000000000E+00  0.00000000000E+00  0.99915167882E+03  0.99915167883E+03  0.50400001928E-02 0. -1.
        1   -1    0    0  501    0  0.00000000000E+00  0.00000000000E+00 -0.11863363655E+04  0.11863363655E+04  0.50400001928E-02 0.  1.
    10030    2    1    2    0    0  0.00000000000E+00  0.00000000000E+00 -0.18718468669E+03  0.21854880443E+04  0.21774572063E+04 0.  0.
        5    1    3    3  502    0  0.49580619476E+03  0.69690104483E+03 -0.76973336923E+03  0.11506547696E+04  0.46999998093E+01 0.  1.
       -5    1    3    3    0  502 -0.49580619476E+03 -0.69690104483E+03  0.58254868254E+03  0.10348332748E+04  0.46999998093E+01 0. -1.
</event>
<event>
 5   0  0.8306787E-05  0.2095526E+04  0.7818609E-02  0.8563217E-01
        1   -1    0    0  501    0  0.00000000000E+00  0.00000000000E+00  0.15769214205E+04  0.15769214205E+04  0.50400001928E-02 0. -1.
       -1   -1    0    0    0  501  0.00000000000E+00  0.00000000000E+00 -0.69617121372E+03  0.69617121374E+03  0.50400001928E-02 0.  1.
    10030    2    1    2    0    0  0.00000000000E+00  0.00000000000E+00  0.88075020679E+03  0.22730926343E+04  0.20955259953E+04 0.  0.
        1    1    3    3  502    0  0.29775585080E+03  0.24473585526E+03 -0.61647914411E+03  0.72704932479E+03  0.50400001928E-02 0.  1.
       -1    1    3    3    0  502 -0.29775585080E+03 -0.24473585526E+03  0.14972293509E+04  0.15460433095E+04  0.50400001928E-02 0. -1.
</event>
<event>
 5   0  0.1733962E-04  0.2103027E+04  0.7818609E-02  0.8559911E-01
       -2   -1    0    0    0  501  0.00000000000E+00  0.00000000000E+00  0.12363391526E+04  0.12363391526E+04  0.25500000920E-02 0.  1.
        2   -1    0    0  501    0  0.00000000000E+00  0.00000000000E+00 -0.89431857757E+03  0.89431857758E+03  0.25500000920E-02 0. -1.
    10030    2    1    2    0    0  0.00000000000E+00  0.00000000000E+00  0.34202057506E+03  0.21306577302E+04  0.21030274106E+04 0.  0.
        3    1    3    3  502    0  0.97885449908E+03 -0.34181876527E+03  0.34848270078E+03  0.10938173529E+04  0.10100000352E+00 0.  1.
       -3    1    3    3    0  502 -0.97885449908E+03  0.34181876527E+03 -0.64621257213E+01  0.10368403773E+04  0.10100000352E+00 0. -1.
</event>
<event>
 5   0  0.8470971E-05  0.2304572E+04  0.7818609E-02  0.8476121E-01
        1   -1    0    0  501    0  0.00000000000E+00  0.00000000000E+00  0.18758759653E+04  0.18758759653E+04  0.50400001928E-02 0. -1.
       -1   -1    0    0    0  501  0.00000000000E+00  0.00000000000E+00 -0.70780970744E+03  0.70780970745E+03  0.50400001928E-02 0.  1.
    10030    2    1    2    0    0  0.00000000000E+00  0.00000000000E+00  0.11680662579E+04  0.25836856728E+04  0.23045721670E+04 0.  0.
        2    1    3    3  502    0 -0.11025647938E+04  0.17621989353E+03  0.26483937367E+03  0.11475375677E+04  0.25500000920E-02 0. -1.
       -2    1    3    3    0  502  0.11025647938E+04 -0.17621989353E+03  0.90322688423E+03  0.14361481051E+04  0.25500000920E-02 0.  1.
</event>
<event>
 5   0  0.1798917E-04  0.2276836E+04  0.7818609E-02  0.8487111E-01
        2   -1    0    0  501    0  0.00000000000E+00  0.00000000000E+00  0.17755730624E+04  0.17755730624E+04  0.25500000920E-02 0. -1.
       -2   -1    0    0    0  501  0.00000000000E+00  0.00000000000E+00 -0.72990294311E+03  0.72990294311E+03  0.25500000920E-02 0.  1.
    10030    2    1    2    0    0  0.00000000000E+00  0.00000000000E+00  0.10456701193E+04  0.25054760055E+04  0.22768364051E+04 0.  0.
        4    1    3    3  502    0  0.79940225174E+03  0.17189662191E+03  0.13944634437E+04  0.16165154863E+04  0.12699999809E+01 0. -1.
       -4    1    3    3    0  502 -0.79940225174E+03 -0.17189662191E+03 -0.34879332439E+03  0.88896051923E+03  0.12699999809E+01 0.  1.
</event>
<event>
 5   0  0.8784659E-05  0.1195414E+04  0.7818609E-02  0.9116880E-01
        1   -1    0    0  501    0  0.00000000000E+00  0.00000000000E+00  0.46089438675E+03  0.46089438677E+03  0.50400001928E-02 0. -1.
       -1   -1    0    0    0  501  0.00000000000E+00  0.00000000000E+00 -0.77513110857E+03  0.77513110859E+03  0.50400001928E-02 0.  1.
    10030    2    1    2    0    0  0.00000000000E+00  0.00000000000E+00 -0.31423672182E+03  0.12360254954E+04  0.11954138647E+04 0.  0.
        4    1    3    3  502    0  0.34185260356E+03  0.46801523888E+03 -0.60362160167E+01  0.57960289439E+03  0.12699999809E+01 0.  1.
       -4    1    3    3    0  502 -0.34185260356E+03 -0.46801523888E+03 -0.30820050581E+03  0.65642260097E+03  0.12699999809E+01 0. -1.
</event>
<event>
 5   0  0.1798917E-04  0.1312745E+04  0.7818609E-02  0.9019519E-01
        2   -1    0    0  501    0  0.00000000000E+00  0.00000000000E+00  0.73330503270E+03  0.73330503271E+03  0.25500000920E-02 0.  1.
       -2   -1    0    0    0  501  0.00000000000E+00  0.00000000000E+00 -0.58751100085E+03  0.58751100085E+03  0.25500000920E-02 0. -1.
    10030    2    1    2    0    0  0.00000000000E+00  0.00000000000E+00  0.14579403185E+03  0.13208160336E+04  0.13127448704E+04 0.  0.
        4    1    3    3  502    0  0.10265777599E+03 -0.63638978418E+03 -0.51526493190E+02  0.64667392771E+03  0.12699999809E+01 0.  1.
       -4    1    3    3    0  502 -0.10265777599E+03  0.63638978418E+03  0.19732052504E+03  0.67414210585E+03  0.12699999809E+01 0. -1.
</event>
<event>
 5   0  0.1754356E-04  0.2297903E+04  0.7818609E-02  0.8478749E-01
        2   -1    0    0  501    0  0.00000000000E+00  0.00000000000E+00  0.15581407514E+04  0.15581407514E+04  0.25500000920E-02 0. -1.
       -2   -1    0    0    0  501  0.00000000000E+00  0.00000000000E+00 -0.84722072730E+03  0.84722072730E+03  0.25500000920E-02 0.  1.
    10030    2    1    2    0    0  0.00000000000E+00  0.00000000000E+00  0.71092002414E+03  0.24053614787E+04  0.22979026443E+04 0.  0.
        1    1    3    3  502    0 -0.22802576864E+03  0.11189456388E+04  0.22283025036E+03  0.11634811620E+04  0.50400001928E-02 0. -1.
       -1    1    3    3    0  502  0.22802576864E+03 -0.11189456388E+04  0.48808977378E+03  0.12418803167E+04  0.50400001928E-02 0.  1.
</event>
<event>
 5   0  0.1805501E-04  0.2227037E+04  0.7818609E-02  0.8507258E-01
       -2   -1    0    0    0  501  0.00000000000E+00  0.00000000000E+00  0.53966822465E+03  0.53966822465E+03  0.25500000920E-02 0. -1.
        2   -1    0    0  501    0  0.00000000000E+00  0.00000000000E+00 -0.22975671448E+04  0.22975671448E+04  0.25500000920E-02 0.  1.
    10030    2    1    2    0    0  0.00000000000E+00  0.00000000000E+00 -0.17578989202E+04  0.28372353695E+04  0.22270374780E+04 0.  0.
        2    1    3    3  502    0  0.42864463825E+03 -0.87691046811E+03 -0.19618329170E+03  0.99558830796E+03  0.25500000920E-02 0. -1.
       -2    1    3    3    0  502 -0.42864463825E+03  0.87691046811E+03 -0.15617156285E+04  0.18416470615E+04  0.25500000920E-02 0.  1.
</event>
<event>
 5   0  0.8602414E-05  0.2161956E+04  0.7818609E-02  0.8534432E-01
       -1   -1    0    0    0  501  0.00000000000E+00  0.00000000000E+00  0.79670068814E+03  0.79670068815E+03  0.50400001928E-02 0. -1.
        1   -1    0    0  501    0  0.00000000000E+00  0.00000000000E+00 -0.14666913041E+04  0.14666913041E+04  0.50400001928E-02 0.  1.
    10030    2    1    2    0    0  0.00000000000E+00  0.00000000000E+00 -0.66999061594E+03  0.22633919922E+04  0.21619564947E+04 0.  0.
        3    1    3    3  502    0 -0.50885735768E+03 -0.48978320504E+03  0.52174640858E+03  0.87809038457E+03  0.10100000352E+00 0. -1.
       -3    1    3    3    0  502  0.50885735768E+03  0.48978320504E+03 -0.11917370245E+04  0.13853016077E+04  0.10100000352E+00 0.  1.
</event>
<event>
 5   0  0.8306787E-05  0.1867040E+04  0.7818609E-02  0.8671439E-01
       -1   -1    0    0    0  501  0.00000000000E+00  0.00000000000E+00  0.71242834504E+03  0.71242834505E+03  0.50400001928E-02 0. -1.
        1   -1    0    0  501    0  0.00000000000E+00  0.00000000000E+00 -0.12232245588E+04  0.12232245588E+04  0.50400001928E-02 0.  1.
    10030    2    1    2    0    0  0.00000000000E+00  0.00000000000E+00 -0.51079621372E+03  0.19356529038E+04  0.18670402760E+04 0.  0.
        1    1    3    3  502    0  0.30865634406E+03  0.69271631644E+03 -0.81977006657E+03  0.11167576263E+04  0.50400001928E-02 0.  1.
       -1    1    3    3    0  502 -0.30865634406E+03 -0.69271631644E+03  0.30897385285E+03  0.81889527753E+03  0.50400001928E-02 0. -1.
</event>
<event>
 5   0  0.8470971E-05  0.2196656E+04  0.7818609E-02  0.8519821E-01
       -1   -1    0    0    0  501  0.00000000000E+00  0.00000000000E+00  0.94651444645E+03  0.94651444647E+03  0.50400001928E-02 0. -1.
        1   -1    0    0  501    0  0.00000000000E+00  0.00000000000E+00 -0.12744914049E+04  0.12744914049E+04  0.50400001928E-02 0.  1.
    10030    2    1    2    0    0  0.00000000000E+00  0.00000000000E+00 -0.32797695840E+03  0.22210058513E+04  0.21966561193E+04 0.  0.
        2    1    3    3  502    0  0.12849913013E+03 -0.85024586408E+03  0.52688256916E+03  0.10084816793E+04  0.25500000920E-02 0. -1.
       -2    1    3    3    0  502 -0.12849913013E+03  0.85024586408E+03 -0.85485952756E+03  0.12125241720E+04  0.25500000920E-02 0.  1.
</event>
<event>
 5   0  0.1805501E-04  0.2253350E+04  0.7818609E-02  0.8496545E-01
        2   -1    0    0  501    0  0.00000000000E+00  0.00000000000E+00  0.61409108906E+03  0.61409108907E+03  0.25500000920E-02 0. -1.
       -2   -1    0    0    0  501  0.00000000000E+00  0.00000000000E+00 -0.20671135554E+04  0.20671135554E+04  0.25500000920E-02 0.  1.
    10030    2    1    2    0    0  0.00000000000E+00  0.00000000000E+00 -0.14530224663E+04  0.26812046445E+04  0.22533495197E+04 0.  0.
        2    1    3    3  502    0  0.69345974298E+03  0.61689191741E+03 -0.14864996612E+04  0.17524620668E+04  0.25500000920E-02 0.  1.
       -2    1    3    3    0  502 -0.69345974298E+03 -0.61689191741E+03  0.33477194879E+02  0.92874257763E+03  0.25500000920E-02 0. -1.
</event>
<event>
 5   0  0.1680258E-04  0.2156627E+04  0.7818609E-02  0.8536701E-01
       -2   -1    0    0    0  501  0.00000000000E+00  0.00000000000E+00  0.88806135125E+03  0.88806135125E+03  0.25500000920E-02 0.  1.
        2   -1    0    0  501    0  0.00000000000E+00  0.00000000000E+00 -0.13093236811E+04  0.13093236811E+04  0.25500000920E-02 0. -1.
    10030    2    1    2    0    0  0.00000000000E+00  0.00000000000E+00 -0.42126232981E+03  0.21973850323E+04  0.21566267711E+04 0.  0.
        5    1    3    3  502    0 -0.50889098005E+03  0.61063841253E+03  0.53175996535E+03  0.95636815672E+03  0.46999998093E+01 0.  1.
       -5    1    3    3    0  502  0.50889098005E+03 -0.61063841253E+03 -0.95302229516E+03  0.12410168756E+04  0.46999998093E+01 0. -1.
</event>
<event>
 5   0  0.8306787E-05  0.2216237E+04  0.7818609E-02  0.8511700E-01
        1   -1    0    0  501    0  0.00000000000E+00  0.00000000000E+00  0.10698607370E+04  0.10698607370E+04  0.50400001928E-02 0. -1.
       -1   -1    0    0    0  501  0.00000000000E+00  0.00000000000E+00 -0.11477448121E+04  0.11477448121E+04  0.50400001928E-02 0.  1.
    10030    2    1    2    0    0  0.00000000000E+00  0.00000000000E+00 -0.77884075111E+02  0.22176055491E+04  0.22162374517E+04 0.  0.
        1    1    3    3  502    0 -0.47770035984E+03 -0.28121998518E+03 -0.99903671375E+03  0.11425220651E+04  0.50400001928E-02 0.  1.
       -1    1    3    3    0  502  0.47770035984E+03  0.28121998518E+03  0.92115263864E+03  0.10750834840E+04  0.50400001928E-02 0. -1.
</event>
<event>
 5   0  0.1754356E-04  0.2107399E+04  0.7818609E-02  0.8557991E-01
        2   -1    0    0  501    0  0.00000000000E+00  0.00000000000E+00  0.16949695199E+04  0.16949695199E+04  0.25500000920E-02 0.  1.
       -2   -1    0    0    0  501  0.00000000000E+00  0.00000000000E+00 -0.65504604286E+03  0.65504604287E+03  0.25500000920E-02 0. -1.
    10030    2    1    2    0    0  0.00000000000E+00  0.00000000000E+00  0.10399234770E+04  0.23500155627E+04  0.21073994180E+04 0.  0.
        1    1    3    3  502    0  0.46146236176E+03 -0.79719372451E+03  0.10905507583E+04  0.14275035209E+04  0.50400001928E-02 0.  1.
       -1    1    3    3    0  502 -0.46146236176E+03  0.79719372451E+03 -0.50627281286E+02  0.92251204185E+03  0.50400001928E-02 0. -1.
</event>
<event>
 5   0  0.8306787E-05  0.2285607E+04  0.7818609E-02  0.8483618E-01
        1   -1    0    0  501    0  0.00000000000E+00  0.00000000000E+00  0.30613168921E+04  0.30613168921E+04  0.50400001928E-02 0. -1.
       -1   -1    0    0    0  501  0.00000000000E+00  0.00000000000E+00 -0.42661370676E+03  0.42661370679E+03  0.50400001928E-02 0.  1.
    10030    2    1    2    0    0  0.00000000000E+00  0.00000000000E+00  0.26347031853E+04  0.34879305989E+04  0.22856069189E+04 0.  0.
        1    1    3    3  502    0  0.47196717054E+03 -0.76617643610E+03  0.23923395588E+04  0.25559866796E+04  0.50400001928E-02 0. -1.
       -1    1    3    3    0  502 -0.47196717054E+03  0.76617643610E+03  0.24236362650E+03  0.93194391933E+03  0.50400001928E-02 0.  1.
</event>
<event>
 5   0  0.1680258E-04  0.2181882E+04  0.7818609E-02  0.8526007E-01
        2   -1    0    0  501    0  0.00000000000E+00  0.00000000000E+00  0.17776947530E+04  0.17776947530E+04  0.25500000920E-02 0. -1.
       -2   -1    0    0    0  501  0.00000000000E+00  0.00000000000E+00 -0.66949164917E+03  0.66949164918E+03  0.25500000920E-02 0.  1.
    10030    2    1    2    0    0  0.00000000000E+00  0.00000000000E+00  0.11082031038E+04  0.24471864022E+04  0.21818815659E+04 0.  0.
        5    1    3    3  502    0  0.68066310768E+03 -0.56263257662E+03  0.12725106560E+04  0.15489232202E+04  0.46999998093E+01 0. -1.
       -5    1    3    3    0  502 -0.68066310768E+03  0.56263257662E+03 -0.16430755216E+03  0.89826318199E+03  0.46999998093E+01 0.  1.
</event>
<event>
 5   0  0.1754356E-04  0.2242498E+04  0.7818609E-02  0.8500945E-01
       -2   -1    0    0    0  501  0.00000000000E+00  0.00000000000E+00  0.73644219743E+03  0.73644219743E+03  0.25500000920E-02 0.  1.
        2   -1    0    0  501    0  0.00000000000E+00  0.00000000000E+00 -0.17071249388E+04  0.17071249388E+04  0.25500000920E-02 0. -1.
    10030    2    1    2    0    0  0.00000000000E+00  0.00000000000E+00 -0.97068274137E+03  0.24435671362E+04  0.22424975730E+04 0.  0.
        1    1    3    3  502    0  0.25227810883E+03 -0.60412401170E+03  0.50654475814E+03  0.82776666865E+03  0.50400001928E-02 0.  1.
       -1    1    3    3    0  502 -0.25227810883E+03  0.60412401170E+03 -0.14772274995E+04  0.16158004676E+04  0.50400001928E-02 0. -1.
</event>
<event>
 5   0  0.1680258E-04  0.1264758E+04  0.7818609E-02  0.9057989E-01
       -2   -1    0    0    0  501  0.00000000000E+00  0.00000000000E+00  0.63393390682E+03  0.63393390683E+03  0.25500000920E-02 0.  1.
        2   -1    0    0  501    0  0.00000000000E+00  0.00000000000E+00 -0.63082786238E+03  0.63082786238E+03  0.25500000920E-02 0. -1.
    10030    2    1    2    0    0  0.00000000000E+00  0.00000000000E+00  0.31060444487E+01  0.12647617692E+04  0.12647579552E+04 0.  0.
        5    1    3    3  502    0 -0.43726126027E+03 -0.45653763329E+03  0.17586192444E+02  0.63242025940E+03  0.46999998093E+01 0. -1.
       -5    1    3    3    0  502  0.43726126027E+03  0.45653763329E+03 -0.14480147996E+02  0.63234150981E+03  0.46999998093E+01 0.  1.
</event>
<event>
 5   0  0.1680258E-04  0.2338213E+04  0.7818609E-02  0.8463005E-01
        2   -1    0    0  501    0  0.00000000000E+00  0.00000000000E+00  0.16852294111E+04  0.16852294111E+04  0.25500000920E-02 0. -1.
       -2   -1    0    0    0  501  0.00000000000E+00  0.00000000000E+00 -0.81105265218E+03  0.81105265219E+03  0.25500000920E-02 0.  1.
    10030    2    1    2    0    0  0.00000000000E+00  0.00000000000E+00  0.87417675891E+03  0.24962820633E+04  0.23382128076E+04 0.  0.
        5    1    3    3  502    0 -0.47872717169E+03  0.53194001120E+03  0.14240567021E+04  0.15937689485E+04  0.46999998093E+01 0. -1.
       -5    1    3    3    0  502  0.47872717169E+03 -0.53194001120E+03 -0.54987994319E+03  0.90251311478E+03  0.46999998093E+01 0.  1.
</event>
<event>
 5   0  0.6250625E-05  0.2108312E+04  0.7818609E-02  0.8557590E-01
        4   -1    0    0  501    0  0.00000000000E+00  0.00000000000E+00  0.11644094257E+04  0.11644101183E+04  0.12699999809E+01 0.  1.
       -4   -1    0    0    0  501  0.00000000000E+00  0.00000000000E+00 -0.95434105890E+03  0.95434190394E+03  0.12699999809E+01 0. -1.
    10030    2    1    2    0    0  0.00000000000E+00  0.00000000000E+00  0.21006836683E+03  0.21187520222E+04  0.21083124562E+04 0.  0.
        4    1    3    3  502    0 -0.13611802480E+03  0.87475996414E+03  0.68015336801E+03  0.11163974778E+04  0.12699999809E+01 0. -1.
       -4    1    3    3    0  502  0.13611802480E+03 -0.87475996414E+03 -0.47008500118E+03  0.10023545444E+04  0.12699999809E+01 0.  1.
</event>
<event>
 5   0  0.1733962E-04  0.2354008E+04  0.7818609E-02  0.8456926E-01
       -2   -1    0    0    0  501  0.00000000000E+00  0.00000000000E+00  0.13571274894E+04  0.13571274894E+04  0.25500000920E-02 0.  1.
        2   -1    0    0  501    0  0.00000000000E+00  0.00000000000E+00 -0.10207870112E+04  0.10207870112E+04  0.25500000920E-02 0. -1.
    10030    2    1    2    0    0  0.00000000000E+00  0.00000000000E+00  0.33634047813E+03  0.23779145006E+04  0.23540077432E+04 0.  0.
        3    1    3    3  502    0  0.88625206189E+03  0.18681753791E+03  0.92746515913E+03  0.12963545585E+04  0.10100000352E+00 0.  1.
       -3    1    3    3    0  502 -0.88625206189E+03 -0.18681753791E+03 -0.59112468100E+03  0.10815599421E+04  0.10100000352E+00 0. -1.
</event>
<event>
 5   0  0.8470971E-05  0.2249117E+04  0.7818609E-02  0.8498258E-01
       -1   -1    0    0    0  501  0.00000000000E+00  0.00000000000E+00  0.10170538152E+04  0.10170538152E+04  0.50400001928E-02 0. -1.
        1   -1    0    0  501    0  0.00000000000E+00  0.00000000000E+00 -0.12434262231E+04  0.12434262231E+04  0.50400001928E-02 0.  1.
    10030    2    1    2    0    0  0.00000000000E+00  0.00000000000E+00 -0.22637240783E+03  0.22604800383E+04  0.22491166125E+04 0.  0.
        2    1    3    3  502    0 -0.33680948312E+03  0.18722982627E+03  0.94862477610E+03  0.10239065395E+04  0.25500000920E-02 0. -1.
       -2    1    3    3    0  502  0.33680948312E+03 -0.18722982627E+03 -0.11749971839E+04  0.12365734988E+04  0.25500000920E-02 0.  1.
</event>
<event>
 5   0  0.1798917E-04  0.2136280E+04  0.7818609E-02  0.8545428E-01
       -2   -1    0    0    0  501  0.00000000000E+00  0.00000000000E+00  0.82909648649E+03  0.82909648649E+03  0.25500000920E-02 0. -1.
        2   -1    0    0  501    0  0.00000000000E+00  0.00000000000E+00 -0.13761043689E+04  0.13761043689E+04  0.25500000920E-02 0.  1.
    10030    2    1    2    0    0  0.00000000000E+00  0.00000000000E+00 -0.54700788239E+03  0.22052008554E+04  0.21362802225E+04 0.  0.
        4    1    3    3  502    0 -0.67695241845E+03 -0.24867117818E+03 -0.10868449979E+04  0.13043525574E+04  0.12699999809E+01 0.  1.
       -4    1    3    3    0  502  0.67695241845E+03  0.24867117818E+03  0.53983711552E+03  0.90084829794E+03  0.12699999809E+01 0. -1.
</event>
<event>
 5   0  0.8602414E-05  0.2208659E+04  0.7818609E-02  0.8514833E-01
       -1   -1    0    0    0  501  0.00000000000E+00  0.00000000000E+00  0.74488518767E+03  0.74488518769E+03  0.50400001928E-02 0. -1.
        1   -1    0    0  501    0  0.00000000000E+00  0.00000000000E+00 -0.16372240797E+04  0.16372240797E+04  0.50400001928E-02 0.  1.
    10030    2    1    2    0    0  0.00000000000E+00  0.00000000000E+00 -0.89233889203E+03  0.23821092674E+04  0.22086592910E+04 0.  0.
        3    1    3    3  502    0  0.10050444495E+03  0.79274255847E+03  0.37592513199E+03  0.88309774234E+03  0.10100000352E+00 0. -1.
       -3    1    3    3    0  502 -0.10050444495E+03 -0.79274255847E+03 -0.12682640240E+04  0.14990115251E+04  0.10100000352E+00 0.  1.
</event>
<event>
 5   0  0.1733962E-04  0.2098620E+04  0.7818609E-02  0.8561851E-01
        2   -1    0    0  501    0  0.00000000000E+00  0.00000000000E+00  0.82967524629E+03  0.82967524629E+03  0.25500000920E-02 0.  1.
       -2   -1    0    0    0  501  0.00000000000E+00  0.00000000000E+00 -0.13270877152E+04  0.13270877152E+04  0.25500000920E-02 0. -1.
    10030    2    1    2    0    0  0.00000000000E+00  0.00000000000E+00 -0.49741246892E+03  0.21567629615E+04  0.20986203344E+04 0.  0.
        3    1    3    3  502    0 -0.52973606179E+02  0.41440953113E+03 -0.12379280347E+04  0.13065248914E+04  0.10100000352E+00 0. -1.
       -3    1    3    3    0  502  0.52973606179E+02 -0.41440953113E+03  0.74051556582E+03  0.85023807011E+03  0.10100000352E+00 0.  1.
</event>
<event>
 5   0  0.8784659E-05  0.2183561E+04  0.7818609E-02  0.8525302E-01
        1   -1    0    0  501    0  0.00000000000E+00  0.00000000000E+00  0.78762297570E+03  0.78762297571E+03  0.50400001928E-02 0.  1.
       -1   -1    0    0    0  501  0.00000000000E+00  0.00000000000E+00 -0.15133950401E+04  0.15133950401E+04  0.50400001928E-02 0. -1.
    10030    2    1    2    0    0  0.00000000000E+00  0.00000000000E+00 -0.72577206436E+03  0.23010180158E+04  0.21835610409E+04 0.  0.
        4    1    3    3  502    0 -0.52033025246E+03 -0.63846938893E+03 -0.11180924125E+04  0.13887112688E+04  0.12699999809E+01 0. -1.
       -4    1    3    3    0  502  0.52033025246E+03  0.63846938893E+03  0.39232034811E+03  0.91230674703E+03  0.12699999809E+01 0.  1.
</event>
<event>
 5   0  0.1754356E-04  0.2170614E+04  0.7818609E-02  0.8530759E-01
       -2   -1    0    0    0  501  0.00000000000E+00  0.00000000000E+00  0.16195765551E+04  0.16195765551E+04  0.25500000920E-02 0.  1.
        2   -1    0    0  501    0  0.00000000000E+00  0.00000000000E+00 -0.72728379353E+03  0.72728379353E+03  0.25500000920E-02 0. -1.
    10030    2    1    2    0    0  0.00000000000E+00  0.00000000000E+00  0.89229276155E+03  0.23468603486E+04  0.21706144576E+04 0.  0.
        1    1    3    3  502    0 -0.61288064228E+03  0.56523375206E+03  0.11973871495E+04  0.14590571825E+04  0.50400001928E-02 0.  1.
       -1    1    3    3    0  502  0.61288064228E+03 -0.56523375206E+03 -0.30509438791E+03  0.88780316609E+03  0.50400001928E-02 0. -1.
</event>
<event>
 5   0  0.7954459E-05  0.2213024E+04  0.7818609E-02  0.8513027E-01
        1   -1    0    0  501    0  0.00000000000E+00  0.00000000000E+00  0.24440453117E+04  0.24440453117E+04  0.50400001928E-02 0.  1.
       -1   -1    0    0    0  501  0.00000000000E+00  0.00000000000E+00 -0.50095979845E+03  0.50095979847E+03  0.50400001928E-02 0. -1.
    10030    2    1    2    0    0  0.00000000000E+00  0.00000000000E+00  0.19430855133E+04  0.29450051102E+04  0.22130236753E+04 0.  0.
        5    1    3    3  502    0  0.10044155843E+03 -0.76583410624E+03 -0.82833018115E+02  0.77683575087E+03  0.46999998093E+01 0. -1.
       -5    1    3    3    0  502 -0.10044155843E+03  0.76583410624E+03  0.20259185314E+04  0.21681693594E+04  0.46999998093E+01 0.  1.
</event>
<event>
 5   0  0.8784659E-05  0.2070581E+04  0.7818609E-02  0.8574315E-01
        1   -1    0    0  501    0  0.00000000000E+00  0.00000000000E+00  0.12592605064E+04  0.12592605064E+04  0.50400001928E-02 0.  1.
       -1   -1    0    0    0  501  0.00000000000E+00  0.00000000000E+00 -0.85115517138E+03  0.85115517140E+03  0.50400001928E-02 0. -1.
    10030    2    1    2    0    0  0.00000000000E+00  0.00000000000E+00  0.40810533498E+03  0.21104156778E+04  0.20705806839E+04 0.  0.
        4    1    3    3  502    0  0.73757372329E+03  0.23707355382E+03  0.90399994473E+03  0.11905613719E+04  0.12699999809E+01 0.  1.
       -4    1    3    3    0  502 -0.73757372329E+03 -0.23707355382E+03 -0.49589460975E+03  0.91985430590E+03  0.12699999809E+01 0. -1.
</event>
<event>
 5   0  0.1733962E-04  0.1369328E+04  0.7818609E-02  0.8976324E-01
       -2   -1    0    0    0  501  0.00000000000E+00  0.00000000000E+00  0.36900546780E+03  0.36900546781E+03  0.25500000920E-02 0.  1.
        2   -1    0    0  501    0  0.00000000000E+00  0.00000000000E+00 -0.12703472340E+04  0.12703472340E+04  0.25500000920E-02 0. -1.
    10030    2    1    2    0    0  0.00000000000E+00  0.00000000000E+00 -0.90134176616E+03  0.16393527018E+04  0.13693284125E+04 0.  0.
        3    1    3    3  502    0  0.16380092062E+03  0.59600598922E+03 -0.80320596399E+03  0.10135056544E+04  0.10100000352E+00 0. -1.
       -3    1    3    3    0  502 -0.16380092062E+03 -0.59600598922E+03 -0.98135802169E+02  0.62584704733E+03  0.10100000352E+00 0.  1.
</event>
<event>
 5   0  0.7954459E-05  0.2243940E+04  0.7818609E-02  0.8500359E-01
       -1   -1    0    0    0  501  0.00000000000E+00  0.00000000000E+00  0.16749532718E+04  0.16749532718E+04  0.50400001928E-02 0. -1.
        1   -1    0    0  501    0  0.00000000000E+00  0.00000000000E+00 -0.75155320982E+03  0.75155320984E+03  0.50400001928E-02 0.  1.
    10030    2    1    2    0    0  0.00000000000E+00  0.00000000000E+00  0.92340006196E+03  0.24265064816E+04  0.22439398457E+04 0.  0.
        5    1    3    3  502    0 -0.23691549597E+03 -0.10555305205E+04  0.78343100634E+03  0.13356870381E+04  0.46999998093E+01 0. -1.
       -5    1    3    3    0  502  0.23691549597E+03  0.10555305205E+04  0.13996905561E+03  0.10908194436E+04  0.46999998093E+01 0.  1.
</event>
<event>
 5   0  0.8602414E-05  0.2193332E+04  0.7818609E-02  0.8521209E-01
       -1   -1    0    0    0  501  0.00000000000E+00  0.00000000000E+00  0.56707598929E+03  0.56707598931E+03  0.50400001928E-02 0.  1.
        1   -1    0    0  501    0  0.00000000000E+00  0.00000000000E+00 -0.21208384684E+04  0.21208384684E+04  0.50400001928E-02 0. -1.
    10030    2    1    2    0    0  0.00000000000E+00  0.00000000000E+00 -0.15537624791E+04  0.26879144577E+04  0.21933322344E+04 0.  0.
        3    1    3    3  502    0  0.99807989043E+03  0.18454243085E+03 -0.12858037603E+04  0.16381424531E+04  0.10100000352E+00 0. -1.
       -3    1    3    3    0  502 -0.99807989043E+03 -0.18454243085E+03 -0.26795871883E+03  0.10497720046E+04  0.10100000352E+00 0.  1.
</event>
<event>
 5   0  0.8470971E-05  0.1647875E+04  0.7818609E-02  0.8791665E-01
       -1   -1    0    0    0  501  0.00000000000E+00  0.00000000000E+00  0.11231371010E+04  0.11231371010E+04  0.50400001928E-02 0. -1.
        1   -1    0    0  501    0  0.00000000000E+00  0.00000000000E+00 -0.60444320992E+03  0.60444320994E+03  0.50400001928E-02 0.  1.
    10030    2    1    2    0    0  0.00000000000E+00  0.00000000000E+00  0.51869389104E+03  0.17275803109E+04  0.16478745031E+04 0.  0.
        2    1    3    3  502    0 -0.24988370530E+03 -0.26160660587E+03  0.10354180311E+04  0.10968000645E+04  0.25500000920E-02 0. -1.
       -2    1    3    3    0  502  0.24988370530E+03  0.26160660587E+03 -0.51672414001E+03  0.63078024643E+03  0.25500000920E-02 0.  1.
</event>
<event>
 5   0  0.1805501E-04  0.2389936E+04  0.7818609E-02  0.8443281E-01
        2   -1    0    0  501    0  0.00000000000E+00  0.00000000000E+00  0.19775401861E+04  0.19775401861E+04  0.25500000920E-02 0. -1.
       -2   -1    0    0    0  501  0.00000000000E+00  0.00000000000E+00 -0.72208319531E+03  0.72208319531E+03  0.25500000920E-02 0.  1.
    10030    2    1    2    0    0  0.00000000000E+00  0.00000000000E+00  0.12554569908E+04  0.26996233814E+04  0.23899360129E+04 0.  0.
        2    1    3    3  502    0  0.92361652315E+03  0.75675267747E+03  0.68078796963E+03  0.13744869429E+04  0.25500000920E-02 0. -1.
       -2    1    3    3    0  502 -0.92361652315E+03 -0.75675267747E+03  0.57466902116E+03  0.13251364385E+04  0.25500000920E-02 0.  1.
</event>
<event>
 5   0  0.8470971E-05  0.2241599E+04  0.7818609E-02  0.8501310E-01
       -1   -1    0    0    0  501  0.00000000000E+00  0.00000000000E+00  0.59072107750E+03  0.59072107752E+03  0.50400001928E-02 0.  1.
        1   -1    0    0  501    0  0.00000000000E+00  0.00000000000E+00 -0.21265400755E+04  0.21265400755E+04  0.50400001928E-02 0. -1.
    10030    2    1    2    0    0  0.00000000000E+00  0.00000000000E+00 -0.15358189980E+04  0.27172611530E+04  0.22415994689E+04 0.  0.
        2    1    3    3  502    0  0.51312212362E+03 -0.98701955816E+03 -0.60218777499E+03  0.12649632557E+04  0.25500000920E-02 0.  1.
       -2    1    3    3    0  502 -0.51312212362E+03  0.98701955816E+03 -0.93363122300E+03  0.14522978973E+04  0.25500000920E-02 0. -1.
</event>
<event>
 5   0  0.8470971E-05  0.2014882E+04  0.7818609E-02  0.8599694E-01
       -1   -1    0    0    0  501  0.00000000000E+00  0.00000000000E+00  0.62449895875E+03  0.62449895877E+03  0.50400001928E-02 0. -1.
        1   -1    0    0  501    0  0.00000000000E+00  0.00000000000E+00 -0.16252031942E+04  0.16252031942E+04  0.50400001928E-02 0.  1.
    10030    2    1    2    0    0  0.00000000000E+00  0.00000000000E+00 -0.10007042354E+04  0.22497021529E+04  0.20148823316E+04 0.  0.
        2    1    3    3  502    0 -0.60406506556E+02  0.49892115019E+03  0.47454148618E+03  0.69120249005E+03  0.25500000920E-02 0. -1.
       -2    1    3    3    0  502  0.60406506556E+02 -0.49892115019E+03 -0.14752457216E+04  0.15584996629E+04  0.25500000920E-02 0.  1.
</event>
<event>
 5   0  0.8602414E-05  0.1586721E+04  0.7818609E-02  0.8828747E-01
        1   -1    0    0  501    0  0.00000000000E+00  0.00000000000E+00  0.10629380166E+04  0.10629380166E+04  0.50400001928E-02 0.  1.
       -1   -1    0    0    0  501  0.00000000000E+00  0.00000000000E+00 -0.59215221871E+03  0.59215221874E+03  0.50400001928E-02 0. -1.
    10030    2    1    2    0    0  0.00000000000E+00  0.00000000000E+00  0.47078579786E+03  0.16550902353E+04  0.15867212797E+04 0.  0.
        3    1    3    3  502    0 -0.58856556386E+03 -0.35875212740E+03  0.64514017168E+03  0.94409658573E+03  0.10100000352E+00 0.  1.
       -3    1    3    3    0  502  0.58856556386E+03  0.35875212740E+03 -0.17435437382E+03  0.71099364958E+03  0.10100000352E+00 0. -1.
</event>
<event>
 5   0  0.1754356E-04  0.2055491E+04  0.7818609E-02  0.8581108E-01
       -2   -1    0    0    0  501  0.00000000000E+00  0.00000000000E+00  0.13903496313E+04  0.13903496313E+04  0.25500000920E-02 0. -1.
        2   -1    0    0  501    0  0.00000000000E+00  0.00000000000E+00 -0.75970858237E+03  0.75970858237E+03  0.25500000920E-02 0.  1.
    10030    2    1    2    0    0  0.00000000000E+00  0.00000000000E+00  0.63064104897E+03  0.21500582137E+04  0.20554907418E+04 0.  0.
        1    1    3    3  502    0 -0.69213781877E+03 -0.68284083476E+03 -0.33070843204E+02  0.97284122368E+03  0.50400001928E-02 0.  1.
       -1    1    3    3    0  502  0.69213781877E+03  0.68284083476E+03  0.66371189217E+03  0.11772169900E+04  0.50400001928E-02 0. -1.
</event>
<event>
 5   0  0.1798917E-04  0.2132148E+04  0.7818609E-02  0.8547213E-01
        2   -1    0    0  501    0  0.00000000000E+00  0.00000000000E+00  0.23676326748E+04  0.23676326748E+04  0.25500000920E-02 0. -1.
       -2   -1    0    0    0  501  0.00000000000E+00  0.00000000000E+00 -0.48002122424E+03  0.48002122424E+03  0.25500000920E-02 0.  1.
    10030    2    1    2    0    0  0.00000000000E+00  0.00000000000E+00  0.18876114506E+04  0.28476538991E+04  0.21321481516E+04 0.  0.
        4    1    3    3  502    0  0.86510308002E+03 -0.55046062001E+03  0.55418689641E+03  0.11655620800E+04  0.12699999809E+01 0.  1.
       -4    1    3    3    0  502 -0.86510308002E+03  0.55046062001E+03  0.13334245542E+04  0.16820918191E+04  0.12699999809E+01 0. -1.
</event>
<event>
 5   0  0.8306787E-05  0.2069989E+04  0.7818609E-02  0.8574580E-01
       -1   -1    0    0    0  501  0.00000000000E+00  0.00000000000E+00  0.14002731460E+04  0.14002731460E+04  0.50400001928E-02 0. -1.
        1   -1    0    0  501    0  0.00000000000E+00  0.00000000000E+00 -0.76500316461E+03  0.76500316463E+03  0.50400001928E-02 0.  1.
    10030    2    1    2    0    0  0.00000000000E+00  0.00000000000E+00  0.63526998140E+03  0.21652763106E+04  0.20699887807E+04 0.  0.
        1    1    3    3  502    0 -0.18120234169E+03  0.94163589450E+03  0.72505229514E+03  0.12021702363E+04  0.50400001928E-02 0. -1.
       -1    1    3    3    0  502  0.18120234169E+03 -0.94163589450E+03 -0.89782313741E+02  0.96310607429E+03  0.50400001928E-02 0.  1.
</event>
<event>
 5   0  0.1754356E-04  0.2281025E+04  0.7818609E-02  0.8485441E-01
        2   -1    0    0  501    0  0.00000000000E+00  0.00000000000E+00  0.13126512412E+04  0.13126512412E+04  0.25500000920E-02 0.  1.
       -2   -1    0    0    0  501  0.00000000000E+00  0.00000000000E+00 -0.99094739782E+03  0.99094739783E+03  0.25500000920E-02 0. -1.
    10030    2    1    2    0    0  0.00000000000E+00  0.00000000000E+00  0.32170384341E+03  0.23035986391E+04  0.22810246222E+04 0.  0.
        1    1    3    3  502    0 -0.52340193087E+03 -0.98823757137E+03  0.38713465718E+03  0.11834003217E+04  0.50400001928E-02 0. -1.
       -1    1    3    3    0  502  0.52340193087E+03  0.98823757137E+03 -0.65430813766E+02  0.11201983173E+04  0.50400001928E-02 0.  1.
</event>
<event>
 5   0  0.1798917E-04  0.2130120E+04  0.7818609E-02  0.8548090E-01
        2   -1    0    0  501    0  0.00000000000E+00  0.00000000000E+00  0.15786376960E+04  0.15786376960E+04  0.25500000920E-02 0.  1.
       -2   -1    0    0    0  501  0.00000000000E+00  0.00000000000E+00 -0.71856451504E+03  0.71856451504E+03  0.25500000920E-02 0. -1.
    10030    2    1    2    0    0  0.00000000000E+00  0.00000000000E+00  0.86007318096E+03  0.22972022110E+04  0.21301202130E+04 0.  0.
        4    1    3    3  502    0 -0.27975526447E+03  0.52440408885E+03  0.13831515952E+04  0.15054476426E+04  0.12699999809E+01 0.  1.
       -4    1    3    3    0  502  0.27975526447E+03 -0.52440408885E+03 -0.52307841420E+03  0.79175456848E+03  0.12699999809E+01 0. -1.
</event>
<event>
 5   0  0.1680258E-04  0.2198813E+04  0.7818609E-02  0.8518922E-01
       -2   -1    0    0    0  501  0.00000000000E+00  0.00000000000E+00  0.98080430989E+03  0.98080430990E+03  0.25500000920E-02 0. -1.
        2   -1    0    0  501    0  0.00000000000E+00  0.00000000000E+00 -0.12323505657E+04  0.12323505657E+04  0.25500000920E-02 0.  1.
    10030    2    1    2    0    0  0.00000000000E+00  0.00000000000E+00 -0.25154625579E+03  0.22131548756E+04  0.21988130854E+04 0.  0.
        5    1    3    3  502    0 -0.34341759803E+02 -0.48049369324E+03  0.86891309574E+03  0.99352181841E+03  0.46999998093E+01 0. -1.
       -5    1    3    3    0  502  0.34341759803E+02  0.48049369324E+03 -0.11204593515E+04  0.12196330572E+04  0.46999998093E+01 0.  1.
</event>
<event>
 5   0  0.1754356E-04  0.2244800E+04  0.7818609E-02  0.8500009E-01
       -2   -1    0    0    0  501  0.00000000000E+00  0.00000000000E+00  0.90242530654E+03  0.90242530655E+03  0.25500000920E-02 0.  1.
        2   -1    0    0  501    0  0.00000000000E+00  0.00000000000E+00 -0.13959959431E+04  0.13959959431E+04  0.25500000920E-02 0. -1.
    10030    2    1    2    0    0  0.00000000000E+00  0.00000000000E+00 -0.49357063656E+03  0.22984212496E+04  0.22448002734E+04 0.  0.
        1    1    3    3  502    0 -0.52859272918E+03 -0.99008176377E+03 -0.23605185081E+03  0.11469056843E+04  0.50400001928E-02 0.  1.
       -1    1    3    3    0  502  0.52859272918E+03  0.99008176377E+03 -0.25751878575E+03  0.11515155654E+04  0.50400001928E-02 0. -1.
</event>
<event>
 5   0  0.1680258E-04  0.2197476E+04  0.7818609E-02  0.8519479E-01
       -2   -1    0    0    0  501  0.00000000000E+00  0.00000000000E+00  0.63187485443E+03  0.63187485444E+03  0.25500000920E-02 0. -1.
        2   -1    0    0  501    0  0.00000000000E+00  0.00000000000E+00 -0.19105454564E+04  0.19105454564E+04  0.25500000920E-02 0.  1.
    10030    2    1    2    0    0  0.00000000000E+00  0.00000000000E+00 -0.12786706020E+04  0.25424203108E+04  0.21974764000E+04 0.  0.
        5    1    3    3  502    0 -0.61200706838E+03  0.88913016852E+03 -0.87672184584E+03  0.13906000120E+04  0.46999998093E+01 0.  1.
       -5    1    3    3    0  502  0.61200706838E+03 -0.88913016852E+03 -0.40194875613E+03  0.11518202989E+04  0.46999998093E+01 0. -1.
</event>
<event>
 5   0  0.1754356E-04  0.2175066E+04  0.7818609E-02  0.8528878E-01
       -2   -1    0    0    0  501  0.00000000000E+00  0.00000000000E+00  0.10778706176E+04  0.10778706176E+04  0.25500000920E-02 0. -1.
        2   -1    0    0  501    0  0.00000000000E+00  0.00000000000E+00 -0.10972819529E+04  0.10972819529E+04  0.25500000920E-02 0.  1.
    10030    2    1    2    0    0  0.00000000000E+00  0.00000000000E+00 -0.19411335321E+02  0.21751525705E+04  0.21750659542E+04 0.  0.
        1    1    3    3  502    0 -0.84389373745E+03 -0.41960556386E+03 -0.55240813029E+03  0.10924194303E+04  0.50400001928E-02 0.  1.
       -1    1    3    3    0  502  0.84389373745E+03  0.41960556386E+03  0.53299679497E+03  0.10827331402E+04  0.50400001928E-02 0. -1.
</event>
<event>
 5   0  0.8784659E-05  0.2194264E+04  0.7818609E-02  0.8520819E-01
       -1   -1    0    0    0  501  0.00000000000E+00  0.00000000000E+00  0.16767029142E+04  0.16767029142E+04  0.50400001928E-02 0.  1.
        1   -1    0    0  501    0  0.00000000000E+00  0.00000000000E+00 -0.71789622283E+03  0.71789622284E+03  0.50400001928E-02 0. -1.
    10030    2    1    2    0    0  0.00000000000E+00  0.00000000000E+00  0.95880669136E+03  0.23945991370E+04  0.21942640579E+04 0.  0.
        4    1    3    3  502    0 -0.28097779006E+03  0.49938973404E+02  0.16354880101E+04  0.16602003083E+04  0.12699999809E+01 0.  1.
       -4    1    3    3    0  502  0.28097779006E+03 -0.49938973404E+02 -0.67668131876E+03  0.73439882872E+03  0.12699999809E+01 0. -1.
</event>
<event>
 5   0  0.8602414E-05  0.2200122E+04  0.7818609E-02  0.8518378E-01
        1   -1    0    0  501    0  0.00000000000E+00  0.00000000000E+00  0.18009076264E+04  0.18009076264E+04  0.50400001928E-02 0.  1.
       -1   -1    0    0    0  501  0.00000000000E+00  0.00000000000E+00 -0.67195768878E+03  0.67195768880E+03  0.50400001928E-02 0. -1.
    10030    2    1    2    0    0  0.00000000000E+00  0.00000000000E+00  0.11289499377E+04  0.24728653152E+04  0.22001215661E+04 0.  0.
        3    1    3    3  502    0 -0.90375685644E+03 -0.22205886487E+03  0.12237441118E+04  0.15374121947E+04  0.10100000352E+00 0. -1.
       -3    1    3    3    0  502  0.90375685644E+03  0.22205886487E+03 -0.94794174190E+02  0.93545312052E+03  0.10100000352E+00 0.  1.
</event>
<event>
 5   0  0.1754356E-04  0.2150323E+04  0.7818609E-02  0.8539394E-01
       -2   -1    0    0    0  501  0.00000000000E+00  0.00000000000E+00  0.46734675864E+03  0.46734675864E+03  0.25500000920E-02 0.  1.
        2   -1    0    0  501    0  0.00000000000E+00  0.00000000000E+00 -0.24734780027E+04  0.24734780027E+04  0.25500000920E-02 0. -1.
    10030    2    1    2    0    0  0.00000000000E+00  0.00000000000E+00 -0.20061312441E+04  0.29408247613E+04  0.21503226987E+04 0.  0.
        1    1    3    3  502    0 -0.34996933635E+03 -0.75024243118E+03 -0.19412866569E+04  0.21104350562E+04  0.50400001928E-02 0. -1.
       -1    1    3    3    0  502  0.34996933635E+03  0.75024243118E+03 -0.64844587114E+02  0.83038970515E+03  0.50400001928E-02 0.  1.
</event>
<event>
 5   0  0.8470971E-05  0.2091377E+04  0.7818609E-02  0.8565051E-01
        1   -1    0    0  501    0  0.00000000000E+00  0.00000000000E+00  0.10671971457E+04  0.10671971457E+04  0.50400001928E-02 0. -1.
       -1   -1    0    0    0  501  0.00000000000E+00  0.00000000000E+00 -0.10246133850E+04  0.10246133850E+04  0.50400001928E-02 0.  1.
    10030    2    1    2    0    0  0.00000000000E+00  0.00000000000E+00  0.42583760770E+02  0.20918105307E+04  0.20913770391E+04 0.  0.
        2    1    3    3  502    0  0.59243097813E+03 -0.53812086922E+03 -0.65183791583E+03  0.10322021131E+04  0.25500000920E-02 0.  1.
       -2    1    3    3    0  502 -0.59243097813E+03  0.53812086922E+03  0.69442167661E+03  0.10596084176E+04  0.25500000920E-02 0. -1.
</event>
<event>
 5   0  0.1805501E-04  0.1850074E+04  0.7818609E-02  0.8680115E-01
        2   -1    0    0  501    0  0.00000000000E+00  0.00000000000E+00  0.14693270818E+04  0.14693270818E+04  0.25500000920E-02 0. -1.
       -2   -1    0    0    0  501  0.00000000000E+00  0.00000000000E+00 -0.58237089419E+03  0.58237089419E+03  0.25500000920E-02 0.  1.
    10030    2    1    2    0    0  0.00000000000E+00  0.00000000000E+00  0.88695618763E+03  0.20516979760E+04  0.18500738650E+04 0.  0.
        2    1    3    3  502    0 -0.70373171031E+03  0.44683389639E+03  0.88817071524E+03  0.12180911585E+04  0.25500000920E-02 0. -1.
       -2    1    3    3    0  502  0.70373171031E+03 -0.44683389639E+03 -0.12145276141E+01  0.83360681748E+03  0.25500000920E-02 0.  1.
</event>
<event>
 5   0  0.8784659E-05  0.2124714E+04  0.7818609E-02  0.8550434E-01
        1   -1    0    0  501    0  0.00000000000E+00  0.00000000000E+00  0.74839137851E+03  0.74839137853E+03  0.50400001928E-02 0.  1.
       -1   -1    0    0    0  501  0.00000000000E+00  0.00000000000E+00 -0.15080380036E+04  0.15080380036E+04  0.50400001928E-02 0. -1.
    10030    2    1    2    0    0  0.00000000000E+00  0.00000000000E+00 -0.75964662505E+03  0.22564293821E+04  0.21247142305E+04 0.  0.
        4    1    3    3  502    0 -0.18311869609E+03  0.26744807905E+03 -0.14542422381E+04  0.14899271901E+04  0.12699999809E+01 0. -1.
       -4    1    3    3    0  502  0.18311869609E+03 -0.26744807905E+03  0.69459561302E+03  0.76650219202E+03  0.12699999809E+01 0.  1.
</event>
<event>
 5   0  0.1680258E-04  0.2162233E+04  0.7818609E-02  0.8534314E-01
       -2   -1    0    0    0  501  0.00000000000E+00  0.00000000000E+00  0.13754275338E+04  0.13754275338E+04  0.25500000920E-02 0.  1.
        2   -1    0    0  501    0  0.00000000000E+00  0.00000000000E+00 -0.84978119381E+03  0.84978119381E+03  0.25500000920E-02 0. -1.
    10030    2    1    2    0    0  0.00000000000E+00  0.00000000000E+00  0.52564634002E+03  0.22252087276E+04  0.21622325978E+04 0.  0.
        5    1    3    3  502    0 -0.66604872364E+03 -0.10637319769E+02 -0.61347965440E+03  0.90560114355E+03  0.46999998093E+01 0. -1.
       -5    1    3    3    0  502  0.66604872364E+03  0.10637319769E+02  0.11391259944E+04  0.13196075841E+04  0.46999998093E+01 0.  1.
</event>
<event>
 5   0  0.8306787E-05  0.2128519E+04  0.7818609E-02  0.8548783E-01
       -1   -1    0    0    0  501  0.00000000000E+00  0.00000000000E+00  0.57714610697E+03  0.57714610700E+03  0.50400001928E-02 0. -1.
        1   -1    0    0  501    0  0.00000000000E+00  0.00000000000E+00 -0.19624987326E+04  0.19624987326E+04  0.50400001928E-02 0.  1.
    10030    2    1    2    0    0  0.00000000000E+00  0.00000000000E+00 -0.13853526256E+04  0.25396448396E+04  0.21285192069E+04 0.  0.
        1    1    3    3  502    0  0.46653242076E+03 -0.15828533392E+03 -0.18182558919E+04  0.18838156053E+04  0.50400001928E-02 0.  1.
       -1    1    3    3    0  502 -0.46653242076E+03  0.15828533392E+03  0.43290326625E+03  0.65582923426E+03  0.50400001928E-02 0. -1.
</event>
<event>
 5   0  0.1754356E-04  0.2217174E+04  0.7818609E-02  0.8511314E-01
       -2   -1    0    0    0  501  0.00000000000E+00  0.00000000000E+00  0.17314927207E+04  0.17314927207E+04  0.25500000920E-02 0.  1.
        2   -1    0    0  501    0  0.00000000000E+00  0.00000000000E+00 -0.70977198205E+03  0.70977198205E+03  0.25500000920E-02 0. -1.
    10030    2    1    2    0    0  0.00000000000E+00  0.00000000000E+00  0.10217207386E+04  0.24412647027E+04  0.22171738951E+04 0.  0.
        1    1    3    3  502    0 -0.83219004024E+03 -0.66959059637E+03  0.83762645792E+03  0.13573908475E+04  0.50400001928E-02 0. -1.
       -1    1    3    3    0  502  0.83219004024E+03  0.66959059637E+03  0.18409428070E+03  0.10838738552E+04  0.50400001928E-02 0.  1.
</event>
<event>
 5   0  0.8470971E-05  0.2299400E+04  0.7818609E-02  0.8478158E-01
        1   -1    0    0  501    0  0.00000000000E+00  0.00000000000E+00  0.83164312616E+03  0.83164312618E+03  0.50400001928E-02 0. -1.
       -1   -1    0    0    0  501  0.00000000000E+00  0.00000000000E+00 -0.15893952072E+04  0.15893952072E+04  0.50400001928E-02 0.  1.
    10030    2    1    2    0    0  0.00000000000E+00  0.00000000000E+00 -0.75775208104E+03  0.24210383334E+04  0.22993995728E+04 0.  0.
        2    1    3    3  502    0 -0.11385588170E+04 -0.14020908115E+03 -0.29844912340E+03  0.11853466352E+04  0.25500000920E-02 0. -1.
       -2    1    3    3    0  502  0.11385588170E+04  0.14020908115E+03 -0.45930295765E+03  0.12356916982E+04  0.25500000920E-02 0.  1.
</event>
<event>
 5   0  0.8470971E-05  0.2141965E+04  0.7818609E-02  0.8542979E-01
       -1   -1    0    0    0  501  0.00000000000E+00  0.00000000000E+00  0.86369984898E+03  0.86369984899E+03  0.50400001928E-02 0. -1.
        1   -1    0    0  501    0  0.00000000000E+00  0.00000000000E+00 -0.13280118077E+04  0.13280118077E+04  0.50400001928E-02 0.  1.
    10030    2    1    2    0    0  0.00000000000E+00  0.00000000000E+00 -0.46431195874E+03  0.21917116567E+04  0.21419650770E+04 0.  0.
        2    1    3    3  502    0 -0.10699722704E+04  0.41052442111E+02 -0.20979353705E+03  0.10911183669E+04  0.25500000920E-02 0.  1.
       -2    1    3    3    0  502  0.10699722704E+04 -0.41052442111E+02 -0.25451842170E+03  0.11005932898E+04  0.25500000920E-02 0. -1.
</event>
<event>
 5   0  0.7954459E-05  0.1959743E+04  0.7818609E-02  0.8625677E-01
        1   -1    0    0  501    0  0.00000000000E+00  0.00000000000E+00  0.84836173446E+03  0.84836173448E+03  0.50400001928E-02 0. -1.
       -1   -1    0    0    0  501  0.00000000000E+00  0.00000000000E+00 -0.11317678910E+04  0.11317678910E+04  0.50400001928E-02 0.  1.
    10030    2    1    2    0    0  0.00000000000E+00  0.00000000000E+00 -0.28340615657E+03  0.19801296255E+04  0.19597434231E+04 0.  0.
        5    1    3    3  502    0  0.82484849034E+03  0.20262493281E+03  0.35194299849E+03  0.91941169212E+03  0.46999998093E+01 0. -1.
       -5    1    3    3    0  502 -0.82484849034E+03 -0.20262493281E+03 -0.63534915506E+03  0.10607179334E+04  0.46999998093E+01 0.  1.
</event>
<event>
 5   0  0.7954459E-05  0.1862693E+04  0.7818609E-02  0.8673653E-01
        1   -1    0    0  501    0  0.00000000000E+00  0.00000000000E+00  0.10724724894E+04  0.10724724894E+04  0.50400001928E-02 0. -1.
       -1   -1    0    0    0  501  0.00000000000E+00  0.00000000000E+00 -0.80879078639E+03  0.80879078641E+03  0.50400001928E-02 0.  1.
    10030    2    1    2    0    0  0.00000000000E+00  0.00000000000E+00  0.26368170299E+03  0.18812632758E+04  0.18626925330E+04 0.  0.
        5    1    3    3  502    0 -0.52485416813E+02 -0.65647160876E+03  0.79694574021E+03  0.10338540975E+04  0.46999998093E+01 0. -1.
       -5    1    3    3    0  502  0.52485416813E+02  0.65647160876E+03 -0.53326403722E+03  0.84740917830E+03  0.46999998093E+01 0.  1.
</event>
<event>
 5   0  0.8784659E-05  0.2164452E+04  0.7818609E-02  0.8533371E-01
       -1   -1    0    0    0  501  0.00000000000E+00  0.00000000000E+00  0.90092888700E+03  0.90092888701E+03  0.50400001928E-02 0. -1.
        1   -1    0    0  501    0  0.00000000000E+00  0.00000000000E+00 -0.13000058379E+04  0.13000058379E+04  0.50400001928E-02 0.  1.
    10030    2    1    2    0    0  0.00000000000E+00  0.00000000000E+00 -0.39907695091E+03  0.22009347249E+04  0.21644517206E+04 0.  0.
        4    1    3    3  502    0 -0.11181679038E+03  0.95559607601E+03  0.30433816772E+03  0.10091036559E+04  0.12699999809E+01 0. -1.
       -4    1    3    3    0  502  0.11181679038E+03 -0.95559607601E+03 -0.70341511863E+03  0.11918310690E+04  0.12699999809E+01 0.  1.
</event>
<event>
 5   0  0.1798917E-04  0.2211924E+04  0.7818609E-02  0.8513481E-01
       -2   -1    0    0    0  501  0.00000000000E+00  0.00000000000E+00  0.73324928958E+03  0.73324928959E+03  0.25500000920E-02 0. -1.
        2   -1    0    0  501    0  0.00000000000E+00  0.00000000000E+00 -0.16681259143E+04  0.16681259143E+04  0.25500000920E-02 0.  1.
    10030    2    1    2    0    0  0.00000000000E+00  0.00000000000E+00 -0.93487662468E+03  0.24013752039E+04  0.22119241773E+04 0.  0.
        4    1    3    3  502    0  0.39598229766E+03  0.94386392769E+03 -0.92220696874E+03  0.13777330656E+04  0.12699999809E+01 0. -1.
       -4    1    3    3    0  502 -0.39598229766E+03 -0.94386392769E+03 -0.12669655947E+02  0.10236421382E+04  0.12699999809E+01 0.  1.
</event>
<event>
 5   0  0.1754356E-04  0.1902346E+04  0.7818609E-02  0.8653690E-01
        2   -1    0    0  501    0  0.00000000000E+00  0.00000000000E+00  0.81788743625E+03  0.81788743625E+03  0.25500000920E-02 0. -1.
       -2   -1    0    0    0  501  0.00000000000E+00  0.00000000000E+00 -0.11061789911E+04  0.11061789911E+04  0.25500000920E-02 0.  1.
    10030    2    1    2    0    0  0.00000000000E+00  0.00000000000E+00 -0.28829155488E+03  0.19240664274E+04  0.19023458141E+04 0.  0.
        1    1    3    3  502    0 -0.85410745105E+03  0.41424015461E+03 -0.20512894902E+03  0.97117059747E+03  0.50400001928E-02 0.  1.
       -1    1    3    3    0  502  0.85410745105E+03 -0.41424015461E+03 -0.83162605862E+02  0.95289582992E+03  0.50400001928E-02 0. -1.
</event>
<event>
 5   0  0.1680258E-04  0.2205386E+04  0.7818609E-02  0.8516190E-01
        2   -1    0    0  501    0  0.00000000000E+00  0.00000000000E+00  0.18930846502E+04  0.18930846502E+04  0.25500000920E-02 0.  1.
       -2   -1    0    0    0  501  0.00000000000E+00  0.00000000000E+00 -0.64230185470E+03  0.64230185471E+03  0.25500000920E-02 0. -1.
    10030    2    1    2    0    0  0.00000000000E+00  0.00000000000E+00  0.12507827955E+04  0.25353865049E+04  0.22053859362E+04 0.  0.
        5    1    3    3  502    0 -0.90213705565E+03 -0.63296552290E+03  0.66860710774E+03  0.12890128684E+04  0.46999998093E+01 0. -1.
       -5    1    3    3    0  502  0.90213705565E+03  0.63296552290E+03  0.58217568772E+03  0.12463736365E+04  0.46999998093E+01 0.  1.
</event>
<event>
 5   0  0.1805501E-04  0.2175382E+04  0.7818609E-02  0.8528745E-01
       -2   -1    0    0    0  501  0.00000000000E+00  0.00000000000E+00  0.95216434409E+03  0.95216434409E+03  0.25500000920E-02 0.  1.
        2   -1    0    0  501    0  0.00000000000E+00  0.00000000000E+00 -0.12425075678E+04  0.12425075678E+04  0.25500000920E-02 0. -1.
    10030    2    1    2    0    0  0.00000000000E+00  0.00000000000E+00 -0.29034322376E+03  0.21946719119E+04  0.21753817167E+04 0.  0.
        2    1    3    3  502    0 -0.23306912078E+03 -0.10237429486E+04  0.14142589936E+03  0.10594206553E+04  0.25500000920E-02 0.  1.
       -2    1    3    3    0  502  0.23306912078E+03  0.10237429486E+04 -0.43176912312E+03  0.11352512566E+04  0.25500000920E-02 0. -1.
</event>
<event>
 5   0  0.8470971E-05  0.1764646E+04  0.7818609E-02  0.8725330E-01
        1   -1    0    0  501    0  0.00000000000E+00  0.00000000000E+00  0.12862233215E+04  0.12862233215E+04  0.50400001928E-02 0. -1.
       -1   -1    0    0    0  501  0.00000000000E+00  0.00000000000E+00 -0.60525545730E+03  0.60525545733E+03  0.50400001928E-02 0.  1.
    10030    2    1    2    0    0  0.00000000000E+00  0.00000000000E+00  0.68096786415E+03  0.18914787788E+04  0.17646457828E+04 0.  0.
        2    1    3    3  502    0 -0.57041915550E+03  0.63149229072E+03  0.59033223651E+03  0.10356894687E+04  0.25500000920E-02 0. -1.
       -2    1    3    3    0  502  0.57041915550E+03 -0.63149229072E+03  0.90635627640E+02  0.85578931005E+03  0.25500000920E-02 0.  1.
</event>
<event>
 5   0  0.8306787E-05  0.2204383E+04  0.7818609E-02  0.8516606E-01
       -1   -1    0    0    0  501  0.00000000000E+00  0.00000000000E+00  0.65142899004E+03  0.65142899006E+03  0.50400001928E-02 0. -1.
        1   -1    0    0  501    0  0.00000000000E+00  0.00000000000E+00 -0.18648635342E+04  0.18648635342E+04  0.50400001928E-02 0.  1.
    10030    2    1    2    0    0  0.00000000000E+00  0.00000000000E+00 -0.12134345441E+04  0.25162925242E+04  0.22043830599E+04 0.  0.
        1    1    3    3  502    0  0.51781896506E+03  0.51994452974E+03  0.33205221779E+03  0.80544240635E+03  0.50400001928E-02 0. -1.
       -1    1    3    3    0  502 -0.51781896506E+03 -0.51994452974E+03 -0.15454867619E+04  0.17108501179E+04  0.50400001928E-02 0.  1.
</event>
<event>
 5   0  0.1680258E-04  0.1640197E+04  0.7818609E-02  0.8796227E-01
        2   -1    0    0  501    0  0.00000000000E+00  0.00000000000E+00  0.14212438849E+04  0.14212438849E+04  0.25500000920E-02 0.  1.
       -2   -1    0    0    0  501  0.00000000000E+00  0.00000000000E+00 -0.47322057632E+03  0.47322057633E+03  0.25500000920E-02 0. -1.
    10030    2    1    2    0    0  0.00000000000E+00  0.00000000000E+00  0.94802330855E+03  0.18944644612E+04  0.16401973665E+04 0.  0.
        5    1    3    3  502    0 -0.63281290249E+03  0.40205897952E+03  0.85784792949E+03  0.11393106480E+04  0.46999998093E+01 0.  1.
       -5    1    3    3    0  502  0.63281290249E+03 -0.40205897952E+03  0.90175379057E+02  0.75515381318E+03  0.46999998093E+01 0. -1.
</event>
<event>
 5   0  0.1754356E-04  0.2186351E+04  0.7818609E-02  0.8524131E-01
        2   -1    0    0  501    0  0.00000000000E+00  0.00000000000E+00  0.13532052142E+04  0.13532052142E+04  0.25500000920E-02 0.  1.
       -2   -1    0    0    0  501  0.00000000000E+00  0.00000000000E+00 -0.88311283400E+03  0.88311283400E+03  0.25500000920E-02 0. -1.
    10030    2    1    2    0    0  0.00000000000E+00  0.00000000000E+00  0.47009238025E+03  0.22363180483E+04  0.21863511994E+04 0.  0.
        1    1    3    3  502    0  0.44554755224E+03 -0.99443998181E+03  0.14582075985E+03  0.10994031075E+04  0.50400001928E-02 0. -1.
       -1    1    3    3    0  502 -0.44554755224E+03  0.99443998181E+03  0.32427162040E+03  0.11369149408E+04  0.50400001928E-02 0.  1.
</event>
<event>
 5   0  0.6250625E-05  0.2204224E+04  0.7818609E-02  0.8516672E-01
        3   -1    0    0  501    0  0.00000000000E+00  0.00000000000E+00  0.16559862454E+04  0.16559862485E+04  0.10100000352E+00 0. -1.
       -3   -1    0    0    0  501  0.00000000000E+00  0.00000000000E+00 -0.73349095608E+03  0.73349096304E+03  0.10100000352E+00 0.  1.
    10030    2    1    2    0    0  0.00000000000E+00  0.00000000000E+00  0.92249528933E+03  0.23894772115E+04  0.22042240779E+04 0.  0.
        2    1    3    3  502    0 -0.28410030173E+02 -0.50185641055E+03 -0.60199176639E+03  0.78425829509E+03  0.25500000920E-02 0.  1.
       -2    1    3    3    0  502  0.28410030173E+02  0.50185641055E+03  0.15244870557E+04  0.16052189164E+04  0.25500000920E-02 0. -1.
</event>
<event>
 5   0  0.8602414E-05  0.2209727E+04  0.7818609E-02  0.8514390E-01
        1   -1    0    0  501    0  0.00000000000E+00  0.00000000000E+00  0.16904773524E+04  0.16904773524E+04  0.50400001928E-02 0. -1.
       -1   -1    0    0    0  501  0.00000000000E+00  0.00000000000E+00 -0.72211747699E+03  0.72211747701E+03  0.50400001928E-02 0.  1.
    10030    2    1    2    0    0  0.00000000000E+00  0.00000000000E+00  0.96835987541E+03  0.24125948294E+04  0.22097268978E+04 0.  0.
        3    1    3    3  502    0  0.68797702330E+03  0.65095288533E+03 -0.13697195203E+03  0.95698138401E+03  0.10100000352E+00 0.  1.
       -3    1    3    3    0  502 -0.68797702330E+03 -0.65095288533E+03  0.11053318274E+04  0.14556134454E+04  0.10100000352E+00 0. -1.
</event>
<event>
 5   0  0.1680258E-04  0.2241348E+04  0.7818609E-02  0.8501413E-01
       -2   -1    0    0    0  501  0.00000000000E+00  0.00000000000E+00  0.25245783414E+04  0.25245783414E+04  0.25500000920E-02 0. -1.
        2   -1    0    0  501    0  0.00000000000E+00  0.00000000000E+00 -0.49747320795E+03  0.49747320795E+03  0.25500000920E-02 0.  1.
    10030    2    1    2    0    0  0.00000000000E+00  0.00000000000E+00  0.20271051334E+04  0.30220515493E+04  0.22413478857E+04 0.  0.
        5    1    3    3  502    0 -0.13394858530E+03 -0.10898329481E+04  0.13156780471E+04  0.17136828446E+04  0.46999998093E+01 0. -1.
       -5    1    3    3    0  502  0.13394858530E+03  0.10898329481E+04  0.71142708633E+03  0.13083687047E+04  0.46999998093E+01 0.  1.
</event>
<event>
 5   0  0.8602414E-05  0.2177343E+04  0.7818609E-02  0.8527918E-01
       -1   -1    0    0    0  501  0.00000000000E+00  0.00000000000E+00  0.14543724883E+04  0.14543724883E+04  0.50400001928E-02 0. -1.
        1   -1    0    0  501    0  0.00000000000E+00  0.00000000000E+00 -0.81492585755E+03  0.81492585756E+03  0.50400001928E-02 0.  1.
    10030    2    1    2    0    0  0.00000000000E+00  0.00000000000E+00  0.63944663073E+03  0.22692983458E+04  0.21773431032E+04 0.  0.
        3    1    3    3  502    0  0.46686069270E+03 -0.52782879521E+03 -0.54516888835E+03  0.89093842126E+03  0.10100000352E+00 0.  1.
       -3    1    3    3    0  502 -0.46686069270E+03  0.52782879521E+03  0.11846155191E+04  0.13783599246E+04  0.10100000352E+00 0. -1.
</event>
<event>
 5   0  0.1680258E-04  0.2048710E+04  0.7818609E-02  0.8584180E-01
        2   -1    0    0  501    0  0.00000000000E+00  0.00000000000E+00  0.68930049947E+03  0.68930049947E+03  0.25500000920E-02 0.  1.
       -2   -1    0    0    0  501  0.00000000000E+00  0.00000000000E+00 -0.15222725892E+04  0.15222725892E+04  0.25500000920E-02 0. -1.
    10030    2    1    2    0    0  0.00000000000E+00  0.00000000000E+00 -0.83297208977E+03  0.22115730887E+04  0.20487100879E+04 0.  0.
        5    1    3    3  502    0  0.70821687458E+02 -0.10010665207E+04 -0.63806223786E+03  0.11892415228E+04  0.46999998093E+01 0. -1.
       -5    1    3    3    0  502 -0.70821687458E+02  0.10010665207E+04 -0.19490985192E+03  0.10223315659E+04  0.46999998093E+01 0.  1.
</event>
<event>
 5   0  0.8470971E-05  0.2191511E+04  0.7818609E-02  0.8521970E-01
        1   -1    0    0  501    0  0.00000000000E+00  0.00000000000E+00  0.12122071597E+04  0.12122071597E+04  0.50400001928E-02 0.  1.
       -1   -1    0    0    0  501  0.00000000000E+00  0.00000000000E+00 -0.99049058781E+03  0.99049058782E+03  0.50400001928E-02 0. -1.
    10030    2    1    2    0    0  0.00000000000E+00  0.00000000000E+00  0.22171657189E+03  0.22026977475E+04  0.21915106956E+04 0.  0.
        2    1    3    3  502    0  0.86379663083E+03  0.14445691161E+03  0.77275417377E+03  0.11679732154E+04  0.25500000920E-02 0.  1.
       -2    1    3    3    0  502 -0.86379663083E+03 -0.14445691161E+03 -0.55103760188E+03  0.10347245322E+04  0.25500000920E-02 0. -1.
</event>
<event>
 5   0  0.1754356E-04  0.2208605E+04  0.7818609E-02  0.8514855E-01
       -2   -1    0    0    0  501  0.00000000000E+00  0.00000000000E+00  0.10413587818E+04  0.10413587818E+04  0.25500000920E-02 0.  1.
        2   -1    0    0  501    0  0.00000000000E+00  0.00000000000E+00 -0.11710503828E+04  0.11710503828E+04  0.25500000920E-02 0. -1.
    10030    2    1    2    0    0  0.00000000000E+00  0.00000000000E+00 -0.12969160097E+03  0.22124091646E+04  0.22086046274E+04 0.  0.
        1    1    3    3  502    0 -0.90983582740E+03  0.57783269088E+03  0.17596745468E+03  0.10920880901E+04  0.50400001928E-02 0.  1.
       -1    1    3    3    0  502  0.90983582740E+03 -0.57783269088E+03 -0.30565905565E+03  0.11203210744E+04  0.50400001928E-02 0. -1.
</event>
<event>
 5   0  0.8470971E-05  0.2174855E+04  0.7818609E-02  0.8528968E-01
        1   -1    0    0  501    0  0.00000000000E+00  0.00000000000E+00  0.11284784089E+04  0.11284784089E+04  0.50400001928E-02 0.  1.
       -1   -1    0    0    0  501  0.00000000000E+00  0.00000000000E+00 -0.10478697045E+04  0.10478697045E+04  0.50400001928E-02 0. -1.
    10030    2    1    2    0    0  0.00000000000E+00  0.00000000000E+00  0.80608704424E+02  0.21763481134E+04  0.21748547877E+04 0.  0.
        2    1    3    3  502    0  0.53479924987E+03  0.56004911189E+03  0.80426361189E+03  0.11164699740E+04  0.25500000920E-02 0.  1.
       -2    1    3    3    0  502 -0.53479924987E+03 -0.56004911189E+03 -0.72365490746E+03  0.10598781395E+04  0.25500000920E-02 0. -1.
</event>
<event>
 5   0  0.1798917E-04  0.2309437E+04  0.7818609E-02  0.8474209E-01
        2   -1    0    0  501    0  0.00000000000E+00  0.00000000000E+00  0.14274955197E+04  0.14274955197E+04  0.25500000920E-02 0. -1.
       -2   -1    0    0    0  501  0.00000000000E+00  0.00000000000E+00 -0.93406608088E+03  0.93406608089E+03  0.25500000920E-02 0.  1.
    10030    2    1    2    0    0  0.00000000000E+00  0.00000000000E+00  0.49342943881E+03  0.23615616006E+04  0.23094372869E+04 0.  0.
        4    1    3    3  502    0  0.10921337154E+04 -0.37445225405E+03  0.22618702592E+03  0.11764917027E+04  0.12699999809E+01 0.  1.
       -4    1    3    3    0  502 -0.10921337154E+04  0.37445225405E+03  0.26724241289E+03  0.11850698979E+04  0.12699999809E+01 0. -1.
</event>
<event>
 5   0  0.8784659E-05  0.2157231E+04  0.7818609E-02  0.8536443E-01
        1   -1    0    0  501    0  0.00000000000E+00  0.00000000000E+00  0.13518675589E+04  0.13518675589E+04  0.50400001928E-02 0. -1.
       -1   -1    0    0    0  501  0.00000000000E+00  0.00000000000E+00 -0.86059547608E+03  0.86059547610E+03  0.50400001928E-02 0.  1.
    10030    2    1    2    0    0  0.00000000000E+00  0.00000000000E+00  0.49127208286E+03  0.22124630350E+04  0.21572307299E+04 0.  0.
        4    1    3    3  502    0 -0.67232681306E+03 -0.70290849891E+03 -0.23245992032E+03  0.10000714619E+04  0.12699999809E+01 0.  1.
       -4    1    3    3    0  502  0.67232681306E+03  0.70290849891E+03  0.72373200318E+03  0.12123915732E+04  0.12699999809E+01 0. -1.
</event>
<event>
 5   0  0.6250625E-05  0.2182935E+04  0.7818609E-02  0.8525565E-01
       -4   -1    0    0    0  501  0.00000000000E+00  0.00000000000E+00  0.13965087814E+04  0.13965093589E+04  0.12699999809E+01 0.  1.
        4   -1    0    0  501    0  0.00000000000E+00  0.00000000000E+00 -0.85305528898E+03  0.85305623434E+03  0.12699999809E+01 0. -1.
    10030    2    1    2    0    0  0.00000000000E+00  0.00000000000E+00  0.54345349241E+03  0.22495655932E+04  0.21829346439E+04 0.  0.
        3    1    3    3  502    0 -0.56480395030E+02  0.10899588163E+04  0.28206533598E+03  0.11272804089E+04  0.10100000352E+00 0.  1.
       -3    1    3    3    0  502  0.56480395030E+02 -0.10899588163E+04  0.26138815643E+03  0.11222851843E+04  0.10100000352E+00 0. -1.
</event>
<event>
 5   0  0.7954459E-05  0.1995793E+04  0.7818609E-02  0.8608590E-01
        1   -1    0    0  501    0  0.00000000000E+00  0.00000000000E+00  0.10877418544E+04  0.10877418544E+04  0.50400001928E-02 0.  1.
       -1   -1    0    0    0  501  0.00000000000E+00  0.00000000000E+00 -0.91547181181E+03  0.91547181182E+03  0.50400001928E-02 0. -1.
    10030    2    1    2    0    0  0.00000000000E+00  0.00000000000E+00  0.17227004260E+03  0.20032136662E+04  0.19957925807E+04 0.  0.
        5    1    3    3  502    0 -0.77022221816E+02  0.85184882427E+03  0.60204633342E+03  0.10459735750E+04  0.46999998093E+01 0.  1.
       -5    1    3    3    0  502  0.77022221816E+02 -0.85184882427E+03 -0.42977629082E+03  0.95724009121E+03  0.46999998093E+01 0. -1.
</event>
<event>
 5   0  0.8470971E-05  0.2281117E+04  0.7818609E-02  0.8485404E-01
       -1   -1    0    0    0  501  0.00000000000E+00  0.00000000000E+00  0.74810737332E+03  0.74810737334E+03  0.50400001928E-02 0. -1.
        1   -1    0    0  501    0  0.00000000000E+00  0.00000000000E+00 -0.17388862776E+04  0.17388862776E+04  0.50400001928E-02 0.  1.
    10030    2    1    2    0    0  0.00000000000E+00  0.00000000000E+00 -0.99077890424E+03  0.24869936509E+04  0.22811169594E+04 0.  0.
        2    1    3    3  502    0  0.38294546552E+03 -0.59133222278E+02  0.67414704773E+03  0.77757199635E+03  0.25500000920E-02 0. -1.
       -2    1    3    3    0  502 -0.38294546552E+03  0.59133222278E+02 -0.16649259520E+04  0.17094216546E+04  0.25500000920E-02 0.  1.
</event>
<event>
 5   0  0.8602414E-05  0.1672602E+04  0.7818609E-02  0.8777147E-01
        1   -1    0    0  501    0  0.00000000000E+00  0.00000000000E+00  0.10632157015E+04  0.10632157015E+04  0.50400001928E-02 0. -1.
       -1   -1    0    0    0  501  0.00000000000E+00  0.00000000000E+00 -0.65781494596E+03  0.65781494598E+03  0.50400001928E-02 0.  1.
    10030    2    1    2    0    0  0.00000000000E+00  0.00000000000E+00  0.40540075552E+03  0.17210306475E+04  0.16726017807E+04 0.  0.
        3    1    3    3  502    0 -0.49991590103E+03  0.65579680398E+03  0.34606812739E+03  0.89428659568E+03  0.10100000352E+00 0. -1.
       -3    1    3    3    0  502  0.49991590103E+03 -0.65579680398E+03  0.59332628130E+02  0.82674405179E+03  0.10100000352E+00 0.  1.
</event>
<event>
 5   0  0.7954459E-05  0.2193860E+04  0.7818609E-02  0.8520988E-01
       -1   -1    0    0    0  501  0.00000000000E+00  0.00000000000E+00  0.97796840286E+03  0.97796840287E+03  0.50400001928E-02 0. -1.
        1   -1    0    0  501    0  0.00000000000E+00  0.00000000000E+00 -0.12303628155E+04  0.12303628155E+04  0.50400001928E-02 0.  1.
    10030    2    1    2    0    0  0.00000000000E+00  0.00000000000E+00 -0.25239441263E+03  0.22083312184E+04  0.21938604857E+04 0.  0.
        5    1    3    3  502    0  0.54866393185E+03  0.73408659573E+03  0.48053777987E+03  0.10348207033E+04  0.46999998093E+01 0. -1.
       -5    1    3    3    0  502 -0.54866393185E+03 -0.73408659573E+03 -0.73293219250E+03  0.11735105151E+04  0.46999998093E+01 0.  1.
</event>
<event>
 5   0  0.7954459E-05  0.1361621E+04  0.7818609E-02  0.8982077E-01
        1   -1    0    0  501    0  0.00000000000E+00  0.00000000000E+00  0.10951883565E+04  0.10951883565E+04  0.50400001928E-02 0.  1.
       -1   -1    0    0    0  501  0.00000000000E+00  0.00000000000E+00 -0.42321779354E+03  0.42321779357E+03  0.50400001928E-02 0. -1.
    10030    2    1    2    0    0  0.00000000000E+00  0.00000000000E+00  0.67197056297E+03  0.15184061501E+04  0.13616213861E+04 0.  0.
        5    1    3    3  502    0  0.63038451475E+03 -0.22058887726E+03  0.18873106805E+03  0.69403573053E+03  0.46999998093E+01 0.  1.
       -5    1    3    3    0  502 -0.63038451475E+03  0.22058887726E+03  0.48323949492E+03  0.82437041957E+03  0.46999998093E+01 0. -1.
</event>
<event>
 5   0  0.7954459E-05  0.2253265E+04  0.7818609E-02  0.8496580E-01
       -1   -1    0    0    0  501  0.00000000000E+00  0.00000000000E+00  0.11089027242E+04  0.11089027242E+04  0.50400001928E-02 0.  1.
        1   -1    0    0  501    0  0.00000000000E+00  0.00000000000E+00 -0.11446452492E+04  0.11446452492E+04  0.50400001928E-02 0. -1.
    10030    2    1    2    0    0  0.00000000000E+00  0.00000000000E+00 -0.35742525044E+02  0.22535479734E+04  0.22532645074E+04 0.  0.
        5    1    3    3  502    0 -0.18179930948E+03  0.10725430462E+04  0.27521606052E+03  0.11221254586E+04  0.46999998093E+01 0.  1.
       -5    1    3    3    0  502  0.18179930948E+03 -0.10725430462E+04 -0.31095858557E+03  0.11314225147E+04  0.46999998093E+01 0. -1.
</event>
<event>
 5   0  0.1798917E-04  0.2157960E+04  0.7818609E-02  0.8536133E-01
        2   -1    0    0  501    0  0.00000000000E+00  0.00000000000E+00  0.75711474013E+03  0.75711474013E+03  0.25500000920E-02 0. -1.
       -2   -1    0    0    0  501  0.00000000000E+00  0.00000000000E+00 -0.15376771965E+04  0.15376771965E+04  0.25500000920E-02 0.  1.
    10030    2    1    2    0    0  0.00000000000E+00  0.00000000000E+00 -0.78056245637E+03  0.22947919366E+04  0.21579602138E+04 0.  0.
        4    1    3    3  502    0 -0.33877735265E+03  0.78648973496E+03 -0.10883016062E+04  0.13848242476E+04  0.12699999809E+01 0.  1.
       -4    1    3    3    0  502  0.33877735265E+03 -0.78648973496E+03  0.30773914980E+03  0.90996768903E+03  0.12699999809E+01 0. -1.
</event>
<event>
 5   0  0.8784659E-05  0.2294511E+04  0.7818609E-02  0.8480088E-01
       -1   -1    0    0    0  501  0.00000000000E+00  0.00000000000E+00  0.14241296292E+04  0.14241296293E+04  0.50400001928E-02 0.  1.
        1   -1    0    0  501    0  0.00000000000E+00  0.00000000000E+00 -0.92421042865E+03  0.92421042866E+03  0.50400001928E-02 0. -1.
    10030    2    1    2    0    0  0.00000000000E+00  0.00000000000E+00  0.49991920059E+03  0.23483400579E+04  0.22945112378E+04 0.  0.
        4    1    3    3  502    0  0.10508207272E+04  0.35923268897E+03  0.54467607639E+03  0.12369098458E+04  0.12699999809E+01 0.  1.
       -4    1    3    3    0  502 -0.10508207272E+04 -0.35923268897E+03 -0.44756875796E+02  0.11114302121E+04  0.12699999809E+01 0. -1.
</event>
<event>
 5   0  0.1733962E-04  0.2226300E+04  0.7818609E-02  0.8507561E-01
        2   -1    0    0  501    0  0.00000000000E+00  0.00000000000E+00  0.15357398683E+04  0.15357398683E+04  0.25500000920E-02 0.  1.
       -2   -1    0    0    0  501  0.00000000000E+00  0.00000000000E+00 -0.80684412872E+03  0.80684412873E+03  0.25500000920E-02 0. -1.
    10030    2    1    2    0    0  0.00000000000E+00  0.00000000000E+00  0.72889573958E+03  0.23425839970E+04  0.22262997965E+04 0.  0.
        3    1    3    3  502    0 -0.17686380120E+03  0.10850401686E+04  0.18065418053E+03  0.11141045349E+04  0.10100000352E+00 0. -1.
       -3    1    3    3    0  502  0.17686380120E+03 -0.10850401686E+04  0.54824155906E+03  0.12284794621E+04  0.10100000352E+00 0.  1.
</event>
<event>
 5   0  0.1754356E-04  0.2208783E+04  0.7818609E-02  0.8514781E-01
        2   -1    0    0  501    0  0.00000000000E+00  0.00000000000E+00  0.17853719423E+04  0.17853719423E+04  0.25500000920E-02 0. -1.
       -2   -1    0    0    0  501  0.00000000000E+00  0.00000000000E+00 -0.68315235816E+03  0.68315235817E+03  0.25500000920E-02 0.  1.
    10030    2    1    2    0    0  0.00000000000E+00  0.00000000000E+00  0.11022195841E+04  0.24685243005E+04  0.22087834231E+04 0.  0.
        1    1    3    3  502    0  0.10571121283E+04  0.27764057332E+03  0.72820784756E+03  0.13133381168E+04  0.50400001928E-02 0. -1.
       -1    1    3    3    0  502 -0.10571121283E+04 -0.27764057332E+03  0.37401173658E+03  0.11551861837E+04  0.50400001928E-02 0.  1.
</event>
<event>
 5   0  0.8784659E-05  0.1885880E+04  0.7818609E-02  0.8661917E-01
        1   -1    0    0  501    0  0.00000000000E+00  0.00000000000E+00  0.76856049730E+03  0.76856049731E+03  0.50400001928E-02 0. -1.
       -1   -1    0    0    0  501  0.00000000000E+00  0.00000000000E+00 -0.11568847081E+04  0.11568847081E+04  0.50400001928E-02 0.  1.
    10030    2    1    2    0    0  0.00000000000E+00  0.00000000000E+00 -0.38832421083E+03  0.19254452055E+04  0.18858800456E+04 0.  0.
        4    1    3    3  502    0  0.72801895437E+03  0.44702954777E+03  0.21331913400E+03  0.88054169710E+03  0.12699999809E+01 0. -1.
       -4    1    3    3    0  502 -0.72801895437E+03 -0.44702954777E+03 -0.60164334483E+03  0.10449035084E+04  0.12699999809E+01 0.  1.
</event>
<event>
 5   0  0.1754356E-04  0.1195562E+04  0.7818609E-02  0.9116750E-01
        2   -1    0    0  501    0  0.00000000000E+00  0.00000000000E+00  0.18485485467E+04  0.18485485467E+04  0.25500000920E-02 0.  1.
       -2   -1    0    0    0  501  0.00000000000E+00  0.00000000000E+00 -0.19330955467E+03  0.19330955469E+03  0.25500000920E-02 0. -1.
    10030    2    1    2    0    0  0.00000000000E+00  0.00000000000E+00  0.16552389920E+04  0.20418581014E+04  0.11955619538E+04 0.  0.
        1    1    3    3  502    0 -0.19964102561E+03 -0.37604847488E+03  0.11098125527E+03  0.43998390154E+03  0.50400001928E-02 0. -1.
       -1    1    3    3    0  502  0.19964102561E+03  0.37604847488E+03  0.15442577368E+04  0.16018741999E+04  0.50400001928E-02 0.  1.
</event>
<event>
 5   0  0.1733962E-04  0.2541932E+04  0.7818609E-02  0.8388197E-01
       -2   -1    0    0    0  501  0.00000000000E+00  0.00000000000E+00  0.13443913809E+04  0.13443913809E+04  0.25500000920E-02 0. -1.
        2   -1    0    0  501    0  0.00000000000E+00  0.00000000000E+00 -0.12015510592E+04  0.12015510592E+04  0.25500000920E-02 0.  1.
    10030    2    1    2    0    0  0.00000000000E+00  0.00000000000E+00  0.14284032170E+03  0.25459424401E+04  0.25419322475E+04 0.  0.
        3    1    3    3  502    0 -0.25483502600E+01  0.13063757183E+03  0.13376464980E+04  0.13440129587E+04  0.10100000352E+00 0. -1.
       -3    1    3    3    0  502  0.25483502600E+01 -0.13063757183E+03 -0.11948061763E+04  0.12019294814E+04  0.10100000352E+00 0.  1.
</event>
<event>
 5   0  0.8470971E-05  0.2109475E+04  0.7818609E-02  0.8557081E-01
        1   -1    0    0  501    0  0.00000000000E+00  0.00000000000E+00  0.18809784970E+04  0.18809784970E+04  0.50400001928E-02 0.  1.
       -1   -1    0    0    0  501  0.00000000000E+00  0.00000000000E+00 -0.59143212412E+03  0.59143212414E+03  0.50400001928E-02 0. -1.
    10030    2    1    2    0    0  0.00000000000E+00  0.00000000000E+00  0.12895463728E+04  0.24724106211E+04  0.21094749185E+04 0.  0.
        2    1    3    3  502    0 -0.81007963778E+03 -0.22007879050E+03  0.13932421447E+04  0.16265876451E+04  0.25500000920E-02 0.  1.
       -2    1    3    3    0  502  0.81007963778E+03  0.22007879050E+03 -0.10369577185E+03  0.84582297597E+03  0.25500000920E-02 0. -1.
</event>
<event>
 5   0  0.1733962E-04  0.2183577E+04  0.7818609E-02  0.8525295E-01
       -2   -1    0    0    0  501  0.00000000000E+00  0.00000000000E+00  0.68933728415E+03  0.68933728415E+03  0.25500000920E-02 0. -1.
        2   -1    0    0  501    0  0.00000000000E+00  0.00000000000E+00 -0.17291997926E+04  0.17291997926E+04  0.25500000920E-02 0.  1.
    10030    2    1    2    0    0  0.00000000000E+00  0.00000000000E+00 -0.10398625085E+04  0.24185370768E+04  0.21835767802E+04 0.  0.
        3    1    3    3  502    0 -0.82069294797E+03  0.70765998653E+03 -0.37264787230E+03  0.11459432876E+04  0.10100000352E+00 0. -1.
       -3    1    3    3    0  502  0.82069294797E+03 -0.70765998653E+03 -0.66721463616E+03  0.12725937892E+04  0.10100000352E+00 0.  1.
</event>
<event>
 5   0  0.8306787E-05  0.2167682E+04  0.7818609E-02  0.8532001E-01
        1   -1    0    0  501    0  0.00000000000E+00  0.00000000000E+00  0.11035977209E+04  0.11035977209E+04  0.50400001928E-02 0.  1.
       -1   -1    0    0    0  501  0.00000000000E+00  0.00000000000E+00 -0.10644384504E+04  0.10644384504E+04  0.50400001928E-02 0. -1.
    10030    2    1    2    0    0  0.00000000000E+00  0.00000000000E+00  0.39159270521E+02  0.21680361713E+04  0.21676824932E+04 0.  0.
        1    1    3    3  502    0 -0.14527864791E+03  0.34174972838E+03  0.10379859613E+04  0.11024126352E+04  0.50400001928E-02 0.  1.
       -1    1    3    3    0  502  0.14527864791E+03 -0.34174972838E+03 -0.99882669078E+03  0.10656235361E+04  0.50400001928E-02 0. -1.
</event>
<event>
 5   0  0.8470971E-05  0.2204582E+04  0.7818609E-02  0.8516523E-01
       -1   -1    0    0    0  501  0.00000000000E+00  0.00000000000E+00  0.10041011304E+04  0.10041011304E+04  0.50400001928E-02 0.  1.
        1   -1    0    0  501    0  0.00000000000E+00  0.00000000000E+00 -0.12100825498E+04  0.12100825499E+04  0.50400001928E-02 0. -1.
    10030    2    1    2    0    0  0.00000000000E+00  0.00000000000E+00 -0.20598141942E+03  0.22141836803E+04  0.22045818254E+04 0.  0.
        2    1    3    3  502    0 -0.87351750375E+03  0.20415354332E+03  0.54037223913E+03  0.10472409730E+04  0.25500000920E-02 0.  1.
       -2    1    3    3    0  502  0.87351750375E+03 -0.20415354332E+03 -0.74635365854E+03  0.11669427073E+04  0.25500000920E-02 0. -1.
</event>
<event>
 5   0  0.8306787E-05  0.2159002E+04  0.7818609E-02  0.8535689E-01
       -1   -1    0    0    0  501  0.00000000000E+00  0.00000000000E+00  0.82787849797E+03  0.82787849799E+03  0.50400001928E-02 0. -1.
        1   -1    0    0  501    0  0.00000000000E+00  0.00000000000E+00 -0.14076005381E+04  0.14076005381E+04  0.50400001928E-02 0.  1.
    10030    2    1    2    0    0  0.00000000000E+00  0.00000000000E+00 -0.57972204011E+03  0.22354790361E+04  0.21590018242E+04 0.  0.
        1    1    3    3  502    0 -0.78561168067E+03 -0.53581499140E+03 -0.81887862568E+03  0.12549285324E+04  0.50400001928E-02 0.  1.
       -1    1    3    3    0  502  0.78561168067E+03  0.53581499140E+03  0.23915658557E+03  0.98055050368E+03  0.50400001928E-02 0. -1.
</event>
<event>
 5   0  0.1754356E-04  0.2256554E+04  0.7818609E-02  0.8495251E-01
       -2   -1    0    0    0  501  0.00000000000E+00  0.00000000000E+00  0.13397363133E+04  0.13397363133E+04  0.25500000920E-02 0. -1.
        2   -1    0    0  501    0  0.00000000000E+00  0.00000000000E+00 -0.95019381948E+03  0.95019381948E+03  0.25500000920E-02 0.  1.
    10030    2    1    2    0    0  0.00000000000E+00  0.00000000000E+00  0.38954249382E+03  0.22899301328E+04  0.22565541559E+04 0.  0.
        1    1    3    3  502    0 -0.12717037184E+03 -0.29609839284E+03  0.12920423166E+04  0.13316230359E+04  0.50400001928E-02 0. -1.
       -1    1    3    3    0  502  0.12717037184E+03  0.29609839284E+03 -0.90249982282E+03  0.95830709688E+03  0.50400001928E-02 0.  1.
</event>
<event>
 5   0  0.8306787E-05  0.2246344E+04  0.7818609E-02  0.8499382E-01
       -1   -1    0    0    0  501  0.00000000000E+00  0.00000000000E+00  0.80525524270E+03  0.80525524271E+03  0.50400001928E-02 0. -1.
        1   -1    0    0  501    0  0.00000000000E+00  0.00000000000E+00 -0.15666037021E+04  0.15666037021E+04  0.50400001928E-02 0.  1.
    10030    2    1    2    0    0  0.00000000000E+00  0.00000000000E+00 -0.76134845937E+03  0.23718589448E+04  0.22463444476E+04 0.  0.
        1    1    3    3  502    0  0.59184995022E+03  0.87172274277E+03 -0.79142038127E+03  0.13177758245E+04  0.50400001928E-02 0.  1.
       -1    1    3    3    0  502 -0.59184995022E+03 -0.87172274277E+03  0.30071921901E+02  0.10540831202E+04  0.50400001928E-02 0. -1.
</event>
<event>
 5   0  0.8784659E-05  0.2211716E+04  0.7818609E-02  0.8513567E-01
        1   -1    0    0  501    0  0.00000000000E+00  0.00000000000E+00  0.21352258897E+04  0.21352258897E+04  0.50400001928E-02 0.  1.
       -1   -1    0    0    0  501  0.00000000000E+00  0.00000000000E+00 -0.57273661783E+03  0.57273661785E+03  0.50400001928E-02 0. -1.
    10030    2    1    2    0    0  0.00000000000E+00  0.00000000000E+00  0.15624892719E+04  0.27079625076E+04  0.22117161250E+04 0.  0.
        4    1    3    3  502    0  0.51880657678E+03  0.89710283311E+03  0.12538055941E+04  0.16266480376E+04  0.12699999809E+01 0.  1.
       -4    1    3    3    0  502 -0.51880657678E+03 -0.89710283311E+03  0.30868367776E+03  0.10813144700E+04  0.12699999809E+01 0. -1.
</event>
<event>
 5   0  0.1805501E-04  0.2187746E+04  0.7818609E-02  0.8523546E-01
        2   -1    0    0  501    0  0.00000000000E+00  0.00000000000E+00  0.15557187312E+04  0.15557187312E+04  0.25500000920E-02 0.  1.
       -2   -1    0    0    0  501  0.00000000000E+00  0.00000000000E+00 -0.76913543043E+03  0.76913543043E+03  0.25500000920E-02 0. -1.
    10030    2    1    2    0    0  0.00000000000E+00  0.00000000000E+00  0.78658330076E+03  0.23248541616E+04  0.21877462339E+04 0.  0.
        2    1    3    3  502    0  0.47162364803E+03 -0.93340833009E+03  0.52443522903E+02  0.10471056772E+04  0.25500000920E-02 0. -1.
       -2    1    3    3    0  502 -0.47162364803E+03  0.93340833009E+03  0.73413977786E+03  0.12777484844E+04  0.25500000920E-02 0.  1.
</event>
<event>
 5   0  0.1805501E-04  0.2206644E+04  0.7818609E-02  0.8515668E-01
        2   -1    0    0  501    0  0.00000000000E+00  0.00000000000E+00  0.15456846866E+04  0.15456846866E+04  0.25500000920E-02 0.  1.
       -2   -1    0    0    0  501  0.00000000000E+00  0.00000000000E+00 -0.78756017920E+03  0.78756017920E+03  0.25500000920E-02 0. -1.
    10030    2    1    2    0    0  0.00000000000E+00  0.00000000000E+00  0.75812450737E+03  0.23332448658E+04  0.22066442475E+04 0.  0.
        2    1    3    3  502    0  0.59339900152E+03 -0.66381487087E+03 -0.30989291373E+03  0.94276517531E+03  0.25500000920E-02 0. -1.
       -2    1    3    3    0  502 -0.59339900152E+03  0.66381487087E+03  0.10680174211E+04  0.13904796905E+04  0.25500000920E-02 0.  1.
</event>
<event>
 5   0  0.1680258E-04  0.2202646E+04  0.7818609E-02  0.8517328E-01
       -2   -1    0    0    0  501  0.00000000000E+00  0.00000000000E+00  0.10004260593E+04  0.10004260593E+04  0.25500000920E-02 0.  1.
        2   -1    0    0  501    0  0.00000000000E+00  0.00000000000E+00 -0.12123955555E+04  0.12123955555E+04  0.25500000920E-02 0. -1.
    10030    2    1    2    0    0  0.00000000000E+00  0.00000000000E+00 -0.21196949619E+03  0.22128216149E+04  0.22026457800E+04 0.  0.
        5    1    3    3  502    0  0.71717325943E+03  0.78316019039E+03  0.18727589301E+03  0.10783189315E+04  0.46999998093E+01 0.  1.
       -5    1    3    3    0  502 -0.71717325943E+03 -0.78316019039E+03 -0.39924538920E+03  0.11345026834E+04  0.46999998093E+01 0. -1.
</event>
<event>
 5   0  0.1754356E-04  0.1212866E+04  0.7818609E-02  0.9101669E-01
        2   -1    0    0  501    0  0.00000000000E+00  0.00000000000E+00  0.10898673744E+04  0.10898673744E+04  0.25500000920E-02 0.  1.
       -2   -1    0    0    0  501  0.00000000000E+00  0.00000000000E+00 -0.33743621135E+03  0.33743621136E+03  0.25500000920E-02 0. -1.
    10030    2    1    2    0    0  0.00000000000E+00  0.00000000000E+00  0.75243116307E+03  0.14273035858E+04  0.12128655617E+04 0.  0.
        1    1    3    3  502    0 -0.27412878652E+03  0.48906229321E+03  0.10419283715E+03  0.57024965197E+03  0.50400001928E-02 0. -1.
       -1    1    3    3    0  502  0.27412878652E+03 -0.48906229321E+03  0.64823832592E+03  0.85705393380E+03  0.50400001928E-02 0.  1.
</event>
<event>
 5   0  0.8602414E-05  0.2018141E+04  0.7818609E-02  0.8598186E-01
        1   -1    0    0  501    0  0.00000000000E+00  0.00000000000E+00  0.99999752723E+03  0.99999752724E+03  0.50400001928E-02 0. -1.
       -1   -1    0    0    0  501  0.00000000000E+00  0.00000000000E+00 -0.10182262351E+04  0.10182262351E+04  0.50400001928E-02 0.  1.
    10030    2    1    2    0    0  0.00000000000E+00  0.00000000000E+00 -0.18228707889E+02  0.20182237624E+04  0.20181414394E+04 0.  0.
        3    1    3    3  502    0 -0.64332627609E+03  0.17259518528E+03  0.74891782703E+03  0.10022652929E+04  0.10100000352E+00 0. -1.
       -3    1    3    3    0  502  0.64332627609E+03 -0.17259518528E+03 -0.76714653492E+03  0.10159584695E+04  0.10100000352E+00 0.  1.
</event>
<event>
 5   0  0.1798917E-04  0.2164765E+04  0.7818609E-02  0.8533238E-01
       -2   -1    0    0    0  501  0.00000000000E+00  0.00000000000E+00  0.15670263927E+04  0.15670263927E+04  0.25500000920E-02 0. -1.
        2   -1    0    0  501    0  0.00000000000E+00  0.00000000000E+00 -0.74762743105E+03  0.74762743105E+03  0.25500000920E-02 0.  1.
    10030    2    1    2    0    0  0.00000000000E+00  0.00000000000E+00  0.81939896163E+03  0.23146538237E+04  0.21647650370E+04 0.  0.
        4    1    3    3  502    0 -0.69829611759E+03  0.18946916959E+03 -0.45104504460E+03  0.85261907041E+03  0.12699999809E+01 0.  1.
       -4    1    3    3    0  502  0.69829611759E+03 -0.18946916959E+03  0.12704440062E+04  0.14620347533E+04  0.12699999809E+01 0. -1.
</event>
<event>
 5   0  0.1680258E-04  0.2170987E+04  0.7818609E-02  0.8530602E-01
        2   -1    0    0  501    0  0.00000000000E+00  0.00000000000E+00  0.16648744637E+04  0.16648744637E+04  0.25500000920E-02 0.  1.
       -2   -1    0    0    0  501  0.00000000000E+00  0.00000000000E+00 -0.70773883064E+03  0.70773883064E+03  0.25500000920E-02 0. -1.
    10030    2    1    2    0    0  0.00000000000E+00  0.00000000000E+00  0.95713563307E+03  0.23726132943E+04  0.21709871544E+04 0.  0.
        5    1    3    3  502    0 -0.32401637042E+02 -0.70845057612E+03 -0.41953321862E+03  0.82400382063E+03  0.46999998093E+01 0. -1.
       -5    1    3    3    0  502  0.32401637042E+02  0.70845057612E+03  0.13766688517E+04  0.15486094737E+04  0.46999998093E+01 0.  1.
</event>
<event>
 5   0  0.1733962E-04  0.2216662E+04  0.7818609E-02  0.8511525E-01
        2   -1    0    0  501    0  0.00000000000E+00  0.00000000000E+00  0.93446615267E+03  0.93446615267E+03  0.25500000920E-02 0. -1.
       -2   -1    0    0    0  501  0.00000000000E+00  0.00000000000E+00 -0.13145443083E+04  0.13145443083E+04  0.25500000920E-02 0.  1.
    10030    2    1    2    0    0  0.00000000000E+00  0.00000000000E+00 -0.38007815559E+03  0.22490104609E+04  0.22166616000E+04 0.  0.
        3    1    3    3  502    0  0.13189955500E+03 -0.73794857776E+03 -0.10183051160E+04  0.12644804923E+04  0.10100000352E+00 0.  1.
       -3    1    3    3    0  502 -0.13189955500E+03  0.73794857776E+03  0.63822696036E+03  0.98452996864E+03  0.10100000352E+00 0. -1.
</event>
<event>
 5   0  0.8306787E-05  0.2220222E+04  0.7818609E-02  0.8510058E-01
        1   -1    0    0  501    0  0.00000000000E+00  0.00000000000E+00  0.12229478014E+04  0.12229478014E+04  0.50400001928E-02 0.  1.
       -1   -1    0    0    0  501  0.00000000000E+00  0.00000000000E+00 -0.10076855810E+04  0.10076855810E+04  0.50400001928E-02 0. -1.
    10030    2    1    2    0    0  0.00000000000E+00  0.00000000000E+00  0.21526222042E+03  0.22306333824E+04  0.22202223904E+04 0.  0.
        1    1    3    3  502    0 -0.51986427471E+03 -0.58290045341E+03  0.90019973453E+03  0.11918017305E+04  0.50400001928E-02 0.  1.
       -1    1    3    3    0  502  0.51986427471E+03  0.58290045341E+03 -0.68493751410E+03  0.10388316519E+04  0.50400001928E-02 0. -1.
</event>
<event>
 5   0  0.6250625E-05  0.2264714E+04  0.7818609E-02  0.8491965E-01
       -4   -1    0    0    0  501  0.00000000000E+00  0.00000000000E+00  0.13742153245E+04  0.13742159113E+04  0.12699999809E+01 0.  1.
        4   -1    0    0  501    0  0.00000000000E+00  0.00000000000E+00 -0.93306427033E+03  0.93306513463E+03  0.12699999809E+01 0. -1.
    10030    2    1    2    0    0  0.00000000000E+00  0.00000000000E+00  0.44115105415E+03  0.23072810459E+04  0.22647144571E+04 0.  0.
        5    1    3    3  502    0 -0.14047350012E+03  0.56722773910E+03 -0.76756725432E+03  0.96470808649E+03  0.46999998093E+01 0. -1.
       -5    1    3    3    0  502  0.14047350012E+03 -0.56722773910E+03  0.12087183085E+04  0.13425729595E+04  0.46999998093E+01 0.  1.
</event>
<event>
 5   0  0.8470971E-05  0.1847470E+04  0.7818609E-02  0.8681455E-01
        1   -1    0    0  501    0  0.00000000000E+00  0.00000000000E+00  0.12121361575E+04  0.12121361575E+04  0.50400001928E-02 0.  1.
       -1   -1    0    0    0  501  0.00000000000E+00  0.00000000000E+00 -0.70395272853E+03  0.70395272855E+03  0.50400001928E-02 0. -1.
    10030    2    1    2    0    0  0.00000000000E+00  0.00000000000E+00  0.50818342898E+03  0.19160888861E+04  0.18474702222E+04 0.  0.
        2    1    3    3  502    0  0.53283189230E+03  0.54082309424E+03  0.79983647451E+03  0.11027863939E+04  0.25500000920E-02 0. -1.
       -2    1    3    3    0  502 -0.53283189230E+03 -0.54082309424E+03 -0.29165304552E+03  0.81330249212E+03  0.25500000920E-02 0.  1.
</event>
<event>
 5   0  0.1805501E-04  0.2167772E+04  0.7818609E-02  0.8531963E-01
        2   -1    0    0  501    0  0.00000000000E+00  0.00000000000E+00  0.13627592497E+04  0.13627592497E+04  0.25500000920E-02 0. -1.
       -2   -1    0    0    0  501  0.00000000000E+00  0.00000000000E+00 -0.86208079235E+03  0.86208079235E+03  0.25500000920E-02 0.  1.
    10030    2    1    2    0    0  0.00000000000E+00  0.00000000000E+00  0.50067845734E+03  0.22248400420E+04  0.21677717350E+04 0.  0.
        2    1    3    3  502    0 -0.73072909052E+03 -0.79614482852E+03  0.33618929251E+03  0.11317397369E+04  0.25500000920E-02 0.  1.
       -2    1    3    3    0  502  0.73072909052E+03  0.79614482852E+03  0.16448916483E+03  0.10931003051E+04  0.25500000920E-02 0. -1.
</event>
<event>
 5   0  0.1798917E-04  0.2164124E+04  0.7818609E-02  0.8533511E-01
       -2   -1    0    0    0  501  0.00000000000E+00  0.00000000000E+00  0.24671799000E+04  0.24671799000E+04  0.25500000920E-02 0.  1.
        2   -1    0    0  501    0  0.00000000000E+00  0.00000000000E+00 -0.47457337208E+03  0.47457337209E+03  0.25500000920E-02 0. -1.
    10030    2    1    2    0    0  0.00000000000E+00  0.00000000000E+00  0.19926065279E+04  0.29417532721E+04  0.21641237346E+04 0.  0.
        4    1    3    3  502    0  0.65802926649E+03  0.82038305879E+03  0.13423993888E+04  0.17053060167E+04  0.12699999809E+01 0.  1.
       -4    1    3    3    0  502 -0.65802926649E+03 -0.82038305879E+03  0.65020713916E+03  0.12364472554E+04  0.12699999809E+01 0. -1.
</event>
<event>
 5   0  0.1680258E-04  0.2231768E+04  0.7818609E-02  0.8505321E-01
       -2   -1    0    0    0  501  0.00000000000E+00  0.00000000000E+00  0.58195020140E+03  0.58195020141E+03  0.25500000920E-02 0. -1.
        2   -1    0    0  501    0  0.00000000000E+00  0.00000000000E+00 -0.21396974673E+04  0.21396974673E+04  0.25500000920E-02 0.  1.
    10030    2    1    2    0    0  0.00000000000E+00  0.00000000000E+00 -0.15577472659E+04  0.27216476687E+04  0.22317682425E+04 0.  0.
        5    1    3    3  502    0 -0.67535111945E+03  0.29185681195E+03 -0.18020181485E+04  0.19464251927E+04  0.46999998093E+01 0.  1.
       -5    1    3    3    0  502  0.67535111945E+03 -0.29185681195E+03  0.24427088260E+03  0.77522247601E+03  0.46999998093E+01 0. -1.
</event>
<event>
 5   0  0.8306787E-05  0.2172424E+04  0.7818609E-02  0.8529994E-01
        1   -1    0    0  501    0  0.00000000000E+00  0.00000000000E+00  0.13046895317E+04  0.13046895317E+04  0.50400001928E-02 0.  1.
       -1   -1    0    0    0  501  0.00000000000E+00  0.00000000000E+00 -0.90431933693E+03  0.90431933694E+03  0.50400001928E-02 0. -1.
    10030    2    1    2    0    0  0.00000000000E+00  0.00000000000E+00  0.40037019477E+03  0.22090088687E+04  0.21724235059E+04 0.  0.
        1    1    3    3  502    0 -0.27603448360E+03 -0.12051577009E+03  0.12613776644E+04  0.12968395040E+04  0.50400001928E-02 0.  1.
       -1    1    3    3    0  502  0.27603448360E+03  0.12051577009E+03 -0.86100746962E+03  0.91216936462E+03  0.50400001928E-02 0. -1.
</event>
<event>
 5   0  0.8784659E-05  0.2211440E+04  0.7818609E-02  0.8513682E-01
       -1   -1    0    0    0  501  0.00000000000E+00  0.00000000000E+00  0.10559295265E+04  0.10559295265E+04  0.50400001928E-02 0.  1.
        1   -1    0    0  501    0  0.00000000000E+00  0.00000000000E+00 -0.11578580123E+04  0.11578580123E+04  0.50400001928E-02 0. -1.
    10030    2    1    2    0    0  0.00000000000E+00  0.00000000000E+00 -0.10192848585E+03  0.22137875388E+04  0.22114397688E+04 0.  0.
        4    1    3    3  502    0  0.98404174517E+03 -0.50023575778E+03 -0.11459964789E+03  0.11098237075E+04  0.12699999809E+01 0. -1.
       -4    1    3    3    0  502 -0.98404174517E+03  0.50023575778E+03  0.12671162037E+02  0.11039638313E+04  0.12699999809E+01 0.  1.
</event>
<event>
 5   0  0.1805501E-04  0.2238337E+04  0.7818609E-02  0.8502639E-01
       -2   -1    0    0    0  501  0.00000000000E+00  0.00000000000E+00  0.80155708778E+03  0.80155708779E+03  0.25500000920E-02 0.  1.
        2   -1    0    0  501    0  0.00000000000E+00  0.00000000000E+00 -0.15626311242E+04  0.15626311242E+04  0.25500000920E-02 0. -1.
    10030    2    1    2    0    0  0.00000000000E+00  0.00000000000E+00 -0.76107403646E+03  0.23641882120E+04  0.22383369302E+04 0.  0.
        2    1    3    3  502    0  0.16546725753E+03  0.19248803297E+03 -0.15318260421E+04  0.15527144230E+04  0.25500000920E-02 0. -1.
       -2    1    3    3    0  502 -0.16546725753E+03 -0.19248803297E+03  0.77075200562E+03  0.81147378905E+03  0.25500000920E-02 0.  1.
</event>
<event>
 5   0  0.1754356E-04  0.2200563E+04  0.7818609E-02  0.8518194E-01
        2   -1    0    0  501    0  0.00000000000E+00  0.00000000000E+00  0.12090417594E+04  0.12090417594E+04  0.25500000920E-02 0.  1.
       -2   -1    0    0    0  501  0.00000000000E+00  0.00000000000E+00 -0.10013050146E+04  0.10013050146E+04  0.25500000920E-02 0. -1.
    10030    2    1    2    0    0  0.00000000000E+00  0.00000000000E+00  0.20773674477E+03  0.22103467740E+04  0.22005631793E+04 0.  0.
        1    1    3    3  502    0 -0.34187734821E+03  0.62813158207E+02 -0.94470486948E+03  0.10066245102E+04  0.50400001928E-02 0. -1.
       -1    1    3    3    0  502  0.34187734821E+03 -0.62813158207E+02  0.11524416142E+04  0.12037222638E+04  0.50400001928E-02 0.  1.
</event>
<event>
 5   0  0.1754356E-04  0.2237978E+04  0.7818609E-02  0.8502785E-01
       -2   -1    0    0    0  501  0.00000000000E+00  0.00000000000E+00  0.68850244863E+03  0.68850244863E+03  0.25500000920E-02 0. -1.
        2   -1    0    0  501    0  0.00000000000E+00  0.00000000000E+00 -0.18186380362E+04  0.18186380362E+04  0.25500000920E-02 0.  1.
    10030    2    1    2    0    0  0.00000000000E+00  0.00000000000E+00 -0.11301355876E+04  0.25071404848E+04  0.22379783208E+04 0.  0.
        1    1    3    3  502    0  0.10356144914E+04 -0.39022230571E+03 -0.37974543956E+03  0.11700330857E+04  0.50400001928E-02 0. -1.
       -1    1    3    3    0  502 -0.10356144914E+04  0.39022230571E+03 -0.75039014802E+03  0.13371073992E+04  0.50400001928E-02 0.  1.
</event>
<event>
 5   0  0.8470971E-05  0.2173660E+04  0.7818609E-02  0.8529472E-01
       -1   -1    0    0    0  501  0.00000000000E+00  0.00000000000E+00  0.10882312254E+04  0.10882312254E+04  0.50400001928E-02 0.  1.
        1   -1    0    0  501    0  0.00000000000E+00  0.00000000000E+00 -0.10854310433E+04  0.10854310433E+04  0.50400001928E-02 0. -1.
    10030    2    1    2    0    0  0.00000000000E+00  0.00000000000E+00  0.28001820294E+01  0.21736622687E+04  0.21736604651E+04 0.  0.
        2    1    3    3  502    0  0.10684417669E+04  0.36681815467E+02 -0.19426966424E+03  0.10865790662E+04  0.25500000920E-02 0.  1.
       -2    1    3    3    0  502 -0.10684417669E+04 -0.36681815467E+02  0.19706984627E+03  0.10870832025E+04  0.25500000920E-02 0. -1.
</event>
<event>
 5   0  0.1680258E-04  0.2148511E+04  0.7818609E-02  0.8540170E-01
       -2   -1    0    0    0  501  0.00000000000E+00  0.00000000000E+00  0.14070184115E+04  0.14070184115E+04  0.25500000920E-02 0.  1.
        2   -1    0    0  501    0  0.00000000000E+00  0.00000000000E+00 -0.82019186870E+03  0.82019186870E+03  0.25500000920E-02 0. -1.
    10030    2    1    2    0    0  0.00000000000E+00  0.00000000000E+00  0.58682654281E+03  0.22272102802E+04  0.21485111684E+04 0.  0.
        5    1    3    3  502    0 -0.27668077107E+03  0.61322227065E+03 -0.57476582721E+03  0.88485685194E+03  0.46999998093E+01 0. -1.
       -5    1    3    3    0  502  0.27668077107E+03 -0.61322227065E+03  0.11615923700E+04  0.13423534283E+04  0.46999998093E+01 0.  1.
</event>
<event>
 5   0  0.8784659E-05  0.2066849E+04  0.7818609E-02  0.8575989E-01
        1   -1    0    0  501    0  0.00000000000E+00  0.00000000000E+00  0.11652452825E+04  0.11652452825E+04  0.50400001928E-02 0. -1.
       -1   -1    0    0    0  501  0.00000000000E+00  0.00000000000E+00 -0.91651637549E+03  0.91651637551E+03  0.50400001928E-02 0.  1.
    10030    2    1    2    0    0  0.00000000000E+00  0.00000000000E+00  0.24872890701E+03  0.20817616580E+04  0.20668491797E+04 0.  0.
        4    1    3    3  502    0  0.42947394608E+03  0.36926749006E+03 -0.74625539941E+03  0.93685915890E+03  0.12699999809E+01 0.  1.
       -4    1    3    3    0  502 -0.42947394608E+03 -0.36926749006E+03  0.99498430641E+03  0.11449024991E+04  0.12699999809E+01 0. -1.
</event>
<event>
 5   0  0.8306787E-05  0.2169005E+04  0.7818609E-02  0.8531441E-01
       -1   -1    0    0    0  501  0.00000000000E+00  0.00000000000E+00  0.14577769822E+04  0.14577769822E+04  0.50400001928E-02 0. -1.
        1   -1    0    0  501    0  0.00000000000E+00  0.00000000000E+00 -0.80680804835E+03  0.80680804836E+03  0.50400001928E-02 0.  1.
    10030    2    1    2    0    0  0.00000000000E+00  0.00000000000E+00  0.65096893386E+03  0.22645850306E+04  0.21690054882E+04 0.  0.
        1    1    3    3  502    0  0.21784017761E+03 -0.65762453013E+03  0.11966522404E+04  0.13827150647E+04  0.50400001928E-02 0. -1.
       -1    1    3    3    0  502 -0.21784017761E+03  0.65762453013E+03 -0.54568330657E+03  0.88186996587E+03  0.50400001928E-02 0.  1.
</event>
<event>
 5   0  0.8306787E-05  0.2325177E+04  0.7818609E-02  0.8468060E-01
       -1   -1    0    0    0  501  0.00000000000E+00  0.00000000000E+00  0.92284409318E+03  0.92284409319E+03  0.50400001928E-02 0. -1.
        1   -1    0    0  501    0  0.00000000000E+00  0.00000000000E+00 -0.14646153145E+04  0.14646153146E+04  0.50400001928E-02 0.  1.
    10030    2    1    2    0    0  0.00000000000E+00  0.00000000000E+00 -0.54177122137E+03  0.23874594077E+04  0.23251766314E+04 0.  0.
        1    1    3    3  502    0 -0.29502929059E+02 -0.86846915506E+03 -0.10639093338E+04  0.13736856142E+04  0.50400001928E-02 0.  1.
       -1    1    3    3    0  502  0.29502929059E+02  0.86846915506E+03  0.52213811239E+03  0.10137737936E+04  0.50400001928E-02 0. -1.
</event>
<event>
 5   0  0.8470971E-05  0.2219803E+04  0.7818609E-02  0.8510231E-01
        1   -1    0    0  501    0  0.00000000000E+00  0.00000000000E+00  0.11295247326E+04  0.11295247326E+04  0.50400001928E-02 0. -1.
       -1   -1    0    0    0  501  0.00000000000E+00  0.00000000000E+00 -0.10906189263E+04  0.10906189263E+04  0.50400001928E-02 0.  1.
    10030    2    1    2    0    0  0.00000000000E+00  0.00000000000E+00  0.38905806300E+02  0.22201436588E+04  0.22198027399E+04 0.  0.
        2    1    3    3  502    0  0.10846527909E+04  0.11410903798E+03 -0.18646339755E+03  0.11064633514E+04  0.25500000920E-02 0.  1.
       -2    1    3    3    0  502 -0.10846527909E+04 -0.11410903798E+03  0.22536920385E+03  0.11136803075E+04  0.25500000920E-02 0. -1.
</event>
<event>
 5   0  0.8602414E-05  0.2216352E+04  0.7818609E-02  0.8511653E-01
       -1   -1    0    0    0  501  0.00000000000E+00  0.00000000000E+00  0.10117985440E+04  0.10117985440E+04  0.50400001928E-02 0.  1.
        1   -1    0    0  501    0  0.00000000000E+00  0.00000000000E+00 -0.12137336152E+04  0.12137336152E+04  0.50400001928E-02 0. -1.
    10030    2    1    2    0    0  0.00000000000E+00  0.00000000000E+00 -0.20193507126E+03  0.22255321592E+04  0.22163518716E+04 0.  0.
        3    1    3    3  502    0 -0.85510880357E+03 -0.67876371645E+00  0.60682254987E+03  0.10485442975E+04  0.10100000352E+00 0.  1.
       -3    1    3    3    0  502  0.85510880357E+03  0.67876371645E+00 -0.80875762112E+03  0.11769878617E+04  0.10100000352E+00 0. -1.
</event>
<event>
 5   0  0.1733962E-04  0.2202805E+04  0.7818609E-02  0.8517262E-01
        2   -1    0    0  501    0  0.00000000000E+00  0.00000000000E+00  0.12833375961E+04  0.12833375961E+04  0.25500000920E-02 0. -1.
       -2   -1    0    0    0  501  0.00000000000E+00  0.00000000000E+00 -0.94525945551E+03  0.94525945551E+03  0.25500000920E-02 0.  1.
    10030    2    1    2    0    0  0.00000000000E+00  0.00000000000E+00  0.33807814062E+03  0.22285970516E+04  0.22028045736E+04 0.  0.
        3    1    3    3  502    0 -0.51697537201E+03 -0.56368184828E+03  0.97083752840E+03  0.12359313404E+04  0.10100000352E+00 0. -1.
       -3    1    3    3    0  502  0.51697537201E+03  0.56368184828E+03 -0.63275938778E+03  0.99266571129E+03  0.10100000352E+00 0.  1.
</event>
<event>
 5   0  0.8602414E-05  0.1163567E+04  0.7818609E-02  0.9145358E-01
        1   -1    0    0  501    0  0.00000000000E+00  0.00000000000E+00  0.46695374755E+03  0.46695374757E+03  0.50400001928E-02 0. -1.
       -1   -1    0    0    0  501  0.00000000000E+00  0.00000000000E+00 -0.72485151347E+03  0.72485151349E+03  0.50400001928E-02 0.  1.
    10030    2    1    2    0    0  0.00000000000E+00  0.00000000000E+00 -0.25789776593E+03  0.11918052611E+04  0.11635671543E+04 0.  0.
        3    1    3    3  502    0 -0.36087220398E+03  0.40368157313E+03  0.89017201619E+02  0.54873639617E+03  0.10100000352E+00 0. -1.
       -3    1    3    3    0  502  0.36087220398E+03 -0.40368157313E+03 -0.34691496755E+03  0.64306886490E+03  0.10100000352E+00 0.  1.
</event>
<event>
 5   0  0.1798917E-04  0.2151314E+04  0.7818609E-02  0.8538970E-01
        2   -1    0    0  501    0  0.00000000000E+00  0.00000000000E+00  0.20749583235E+04  0.20749583235E+04  0.25500000920E-02 0. -1.
       -2   -1    0    0    0  501  0.00000000000E+00  0.00000000000E+00 -0.55761985728E+03  0.55761985729E+03  0.25500000920E-02 0.  1.
    10030    2    1    2    0    0  0.00000000000E+00  0.00000000000E+00  0.15173384662E+04  0.26325781807E+04  0.21513139838E+04 0.  0.
        4    1    3    3  502    0 -0.52464819173E+03 -0.19583413956E+03  0.18825025440E+04  0.19640326311E+04  0.12699999809E+01 0. -1.
       -4    1    3    3    0  502  0.52464819173E+03  0.19583413956E+03 -0.36516407777E+03  0.66854554961E+03  0.12699999809E+01 0.  1.
</event>
<event>
 5   0  0.1733962E-04  0.2198435E+04  0.7818609E-02  0.8519080E-01
       -2   -1    0    0    0  501  0.00000000000E+00  0.00000000000E+00  0.83502674905E+03  0.83502674905E+03  0.25500000920E-02 0. -1.
        2   -1    0    0  501    0  0.00000000000E+00  0.00000000000E+00 -0.14469944190E+04  0.14469944190E+04  0.25500000920E-02 0.  1.
    10030    2    1    2    0    0  0.00000000000E+00  0.00000000000E+00 -0.61196766997E+03  0.22820211681E+04  0.21984349393E+04 0.  0.
        3    1    3    3  502    0  0.23269256937E+03 -0.10041193348E+04 -0.70244468127E+03  0.12473291510E+04  0.10100000352E+00 0. -1.
       -3    1    3    3    0  502 -0.23269256937E+03  0.10041193348E+04  0.90477011302E+02  0.10346920171E+04  0.10100000352E+00 0.  1.
</event>
<event>
 5   0  0.1805501E-04  0.2218011E+04  0.7818609E-02  0.8510969E-01
        2   -1    0    0  501    0  0.00000000000E+00  0.00000000000E+00  0.12718513187E+04  0.12718513187E+04  0.25500000920E-02 0.  1.
       -2   -1    0    0    0  501  0.00000000000E+00  0.00000000000E+00 -0.96701018745E+03  0.96701018745E+03  0.25500000920E-02 0. -1.
    10030    2    1    2    0    0  0.00000000000E+00  0.00000000000E+00  0.30484113129E+03  0.22388615062E+04  0.22180109848E+04 0.  0.
        2    1    3    3  502    0 -0.90208958919E+03 -0.10028300407E+03 -0.49080671721E+03  0.10318495731E+04  0.25500000920E-02 0. -1.
       -2    1    3    3    0  502  0.90208958919E+03  0.10028300407E+03  0.79564784849E+03  0.12070119331E+04  0.25500000920E-02 0.  1.
</event>
<event>
 5   0  0.7954459E-05  0.2100574E+04  0.7818609E-02  0.8560991E-01
       -1   -1    0    0    0  501  0.00000000000E+00  0.00000000000E+00  0.54145410986E+03  0.54145410989E+03  0.50400001928E-02 0. -1.
        1   -1    0    0  501    0  0.00000000000E+00  0.00000000000E+00 -0.20372959604E+04  0.20372959604E+04  0.50400001928E-02 0.  1.
    10030    2    1    2    0    0  0.00000000000E+00  0.00000000000E+00 -0.14958418506E+04  0.25787500703E+04  0.21005735129E+04 0.  0.
        5    1    3    3  502    0 -0.12030030813E+03  0.96151349476E+03 -0.12452288902E+04  0.15778458238E+04  0.46999998093E+01 0.  1.
       -5    1    3    3    0  502  0.12030030813E+03 -0.96151349476E+03 -0.25061296034E+03  0.10009042465E+04  0.46999998093E+01 0. -1.
</event>
<event>
 5   0  0.8306787E-05  0.2112621E+04  0.7818609E-02  0.8555704E-01
       -1   -1    0    0    0  501  0.00000000000E+00  0.00000000000E+00  0.93406142681E+03  0.93406142682E+03  0.50400001928E-02 0. -1.
        1   -1    0    0  501    0  0.00000000000E+00  0.00000000000E+00 -0.11945594529E+04  0.11945594529E+04  0.50400001928E-02 0.  1.
    10030    2    1    2    0    0  0.00000000000E+00  0.00000000000E+00 -0.26049802610E+03  0.21286208797E+04  0.21126210328E+04 0.  0.
        1    1    3    3  502    0  0.72365324511E+03 -0.76364668602E+03 -0.22563183017E+03  0.10759832727E+04  0.50400001928E-02 0.  1.
       -1    1    3    3    0  502 -0.72365324511E+03  0.76364668602E+03 -0.34866195931E+02  0.10526376071E+04  0.50400001928E-02 0. -1.
</event>
<event>
 5   0  0.1754356E-04  0.2186917E+04  0.7818609E-02  0.8523893E-01
        2   -1    0    0  501    0  0.00000000000E+00  0.00000000000E+00  0.22190445436E+04  0.22190445436E+04  0.25500000920E-02 0. -1.
       -2   -1    0    0    0  501  0.00000000000E+00  0.00000000000E+00 -0.53881348128E+03  0.53881348129E+03  0.25500000920E-02 0.  1.
    10030    2    1    2    0    0  0.00000000000E+00  0.00000000000E+00  0.16802310623E+04  0.27578580249E+04  0.21869166565E+04 0.  0.
        1    1    3    3  502    0  0.64434627185E+03  0.29728077636E+03 -0.20899668472E+03  0.73975508940E+03  0.50400001928E-02 0.  1.
       -1    1    3    3    0  502 -0.64434627185E+03 -0.29728077636E+03  0.18892277470E+04  0.20181029355E+04  0.50400001928E-02 0. -1.
</event>
<event>
 5   0  0.1798917E-04  0.2179847E+04  0.7818609E-02  0.8526863E-01
       -2   -1    0    0    0  501  0.00000000000E+00  0.00000000000E+00  0.92062411819E+03  0.92062411819E+03  0.25500000920E-02 0. -1.
        2   -1    0    0  501    0  0.00000000000E+00  0.00000000000E+00 -0.12903560270E+04  0.12903560270E+04  0.25500000920E-02 0.  1.
    10030    2    1    2    0    0  0.00000000000E+00  0.00000000000E+00 -0.36973190881E+03  0.22109801452E+04  0.21798466731E+04 0.  0.
        4    1    3    3  502    0  0.14346514800E+03  0.30414857574E+03 -0.12364193821E+04  0.12813364532E+04  0.12699999809E+01 0.  1.
       -4    1    3    3    0  502 -0.14346514800E+03 -0.30414857574E+03  0.86668747332E+03  0.92964369202E+03  0.12699999809E+01 0. -1.
</event>
<event>
 5   0  0.1680258E-04  0.2223401E+04  0.7818609E-02  0.8508751E-01
       -2   -1    0    0    0  501  0.00000000000E+00  0.00000000000E+00  0.76318647952E+03  0.76318647953E+03  0.25500000920E-02 0.  1.
        2   -1    0    0  501    0  0.00000000000E+00  0.00000000000E+00 -0.16193649798E+04  0.16193649798E+04  0.25500000920E-02 0. -1.
    10030    2    1    2    0    0  0.00000000000E+00  0.00000000000E+00 -0.85617850025E+03  0.23825514593E+04  0.22234005109E+04 0.  0.
        5    1    3    3  502    0  0.55813403991E+03  0.34823072503E+03 -0.13883810399E+04  0.15363600640E+04  0.46999998093E+01 0. -1.
       -5    1    3    3    0  502 -0.55813403991E+03 -0.34823072503E+03  0.53220253961E+03  0.84619139532E+03  0.46999998093E+01 0.  1.
</event>
<event>
 5   0  0.1733962E-04  0.2204558E+04  0.7818609E-02  0.8516534E-01
       -2   -1    0    0    0  501  0.00000000000E+00  0.00000000000E+00  0.52860156233E+03  0.52860156234E+03  0.25500000920E-02 0. -1.
        2   -1    0    0  501    0  0.00000000000E+00  0.00000000000E+00 -0.22985526254E+04  0.22985526254E+04  0.25500000920E-02 0.  1.
    10030    2    1    2    0    0  0.00000000000E+00  0.00000000000E+00 -0.17699510630E+04  0.28271541877E+04  0.22045575600E+04 0.  0.
        3    1    3    3  502    0  0.47729547666E+03 -0.24768051145E+03 -0.21189357436E+04  0.21861027660E+04  0.10100000352E+00 0.  1.
       -3    1    3    3    0  502 -0.47729547666E+03  0.24768051145E+03  0.34898468057E+03  0.64105142170E+03  0.10100000352E+00 0. -1.
</event>
<event>
 5   0  0.1798917E-04  0.2162948E+04  0.7818609E-02  0.8534010E-01
        2   -1    0    0  501    0  0.00000000000E+00  0.00000000000E+00  0.76875427987E+03  0.76875427987E+03  0.25500000920E-02 0.  1.
       -2   -1    0    0    0  501  0.00000000000E+00  0.00000000000E+00 -0.15214039329E+04  0.15214039329E+04  0.25500000920E-02 0. -1.
    10030    2    1    2    0    0  0.00000000000E+00  0.00000000000E+00 -0.75264965306E+03  0.22901582128E+04  0.21629477893E+04 0.  0.
        4    1    3    3  502    0  0.84655888406E+03 -0.66692205890E+03 -0.28081307380E+03  0.11136896211E+04  0.12699999809E+01 0.  1.
       -4    1    3    3    0  502 -0.84655888406E+03  0.66692205890E+03 -0.47183657926E+03  0.11764685917E+04  0.12699999809E+01 0. -1.
</event>
<event>
 5   0  0.7954459E-05  0.2012145E+04  0.7818609E-02  0.8600963E-01
       -1   -1    0    0    0  501  0.00000000000E+00  0.00000000000E+00  0.10521236667E+04  0.10521236667E+04  0.50400001928E-02 0. -1.
        1   -1    0    0  501    0  0.00000000000E+00  0.00000000000E+00 -0.96203692685E+03  0.96203692687E+03  0.50400001928E-02 0.  1.
    10030    2    1    2    0    0  0.00000000000E+00  0.00000000000E+00  0.90086739830E+02  0.20141605936E+04  0.20121449441E+04 0.  0.
        5    1    3    3  502    0 -0.89021471952E+03 -0.41640899081E+03 -0.17030240841E+03  0.99744859255E+03  0.46999998093E+01 0. -1.
       -5    1    3    3    0  502  0.89021471952E+03  0.41640899081E+03  0.26038914824E+03  0.10167120010E+04  0.46999998093E+01 0.  1.
</event>
<event>
 5   0  0.8470971E-05  0.2238658E+04  0.7818609E-02  0.8502508E-01
        1   -1    0    0  501    0  0.00000000000E+00  0.00000000000E+00  0.15419293885E+04  0.15419293885E+04  0.50400001928E-02 0. -1.
       -1   -1    0    0    0  501  0.00000000000E+00  0.00000000000E+00 -0.81255141518E+03  0.81255141520E+03  0.50400001928E-02 0.  1.
    10030    2    1    2    0    0  0.00000000000E+00  0.00000000000E+00  0.72937797331E+03  0.23544808037E+04  0.22386575502E+04 0.  0.
        2    1    3    3  502    0  0.16539308710E+03  0.10455075048E+04  0.74746389093E+03  0.12958175351E+04  0.25500000920E-02 0. -1.
       -2    1    3    3    0  502 -0.16539308710E+03 -0.10455075048E+04 -0.18085917619E+02  0.10586632686E+04  0.25500000920E-02 0.  1.
</event>
<event>
 5   0  0.1798917E-04  0.2486609E+04  0.7818609E-02  0.8407772E-01
       -2   -1    0    0    0  501  0.00000000000E+00  0.00000000000E+00  0.12432331511E+04  0.12432331511E+04  0.25500000920E-02 0. -1.
        2   -1    0    0  501    0  0.00000000000E+00  0.00000000000E+00 -0.12433754123E+04  0.12433754123E+04  0.25500000920E-02 0.  1.
    10030    2    1    2    0    0  0.00000000000E+00  0.00000000000E+00 -0.14226126879E+00  0.24866085634E+04  0.24866085593E+04 0.  0.
        4    1    3    3  502    0 -0.11018676284E+03  0.51530794154E+03 -0.11261797070E+04  0.12433687074E+04  0.12699999809E+01 0.  1.
       -4    1    3    3    0  502  0.11018676284E+03 -0.51530794154E+03  0.11260374457E+04  0.12432398559E+04  0.12699999809E+01 0. -1.
</event>
<event>
 5   0  0.1733962E-04  0.2120546E+04  0.7818609E-02  0.8552246E-01
       -2   -1    0    0    0  501  0.00000000000E+00  0.00000000000E+00  0.53506974349E+03  0.53506974349E+03  0.25500000920E-02 0. -1.
        2   -1    0    0  501    0  0.00000000000E+00  0.00000000000E+00 -0.21009946949E+04  0.21009946950E+04  0.25500000920E-02 0.  1.
    10030    2    1    2    0    0  0.00000000000E+00  0.00000000000E+00 -0.15659249515E+04  0.26360644384E+04  0.21205458661E+04 0.  0.
        3    1    3    3  502    0  0.29579385722E+03  0.15329660619E+03 -0.20342372538E+04  0.20613381747E+04  0.10100000352E+00 0.  1.
       -3    1    3    3    0  502 -0.29579385722E+03 -0.15329660619E+03  0.46831230239E+03  0.57472626372E+03  0.10100000352E+00 0. -1.
</event>
<event>
 5   0  0.6250625E-05  0.2193401E+04  0.7818609E-02  0.8521180E-01
        3   -1    0    0  501    0  0.00000000000E+00  0.00000000000E+00  0.15085113511E+04  0.15085113545E+04  0.10100000352E+00 0.  1.
       -3   -1    0    0    0  501  0.00000000000E+00  0.00000000000E+00 -0.79731061392E+03  0.79731062032E+03  0.10100000352E+00 0. -1.
    10030    2    1    2    0    0  0.00000000000E+00  0.00000000000E+00  0.71120073720E+03  0.23058219748E+04  0.21934011241E+04 0.  0.
        5    1    3    3  502    0 -0.54540603680E+02  0.69012631108E+03 -0.53857208412E+03  0.87711514779E+03  0.46999998093E+01 0. -1.
       -5    1    3    3    0  502  0.54540603680E+02 -0.69012631108E+03  0.12497728213E+04  0.14287068270E+04  0.46999998093E+01 0.  1.
</event>
<event>
 5   0  0.1805501E-04  0.2230826E+04  0.7818609E-02  0.8505706E-01
        2   -1    0    0  501    0  0.00000000000E+00  0.00000000000E+00  0.69041104251E+03  0.69041104251E+03  0.25500000920E-02 0.  1.
       -2   -1    0    0    0  501  0.00000000000E+00  0.00000000000E+00 -0.18020361922E+04  0.18020361922E+04  0.25500000920E-02 0. -1.
    10030    2    1    2    0    0  0.00000000000E+00  0.00000000000E+00 -0.11116251497E+04  0.24924472347E+04  0.22308255746E+04 0.  0.
        2    1    3    3  502    0 -0.68683086396E+03 -0.60271790810E+03 -0.12704675491E+04  0.15649579246E+04  0.25500000920E-02 0. -1.
       -2    1    3    3    0  502  0.68683086396E+03  0.60271790810E+03  0.15884239945E+03  0.92748931008E+03  0.25500000920E-02 0.  1.
</event>
<event>
 5   0  0.1798917E-04  0.2342490E+04  0.7818609E-02  0.8461354E-01
        2   -1    0    0  501    0  0.00000000000E+00  0.00000000000E+00  0.18667858851E+04  0.18667858851E+04  0.25500000920E-02 0.  1.
       -2   -1    0    0    0  501  0.00000000000E+00  0.00000000000E+00 -0.73485378940E+03  0.73485378940E+03  0.25500000920E-02 0. -1.
    10030    2    1    2    0    0  0.00000000000E+00  0.00000000000E+00  0.11319320957E+04  0.26016396745E+04  0.23424898563E+04 0.  0.
        4    1    3    3  502    0 -0.50032741081E+03 -0.97236772190E+03  0.10004837487E+03  0.10981064588E+04  0.12699999809E+01 0. -1.
       -4    1    3    3    0  502  0.50032741081E+03  0.97236772190E+03  0.10318837208E+04  0.15035332157E+04  0.12699999809E+01 0.  1.
</event>
<event>
 5   0  0.8306787E-05  0.2207992E+04  0.7818609E-02  0.8515109E-01
        1   -1    0    0  501    0  0.00000000000E+00  0.00000000000E+00  0.15110250802E+04  0.15110250802E+04  0.50400001928E-02 0.  1.
       -1   -1    0    0    0  501  0.00000000000E+00  0.00000000000E+00 -0.80660925679E+03  0.80660925681E+03  0.50400001928E-02 0. -1.
    10030    2    1    2    0    0  0.00000000000E+00  0.00000000000E+00  0.70441582337E+03  0.23176343370E+04  0.22079916820E+04 0.  0.
        1    1    3    3  502    0  0.21425370869E+02 -0.49555983585E+03  0.13874744342E+04  0.14734734144E+04  0.50400001928E-02 0.  1.
       -1    1    3    3    0  502 -0.21425370869E+02  0.49555983585E+03 -0.68305861079E+03  0.84416092259E+03  0.50400001928E-02 0. -1.
</event>
<event>
 5   0  0.1805501E-04  0.2418977E+04  0.7818609E-02  0.8432433E-01
       -2   -1    0    0    0  501  0.00000000000E+00  0.00000000000E+00  0.13075298885E+04  0.13075298885E+04  0.25500000920E-02 0. -1.
        2   -1    0    0  501    0  0.00000000000E+00  0.00000000000E+00 -0.11187987046E+04  0.11187987046E+04  0.25500000920E-02 0.  1.
    10030    2    1    2    0    0  0.00000000000E+00  0.00000000000E+00  0.18873118388E+03  0.24263285931E+04  0.24189772595E+04 0.  0.
        2    1    3    3  502    0 -0.85353531738E+02  0.11983828441E+04 -0.45543356810E+02  0.12022815243E+04  0.25500000920E-02 0. -1.
       -2    1    3    3    0  502  0.85353531738E+02 -0.11983828441E+04  0.23427454069E+03  0.12240470688E+04  0.25500000920E-02 0.  1.
</event>
<event>
 5   0  0.7954459E-05  0.2167977E+04  0.7818609E-02  0.8531876E-01
       -1   -1    0    0    0  501  0.00000000000E+00  0.00000000000E+00  0.69242326597E+03  0.69242326599E+03  0.50400001928E-02 0. -1.
        1   -1    0    0  501    0  0.00000000000E+00  0.00000000000E+00 -0.16969844132E+04  0.16969844132E+04  0.50400001928E-02 0.  1.
    10030    2    1    2    0    0  0.00000000000E+00  0.00000000000E+00 -0.10045611472E+04  0.23894076792E+04  0.21679773889E+04 0.  0.
        5    1    3    3  502    0  0.78538799857E+03  0.35253806530E+02  0.32022091833E+03  0.84890556937E+03  0.46999998093E+01 0. -1.
       -5    1    3    3    0  502 -0.78538799857E+03 -0.35253806530E+02 -0.13247820655E+04  0.15405021098E+04  0.46999998093E+01 0.  1.
</event>
<event>
 5   0  0.8602414E-05  0.2076545E+04  0.7818609E-02  0.8571647E-01
       -1   -1    0    0    0  501  0.00000000000E+00  0.00000000000E+00  0.10401404496E+04  0.10401404496E+04  0.50400001928E-02 0. -1.
        1   -1    0    0  501    0  0.00000000000E+00  0.00000000000E+00 -0.10364074919E+04  0.10364074919E+04  0.50400001928E-02 0.  1.
    10030    2    1    2    0    0  0.00000000000E+00  0.00000000000E+00  0.37329577483E+01  0.20765479415E+04  0.20765445862E+04 0.  0.
        3    1    3    3  502    0  0.57191002483E+03 -0.27995124364E+03  0.82196265773E+03  0.10397482369E+04  0.10100000352E+00 0. -1.
       -3    1    3    3    0  502 -0.57191002483E+03  0.27995124364E+03 -0.81822969999E+03  0.10367997046E+04  0.10100000352E+00 0.  1.
</event>
<event>
 5   0  0.1680258E-04  0.1203793E+04  0.7818609E-02  0.9109543E-01
        2   -1    0    0  501    0  0.00000000000E+00  0.00000000000E+00  0.99955210187E+03  0.99955210188E+03  0.25500000920E-02 0.  1.
       -2   -1    0    0    0  501  0.00000000000E+00  0.00000000000E+00 -0.36244150441E+03  0.36244150442E+03  0.25500000920E-02 0. -1.
    10030    2    1    2    0    0  0.00000000000E+00  0.00000000000E+00  0.63711059747E+03  0.13619936063E+04  0.12037926193E+04 0.  0.
        5    1    3    3  502    0 -0.35810517283E+01 -0.27662932188E+03  0.92333063550E+03  0.96389737945E+03  0.46999998093E+01 0.  1.
       -5    1    3    3    0  502  0.35810517283E+01  0.27662932188E+03 -0.28622003804E+03  0.39809622684E+03  0.46999998093E+01 0. -1.
</event>
<event>
 5   0  0.7954459E-05  0.1242637E+04  0.7818609E-02  0.9076334E-01
        1   -1    0    0  501    0  0.00000000000E+00  0.00000000000E+00  0.97126656760E+03  0.97126656762E+03  0.50400001928E-02 0. -1.
       -1   -1    0    0    0  501  0.00000000000E+00  0.00000000000E+00 -0.39745704851E+03  0.39745704854E+03  0.50400001928E-02 0.  1.
    10030    2    1    2    0    0  0.00000000000E+00  0.00000000000E+00  0.57380951909E+03  0.13687236162E+04  0.12426371044E+04 0.  0.
        5    1    3    3  502    0 -0.46492009782E+03 -0.14734658096E+03  0.71086641771E+03  0.86209910458E+03  0.46999998093E+01 0. -1.
       -5    1    3    3    0  502  0.46492009782E+03  0.14734658096E+03 -0.13705689862E+03  0.50662451158E+03  0.46999998093E+01 0.  1.
</event>
<event>
 5   0  0.1733962E-04  0.2348893E+04  0.7818609E-02  0.8458889E-01
        2   -1    0    0  501    0  0.00000000000E+00  0.00000000000E+00  0.18242365170E+04  0.18242365170E+04  0.25500000920E-02 0. -1.
       -2   -1    0    0    0  501  0.00000000000E+00  0.00000000000E+00 -0.75611039391E+03  0.75611039391E+03  0.25500000920E-02 0.  1.
    10030    2    1    2    0    0  0.00000000000E+00  0.00000000000E+00  0.10681261231E+04  0.25803469109E+04  0.23488926680E+04 0.  0.
        3    1    3    3  502    0  0.10662546530E+04  0.49236691085E+03  0.53422335425E+03  0.12902398081E+04  0.10100000352E+00 0. -1.
       -3    1    3    3    0  502 -0.10662546530E+04 -0.49236691085E+03  0.53390276885E+03  0.12901071028E+04  0.10100000352E+00 0.  1.
</event>
<event>
 5   0  0.8306787E-05  0.2011120E+04  0.7818609E-02  0.8601439E-01
        1   -1    0    0  501    0  0.00000000000E+00  0.00000000000E+00  0.24521597539E+04  0.24521597539E+04  0.50400001928E-02 0.  1.
       -1   -1    0    0    0  501  0.00000000000E+00  0.00000000000E+00 -0.41235119302E+03  0.41235119305E+03  0.50400001928E-02 0. -1.
    10030    2    1    2    0    0  0.00000000000E+00  0.00000000000E+00  0.20398085608E+04  0.28645109469E+04  0.20111200859E+04 0.  0.
        1    1    3    3  502    0 -0.60897525679E+03 -0.60193521834E+03  0.17708605928E+04  0.19670089246E+04  0.50400001928E-02 0.  1.
       -1    1    3    3    0  502  0.60897525679E+03  0.60193521834E+03  0.26894796807E+03  0.89750202230E+03  0.50400001928E-02 0. -1.
</event>
<event>
 5   0  0.7954459E-05  0.2376278E+04  0.7818609E-02  0.8448438E-01
        1   -1    0    0  501    0  0.00000000000E+00  0.00000000000E+00  0.11093068667E+04  0.11093068667E+04  0.50400001928E-02 0. -1.
       -1   -1    0    0    0  501  0.00000000000E+00  0.00000000000E+00 -0.12725737144E+04  0.12725737145E+04  0.50400001928E-02 0.  1.
    10030    2    1    2    0    0  0.00000000000E+00  0.00000000000E+00 -0.16326684774E+03  0.23818805812E+04  0.23762784011E+04 0.  0.
        5    1    3    3  502    0  0.50144480684E+03  0.10635010465E+04  0.89565311274E+02  0.11792054127E+04  0.46999998093E+01 0. -1.
       -5    1    3    3    0  502 -0.50144480684E+03 -0.10635010465E+04 -0.25283215901E+03  0.12026751685E+04  0.46999998093E+01 0.  1.
</event>
<event>
 5   0  0.1733962E-04  0.2379742E+04  0.7818609E-02  0.8447127E-01
       -2   -1    0    0    0  501  0.00000000000E+00  0.00000000000E+00  0.11623136032E+04  0.11623136032E+04  0.25500000920E-02 0. -1.
        2   -1    0    0  501    0  0.00000000000E+00  0.00000000000E+00 -0.12180817856E+04  0.12180817856E+04  0.25500000920E-02 0.  1.
    10030    2    1    2    0    0  0.00000000000E+00  0.00000000000E+00 -0.55768182333E+02  0.23803953888E+04  0.23797420274E+04 0.  0.
        3    1    3    3  502    0 -0.88104356734E+03  0.22233818032E+03 -0.79628832501E+03  0.12081999589E+04  0.10100000352E+00 0.  1.
       -3    1    3    3    0  502  0.88104356734E+03 -0.22233818032E+03  0.74052014268E+03  0.11721954299E+04  0.10100000352E+00 0. -1.
</event>
<event>
 5   0  0.1680258E-04  0.1313119E+04  0.7818609E-02  0.9019226E-01
       -2   -1    0    0    0  501  0.00000000000E+00  0.00000000000E+00  0.39185027372E+03  0.39185027373E+03  0.25500000920E-02 0. -1.
        2   -1    0    0  501    0  0.00000000000E+00  0.00000000000E+00 -0.11000892852E+04  0.11000892852E+04  0.25500000920E-02 0.  1.
    10030    2    1    2    0    0  0.00000000000E+00  0.00000000000E+00 -0.70823901152E+03  0.14919395590E+04  0.13131188637E+04 0.  0.
        5    1    3    3  502    0  0.55297905636E+03 -0.33596980097E+03 -0.48057106405E+03  0.80599763123E+03  0.46999998093E+01 0. -1.
       -5    1    3    3    0  502 -0.55297905636E+03  0.33596980097E+03 -0.22766794746E+03  0.68594192775E+03  0.46999998093E+01 0.  1.
</event>
<event>
 5   0  0.1680258E-04  0.2214797E+04  0.7818609E-02  0.8512294E-01
       -2   -1    0    0    0  501  0.00000000000E+00  0.00000000000E+00  0.71283350933E+03  0.71283350933E+03  0.25500000920E-02 0. -1.
        2   -1    0    0  501    0  0.00000000000E+00  0.00000000000E+00 -0.17203619480E+04  0.17203619480E+04  0.25500000920E-02 0.  1.
    10030    2    1    2    0    0  0.00000000000E+00  0.00000000000E+00 -0.10075284387E+04  0.24331954573E+04  0.22147971869E+04 0.  0.
        5    1    3    3  502    0  0.83616989063E+03  0.11084834215E+03 -0.12920434175E+04  0.15430054192E+04  0.46999998093E+01 0.  1.
       -5    1    3    3    0  502 -0.83616989063E+03 -0.11084834215E+03  0.28451497877E+03  0.89019003819E+03  0.46999998093E+01 0. -1.
</event>
<event>
 5   0  0.8784659E-05  0.2169658E+04  0.7818609E-02  0.8531164E-01
       -1   -1    0    0    0  501  0.00000000000E+00  0.00000000000E+00  0.54975130048E+03  0.54975130050E+03  0.50400001928E-02 0.  1.
        1   -1    0    0  501    0  0.00000000000E+00  0.00000000000E+00 -0.21407020904E+04  0.21407020905E+04  0.50400001928E-02 0. -1.
    10030    2    1    2    0    0  0.00000000000E+00  0.00000000000E+00 -0.15909507900E+04  0.26904533910E+04  0.21696578147E+04 0.  0.
        4    1    3    3  502    0  0.47279026698E+03  0.80116393391E+03 -0.14875196621E+04  0.17544545145E+04  0.12699999809E+01 0. -1.
       -4    1    3    3    0  502 -0.47279026698E+03 -0.80116393391E+03 -0.10343112788E+03  0.93599887642E+03  0.12699999809E+01 0.  1.
</event>
<event>
 5   0  0.6250625E-05  0.2193727E+04  0.7818609E-02  0.8521043E-01
        3   -1    0    0  501    0  0.00000000000E+00  0.00000000000E+00  0.79393681577E+03  0.79393682220E+03  0.10100000352E+00 0.  1.
       -3   -1    0    0    0  501  0.00000000000E+00  0.00000000000E+00 -0.15153723315E+04  0.15153723349E+04  0.10100000352E+00 0. -1.
    10030    2    1    2    0    0  0.00000000000E+00  0.00000000000E+00 -0.72143551574E+03  0.23093091571E+04  0.21937273257E+04 0.  0.
        1    1    3    3  502    0 -0.10554550325E+04 -0.17631336160E+03 -0.61432186324E+03  0.12338813066E+04  0.50400001928E-02 0.  1.
       -1    1    3    3    0  502  0.10554550325E+04  0.17631336160E+03 -0.10711365250E+03  0.10754278505E+04  0.50400001928E-02 0. -1.
</event>
<event>
 5   0  0.8784659E-05  0.1854732E+04  0.7818609E-02  0.8677723E-01
       -1   -1    0    0    0  501  0.00000000000E+00  0.00000000000E+00  0.42948251140E+03  0.42948251143E+03  0.50400001928E-02 0.  1.
        1   -1    0    0  501    0  0.00000000000E+00  0.00000000000E+00 -0.20024273991E+04  0.20024273991E+04  0.50400001928E-02 0. -1.
    10030    2    1    2    0    0  0.00000000000E+00  0.00000000000E+00 -0.15729448877E+04  0.24319099105E+04  0.18547318386E+04 0.  0.
        4    1    3    3  502    0 -0.65918116131E+03  0.80693595653E+01  0.68743573761E+02  0.66280631396E+03  0.12699999809E+01 0.  1.
       -4    1    3    3    0  502  0.65918116131E+03 -0.80693595653E+01 -0.16416884614E+04  0.17691035965E+04  0.12699999809E+01 0. -1.
</event>
<event>
 5   0  0.8602414E-05  0.2207436E+04  0.7818609E-02  0.8515339E-01
       -1   -1    0    0    0  501  0.00000000000E+00  0.00000000000E+00  0.13063539322E+04  0.13063539322E+04  0.50400001928E-02 0.  1.
        1   -1    0    0  501    0  0.00000000000E+00  0.00000000000E+00 -0.93251426339E+03  0.93251426341E+03  0.50400001928E-02 0. -1.
    10030    2    1    2    0    0  0.00000000000E+00  0.00000000000E+00  0.37383966878E+03  0.22388681956E+04  0.22074362277E+04 0.  0.
        3    1    3    3  502    0 -0.94947083011E+03 -0.29813168414E+03 -0.29717758140E+03  0.10386009260E+04  0.10100000352E+00 0. -1.
       -3    1    3    3    0  502  0.94947083011E+03  0.29813168414E+03  0.67101725018E+03  0.12002672696E+04  0.10100000352E+00 0.  1.
</event>
<event>
 5   0  0.8306787E-05  0.2183360E+04  0.7818609E-02  0.8525386E-01
        1   -1    0    0  501    0  0.00000000000E+00  0.00000000000E+00  0.11468372205E+04  0.11468372205E+04  0.50400001928E-02 0.  1.
       -1   -1    0    0    0  501  0.00000000000E+00  0.00000000000E+00 -0.10391757202E+04  0.10391757202E+04  0.50400001928E-02 0. -1.
    10030    2    1    2    0    0  0.00000000000E+00  0.00000000000E+00  0.10766150031E+03  0.21860129407E+04  0.21833601577E+04 0.  0.
        1    1    3    3  502    0 -0.15174531652E+03  0.10768661014E+04 -0.41669381194E+02  0.10883030730E+04  0.50400001928E-02 0.  1.
       -1    1    3    3    0  502  0.15174531652E+03 -0.10768661014E+04  0.14933088150E+03  0.10977098677E+04  0.50400001928E-02 0. -1.
</event>
<event>
 5   0  0.1733962E-04  0.2124214E+04  0.7818609E-02  0.8550652E-01
       -2   -1    0    0    0  501  0.00000000000E+00  0.00000000000E+00  0.97518384615E+03  0.97518384616E+03  0.25500000920E-02 0.  1.
        2   -1    0    0  501    0  0.00000000000E+00  0.00000000000E+00 -0.11567775460E+04  0.11567775460E+04  0.25500000920E-02 0. -1.
    10030    2    1    2    0    0  0.00000000000E+00  0.00000000000E+00 -0.18159369986E+03  0.21319613922E+04  0.21242135264E+04 0.  0.
        3    1    3    3  502    0 -0.23702672289E+03 -0.62931268713E+02  0.94637878497E+03  0.97763736978E+03  0.10100000352E+00 0.  1.
       -3    1    3    3    0  502  0.23702672289E+03  0.62931268713E+02 -0.11279724848E+04  0.11543240224E+04  0.10100000352E+00 0. -1.
</event>
<event>
 5   0  0.1680258E-04  0.2191651E+04  0.7818609E-02  0.8521911E-01
       -2   -1    0    0    0  501  0.00000000000E+00  0.00000000000E+00  0.75214525188E+03  0.75214525188E+03  0.25500000920E-02 0. -1.
        2   -1    0    0  501    0  0.00000000000E+00  0.00000000000E+00 -0.15965443726E+04  0.15965443726E+04  0.25500000920E-02 0.  1.
    10030    2    1    2    0    0  0.00000000000E+00  0.00000000000E+00 -0.84439912076E+03  0.23486896245E+04  0.21916507653E+04 0.  0.
        5    1    3    3  502    0 -0.18918957174E+03 -0.89471021839E+03  0.22480934549E+03  0.94173265886E+03  0.46999998093E+01 0. -1.
       -5    1    3    3    0  502  0.18918957174E+03  0.89471021839E+03 -0.10692084663E+04  0.14069569657E+04  0.46999998093E+01 0.  1.
</event>
<event>
 5   0  0.1680258E-04  0.2267156E+04  0.7818609E-02  0.8490985E-01
       -2   -1    0    0    0  501  0.00000000000E+00  0.00000000000E+00  0.12498502402E+04  0.12498502402E+04  0.25500000920E-02 0. -1.
        2   -1    0    0  501    0  0.00000000000E+00  0.00000000000E+00 -0.10281225860E+04  0.10281225860E+04  0.25500000920E-02 0.  1.
    10030    2    1    2    0    0  0.00000000000E+00  0.00000000000E+00  0.22172765427E+03  0.22779728262E+04  0.22671561579E+04 0.  0.
        5    1    3    3  502    0 -0.74381856402E+03  0.63707468959E+03  0.68441733172E+03  0.11948135379E+04  0.46999998093E+01 0. -1.
       -5    1    3    3    0  502  0.74381856402E+03 -0.63707468959E+03 -0.46268967745E+03  0.10831592883E+04  0.46999998093E+01 0.  1.
</event>
<event>
 5   0  0.8306787E-05  0.2213312E+04  0.7818609E-02  0.8512908E-01
       -1   -1    0    0    0  501  0.00000000000E+00  0.00000000000E+00  0.62531023518E+03  0.62531023520E+03  0.50400001928E-02 0. -1.
        1   -1    0    0  501    0  0.00000000000E+00  0.00000000000E+00 -0.19585277310E+04  0.19585277310E+04  0.50400001928E-02 0.  1.
    10030    2    1    2    0    0  0.00000000000E+00  0.00000000000E+00 -0.13332174959E+04  0.25838379662E+04  0.22133119402E+04 0.  0.
        1    1    3    3  502    0 -0.18753800508E+03 -0.24122837641E+03  0.57509071916E+03  0.65122267177E+03  0.50400001928E-02 0. -1.
       -1    1    3    3    0  502  0.18753800508E+03  0.24122837641E+03 -0.19083082150E+04  0.19326152945E+04  0.50400001928E-02 0.  1.
</event>
<event>
 5   0  0.1754356E-04  0.2161370E+04  0.7818609E-02  0.8534681E-01
       -2   -1    0    0    0  501  0.00000000000E+00  0.00000000000E+00  0.15006114647E+04  0.15006114647E+04  0.25500000920E-02 0. -1.
        2   -1    0    0  501    0  0.00000000000E+00  0.00000000000E+00 -0.77826924261E+03  0.77826924261E+03  0.25500000920E-02 0.  1.
    10030    2    1    2    0    0  0.00000000000E+00  0.00000000000E+00  0.72234222212E+03  0.22788807073E+04  0.21613697029E+04 0.  0.
        1    1    3    3  502    0  0.10694639102E+04 -0.47352091364E+02  0.20519410764E+03  0.10899999530E+04  0.50400001928E-02 0.  1.
       -1    1    3    3    0  502 -0.10694639102E+04  0.47352091364E+02  0.51714811448E+03  0.11888807543E+04  0.50400001928E-02 0. -1.
</event>
<event>
 5   0  0.1754356E-04  0.2162086E+04  0.7818609E-02  0.8534376E-01
       -2   -1    0    0    0  501  0.00000000000E+00  0.00000000000E+00  0.10093339481E+04  0.10093339481E+04  0.25500000920E-02 0.  1.
        2   -1    0    0  501    0  0.00000000000E+00  0.00000000000E+00 -0.11578469936E+04  0.11578469936E+04  0.25500000920E-02 0. -1.
    10030    2    1    2    0    0  0.00000000000E+00  0.00000000000E+00 -0.14851304550E+03  0.21671809417E+04  0.21620862863E+04 0.  0.
        1    1    3    3  502    0 -0.31156954291E+03 -0.47337756528E+03 -0.99701926544E+03  0.11468257562E+04  0.50400001928E-02 0. -1.
       -1    1    3    3    0  502  0.31156954291E+03  0.47337756528E+03  0.84850621994E+03  0.10203551855E+04  0.50400001928E-02 0.  1.
</event>
<event>
 5   0  0.8602414E-05  0.1117751E+04  0.7818609E-02  0.9188061E-01
        1   -1    0    0  501    0  0.00000000000E+00  0.00000000000E+00  0.93368693002E+03  0.93368693004E+03  0.50400001928E-02 0. -1.
       -1   -1    0    0    0  501  0.00000000000E+00  0.00000000000E+00 -0.33452535653E+03  0.33452535656E+03  0.50400001928E-02 0.  1.
    10030    2    1    2    0    0  0.00000000000E+00  0.00000000000E+00  0.59916157350E+03  0.12682122866E+04  0.11177512303E+04 0.  0.
        3    1    3    3  502    0 -0.15702546010E+02 -0.37601974241E+03 -0.16919947617E+03  0.41263287504E+03  0.10100000352E+00 0.  1.
       -3    1    3    3    0  502  0.15702546010E+02  0.37601974241E+03  0.76836104967E+03  0.85557941156E+03  0.10100000352E+00 0. -1.
</event>
<event>
 5   0  0.1798917E-04  0.2241609E+04  0.7818609E-02  0.8501306E-01
        2   -1    0    0  501    0  0.00000000000E+00  0.00000000000E+00  0.11839253844E+04  0.11839253844E+04  0.25500000920E-02 0.  1.
       -2   -1    0    0    0  501  0.00000000000E+00  0.00000000000E+00 -0.10610493498E+04  0.10610493498E+04  0.25500000920E-02 0. -1.
    10030    2    1    2    0    0  0.00000000000E+00  0.00000000000E+00  0.12287603451E+03  0.22449747342E+04  0.22416094748E+04 0.  0.
        4    1    3    3  502    0  0.33937879941E+03  0.55221371274E+03 -0.85431082948E+03  0.10723649380E+04  0.12699999809E+01 0. -1.
       -4    1    3    3    0  502 -0.33937879941E+03 -0.55221371274E+03  0.97718686399E+03  0.11726097962E+04  0.12699999809E+01 0.  1.
</event>
<event>
 5   0  0.8470971E-05  0.1619991E+04  0.7818609E-02  0.8808360E-01
        1   -1    0    0  501    0  0.00000000000E+00  0.00000000000E+00  0.17029429400E+04  0.17029429400E+04  0.50400001928E-02 0. -1.
       -1   -1    0    0    0  501  0.00000000000E+00  0.00000000000E+00 -0.38526995309E+03  0.38526995313E+03  0.50400001928E-02 0.  1.
    10030    2    1    2    0    0  0.00000000000E+00  0.00000000000E+00  0.13176729869E+04  0.20882128931E+04  0.16199910452E+04 0.  0.
        2    1    3    3  502    0 -0.32065991570E+03 -0.37117495052E+03  0.14897335371E+04  0.15684067192E+04  0.25500000920E-02 0. -1.
       -2    1    3    3    0  502  0.32065991570E+03  0.37117495052E+03 -0.17206055022E+03  0.51980617385E+03  0.25500000920E-02 0.  1.
</event>
<event>
 5   0  0.1805501E-04  0.2228413E+04  0.7818609E-02  0.8506694E-01
       -2   -1    0    0    0  501  0.00000000000E+00  0.00000000000E+00  0.12771391227E+04  0.12771391227E+04  0.25500000920E-02 0.  1.
        2   -1    0    0  501    0  0.00000000000E+00  0.00000000000E+00 -0.97205997040E+03  0.97205997041E+03  0.25500000920E-02 0. -1.
    10030    2    1    2    0    0  0.00000000000E+00  0.00000000000E+00  0.30507915226E+03  0.22491990931E+04  0.22284127246E+04 0.  0.
        2    1    3    3  502    0  0.14373185831E+03  0.79524042408E+03  0.92676027524E+03  0.12296140805E+04  0.25500000920E-02 0.  1.
       -2    1    3    3    0  502 -0.14373185831E+03 -0.79524042408E+03 -0.62168112298E+03  0.10195850126E+04  0.25500000920E-02 0. -1.
</event>
<event>
 5   0  0.8306787E-05  0.2125868E+04  0.7818609E-02  0.8549933E-01
        1   -1    0    0  501    0  0.00000000000E+00  0.00000000000E+00  0.14891057532E+04  0.14891057532E+04  0.50400001928E-02 0. -1.
       -1   -1    0    0    0  501  0.00000000000E+00  0.00000000000E+00 -0.75872997852E+03  0.75872997854E+03  0.50400001928E-02 0.  1.
    10030    2    1    2    0    0  0.00000000000E+00  0.00000000000E+00  0.73037577463E+03  0.22478357317E+04  0.21258684589E+04 0.  0.
        1    1    3    3  502    0 -0.64383673996E+03  0.64378869907E+03 -0.21476890553E+03  0.93547598557E+03  0.50400001928E-02 0.  1.
       -1    1    3    3    0  502  0.64383673996E+03 -0.64378869907E+03  0.94514468017E+03  0.13123597461E+04  0.50400001928E-02 0. -1.
</event>
<event>
 5   0  0.1805501E-04  0.2208558E+04  0.7818609E-02  0.8514875E-01
       -2   -1    0    0    0  501  0.00000000000E+00  0.00000000000E+00  0.85988017415E+03  0.85988017415E+03  0.25500000920E-02 0.  1.
        2   -1    0    0  501    0  0.00000000000E+00  0.00000000000E+00 -0.14181419343E+04  0.14181419343E+04  0.25500000920E-02 0. -1.
    10030    2    1    2    0    0  0.00000000000E+00  0.00000000000E+00 -0.55826176011E+03  0.22780221084E+04  0.22085580213E+04 0.  0.
        2    1    3    3  502    0 -0.32985967360E+03 -0.49356175337E+03 -0.12395572178E+04  0.13743772062E+04  0.25500000920E-02 0. -1.
       -2    1    3    3    0  502  0.32985967360E+03  0.49356175337E+03  0.68129545770E+03  0.90364490223E+03  0.25500000920E-02 0.  1.
</event>
<event>
 5   0  0.1680258E-04  0.2257302E+04  0.7818609E-02  0.8494949E-01
       -2   -1    0    0    0  501  0.00000000000E+00  0.00000000000E+00  0.82493480923E+03  0.82493480923E+03  0.25500000920E-02 0. -1.
        2   -1    0    0  501    0  0.00000000000E+00  0.00000000000E+00 -0.15441866793E+04  0.15441866793E+04  0.25500000920E-02 0.  1.
    10030    2    1    2    0    0  0.00000000000E+00  0.00000000000E+00 -0.71925187011E+03  0.23691214886E+04  0.22573022338E+04 0.  0.
        5    1    3    3  502    0  0.56339611719E+03 -0.65819932926E+03  0.39952340391E+03  0.95408730323E+03  0.46999998093E+01 0. -1.
       -5    1    3    3    0  502 -0.56339611719E+03  0.65819932926E+03 -0.11187752740E+04  0.14150341853E+04  0.46999998093E+01 0.  1.
</event>
<event>
 5   0  0.1680258E-04  0.2222097E+04  0.7818609E-02  0.8509287E-01
        2   -1    0    0  501    0  0.00000000000E+00  0.00000000000E+00  0.89640986577E+03  0.89640986577E+03  0.25500000920E-02 0.  1.
       -2   -1    0    0    0  501  0.00000000000E+00  0.00000000000E+00 -0.13770801652E+04  0.13770801652E+04  0.25500000920E-02 0. -1.
    10030    2    1    2    0    0  0.00000000000E+00  0.00000000000E+00 -0.48067029939E+03  0.22734900309E+04  0.22220965290E+04 0.  0.
        5    1    3    3  502    0  0.62571667669E+02 -0.10830135648E+04 -0.48582746800E+03  0.11886479772E+04  0.46999998093E+01 0. -1.
       -5    1    3    3    0  502 -0.62571667669E+02  0.10830135648E+04  0.51571686077E+01  0.10848420537E+04  0.46999998093E+01 0.  1.
</event>
<event>
 5   0  0.1680258E-04  0.2423538E+04  0.7818609E-02  0.8430744E-01
        2   -1    0    0  501    0  0.00000000000E+00  0.00000000000E+00  0.14343090105E+04  0.14343090105E+04  0.25500000920E-02 0. -1.
       -2   -1    0    0    0  501  0.00000000000E+00  0.00000000000E+00 -0.10237570346E+04  0.10237570346E+04  0.25500000920E-02 0.  1.
    10030    2    1    2    0    0  0.00000000000E+00  0.00000000000E+00  0.41055197588E+03  0.24580660451E+04  0.24235378597E+04 0.  0.
        5    1    3    3  502    0  0.77997008017E+03 -0.47638003495E+03 -0.60171708497E+03  0.10942471403E+04  0.46999998093E+01 0.  1.
       -5    1    3    3    0  502 -0.77997008017E+03  0.47638003495E+03  0.10122690608E+04  0.13638189048E+04  0.46999998093E+01 0. -1.
</event>
<event>
 5   0  0.8602414E-05  0.2151255E+04  0.7818609E-02  0.8538995E-01
        1   -1    0    0  501    0  0.00000000000E+00  0.00000000000E+00  0.13018811221E+04  0.13018811221E+04  0.50400001928E-02 0. -1.
       -1   -1    0    0    0  501  0.00000000000E+00  0.00000000000E+00 -0.88869407304E+03  0.88869407305E+03  0.50400001928E-02 0.  1.
    10030    2    1    2    0    0  0.00000000000E+00  0.00000000000E+00  0.41318704903E+03  0.21905751951E+04  0.21512545521E+04 0.  0.
        3    1    3    3  502    0 -0.48752826984E+03 -0.92712008265E+03  0.45547567879E+03  0.11422318354E+04  0.10100000352E+00 0.  1.
       -3    1    3    3    0  502  0.48752826984E+03  0.92712008265E+03 -0.42288629762E+02  0.10483433598E+04  0.10100000352E+00 0. -1.
</event>
<event>
 5   0  0.8602414E-05  0.2206541E+04  0.7818609E-02  0.8515711E-01
        1   -1    0    0  501    0  0.00000000000E+00  0.00000000000E+00  0.19563576140E+04  0.19563576140E+04  0.50400001928E-02 0. -1.
       -1   -1    0    0    0  501  0.00000000000E+00  0.00000000000E+00 -0.62217951446E+03  0.62217951448E+03  0.50400001928E-02 0.  1.
    10030    2    1    2    0    0  0.00000000000E+00  0.00000000000E+00  0.13341780996E+04  0.25785371285E+04  0.22065408498E+04 0.  0.
        3    1    3    3  502    0 -0.45656760861E+03  0.83151674008E+03  0.87978585025E+01  0.94865772689E+03  0.10100000352E+00 0.  1.
       -3    1    3    3    0  502  0.45656760861E+03 -0.83151674008E+03  0.13253802411E+04  0.16298794016E+04  0.10100000352E+00 0. -1.
</event>
<event>
 5   0  0.7954459E-05  0.2296526E+04  0.7818609E-02  0.8479292E-01
        1   -1    0    0  501    0  0.00000000000E+00  0.00000000000E+00  0.73777200087E+03  0.73777200089E+03  0.50400001928E-02 0. -1.
       -1   -1    0    0    0  501  0.00000000000E+00  0.00000000000E+00 -0.17871482896E+04  0.17871482896E+04  0.50400001928E-02 0.  1.
    10030    2    1    2    0    0  0.00000000000E+00  0.00000000000E+00 -0.10493762887E+04  0.25249202905E+04  0.22965260456E+04 0.  0.
        5    1    3    3  502    0  0.63824633989E+03  0.75391644363E+03  0.11897271390E+03  0.99494974296E+03  0.46999998093E+01 0. -1.
       -5    1    3    3    0  502 -0.63824633989E+03 -0.75391644363E+03 -0.11683490026E+04  0.15299705475E+04  0.46999998093E+01 0.  1.
</event>
<event>
 5   0  0.1754356E-04  0.1359781E+04  0.7818609E-02  0.8983457E-01
       -2   -1    0    0    0  501  0.00000000000E+00  0.00000000000E+00  0.26916336753E+03  0.26916336754E+03  0.25500000920E-02 0.  1.
        2   -1    0    0  501    0  0.00000000000E+00  0.00000000000E+00 -0.17173620177E+04  0.17173620177E+04  0.25500000920E-02 0. -1.
    10030    2    1    2    0    0  0.00000000000E+00  0.00000000000E+00 -0.14481986502E+04  0.19865253852E+04  0.13597807823E+04 0.  0.
        1    1    3    3  502    0  0.16618348040E+03 -0.41935618987E+03 -0.14672653709E+04  0.15350388372E+04  0.50400001928E-02 0. -1.
       -1    1    3    3    0  502 -0.16618348040E+03  0.41935618987E+03  0.19066720760E+02  0.45148654798E+03  0.50400001928E-02 0.  1.
</event>
<event>
 5   0  0.7954459E-05  0.2132930E+04  0.7818609E-02  0.8546874E-01
       -1   -1    0    0    0  501  0.00000000000E+00  0.00000000000E+00  0.57045813876E+03  0.57045813878E+03  0.50400001928E-02 0. -1.
        1   -1    0    0  501    0  0.00000000000E+00  0.00000000000E+00 -0.19937448491E+04  0.19937448491E+04  0.50400001928E-02 0.  1.
    10030    2    1    2    0    0  0.00000000000E+00  0.00000000000E+00 -0.14232867103E+04  0.25642029879E+04  0.21329303559E+04 0.  0.
        5    1    3    3  502    0 -0.19871838989E+03 -0.69666756470E+03 -0.16525047530E+04  0.18043360948E+04  0.46999998093E+01 0.  1.
       -5    1    3    3    0  502  0.19871838989E+03  0.69666756470E+03  0.22921804266E+03  0.75986689312E+03  0.46999998093E+01 0. -1.
</event>
<event>
 5   0  0.1754356E-04  0.1795142E+04  0.7818609E-02  0.8708887E-01
       -2   -1    0    0    0  501  0.00000000000E+00  0.00000000000E+00  0.36715624910E+03  0.36715624911E+03  0.25500000920E-02 0. -1.
        2   -1    0    0  501    0  0.00000000000E+00  0.00000000000E+00 -0.21942522853E+04  0.21942522853E+04  0.25500000920E-02 0.  1.
    10030    2    1    2    0    0  0.00000000000E+00  0.00000000000E+00 -0.18270960362E+04  0.25614085344E+04  0.17951417088E+04 0.  0.
        1    1    3    3  502    0 -0.48762257226E+03  0.75226407717E+03 -0.85043606928E+03  0.12356854465E+04  0.50400001928E-02 0. -1.
       -1    1    3    3    0  502  0.48762257226E+03 -0.75226407717E+03 -0.97665996692E+03  0.13257230879E+04  0.50400001928E-02 0.  1.
</event>
<event>
 5   0  0.1733962E-04  0.2211974E+04  0.7818609E-02  0.8513461E-01
       -2   -1    0    0    0  501  0.00000000000E+00  0.00000000000E+00  0.48356507273E+03  0.48356507274E+03  0.25500000920E-02 0. -1.
        2   -1    0    0  501    0  0.00000000000E+00  0.00000000000E+00 -0.25295614283E+04  0.25295614283E+04  0.25500000920E-02 0.  1.
    10030    2    1    2    0    0  0.00000000000E+00  0.00000000000E+00 -0.20459963556E+04  0.30131265011E+04  0.22119742820E+04 0.  0.
        3    1    3    3  502    0  0.80350040302E+03 -0.51505662750E+03 -0.17842549234E+04  0.20234776670E+04  0.10100000352E+00 0.  1.
       -3    1    3    3    0  502 -0.80350040302E+03  0.51505662750E+03 -0.26174143224E+03  0.98964883405E+03  0.10100000352E+00 0. -1.
</event>
<event>
 5   0  0.1805501E-04  0.2242821E+04  0.7818609E-02  0.8500813E-01
       -2   -1    0    0    0  501  0.00000000000E+00  0.00000000000E+00  0.63220949268E+03  0.63220949269E+03  0.25500000920E-02 0. -1.
        2   -1    0    0  501    0  0.00000000000E+00  0.00000000000E+00 -0.19891539903E+04  0.19891539903E+04  0.25500000920E-02 0.  1.
    10030    2    1    2    0    0  0.00000000000E+00  0.00000000000E+00 -0.13569444976E+04  0.26213634829E+04  0.22428214686E+04 0.  0.
        2    1    3    3  502    0 -0.39103063170E+02 -0.98058579056E+03 -0.44217458780E+02  0.98236079210E+03  0.25500000920E-02 0. -1.
       -2    1    3    3    0  502  0.39103063170E+02  0.98058579056E+03 -0.13127270388E+04  0.16390026908E+04  0.25500000920E-02 0.  1.
</event>
<event>
 5   0  0.8470971E-05  0.2183578E+04  0.7818609E-02  0.8525294E-01
        1   -1    0    0  501    0  0.00000000000E+00  0.00000000000E+00  0.17724034490E+04  0.17724034490E+04  0.50400001928E-02 0. -1.
       -1   -1    0    0    0  501  0.00000000000E+00  0.00000000000E+00 -0.67253505022E+03  0.67253505024E+03  0.50400001928E-02 0.  1.
    10030    2    1    2    0    0  0.00000000000E+00  0.00000000000E+00  0.10998683988E+04  0.24449384993E+04  0.21835782034E+04 0.  0.
        2    1    3    3  502    0  0.64764351665E+03 -0.40295896641E+03 -0.32470732278E+03  0.82900717653E+03  0.25500000920E-02 0.  1.
       -2    1    3    3    0  502 -0.64764351665E+03  0.40295896641E+03  0.14245757216E+04  0.16159313227E+04  0.25500000920E-02 0. -1.
</event>
<event>
 5   0  0.1680258E-04  0.2229002E+04  0.7818609E-02  0.8506453E-01
        2   -1    0    0  501    0  0.00000000000E+00  0.00000000000E+00  0.18133954750E+04  0.18133954750E+04  0.25500000920E-02 0. -1.
       -2   -1    0    0    0  501  0.00000000000E+00  0.00000000000E+00 -0.68496502225E+03  0.68496502226E+03  0.25500000920E-02 0.  1.
    10030    2    1    2    0    0  0.00000000000E+00  0.00000000000E+00  0.11284304527E+04  0.24983604972E+04  0.22290019936E+04 0.  0.
        5    1    3    3  502    0  0.10821220748E+04  0.17686868335E+03  0.34055258263E+03  0.11481589034E+04  0.46999998093E+01 0. -1.
       -5    1    3    3    0  502 -0.10821220748E+04 -0.17686868335E+03  0.78787787011E+03  0.13502015939E+04  0.46999998093E+01 0.  1.
</event>
<event>
 5   0  0.1680258E-04  0.2435079E+04  0.7818609E-02  0.8426486E-01
       -2   -1    0    0    0  501  0.00000000000E+00  0.00000000000E+00  0.17266833701E+04  0.17266833702E+04  0.25500000920E-02 0. -1.
        2   -1    0    0  501    0  0.00000000000E+00  0.00000000000E+00 -0.85852576838E+03  0.85852576838E+03  0.25500000920E-02 0.  1.
    10030    2    1    2    0    0  0.00000000000E+00  0.00000000000E+00  0.86815760177E+03  0.25852091385E+04  0.24350787807E+04 0.  0.
        5    1    3    3  502    0 -0.75400497496E+03 -0.54563222721E+03  0.12674204542E+04  0.15724550001E+04  0.46999998093E+01 0. -1.
       -5    1    3    3    0  502  0.75400497496E+03  0.54563222721E+03 -0.39926285240E+03  0.10127541384E+04  0.46999998093E+01 0.  1.
</event>
<event>
 5   0  0.1754356E-04  0.2154199E+04  0.7818609E-02  0.8537737E-01
       -2   -1    0    0    0  501  0.00000000000E+00  0.00000000000E+00  0.65071634987E+03  0.65071634988E+03  0.25500000920E-02 0.  1.
        2   -1    0    0  501    0  0.00000000000E+00  0.00000000000E+00 -0.17828712701E+04  0.17828712701E+04  0.25500000920E-02 0. -1.
    10030    2    1    2    0    0  0.00000000000E+00  0.00000000000E+00 -0.11321549203E+04  0.24335876200E+04  0.21541991414E+04 0.  0.
        1    1    3    3  502    0  0.88650824046E+03 -0.60257807302E+03 -0.44680880519E+03  0.11613075832E+04  0.50400001928E-02 0. -1.
       -1    1    3    3    0  502 -0.88650824046E+03  0.60257807302E+03 -0.68534611506E+03  0.12722800368E+04  0.50400001928E-02 0.  1.
</event>
<event>
 5   0  0.1798917E-04  0.2134305E+04  0.7818609E-02  0.8546280E-01
       -2   -1    0    0    0  501  0.00000000000E+00  0.00000000000E+00  0.56724562994E+03  0.56724562995E+03  0.25500000920E-02 0. -1.
        2   -1    0    0  501    0  0.00000000000E+00  0.00000000000E+00 -0.20076215059E+04  0.20076215059E+04  0.25500000920E-02 0.  1.
    10030    2    1    2    0    0  0.00000000000E+00  0.00000000000E+00 -0.14403758759E+04  0.25748671358E+04  0.21343050633E+04 0.  0.
        4    1    3    3  502    0 -0.93290293344E+03 -0.30173643775E+02 -0.13442632271E+04  0.16365401213E+04  0.12699999809E+01 0.  1.
       -4    1    3    3    0  502  0.93290293344E+03  0.30173643775E+02 -0.96112648832E+02  0.93832701452E+03  0.12699999809E+01 0. -1.
</event>
<event>
 5   0  0.8470971E-05  0.2244443E+04  0.7818609E-02  0.8500154E-01
        1   -1    0    0  501    0  0.00000000000E+00  0.00000000000E+00  0.63843789590E+03  0.63843789592E+03  0.50400001928E-02 0.  1.
       -1   -1    0    0    0  501  0.00000000000E+00  0.00000000000E+00 -0.19725970441E+04  0.19725970441E+04  0.50400001928E-02 0. -1.
    10030    2    1    2    0    0  0.00000000000E+00  0.00000000000E+00 -0.13341591482E+04  0.26110349401E+04  0.22444426536E+04 0.  0.
        2    1    3    3  502    0 -0.66074974564E+03 -0.73740301860E+03 -0.12815875067E+04  0.16195122647E+04  0.25500000920E-02 0. -1.
       -2    1    3    3    0  502  0.66074974564E+03  0.73740301860E+03 -0.52571641502E+02  0.99152267533E+03  0.25500000920E-02 0.  1.
</event>
<event>
 5   0  0.8470971E-05  0.2167507E+04  0.7818609E-02  0.8532075E-01
        1   -1    0    0  501    0  0.00000000000E+00  0.00000000000E+00  0.11628820218E+04  0.11628820218E+04  0.50400001928E-02 0.  1.
       -1   -1    0    0    0  501  0.00000000000E+00  0.00000000000E+00 -0.10100092024E+04  0.10100092024E+04  0.50400001928E-02 0. -1.
    10030    2    1    2    0    0  0.00000000000E+00  0.00000000000E+00  0.15287281940E+03  0.21728912243E+04  0.21675069028E+04 0.  0.
        2    1    3    3  502    0 -0.38499321838E+03 -0.76055922642E+03  0.74731584347E+03  0.11336450437E+04  0.25500000920E-02 0.  1.
       -2    1    3    3    0  502  0.38499321838E+03  0.76055922642E+03 -0.59444302407E+03  0.10392461806E+04  0.25500000920E-02 0. -1.
</event>
<event>
 5   0  0.1680258E-04  0.2082704E+04  0.7818609E-02  0.8568901E-01
        2   -1    0    0  501    0  0.00000000000E+00  0.00000000000E+00  0.72837957527E+03  0.72837957527E+03  0.25500000920E-02 0. -1.
       -2   -1    0    0    0  501  0.00000000000E+00  0.00000000000E+00 -0.14888038785E+04  0.14888038785E+04  0.25500000920E-02 0.  1.
    10030    2    1    2    0    0  0.00000000000E+00  0.00000000000E+00 -0.76042430321E+03  0.22171834538E+04  0.20827043349E+04 0.  0.
        5    1    3    3  502    0 -0.91381211026E+03 -0.49929673853E+03 -0.38714745314E+03  0.11109703175E+04  0.46999998093E+01 0.  1.
       -5    1    3    3    0  502  0.91381211026E+03  0.49929673853E+03 -0.37327685007E+03  0.11062131362E+04  0.46999998093E+01 0. -1.
</event>
<event>
 5   0  0.1733962E-04  0.2374347E+04  0.7818609E-02  0.8449171E-01
        2   -1    0    0  501    0  0.00000000000E+00  0.00000000000E+00  0.14283109572E+04  0.14283109572E+04  0.25500000920E-02 0. -1.
       -2   -1    0    0    0  501  0.00000000000E+00  0.00000000000E+00 -0.98674653620E+03  0.98674653620E+03  0.25500000920E-02 0.  1.
    10030    2    1    2    0    0  0.00000000000E+00  0.00000000000E+00  0.44156442097E+03  0.24150574934E+04  0.23743469752E+04 0.  0.
        3    1    3    3  502    0 -0.13915008199E+03 -0.78814181181E+02 -0.97574055457E+03  0.98875884851E+03  0.10100000352E+00 0.  1.
       -3    1    3    3    0  502  0.13915008199E+03  0.78814181181E+02  0.14173049755E+04  0.14262986449E+04  0.10100000352E+00 0. -1.
</event>
<event>
 5   0  0.8470971E-05  0.2190634E+04  0.7818609E-02  0.8522337E-01
        1   -1    0    0  501    0  0.00000000000E+00  0.00000000000E+00  0.13643868808E+04  0.13643868808E+04  0.50400001928E-02 0.  1.
       -1   -1    0    0    0  501  0.00000000000E+00  0.00000000000E+00 -0.87930999335E+03  0.87930999336E+03  0.50400001928E-02 0. -1.
    10030    2    1    2    0    0  0.00000000000E+00  0.00000000000E+00  0.48507688745E+03  0.22436968742E+04  0.21906337157E+04 0.  0.
        2    1    3    3  502    0 -0.20597458485E+03 -0.40800058963E+03 -0.77697691289E+03  0.90143393209E+03  0.25500000920E-02 0. -1.
       -2    1    3    3    0  502  0.20597458485E+03  0.40800058963E+03  0.12620538003E+04  0.13422629421E+04  0.25500000920E-02 0.  1.
</event>
<event>
 5   0  0.1798917E-04  0.2045258E+04  0.7818609E-02  0.8585749E-01
       -2   -1    0    0    0  501  0.00000000000E+00  0.00000000000E+00  0.77314696069E+03  0.77314696069E+03  0.25500000920E-02 0. -1.
        2   -1    0    0  501    0  0.00000000000E+00  0.00000000000E+00 -0.13526150049E+04  0.13526150049E+04  0.25500000920E-02 0.  1.
    10030    2    1    2    0    0  0.00000000000E+00  0.00000000000E+00 -0.57946804425E+03  0.21257619656E+04  0.20452581060E+04 0.  0.
        4    1    3    3  502    0 -0.34532720974E+03 -0.91025696469E+03  0.35554399280E+02  0.97420960361E+03  0.12699999809E+01 0. -1.
       -4    1    3    3    0  502  0.34532720974E+03  0.91025696469E+03 -0.61502244353E+03  0.11515523620E+04  0.12699999809E+01 0.  1.
</event>
<event>
 5   0  0.8784659E-05  0.2179371E+04  0.7818609E-02  0.8527064E-01
       -1   -1    0    0    0  501  0.00000000000E+00  0.00000000000E+00  0.63289013492E+03  0.63289013494E+03  0.50400001928E-02 0.  1.
        1   -1    0    0  501    0  0.00000000000E+00  0.00000000000E+00 -0.18761781751E+04  0.18761781751E+04  0.50400001928E-02 0. -1.
    10030    2    1    2    0    0  0.00000000000E+00  0.00000000000E+00 -0.12432880402E+04  0.25090683101E+04  0.21793711555E+04 0.  0.
        4    1    3    3  502    0 -0.10346315035E+04 -0.77111116065E+02 -0.23806775808E+03  0.10644652848E+04  0.12699999809E+01 0. -1.
       -4    1    3    3    0  502  0.10346315035E+04  0.77111116065E+02 -0.10052202821E+04  0.14446030253E+04  0.12699999809E+01 0.  1.
</event>
<event>
 5   0  0.8602414E-05  0.2099069E+04  0.7818609E-02  0.8561654E-01
       -1   -1    0    0    0  501  0.00000000000E+00  0.00000000000E+00  0.67638033125E+03  0.67638033127E+03  0.50400001928E-02 0.  1.
        1   -1    0    0  501    0  0.00000000000E+00  0.00000000000E+00 -0.16285548919E+04  0.16285548919E+04  0.50400001928E-02 0. -1.
    10030    2    1    2    0    0  0.00000000000E+00  0.00000000000E+00 -0.95217456063E+03  0.23049352231E+04  0.20990688386E+04 0.  0.
        3    1    3    3  502    0 -0.67685028452E+03 -0.70302291582E+03 -0.52004252329E+02  0.97727784191E+03  0.10100000352E+00 0.  1.
       -3    1    3    3    0  502  0.67685028452E+03  0.70302291582E+03 -0.90017030830E+03  0.13276573812E+04  0.10100000352E+00 0. -1.
</event>
<event>
 5   0  0.1754356E-04  0.2134928E+04  0.7818609E-02  0.8546012E-01
        2   -1    0    0  501    0  0.00000000000E+00  0.00000000000E+00  0.12791019539E+04  0.12791019539E+04  0.25500000920E-02 0. -1.
       -2   -1    0    0    0  501  0.00000000000E+00  0.00000000000E+00 -0.89084294173E+03  0.89084294174E+03  0.25500000920E-02 0.  1.
    10030    2    1    2    0    0  0.00000000000E+00  0.00000000000E+00  0.38825901220E+03  0.21699448957E+04  0.21349275842E+04 0.  0.
        1    1    3    3  502    0 -0.27290810636E+03 -0.41978653943E+02 -0.85391755012E+03  0.89744984503E+03  0.50400001928E-02 0.  1.
       -1    1    3    3    0  502  0.27290810636E+03  0.41978653943E+02  0.12421765623E+04  0.12724950506E+04  0.50400001928E-02 0. -1.
</event>
<event>
 5   0  0.8470971E-05  0.2118758E+04  0.7818609E-02  0.8553025E-01
       -1   -1    0    0    0  501  0.00000000000E+00  0.00000000000E+00  0.89994645167E+03  0.89994645169E+03  0.50400001928E-02 0.  1.
        1   -1    0    0  501    0  0.00000000000E+00  0.00000000000E+00 -0.12470566924E+04  0.12470566924E+04  0.50400001928E-02 0. -1.
    10030    2    1    2    0    0  0.00000000000E+00  0.00000000000E+00 -0.34711024068E+03  0.21470031441E+04  0.21187583584E+04 0.  0.
        2    1    3    3  502    0 -0.60384741636E+03  0.80411409944E+03 -0.51124380847E+03  0.11280963695E+04  0.25500000920E-02 0. -1.
       -2    1    3    3    0  502  0.60384741636E+03 -0.80411409944E+03  0.16413356779E+03  0.10189067746E+04  0.25500000920E-02 0.  1.
</event>
<event>
 5   0  0.1754356E-04  0.2194321E+04  0.7818609E-02  0.8520796E-01
        2   -1    0    0  501    0  0.00000000000E+00  0.00000000000E+00  0.12797237800E+04  0.12797237800E+04  0.25500000920E-02 0.  1.
       -2   -1    0    0    0  501  0.00000000000E+00  0.00000000000E+00 -0.94064099076E+03  0.94064099077E+03  0.25500000920E-02 0. -1.
    10030    2    1    2    0    0  0.00000000000E+00  0.00000000000E+00  0.33908278925E+03  0.22203647708E+04  0.21943205275E+04 0.  0.
        1    1    3    3  502    0 -0.27722443254E+03  0.84902460213E+03 -0.47525375929E+03  0.10117125564E+04  0.50400001928E-02 0. -1.
       -1    1    3    3    0  502  0.27722443254E+03 -0.84902460213E+03  0.81433654854E+03  0.12086522144E+04  0.50400001928E-02 0.  1.
</event>
<event>
 5   0  0.1733962E-04  0.2211003E+04  0.7818609E-02  0.8513862E-01
        2   -1    0    0  501    0  0.00000000000E+00  0.00000000000E+00  0.13916573058E+04  0.13916573058E+04  0.25500000920E-02 0. -1.
       -2   -1    0    0    0  501  0.00000000000E+00  0.00000000000E+00 -0.87818608387E+03  0.87818608387E+03  0.25500000920E-02 0.  1.
    10030    2    1    2    0    0  0.00000000000E+00  0.00000000000E+00  0.51347122196E+03  0.22698433897E+04  0.22110034640E+04 0.  0.
        3    1    3    3  502    0 -0.55607205662E+03 -0.28366897004E+03 -0.67993201715E+03  0.92303400526E+03  0.10100000352E+00 0.  1.
       -3    1    3    3    0  502  0.55607205662E+03  0.28366897004E+03  0.11934032391E+04  0.13468093845E+04  0.10100000352E+00 0. -1.
</event>
<event>
 5   0  0.8306787E-05  0.2202498E+04  0.7818609E-02  0.8517389E-01
       -1   -1    0    0    0  501  0.00000000000E+00  0.00000000000E+00  0.85790445261E+03  0.85790445263E+03  0.50400001928E-02 0.  1.
        1   -1    0    0  501    0  0.00000000000E+00  0.00000000000E+00 -0.14136182608E+04  0.14136182609E+04  0.50400001928E-02 0. -1.
    10030    2    1    2    0    0  0.00000000000E+00  0.00000000000E+00 -0.55571380823E+03  0.22715227135E+04  0.22024980366E+04 0.  0.
        1    1    3    3  502    0  0.47788488137E+03  0.40184273930E+03  0.65770928565E+03  0.90688094666E+03  0.50400001928E-02 0.  1.
       -1    1    3    3    0  502 -0.47788488137E+03 -0.40184273930E+03 -0.12134230939E+04  0.13646417668E+04  0.50400001928E-02 0. -1.
</event>
<event>
 5   0  0.8306787E-05  0.2233315E+04  0.7818609E-02  0.8504688E-01
        1   -1    0    0  501    0  0.00000000000E+00  0.00000000000E+00  0.19733486856E+04  0.19733486856E+04  0.50400001928E-02 0. -1.
       -1   -1    0    0    0  501  0.00000000000E+00  0.00000000000E+00 -0.63188196194E+03  0.63188196196E+03  0.50400001928E-02 0.  1.
    10030    2    1    2    0    0  0.00000000000E+00  0.00000000000E+00  0.13414667236E+04  0.26052306475E+04  0.22333145225E+04 0.  0.
        1    1    3    3  502    0  0.16422853138E+03 -0.26040502390E+03 -0.58139607951E+03  0.65787779130E+03  0.50400001928E-02 0.  1.
       -1    1    3    3    0  502 -0.16422853138E+03  0.26040502390E+03  0.19228628031E+04  0.19473528562E+04  0.50400001928E-02 0. -1.
</event>
<event>
 5   0  0.1754356E-04  0.2135885E+04  0.7818609E-02  0.8545598E-01
        2   -1    0    0  501    0  0.00000000000E+00  0.00000000000E+00  0.98149266277E+03  0.98149266278E+03  0.25500000920E-02 0.  1.
       -2   -1    0    0    0  501  0.00000000000E+00  0.00000000000E+00 -0.11620067452E+04  0.11620067452E+04  0.25500000920E-02 0. -1.
    10030    2    1    2    0    0  0.00000000000E+00  0.00000000000E+00 -0.18051408242E+03  0.21434994080E+04  0.21358849169E+04 0.  0.
        1    1    3    3  502    0  0.44532168561E+03 -0.59515342006E+03 -0.85979061195E+03  0.11365557151E+04  0.50400001928E-02 0. -1.
       -1    1    3    3    0  502 -0.44532168561E+03  0.59515342006E+03  0.67927652952E+03  0.10069436929E+04  0.50400001928E-02 0.  1.
</event>
<event>
 5   0  0.8470971E-05  0.2227514E+04  0.7818609E-02  0.8507063E-01
       -1   -1    0    0    0  501  0.00000000000E+00  0.00000000000E+00  0.72726744406E+03  0.72726744407E+03  0.50400001928E-02 0.  1.
        1   -1    0    0  501    0  0.00000000000E+00  0.00000000000E+00 -0.17056370705E+04  0.17056370705E+04  0.50400001928E-02 0. -1.
    10030    2    1    2    0    0  0.00000000000E+00  0.00000000000E+00 -0.97836962646E+03  0.24329045146E+04  0.22275136927E+04 0.  0.
        2    1    3    3  502    0 -0.62882755204E+03 -0.43704919056E+03 -0.13724672767E+04  0.15716559772E+04  0.25500000920E-02 0. -1.
       -2    1    3    3    0  502  0.62882755204E+03  0.43704919056E+03  0.39409765024E+03  0.86124853736E+03  0.25500000920E-02 0.  1.
</event>
<event>
 5   0  0.8306787E-05  0.2231221E+04  0.7818609E-02  0.8505544E-01
        1   -1    0    0  501    0  0.00000000000E+00  0.00000000000E+00  0.17835053973E+04  0.17835053973E+04  0.50400001928E-02 0.  1.
       -1   -1    0    0    0  501  0.00000000000E+00  0.00000000000E+00 -0.69783208547E+03  0.69783208549E+03  0.50400001928E-02 0. -1.
    10030    2    1    2    0    0  0.00000000000E+00  0.00000000000E+00  0.10856733119E+04  0.24813374828E+04  0.22312214510E+04 0.  0.
        1    1    3    3  502    0 -0.11139652723E+03  0.66764676639E+03  0.15290526998E+04  0.16721733013E+04  0.50400001928E-02 0.  1.
       -1    1    3    3    0  502  0.11139652723E+03 -0.66764676639E+03 -0.44337938793E+03  0.80916418149E+03  0.50400001928E-02 0. -1.
</event>
<event>
 5   0  0.1733962E-04  0.1920293E+04  0.7818609E-02  0.8644821E-01
       -2   -1    0    0    0  501  0.00000000000E+00  0.00000000000E+00  0.10158589512E+04  0.10158589512E+04  0.25500000920E-02 0.  1.
        2   -1    0    0  501    0  0.00000000000E+00  0.00000000000E+00 -0.90748932926E+03  0.90748932927E+03  0.25500000920E-02 0. -1.
    10030    2    1    2    0    0  0.00000000000E+00  0.00000000000E+00  0.10836962193E+03  0.19233482805E+04  0.19202928508E+04 0.  0.
        3    1    3    3  502    0 -0.75838635687E+03 -0.43515683824E+03 -0.34314502301E+03  0.93928688758E+03  0.10100000352E+00 0. -1.
       -3    1    3    3    0  502  0.75838635687E+03  0.43515683824E+03  0.45151464494E+03  0.98406139288E+03  0.10100000352E+00 0.  1.
</event>
<event>
 5   0  0.8784659E-05  0.2112391E+04  0.7818609E-02  0.8555804E-01
        1   -1    0    0  501    0  0.00000000000E+00  0.00000000000E+00  0.30452933844E+04  0.30452933844E+04  0.50400001928E-02 0.  1.
       -1   -1    0    0    0  501  0.00000000000E+00  0.00000000000E+00 -0.36631916466E+03  0.36631916469E+03  0.50400001928E-02 0. -1.
    10030    2    1    2    0    0  0.00000000000E+00  0.00000000000E+00  0.26789742197E+04  0.34116125491E+04  0.21123913736E+04 0.  0.
        4    1    3    3  502    0  0.84650727652E+03  0.28606843301E+03  0.22490012561E+04  0.24200037149E+04  0.12699999809E+01 0.  1.
       -4    1    3    3    0  502 -0.84650727652E+03 -0.28606843301E+03  0.42997296362E+03  0.99160883412E+03  0.12699999809E+01 0. -1.
</event>
<event>
 5   0  0.8306787E-05  0.2221724E+04  0.7818609E-02  0.8509440E-01
       -1   -1    0    0    0  501  0.00000000000E+00  0.00000000000E+00  0.12126951615E+04  0.12126951615E+04  0.50400001928E-02 0.  1.
        1   -1    0    0  501    0  0.00000000000E+00  0.00000000000E+00 -0.10175802720E+04  0.10175802720E+04  0.50400001928E-02 0. -1.
    10030    2    1    2    0    0  0.00000000000E+00  0.00000000000E+00  0.19511488952E+03  0.22302754335E+04  0.22217242604E+04 0.  0.
        1    1    3    3  502    0 -0.91203163148E+03  0.52187024406E+03  0.45931152629E+03  0.11467856498E+04  0.50400001928E-02 0.  1.
       -1    1    3    3    0  502  0.91203163148E+03 -0.52187024406E+03 -0.26419663676E+03  0.10834897837E+04  0.50400001928E-02 0. -1.
</event>
<event>
 5   0  0.8306787E-05  0.2192584E+04  0.7818609E-02  0.8521521E-01
       -1   -1    0    0    0  501  0.00000000000E+00  0.00000000000E+00  0.13040572827E+04  0.13040572827E+04  0.50400001928E-02 0.  1.
        1   -1    0    0  501    0  0.00000000000E+00  0.00000000000E+00 -0.92162825685E+03  0.92162825687E+03  0.50400001928E-02 0. -1.
    10030    2    1    2    0    0  0.00000000000E+00  0.00000000000E+00  0.38242902586E+03  0.22256855396E+04  0.21925839006E+04 0.  0.
        1    1    3    3  502    0  0.76301122464E+03 -0.29640414466E+03  0.93148028310E+03  0.12400391380E+04  0.50400001928E-02 0.  1.
       -1    1    3    3    0  502 -0.76301122464E+03  0.29640414466E+03 -0.54905125724E+03  0.98564640161E+03  0.50400001928E-02 0. -1.
</event>
<event>
 5   0  0.1805501E-04  0.2211818E+04  0.7818609E-02  0.8513525E-01
        2   -1    0    0  501    0  0.00000000000E+00  0.00000000000E+00  0.11459256458E+04  0.11459256459E+04  0.25500000920E-02 0. -1.
       -2   -1    0    0    0  501  0.00000000000E+00  0.00000000000E+00 -0.10672895942E+04  0.10672895942E+04  0.25500000920E-02 0.  1.
    10030    2    1    2    0    0  0.00000000000E+00  0.00000000000E+00  0.78636051654E+02  0.22132152400E+04  0.22118178203E+04 0.  0.
        2    1    3    3  502    0 -0.67995116583E+03 -0.64309345106E+03 -0.55023308725E+03  0.10856607320E+04  0.25500000920E-02 0.  1.
       -2    1    3    3    0  502  0.67995116583E+03  0.64309345106E+03  0.62886913891E+03  0.11275545080E+04  0.25500000920E-02 0. -1.
</event>
<event>
 5   0  0.1798917E-04  0.2102118E+04  0.7818609E-02  0.8560311E-01
        2   -1    0    0  501    0  0.00000000000E+00  0.00000000000E+00  0.75943695521E+03  0.75943695521E+03  0.25500000920E-02 0.  1.
       -2   -1    0    0    0  501  0.00000000000E+00  0.00000000000E+00 -0.14546631772E+04  0.14546631772E+04  0.25500000920E-02 0. -1.
    10030    2    1    2    0    0  0.00000000000E+00  0.00000000000E+00 -0.69522622200E+03  0.22141001324E+04  0.21021179550E+04 0.  0.
        4    1    3    3  502    0  0.86029258173E+02 -0.68061956838E+03 -0.11863234074E+04  0.13704046373E+04  0.12699999809E+01 0. -1.
       -4    1    3    3    0  502 -0.86029258173E+02  0.68061956838E+03  0.49109718537E+03  0.84369549513E+03  0.12699999809E+01 0.  1.
</event>
<event>
 5   0  0.1733962E-04  0.2158942E+04  0.7818609E-02  0.8535714E-01
       -2   -1    0    0    0  501  0.00000000000E+00  0.00000000000E+00  0.88741541875E+03  0.88741541876E+03  0.25500000920E-02 0.  1.
        2   -1    0    0  501    0  0.00000000000E+00  0.00000000000E+00 -0.13130918925E+04  0.13130918925E+04  0.25500000920E-02 0. -1.
    10030    2    1    2    0    0  0.00000000000E+00  0.00000000000E+00 -0.42567647376E+03  0.22005073113E+04  0.21589423259E+04 0.  0.
        3    1    3    3  502    0  0.13374439916E+03 -0.10275105005E+04  0.95631058646E+02  0.10405819057E+04  0.10100000352E+00 0.  1.
       -3    1    3    3    0  502 -0.13374439916E+03  0.10275105005E+04 -0.52130753241E+03  0.11599254056E+04  0.10100000352E+00 0. -1.
</event>
<event>
 5   0  0.8602414E-05  0.2231729E+04  0.7818609E-02  0.8505337E-01
        1   -1    0    0  501    0  0.00000000000E+00  0.00000000000E+00  0.11713695628E+04  0.11713695629E+04  0.50400001928E-02 0. -1.
       -1   -1    0    0    0  501  0.00000000000E+00  0.00000000000E+00 -0.10629893838E+04  0.10629893838E+04  0.50400001928E-02 0.  1.
    10030    2    1    2    0    0  0.00000000000E+00  0.00000000000E+00  0.10838017902E+03  0.22343589467E+04  0.22317288454E+04 0.  0.
        3    1    3    3  502    0 -0.71297852413E+03 -0.51709769198E+03  0.74014350713E+03  0.11504524416E+04  0.10100000352E+00 0. -1.
       -3    1    3    3    0  502  0.71297852413E+03  0.51709769198E+03 -0.63176332810E+03  0.10839065051E+04  0.10100000352E+00 0.  1.
</event>
<event>
 5   0  0.1680258E-04  0.2223973E+04  0.7818609E-02  0.8508516E-01
        2   -1    0    0  501    0  0.00000000000E+00  0.00000000000E+00  0.15070049227E+04  0.15070049227E+04  0.25500000920E-02 0. -1.
       -2   -1    0    0    0  501  0.00000000000E+00  0.00000000000E+00 -0.82051106717E+03  0.82051106718E+03  0.25500000920E-02 0.  1.
    10030    2    1    2    0    0  0.00000000000E+00  0.00000000000E+00  0.68649385554E+03  0.23275159899E+04  0.22239732169E+04 0.  0.
        5    1    3    3  502    0 -0.84759633201E+03  0.11829403141E+03 -0.39979354370E+03  0.94460043801E+03  0.46999998093E+01 0.  1.
       -5    1    3    3    0  502  0.84759633201E+03 -0.11829403141E+03  0.10862873992E+04  0.13829155519E+04  0.46999998093E+01 0. -1.
</event>
<event>
 5   0  0.1805501E-04  0.2096253E+04  0.7818609E-02  0.8562896E-01
        2   -1    0    0  501    0  0.00000000000E+00  0.00000000000E+00  0.15749236590E+04  0.15749236591E+04  0.25500000920E-02 0.  1.
       -2   -1    0    0    0  501  0.00000000000E+00  0.00000000000E+00 -0.69753823254E+03  0.69753823254E+03  0.25500000920E-02 0. -1.
    10030    2    1    2    0    0  0.00000000000E+00  0.00000000000E+00  0.87738542651E+03  0.22724618916E+04  0.20962532915E+04 0.  0.
        2    1    3    3  502    0 -0.65570526319E+03 -0.21036288660E+02  0.13248254693E+04  0.14783620808E+04  0.25500000920E-02 0.  1.
       -2    1    3    3    0  502  0.65570526319E+03  0.21036288660E+02 -0.44744004284E+03  0.79409981083E+03  0.25500000920E-02 0. -1.
</event>
<event>
 5   0  0.8602414E-05  0.2244097E+04  0.7818609E-02  0.8500295E-01
        1   -1    0    0  501    0  0.00000000000E+00  0.00000000000E+00  0.14365222845E+04  0.14365222845E+04  0.50400001928E-02 0.  1.
       -1   -1    0    0    0  501  0.00000000000E+00  0.00000000000E+00 -0.87641702598E+03  0.87641702599E+03  0.50400001928E-02 0. -1.
    10030    2    1    2    0    0  0.00000000000E+00  0.00000000000E+00  0.56010525852E+03  0.23129393105E+04  0.22440967790E+04 0.  0.
        3    1    3    3  502    0 -0.11108093689E+04  0.15691673356E+03  0.30245090099E+03  0.11618936583E+04  0.10100000352E+00 0. -1.
       -3    1    3    3    0  502  0.11108093689E+04 -0.15691673356E+03  0.25765435753E+03  0.11510456522E+04  0.10100000352E+00 0.  1.
</event>
<event>
 5   0  0.1680258E-04  0.2200001E+04  0.7818609E-02  0.8518428E-01
       -2   -1    0    0    0  501  0.00000000000E+00  0.00000000000E+00  0.49880427276E+03  0.49880427276E+03  0.25500000920E-02 0. -1.
        2   -1    0    0  501    0  0.00000000000E+00  0.00000000000E+00 -0.24258043220E+04  0.24258043220E+04  0.25500000920E-02 0.  1.
    10030    2    1    2    0    0  0.00000000000E+00  0.00000000000E+00 -0.19270000492E+04  0.29246085947E+04  0.22000014188E+04 0.  0.
        5    1    3    3  502    0  0.59254569793E+02 -0.67909900658E+02  0.49387431862E+03  0.50205257816E+03  0.46999998093E+01 0. -1.
       -5    1    3    3    0  502 -0.59254569793E+02  0.67909900658E+02 -0.24208743678E+04  0.24225560166E+04  0.46999998093E+01 0.  1.
</event>
<event>
 5   0  0.6250625E-05  0.2123762E+04  0.7818609E-02  0.8550847E-01
        3   -1    0    0  501    0  0.00000000000E+00  0.00000000000E+00  0.95826050414E+03  0.95826050946E+03  0.10100000352E+00 0.  1.
       -3   -1    0    0    0  501  0.00000000000E+00  0.00000000000E+00 -0.11767068504E+04  0.11767068547E+04  0.10100000352E+00 0. -1.
    10030    2    1    2    0    0  0.00000000000E+00  0.00000000000E+00 -0.21844634621E+03  0.21349673642E+04  0.21237624255E+04 0.  0.
        3    1    3    3  502    0  0.53091676197E+03  0.90509504893E+03 -0.27293829791E+03  0.10842347441E+04  0.10100000352E+00 0. -1.
       -3    1    3    3    0  502 -0.53091676197E+03 -0.90509504893E+03  0.54491951705E+02  0.10507326200E+04  0.10100000352E+00 0.  1.
</event>
<event>
 5   0  0.1680258E-04  0.2210053E+04  0.7818609E-02  0.8514255E-01
       -2   -1    0    0    0  501  0.00000000000E+00  0.00000000000E+00  0.12277772420E+04  0.12277772421E+04  0.25500000920E-02 0.  1.
        2   -1    0    0  501    0  0.00000000000E+00  0.00000000000E+00 -0.99454814904E+03  0.99454814905E+03  0.25500000920E-02 0. -1.
    10030    2    1    2    0    0  0.00000000000E+00  0.00000000000E+00  0.23322909301E+03  0.22223253911E+04  0.22100530161E+04 0.  0.
        5    1    3    3  502    0 -0.81850198420E+03  0.30324651327E+03  0.79798895836E+03  0.11826717269E+04  0.46999998093E+01 0.  1.
       -5    1    3    3    0  502  0.81850198420E+03 -0.30324651327E+03 -0.56475986535E+03  0.10396536642E+04  0.46999998093E+01 0. -1.
</event>
<event>
 5   0  0.1754356E-04  0.2237722E+04  0.7818609E-02  0.8502890E-01
       -2   -1    0    0    0  501  0.00000000000E+00  0.00000000000E+00  0.10697792964E+04  0.10697792964E+04  0.25500000920E-02 0.  1.
        2   -1    0    0  501    0  0.00000000000E+00  0.00000000000E+00 -0.11701941793E+04  0.11701941793E+04  0.25500000920E-02 0. -1.
    10030    2    1    2    0    0  0.00000000000E+00  0.00000000000E+00 -0.10041488286E+03  0.22399734757E+04  0.22377216143E+04 0.  0.
        1    1    3    3  502    0  0.10112012578E+04  0.52983564336E+02 -0.52662153064E+03  0.11413437162E+04  0.50400001928E-02 0. -1.
       -1    1    3    3    0  502 -0.10112012578E+04 -0.52983564336E+02  0.42620664778E+03  0.10986297595E+04  0.50400001928E-02 0.  1.
</event>
<event>
 5   0  0.1798917E-04  0.2191940E+04  0.7818609E-02  0.8521790E-01
        2   -1    0    0  501    0  0.00000000000E+00  0.00000000000E+00  0.17490627783E+04  0.17490627783E+04  0.25500000920E-02 0.  1.
       -2   -1    0    0    0  501  0.00000000000E+00  0.00000000000E+00 -0.68673942130E+03  0.68673942130E+03  0.25500000920E-02 0. -1.
    10030    2    1    2    0    0  0.00000000000E+00  0.00000000000E+00  0.10623233570E+04  0.24358021996E+04  0.21919401088E+04 0.  0.
        4    1    3    3  502    0 -0.89134185586E+03 -0.60247118064E+03  0.29889385662E+03  0.11166024261E+04  0.12699999809E+01 0.  1.
       -4    1    3    3    0  502  0.89134185586E+03  0.60247118064E+03  0.76342950036E+03  0.13191997735E+04  0.12699999809E+01 0. -1.
</event>
<event>
 5   0  0.8602414E-05  0.2189184E+04  0.7818609E-02  0.8522943E-01
        1   -1    0    0  501    0  0.00000000000E+00  0.00000000000E+00  0.95659243893E+03  0.95659243895E+03  0.50400001928E-02 0. -1.
       -1   -1    0    0    0  501  0.00000000000E+00  0.00000000000E+00 -0.12524999085E+04  0.12524999085E+04  0.50400001928E-02 0.  1.
    10030    2    1    2    0    0  0.00000000000E+00  0.00000000000E+00 -0.29590746957E+03  0.22090923475E+04  0.21891842702E+04 0.  0.
        3    1    3    3  502    0 -0.19226184718E+02  0.95726809800E+03  0.38734184379E+03  0.10328434401E+04  0.10100000352E+00 0. -1.
       -3    1    3    3    0  502  0.19226184718E+02 -0.95726809800E+03 -0.68324931336E+03  0.11762489073E+04  0.10100000352E+00 0.  1.
</event>
<event>
 5   0  0.8784659E-05  0.2216319E+04  0.7818609E-02  0.8511667E-01
        1   -1    0    0  501    0  0.00000000000E+00  0.00000000000E+00  0.10578235443E+04  0.10578235443E+04  0.50400001928E-02 0. -1.
       -1   -1    0    0    0  501  0.00000000000E+00  0.00000000000E+00 -0.11608901598E+04  0.11608901598E+04  0.50400001928E-02 0.  1.
    10030    2    1    2    0    0  0.00000000000E+00  0.00000000000E+00 -0.10306661546E+03  0.22187137041E+04  0.22163185181E+04 0.  0.
        4    1    3    3  502    0  0.27174656199E+03  0.10695276267E+04  0.49965574527E+02  0.11046418921E+04  0.12699999809E+01 0. -1.
       -4    1    3    3    0  502 -0.27174656199E+03 -0.10695276267E+04 -0.15303218999E+03  0.11140718120E+04  0.12699999809E+01 0.  1.
</event>
<event>
 5   0  0.1754356E-04  0.2268265E+04  0.7818609E-02  0.8490540E-01
       -2   -1    0    0    0  501  0.00000000000E+00  0.00000000000E+00  0.66203216686E+03  0.66203216686E+03  0.25500000920E-02 0. -1.
        2   -1    0    0  501    0  0.00000000000E+00  0.00000000000E+00 -0.19428914553E+04  0.19428914553E+04  0.25500000920E-02 0.  1.
    10030    2    1    2    0    0  0.00000000000E+00  0.00000000000E+00 -0.12808592885E+04  0.26049236222E+04  0.22682650993E+04 0.  0.
        1    1    3    3  502    0  0.52821820302E+02 -0.12006941511E+03  0.65329103861E+03  0.66633024117E+03  0.50400001928E-02 0. -1.
       -1    1    3    3    0  502 -0.52821820302E+02  0.12006941511E+03 -0.19341503271E+04  0.19385933810E+04  0.50400001928E-02 0.  1.
</event>
<event>
 5   0  0.8306787E-05  0.2115322E+04  0.7818609E-02  0.8554524E-01
       -1   -1    0    0    0  501  0.00000000000E+00  0.00000000000E+00  0.93350086596E+03  0.93350086598E+03  0.50400001928E-02 0.  1.
        1   -1    0    0  501    0  0.00000000000E+00  0.00000000000E+00 -0.11983349849E+04  0.11983349849E+04  0.50400001928E-02 0. -1.
    10030    2    1    2    0    0  0.00000000000E+00  0.00000000000E+00 -0.26483411892E+03  0.21318358509E+04  0.21153219577E+04 0.  0.
        1    1    3    3  502    0  0.14445003798E+03 -0.18363536421E+03 -0.11720023734E+04  0.11950637321E+04  0.50400001928E-02 0. -1.
       -1    1    3    3    0  502 -0.14445003798E+03  0.18363536421E+03  0.90716825451E+03  0.93677211876E+03  0.50400001928E-02 0.  1.
</event>
<event>
 5   0  0.1798917E-04  0.2150964E+04  0.7818609E-02  0.8539120E-01
       -2   -1    0    0    0  501  0.00000000000E+00  0.00000000000E+00  0.11658801900E+04  0.11658801900E+04  0.25500000920E-02 0.  1.
        2   -1    0    0  501    0  0.00000000000E+00  0.00000000000E+00 -0.99209315660E+03  0.99209315660E+03  0.25500000920E-02 0. -1.
    10030    2    1    2    0    0  0.00000000000E+00  0.00000000000E+00  0.17378703343E+03  0.21579733466E+04  0.21509642098E+04 0.  0.
        4    1    3    3  502    0  0.44017476072E+03  0.38152635534E+03 -0.82012326483E+03  0.10059423255E+04  0.12699999809E+01 0. -1.
       -4    1    3    3    0  502 -0.44017476072E+03 -0.38152635534E+03  0.99391029825E+03  0.11520310211E+04  0.12699999809E+01 0.  1.
</event>
<event>
 5   0  0.1680258E-04  0.2138814E+04  0.7818609E-02  0.8544336E-01
       -2   -1    0    0    0  501  0.00000000000E+00  0.00000000000E+00  0.47252026637E+03  0.47252026638E+03  0.25500000920E-02 0.  1.
        2   -1    0    0  501    0  0.00000000000E+00  0.00000000000E+00 -0.24202795425E+04  0.24202795425E+04  0.25500000920E-02 0. -1.
    10030    2    1    2    0    0  0.00000000000E+00  0.00000000000E+00 -0.19477592761E+04  0.28927998089E+04  0.21388138153E+04 0.  0.
        5    1    3    3  502    0  0.32706333308E+03  0.91148345692E+03 -0.15875096938E+04  0.18595649045E+04  0.46999998093E+01 0. -1.
       -5    1    3    3    0  502 -0.32706333308E+03 -0.91148345692E+03 -0.36024958232E+03  0.10332349044E+04  0.46999998093E+01 0.  1.
</event>
<event>
 5   0  0.1680258E-04  0.2198210E+04  0.7818609E-02  0.8519174E-01
        2   -1    0    0  501    0  0.00000000000E+00  0.00000000000E+00  0.15713170202E+04  0.15713170202E+04  0.25500000920E-02 0. -1.
       -2   -1    0    0    0  501  0.00000000000E+00  0.00000000000E+00 -0.76880199354E+03  0.76880199355E+03  0.25500000920E-02 0.  1.
    10030    2    1    2    0    0  0.00000000000E+00  0.00000000000E+00  0.80251502665E+03  0.23401190137E+04  0.21982098695E+04 0.  0.
        5    1    3    3  502    0 -0.55562669707E+03  0.93980834679E+03  0.26639531259E+03  0.11238101743E+04  0.46999998093E+01 0.  1.
       -5    1    3    3    0  502  0.55562669707E+03 -0.93980834679E+03  0.53611971406E+03  0.12163088395E+04  0.46999998093E+01 0. -1.
</event>
<event>
 5   0  0.8784659E-05  0.2313885E+04  0.7818609E-02  0.8472467E-01
        1   -1    0    0  501    0  0.00000000000E+00  0.00000000000E+00  0.97717668682E+03  0.97717668683E+03  0.50400001928E-02 0. -1.
       -1   -1    0    0    0  501  0.00000000000E+00  0.00000000000E+00 -0.13697785693E+04  0.13697785693E+04  0.50400001928E-02 0.  1.
    10030    2    1    2    0    0  0.00000000000E+00  0.00000000000E+00 -0.39260188250E+03  0.23469552562E+04  0.23138847716E+04 0.  0.
        4    1    3    3  502    0  0.54320377741E+03  0.71024066635E+03 -0.94096130742E+03  0.12980454318E+04  0.12699999809E+01 0.  1.
       -4    1    3    3    0  502 -0.54320377741E+03 -0.71024066635E+03  0.54835942492E+03  0.10489098244E+04  0.12699999809E+01 0. -1.
</event>
<event>
 5   0  0.8784659E-05  0.2144961E+04  0.7818609E-02  0.8541692E-01
       -1   -1    0    0    0  501  0.00000000000E+00  0.00000000000E+00  0.68108536362E+03  0.68108536364E+03  0.50400001928E-02 0.  1.
        1   -1    0    0  501    0  0.00000000000E+00  0.00000000000E+00 -0.16887960281E+04  0.16887960281E+04  0.50400001928E-02 0. -1.
    10030    2    1    2    0    0  0.00000000000E+00  0.00000000000E+00 -0.10077106644E+04  0.23698813917E+04  0.21449608452E+04 0.  0.
        4    1    3    3  502    0  0.56661562284E+03  0.20541946733E+03  0.47627580093E+03  0.76817359566E+03  0.12699999809E+01 0.  1.
       -4    1    3    3    0  502 -0.56661562284E+03 -0.20541946733E+03 -0.14839864654E+04  0.16017077961E+04  0.12699999809E+01 0. -1.
</event>
<event>
 5   0  0.8306787E-05  0.2221481E+04  0.7818609E-02  0.8509540E-01
       -1   -1    0    0    0  501  0.00000000000E+00  0.00000000000E+00  0.18605157705E+04  0.18605157705E+04  0.50400001928E-02 0. -1.
        1   -1    0    0  501    0  0.00000000000E+00  0.00000000000E+00 -0.66311971015E+03  0.66311971017E+03  0.50400001928E-02 0.  1.
    10030    2    1    2    0    0  0.00000000000E+00  0.00000000000E+00  0.11973960604E+04  0.25236354807E+04  0.22214811982E+04 0.  0.
        1    1    3    3  502    0 -0.28302586524E+03  0.20045880205E+03  0.17974263554E+04  0.18305815674E+04  0.50400001928E-02 0. -1.
       -1    1    3    3    0  502  0.28302586524E+03 -0.20045880205E+03 -0.60003029506E+03  0.69305391329E+03  0.50400001928E-02 0.  1.
</event>
<event>
 5   0  0.1680258E-04  0.2149550E+04  0.7818609E-02  0.8539725E-01
        2   -1    0    0  501    0  0.00000000000E+00  0.00000000000E+00  0.64988440280E+03  0.64988440281E+03  0.25500000920E-02 0. -1.
       -2   -1    0    0    0  501  0.00000000000E+00  0.00000000000E+00 -0.17774561616E+04  0.17774561616E+04  0.25500000920E-02 0.  1.
    10030    2    1    2    0    0  0.00000000000E+00  0.00000000000E+00 -0.11275717588E+04  0.24273405644E+04  0.21495497539E+04 0.  0.
        5    1    3    3  502    0  0.40301311296E+02 -0.47874570867E+03 -0.16494339210E+04  0.17179860299E+04  0.46999998093E+01 0.  1.
       -5    1    3    3    0  502 -0.40301311296E+02  0.47874570867E+03  0.52186216220E+03  0.70935453449E+03  0.46999998093E+01 0. -1.
</event>
<event>
 5   0  0.1754356E-04  0.2222080E+04  0.7818609E-02  0.8509294E-01
        2   -1    0    0  501    0  0.00000000000E+00  0.00000000000E+00  0.20884000658E+04  0.20884000658E+04  0.25500000920E-02 0. -1.
       -2   -1    0    0    0  501  0.00000000000E+00  0.00000000000E+00 -0.59107897451E+03  0.59107897451E+03  0.25500000920E-02 0.  1.
    10030    2    1    2    0    0  0.00000000000E+00  0.00000000000E+00  0.14973210913E+04  0.26794790403E+04  0.22220795388E+04 0.  0.
        1    1    3    3  502    0 -0.13137486250E+03  0.27371831360E+03  0.20374062236E+04  0.20599041700E+04  0.50400001928E-02 0. -1.
       -1    1    3    3    0  502  0.13137486250E+03 -0.27371831360E+03 -0.54008513232E+03  0.61957487027E+03  0.50400001928E-02 0.  1.
</event>
<event>
 5   0  0.1754356E-04  0.2089056E+04  0.7818609E-02  0.8566080E-01
       -2   -1    0    0    0  501  0.00000000000E+00  0.00000000000E+00  0.78770381747E+03  0.78770381747E+03  0.25500000920E-02 0. -1.
        2   -1    0    0  501    0  0.00000000000E+00  0.00000000000E+00 -0.13850875510E+04  0.13850875510E+04  0.25500000920E-02 0.  1.
    10030    2    1    2    0    0  0.00000000000E+00  0.00000000000E+00 -0.59738373350E+03  0.21727913684E+04  0.20890560083E+04 0.  0.
        1    1    3    3  502    0  0.57127867475E+03 -0.19729041214E+03 -0.11847520829E+04  0.13300076424E+04  0.50400001928E-02 0.  1.
       -1    1    3    3    0  502 -0.57127867475E+03  0.19729041214E+03  0.58736834940E+03  0.84278372602E+03  0.50400001928E-02 0. -1.
</event>
<event>
 5   0  0.1754356E-04  0.2246297E+04  0.7818609E-02  0.8499402E-01
        2   -1    0    0  501    0  0.00000000000E+00  0.00000000000E+00  0.63901266758E+03  0.63901266758E+03  0.25500000920E-02 0.  1.
       -2   -1    0    0    0  501  0.00000000000E+00  0.00000000000E+00 -0.19740799895E+04  0.19740799895E+04  0.25500000920E-02 0. -1.
    10030    2    1    2    0    0  0.00000000000E+00  0.00000000000E+00 -0.13350673219E+04  0.26130926571E+04  0.22462966145E+04 0.  0.
        1    1    3    3  502    0 -0.51936774775E+02  0.70937534619E+03  0.34362588998E+03  0.78993009985E+03  0.50400001928E-02 0.  1.
       -1    1    3    3    0  502  0.51936774775E+02 -0.70937534619E+03 -0.16786932119E+04  0.18231625572E+04  0.50400001928E-02 0. -1.
</event>
<event>
 5   0  0.8470971E-05  0.2124879E+04  0.7818609E-02  0.8550363E-01
       -1   -1    0    0    0  501  0.00000000000E+00  0.00000000000E+00  0.10681632734E+04  0.10681632734E+04  0.50400001928E-02 0.  1.
        1   -1    0    0  501    0  0.00000000000E+00  0.00000000000E+00 -0.10567462325E+04  0.10567462325E+04  0.50400001928E-02 0. -1.
    10030    2    1    2    0    0  0.00000000000E+00  0.00000000000E+00  0.11417040835E+02  0.21249095059E+04  0.21248788341E+04 0.  0.
        2    1    3    3  502    0  0.17773277932E+03  0.73920338374E+03  0.74785596657E+03  0.10664422770E+04  0.25500000920E-02 0.  1.
       -2    1    3    3    0  502 -0.17773277932E+03 -0.73920338374E+03 -0.73643892573E+03  0.10584672289E+04  0.25500000920E-02 0. -1.
</event>
<event>
 5   0  0.7954459E-05  0.2227894E+04  0.7818609E-02  0.8506907E-01
        1   -1    0    0  501    0  0.00000000000E+00  0.00000000000E+00  0.10429052783E+04  0.10429052783E+04  0.50400001928E-02 0.  1.
       -1   -1    0    0    0  501  0.00000000000E+00  0.00000000000E+00 -0.11898275490E+04  0.11898275490E+04  0.50400001928E-02 0. -1.
    10030    2    1    2    0    0  0.00000000000E+00  0.00000000000E+00 -0.14692227070E+03  0.22327328272E+04  0.22278935621E+04 0.  0.
        5    1    3    3  502    0 -0.10509316363E+04 -0.30169015747E+03 -0.28695222845E+03  0.11304149356E+04  0.46999998093E+01 0. -1.
       -5    1    3    3    0  502  0.10509316363E+04  0.30169015747E+03  0.14002995775E+03  0.11023178917E+04  0.46999998093E+01 0.  1.
</event>
<event>
 5   0  0.1680258E-04  0.2225857E+04  0.7818609E-02  0.8507742E-01
       -2   -1    0    0    0  501  0.00000000000E+00  0.00000000000E+00  0.13166306662E+04  0.13166306662E+04  0.25500000920E-02 0.  1.
        2   -1    0    0  501    0  0.00000000000E+00  0.00000000000E+00 -0.94074189759E+03  0.94074189759E+03  0.25500000920E-02 0. -1.
    10030    2    1    2    0    0  0.00000000000E+00  0.00000000000E+00  0.37588876860E+03  0.22573725638E+04  0.22258568070E+04 0.  0.
        5    1    3    3  502    0 -0.39531070894E+02  0.56883088739E+03  0.11572258265E+04  0.12900872015E+04  0.46999998093E+01 0.  1.
       -5    1    3    3    0  502  0.39531070894E+02 -0.56883088739E+03 -0.78133705789E+03  0.96728536226E+03  0.46999998093E+01 0. -1.
</event>
<event>
 5   0  0.8784659E-05  0.1210036E+04  0.7818609E-02  0.9104117E-01
        1   -1    0    0  501    0  0.00000000000E+00  0.00000000000E+00  0.53580344147E+03  0.53580344149E+03  0.50400001928E-02 0. -1.
       -1   -1    0    0    0  501  0.00000000000E+00  0.00000000000E+00 -0.68317338590E+03  0.68317338592E+03  0.50400001928E-02 0.  1.
    10030    2    1    2    0    0  0.00000000000E+00  0.00000000000E+00 -0.14736994443E+03  0.12189768274E+04  0.12100357868E+04 0.  0.
        4    1    3    3  502    0 -0.38706628904E+03 -0.45540931923E+03 -0.16833172614E+03  0.62093086819E+03  0.12699999809E+01 0.  1.
       -4    1    3    3    0  502  0.38706628904E+03  0.45540931923E+03  0.20961781706E+02  0.59804595922E+03  0.12699999809E+01 0. -1.
</event>
<event>
 5   0  0.1805501E-04  0.2191405E+04  0.7818609E-02  0.8522014E-01
        2   -1    0    0  501    0  0.00000000000E+00  0.00000000000E+00  0.95875255452E+03  0.95875255452E+03  0.25500000920E-02 0.  1.
       -2   -1    0    0    0  501  0.00000000000E+00  0.00000000000E+00 -0.12522148828E+04  0.12522148828E+04  0.25500000920E-02 0. -1.
    10030    2    1    2    0    0  0.00000000000E+00  0.00000000000E+00 -0.29346232829E+03  0.22109674373E+04  0.21914052274E+04 0.  0.
        2    1    3    3  502    0 -0.40440311303E+02 -0.51275938358E+03  0.82937962197E+03  0.97592426016E+03  0.25500000920E-02 0.  1.
       -2    1    3    3    0  502  0.40440311303E+02  0.51275938358E+03 -0.11228419503E+04  0.12350431772E+04  0.25500000920E-02 0. -1.
</event>
<event>
 5   0  0.8306787E-05  0.2204932E+04  0.7818609E-02  0.8516378E-01
        1   -1    0    0  501    0  0.00000000000E+00  0.00000000000E+00  0.10961654105E+04  0.10961654105E+04  0.50400001928E-02 0.  1.
       -1   -1    0    0    0  501  0.00000000000E+00  0.00000000000E+00 -0.11088032047E+04  0.11088032047E+04  0.50400001928E-02 0. -1.
    10030    2    1    2    0    0  0.00000000000E+00  0.00000000000E+00 -0.12637794151E+02  0.22049686152E+04  0.22049323981E+04 0.  0.
        1    1    3    3  502    0 -0.18863630466E+03  0.93650211044E+03 -0.55661137335E+03  0.11056383130E+04  0.50400001928E-02 0. -1.
       -1    1    3    3    0  502  0.18863630466E+03 -0.93650211044E+03  0.54397357920E+03  0.10993303021E+04  0.50400001928E-02 0.  1.
</event>
<event>
 5   0  0.1733962E-04  0.2194618E+04  0.7818609E-02  0.8520671E-01
       -2   -1    0    0    0  501  0.00000000000E+00  0.00000000000E+00  0.60617125589E+03  0.60617125589E+03  0.25500000920E-02 0. -1.
        2   -1    0    0  501    0  0.00000000000E+00  0.00000000000E+00 -0.19863815953E+04  0.19863815953E+04  0.25500000920E-02 0.  1.
    10030    2    1    2    0    0  0.00000000000E+00  0.00000000000E+00 -0.13802103394E+04  0.25925528512E+04  0.21946183507E+04 0.  0.
        3    1    3    3  502    0  0.46546848792E+03 -0.80842827282E+03 -0.13726913021E+04  0.16596682218E+04  0.10100000352E+00 0.  1.
       -3    1    3    3    0  502 -0.46546848792E+03  0.80842827282E+03 -0.75190373058E+01  0.93288462934E+03  0.10100000352E+00 0. -1.
</event>
<event>
 5   0  0.1680258E-04  0.2173853E+04  0.7818609E-02  0.8529391E-01
        2   -1    0    0  501    0  0.00000000000E+00  0.00000000000E+00  0.18135748527E+04  0.18135748527E+04  0.25500000920E-02 0. -1.
       -2   -1    0    0    0  501  0.00000000000E+00  0.00000000000E+00 -0.65142548512E+03  0.65142548512E+03  0.25500000920E-02 0.  1.
    10030    2    1    2    0    0  0.00000000000E+00  0.00000000000E+00  0.11621493676E+04  0.24650003379E+04  0.21738526889E+04 0.  0.
        5    1    3    3  502    0  0.24103878145E+03 -0.61650461308E+03  0.15586323774E+04  0.16933796414E+04  0.46999998093E+01 0. -1.
       -5    1    3    3    0  502 -0.24103878145E+03  0.61650461308E+03 -0.39648300979E+03  0.77162069643E+03  0.46999998093E+01 0.  1.
</event>
<event>
 5   0  0.8306787E-05  0.2210961E+04  0.7818609E-02  0.8513880E-01
       -1   -1    0    0    0  501  0.00000000000E+00  0.00000000000E+00  0.18861930948E+04  0.18861930948E+04  0.50400001928E-02 0.  1.
        1   -1    0    0  501    0  0.00000000000E+00  0.00000000000E+00 -0.64791199008E+03  0.64791199010E+03  0.50400001928E-02 0. -1.
    10030    2    1    2    0    0  0.00000000000E+00  0.00000000000E+00  0.12382811047E+04  0.25341050849E+04  0.22109609872E+04 0.  0.
        1    1    3    3  502    0  0.93611430093E+03  0.19721482985E+03 -0.15795918282E+02  0.95679317753E+03  0.50400001928E-02 0. -1.
       -1    1    3    3    0  502 -0.93611430093E+03 -0.19721482985E+03  0.12540770230E+04  0.15773119074E+04  0.50400001928E-02 0.  1.
</event>
<event>
 5   0  0.8784659E-05  0.1266484E+04  0.7818609E-02  0.9056574E-01
        1   -1    0    0  501    0  0.00000000000E+00  0.00000000000E+00  0.86055063103E+03  0.86055063105E+03  0.50400001928E-02 0. -1.
       -1   -1    0    0    0  501  0.00000000000E+00  0.00000000000E+00 -0.46597560583E+03  0.46597560586E+03  0.50400001928E-02 0.  1.
    10030    2    1    2    0    0  0.00000000000E+00  0.00000000000E+00  0.39457502520E+03  0.13265262369E+04  0.12664842702E+04 0.  0.
        4    1    3    3  502    0 -0.49038995426E+02  0.62400351552E+03  0.96775712019E+02  0.63336589882E+03  0.12699999809E+01 0.  1.
       -4    1    3    3    0  502  0.49038995426E+02 -0.62400351552E+03  0.29779931318E+03  0.69316033808E+03  0.12699999809E+01 0. -1.
</event>
<event>
 5   0  0.6250625E-05  0.2179181E+04  0.7818609E-02  0.8527144E-01
        3   -1    0    0  501    0  0.00000000000E+00  0.00000000000E+00  0.10089171343E+04  0.10089171393E+04  0.10100000352E+00 0.  1.
       -3   -1    0    0    0  501  0.00000000000E+00  0.00000000000E+00 -0.11767140849E+04  0.11767140893E+04  0.10100000352E+00 0. -1.
    10030    2    1    2    0    0  0.00000000000E+00  0.00000000000E+00 -0.16779695064E+03  0.21856312286E+04  0.21791805916E+04 0.  0.
        1    1    3    3  502    0  0.47899950036E+03  0.56936768777E+03 -0.88223641527E+03  0.11541062246E+04  0.50400001928E-02 0. -1.
       -1    1    3    3    0  502 -0.47899950036E+03 -0.56936768777E+03  0.71443946462E+03  0.10315250040E+04  0.50400001928E-02 0.  1.
</event>
<event>
 5   0  0.7954459E-05  0.1331419E+04  0.7818609E-02  0.9005014E-01
       -1   -1    0    0    0  501  0.00000000000E+00  0.00000000000E+00  0.25166160182E+03  0.25166160187E+03  0.50400001928E-02 0.  1.
        1   -1    0    0  501    0  0.00000000000E+00  0.00000000000E+00 -0.17609719720E+04  0.17609719720E+04  0.50400001928E-02 0. -1.
    10030    2    1    2    0    0  0.00000000000E+00  0.00000000000E+00 -0.15093103702E+04  0.20126335739E+04  0.13314188331E+04 0.  0.
        5    1    3    3  502    0 -0.41474998524E+03  0.49247926463E+03 -0.10102688926E+04  0.11980061359E+04  0.46999998093E+01 0.  1.
       -5    1    3    3    0  502  0.41474998524E+03 -0.49247926463E+03 -0.49904147761E+03  0.81462743798E+03  0.46999998093E+01 0. -1.
</event>
<event>
 5   0  0.1680258E-04  0.2202816E+04  0.7818609E-02  0.8517257E-01
       -2   -1    0    0    0  501  0.00000000000E+00  0.00000000000E+00  0.95058800484E+03  0.95058800485E+03  0.25500000920E-02 0. -1.
        2   -1    0    0  501    0  0.00000000000E+00  0.00000000000E+00 -0.12761571279E+04  0.12761571279E+04  0.25500000920E-02 0.  1.
    10030    2    1    2    0    0  0.00000000000E+00  0.00000000000E+00 -0.32556912309E+03  0.22267451328E+04  0.22028160687E+04 0.  0.
        5    1    3    3  502    0 -0.29006735334E+03 -0.10416521745E+04  0.49012927307E+02  0.10824059678E+04  0.46999998093E+01 0. -1.
       -5    1    3    3    0  502  0.29006735334E+03  0.10416521745E+04 -0.37458205040E+03  0.11443391650E+04  0.46999998093E+01 0.  1.
</event>
<event>
 5   0  0.1680258E-04  0.2321833E+04  0.7818609E-02  0.8469362E-01
        2   -1    0    0  501    0  0.00000000000E+00  0.00000000000E+00  0.24718039758E+04  0.24718039758E+04  0.25500000920E-02 0.  1.
       -2   -1    0    0    0  501  0.00000000000E+00  0.00000000000E+00 -0.54524028317E+03  0.54524028317E+03  0.25500000920E-02 0. -1.
    10030    2    1    2    0    0  0.00000000000E+00  0.00000000000E+00  0.19265636926E+04  0.30170442589E+04  0.23218329825E+04 0.  0.
        5    1    3    3  502    0  0.47450153118E+03  0.23499768759E+03 -0.37917378130E+03  0.65128370368E+03  0.46999998093E+01 0. -1.
       -5    1    3    3    0  502 -0.47450153118E+03 -0.23499768759E+03  0.23057374739E+04  0.23657605552E+04  0.46999998093E+01 0.  1.
</event>
<event>
 5   0  0.1733962E-04  0.2223613E+04  0.7818609E-02  0.8508664E-01
       -2   -1    0    0    0  501  0.00000000000E+00  0.00000000000E+00  0.50194228055E+03  0.50194228056E+03  0.25500000920E-02 0.  1.
        2   -1    0    0  501    0  0.00000000000E+00  0.00000000000E+00 -0.24626618306E+04  0.24626618306E+04  0.25500000920E-02 0. -1.
    10030    2    1    2    0    0  0.00000000000E+00  0.00000000000E+00 -0.19607195501E+04  0.29646041112E+04  0.22236133616E+04 0.  0.
        3    1    3    3  502    0  0.40166675212E+03 -0.26392587189E+03  0.35628687252E+03  0.59827534743E+03  0.10100000352E+00 0.  1.
       -3    1    3    3    0  502 -0.40166675212E+03  0.26392587189E+03 -0.23170064226E+04  0.23663287637E+04  0.10100000352E+00 0. -1.
</event>
<event>
 5   0  0.1680258E-04  0.2189616E+04  0.7818609E-02  0.8522763E-01
       -2   -1    0    0    0  501  0.00000000000E+00  0.00000000000E+00  0.10350524479E+04  0.10350524479E+04  0.25500000920E-02 0. -1.
        2   -1    0    0  501    0  0.00000000000E+00  0.00000000000E+00 -0.11580132299E+04  0.11580132299E+04  0.25500000920E-02 0.  1.
    10030    2    1    2    0    0  0.00000000000E+00  0.00000000000E+00 -0.12296078202E+03  0.21930656778E+04  0.21896158826E+04 0.  0.
        5    1    3    3  502    0  0.21038564838E+03  0.10724056133E+04 -0.12690112275E+03  0.11002008478E+04  0.46999998093E+01 0.  1.
       -5    1    3    3    0  502 -0.21038564838E+03 -0.10724056133E+04  0.39403407293E+01  0.10928648301E+04  0.46999998093E+01 0. -1.
</event>
<event>
 5   0  0.8470971E-05  0.1799928E+04  0.7818609E-02  0.8706338E-01
        1   -1    0    0  501    0  0.00000000000E+00  0.00000000000E+00  0.94732714736E+03  0.94732714737E+03  0.50400001928E-02 0.  1.
       -1   -1    0    0    0  501  0.00000000000E+00  0.00000000000E+00 -0.85496855692E+03  0.85496855693E+03  0.50400001928E-02 0. -1.
    10030    2    1    2    0    0  0.00000000000E+00  0.00000000000E+00  0.92358590440E+02  0.18022957043E+04  0.17999276920E+04 0.  0.
        2    1    3    3  502    0 -0.53897954753E+03  0.71802354451E+03 -0.16177517153E+02  0.89795237913E+03  0.25500000920E-02 0. -1.
       -2    1    3    3    0  502  0.53897954753E+03 -0.71802354451E+03  0.10853610759E+03  0.90434332517E+03  0.25500000920E-02 0.  1.
</event>
<event>
 5   0  0.1733962E-04  0.2191950E+04  0.7818609E-02  0.8521786E-01
        2   -1    0    0  501    0  0.00000000000E+00  0.00000000000E+00  0.84891806592E+03  0.84891806592E+03  0.25500000920E-02 0. -1.
       -2   -1    0    0    0  501  0.00000000000E+00  0.00000000000E+00 -0.14149318621E+04  0.14149318621E+04  0.25500000920E-02 0.  1.
    10030    2    1    2    0    0  0.00000000000E+00  0.00000000000E+00 -0.56601379616E+03  0.22638499280E+04  0.21919500175E+04 0.  0.
        3    1    3    3  502    0 -0.22166295593E+03 -0.40479579415E+03 -0.13096800003E+04  0.13886165109E+04  0.10100000352E+00 0.  1.
       -3    1    3    3    0  502  0.22166295593E+03  0.40479579415E+03  0.74366620414E+03  0.87523341708E+03  0.10100000352E+00 0. -1.
</event>
<event>
 5   0  0.1798917E-04  0.2391075E+04  0.7818609E-02  0.8442853E-01
        2   -1    0    0  501    0  0.00000000000E+00  0.00000000000E+00  0.25466595789E+04  0.25466595789E+04  0.25500000920E-02 0.  1.
       -2   -1    0    0    0  501  0.00000000000E+00  0.00000000000E+00 -0.56124891616E+03  0.56124891616E+03  0.25500000920E-02 0. -1.
    10030    2    1    2    0    0  0.00000000000E+00  0.00000000000E+00  0.19854106628E+04  0.31079084951E+04  0.23910750122E+04 0.  0.
        4    1    3    3  502    0 -0.57232687870E+03 -0.98380359821E+03  0.51711384220E+03  0.12501343586E+04  0.12699999809E+01 0. -1.
       -4    1    3    3    0  502  0.57232687870E+03  0.98380359821E+03  0.14682968206E+04  0.18577741365E+04  0.12699999809E+01 0.  1.
</event>
<event>
 5   0  0.1733962E-04  0.2122497E+04  0.7818609E-02  0.8551398E-01
        2   -1    0    0  501    0  0.00000000000E+00  0.00000000000E+00  0.18898245070E+04  0.18898245070E+04  0.25500000920E-02 0. -1.
       -2   -1    0    0    0  501  0.00000000000E+00  0.00000000000E+00 -0.59595394335E+03  0.59595394336E+03  0.25500000920E-02 0.  1.
    10030    2    1    2    0    0  0.00000000000E+00  0.00000000000E+00  0.12938705636E+04  0.24857784504E+04  0.21224969891E+04 0.  0.
        3    1    3    3  502    0  0.90786923379E+03 -0.21827517526E+02  0.38157955054E+01  0.90813961299E+03  0.10100000352E+00 0.  1.
       -3    1    3    3    0  502 -0.90786923379E+03  0.21827517526E+02  0.12900547681E+04  0.15776388374E+04  0.10100000352E+00 0. -1.
</event>
<event>
 5   0  0.8470971E-05  0.1728523E+04  0.7818609E-02  0.8745262E-01
       -1   -1    0    0    0  501  0.00000000000E+00  0.00000000000E+00  0.95505679505E+03  0.95505679506E+03  0.50400001928E-02 0.  1.
        1   -1    0    0  501    0  0.00000000000E+00  0.00000000000E+00 -0.78209774087E+03  0.78209774089E+03  0.50400001928E-02 0. -1.
    10030    2    1    2    0    0  0.00000000000E+00  0.00000000000E+00  0.17295905418E+03  0.17371545359E+04  0.17285227934E+04 0.  0.
        2    1    3    3  502    0  0.24487764794E+03 -0.49418894886E+03 -0.58224541918E+03  0.80199595248E+03  0.25500000920E-02 0. -1.
       -2    1    3    3    0  502 -0.24487764794E+03  0.49418894886E+03  0.75520447336E+03  0.93515858346E+03  0.25500000920E-02 0.  1.
</event>
<event>
 5   0  0.1805501E-04  0.2170199E+04  0.7818609E-02  0.8530935E-01
        2   -1    0    0  501    0  0.00000000000E+00  0.00000000000E+00  0.14101486615E+04  0.14101486615E+04  0.25500000920E-02 0.  1.
       -2   -1    0    0    0  501  0.00000000000E+00  0.00000000000E+00 -0.83497665900E+03  0.83497665900E+03  0.25500000920E-02 0. -1.
    10030    2    1    2    0    0  0.00000000000E+00  0.00000000000E+00  0.57517200254E+03  0.22451253205E+04  0.21701992702E+04 0.  0.
        2    1    3    3  502    0  0.75067124741E+03  0.56874368082E+03  0.84514075355E+03  0.12654009600E+04  0.25500000920E-02 0.  1.
       -2    1    3    3    0  502 -0.75067124741E+03 -0.56874368082E+03 -0.26996875102E+03  0.97972436057E+03  0.25500000920E-02 0. -1.
</event>
<event>
 5   0  0.8784659E-05  0.2196614E+04  0.7818609E-02  0.8519839E-01
       -1   -1    0    0    0  501  0.00000000000E+00  0.00000000000E+00  0.14607880660E+04  0.14607880660E+04  0.50400001928E-02 0. -1.
        1   -1    0    0  501    0  0.00000000000E+00  0.00000000000E+00 -0.82577226680E+03  0.82577226681E+03  0.50400001928E-02 0.  1.
    10030    2    1    2    0    0  0.00000000000E+00  0.00000000000E+00  0.63501579923E+03  0.22865603329E+04  0.21966140058E+04 0.  0.
        4    1    3    3  502    0 -0.80870099729E+01 -0.50247526892E+03  0.13340880083E+04  0.14256013547E+04  0.12699999809E+01 0. -1.
       -4    1    3    3    0  502  0.80870099729E+01  0.50247526892E+03 -0.69907220911E+03  0.86095897815E+03  0.12699999809E+01 0.  1.
</event>
<event>
 5   0  0.8784659E-05  0.2241450E+04  0.7818609E-02  0.8501371E-01
       -1   -1    0    0    0  501  0.00000000000E+00  0.00000000000E+00  0.59077133362E+03  0.59077133364E+03  0.50400001928E-02 0.  1.
        1   -1    0    0  501    0  0.00000000000E+00  0.00000000000E+00 -0.21260762970E+04  0.21260762970E+04  0.50400001928E-02 0. -1.
    10030    2    1    2    0    0  0.00000000000E+00  0.00000000000E+00 -0.15353049634E+04  0.27168476307E+04  0.22414503603E+04 0.  0.
        4    1    3    3  502    0  0.50177585199E+03  0.53773068394E+03  0.25733017372E+03  0.77920069641E+03  0.12699999809E+01 0.  1.
       -4    1    3    3    0  502 -0.50177585199E+03 -0.53773068394E+03 -0.17926351371E+04  0.19376469342E+04  0.12699999809E+01 0. -1.
</event>
<event>
 5   0  0.1798917E-04  0.2206746E+04  0.7818609E-02  0.8515626E-01
       -2   -1    0    0    0  501  0.00000000000E+00  0.00000000000E+00  0.11625724414E+04  0.11625724414E+04  0.25500000920E-02 0.  1.
        2   -1    0    0  501    0  0.00000000000E+00  0.00000000000E+00 -0.10471875955E+04  0.10471875955E+04  0.25500000920E-02 0. -1.
    10030    2    1    2    0    0  0.00000000000E+00  0.00000000000E+00  0.11538484593E+03  0.22097600369E+04  0.22067455127E+04 0.  0.
        4    1    3    3  502    0 -0.67882355777E+03 -0.11579610172E+03  0.92097198592E+03  0.11499570303E+04  0.12699999809E+01 0.  1.
       -4    1    3    3    0  502  0.67882355777E+03  0.11579610172E+03 -0.80558714000E+03  0.10598030066E+04  0.12699999809E+01 0. -1.
</event>
<event>
 5   0  0.7954459E-05  0.2230251E+04  0.7818609E-02  0.8505942E-01
        1   -1    0    0  501    0  0.00000000000E+00  0.00000000000E+00  0.22379519337E+04  0.22379519337E+04  0.50400001928E-02 0.  1.
       -1   -1    0    0    0  501  0.00000000000E+00  0.00000000000E+00 -0.55564402666E+03  0.55564402668E+03  0.50400001928E-02 0. -1.
    10030    2    1    2    0    0  0.00000000000E+00  0.00000000000E+00  0.16823079070E+04  0.27935959604E+04  0.22302507697E+04 0.  0.
        5    1    3    3  502    0 -0.20674810797E+03  0.89991323845E+03  0.58014051927E+02  0.92518989246E+03  0.46999998093E+01 0. -1.
       -5    1    3    3    0  502  0.20674810797E+03 -0.89991323845E+03  0.16242938551E+04  0.18684060679E+04  0.46999998093E+01 0.  1.
</event>
<event>
 5   0  0.6250625E-05  0.2191604E+04  0.7818609E-02  0.8521931E-01
        4   -1    0    0  501    0  0.00000000000E+00  0.00000000000E+00  0.97744797890E+03  0.97744880395E+03  0.12699999809E+01 0. -1.
       -4   -1    0    0    0  501  0.00000000000E+00  0.00000000000E+00 -0.12284856647E+04  0.12284863211E+04  0.12699999809E+01 0.  1.
    10030    2    1    2    0    0  0.00000000000E+00  0.00000000000E+00 -0.25103768579E+03  0.22059351251E+04  0.21916044024E+04 0.  0.
        5    1    3    3  502    0 -0.93845553677E+03 -0.38780419076E+03  0.28908416462E+03  0.10557853139E+04  0.46999998093E+01 0. -1.
       -5    1    3    3    0  502  0.93845553677E+03  0.38780419076E+03 -0.54012185040E+03  0.11501498112E+04  0.46999998093E+01 0.  1.
</event>
<event>
 5   0  0.1733962E-04  0.2118446E+04  0.7818609E-02  0.8553161E-01
        2   -1    0    0  501    0  0.00000000000E+00  0.00000000000E+00  0.18772311531E+04  0.18772311531E+04  0.25500000920E-02 0. -1.
       -2   -1    0    0    0  501  0.00000000000E+00  0.00000000000E+00 -0.59766385361E+03  0.59766385361E+03  0.25500000920E-02 0.  1.
    10030    2    1    2    0    0  0.00000000000E+00  0.00000000000E+00  0.12795672995E+04  0.24748950067E+04  0.21184458502E+04 0.  0.
        3    1    3    3  502    0 -0.10366696008E+04  0.21434561395E+03  0.59725367621E+03  0.12154587066E+04  0.10100000352E+00 0. -1.
       -3    1    3    3    0  502  0.10366696008E+04 -0.21434561395E+03  0.68231362330E+03  0.12594363002E+04  0.10100000352E+00 0.  1.
</event>
<event>
 5   0  0.1733962E-04  0.2221094E+04  0.7818609E-02  0.8509699E-01
        2   -1    0    0  501    0  0.00000000000E+00  0.00000000000E+00  0.66042112404E+03  0.66042112405E+03  0.25500000920E-02 0. -1.
       -2   -1    0    0    0  501  0.00000000000E+00  0.00000000000E+00 -0.18674667493E+04  0.18674667493E+04  0.25500000920E-02 0.  1.
    10030    2    1    2    0    0  0.00000000000E+00  0.00000000000E+00 -0.12070456252E+04  0.25278878733E+04  0.22210938654E+04 0.  0.
        3    1    3    3  502    0 -0.41247580170E+03 -0.46038987674E+03  0.44653119953E+03  0.76255180017E+03  0.10100000352E+00 0. -1.
       -3    1    3    3    0  502  0.41247580170E+03  0.46038987674E+03 -0.16535768248E+04  0.17653360731E+04  0.10100000352E+00 0.  1.
</event>
<event>
 5   0  0.1798917E-04  0.2205299E+04  0.7818609E-02  0.8516226E-01
        2   -1    0    0  501    0  0.00000000000E+00  0.00000000000E+00  0.64512737493E+03  0.64512737493E+03  0.25500000920E-02 0.  1.
       -2   -1    0    0    0  501  0.00000000000E+00  0.00000000000E+00 -0.18846448179E+04  0.18846448180E+04  0.25500000920E-02 0. -1.
    10030    2    1    2    0    0  0.00000000000E+00  0.00000000000E+00 -0.12395174430E+04  0.25297721929E+04  0.22052990401E+04 0.  0.
        4    1    3    3  502    0 -0.80274760300E+03  0.11294252745E+03  0.23766086125E+03  0.84477454181E+03  0.12699999809E+01 0.  1.
       -4    1    3    3    0  502  0.80274760300E+03 -0.11294252745E+03 -0.14771783043E+04  0.16849976511E+04  0.12699999809E+01 0. -1.
</event>
<event>
 5   0  0.8306787E-05  0.2208605E+04  0.7818609E-02  0.8514855E-01
        1   -1    0    0  501    0  0.00000000000E+00  0.00000000000E+00  0.14805140490E+04  0.14805140490E+04  0.50400001928E-02 0.  1.
       -1   -1    0    0    0  501  0.00000000000E+00  0.00000000000E+00 -0.82368975535E+03  0.82368975536E+03  0.50400001928E-02 0. -1.
    10030    2    1    2    0    0  0.00000000000E+00  0.00000000000E+00  0.65682429366E+03  0.23042038044E+04  0.22086052204E+04 0.  0.
        1    1    3    3  502    0  0.38349217400E+03 -0.92102242928E+03 -0.16550977870E+03  0.10113070996E+04  0.50400001928E-02 0. -1.
       -1    1    3    3    0  502 -0.38349217400E+03  0.92102242928E+03  0.82233407235E+03  0.12928967048E+04  0.50400001928E-02 0.  1.
</event>
<event>
 5   0  0.1798917E-04  0.2220234E+04  0.7818609E-02  0.8510053E-01
        2   -1    0    0  501    0  0.00000000000E+00  0.00000000000E+00  0.21872975825E+04  0.21872975825E+04  0.25500000920E-02 0.  1.
       -2   -1    0    0    0  501  0.00000000000E+00  0.00000000000E+00 -0.56341674547E+03  0.56341674547E+03  0.25500000920E-02 0. -1.
    10030    2    1    2    0    0  0.00000000000E+00  0.00000000000E+00  0.16238808370E+04  0.27507143279E+04  0.22202342987E+04 0.  0.
        4    1    3    3  502    0  0.79238592407E+02 -0.33278974886E+03 -0.49648360846E+03  0.60293064099E+03  0.12699999809E+01 0. -1.
       -4    1    3    3    0  502 -0.79238592407E+02  0.33278974886E+03  0.21203644455E+04  0.21477836870E+04  0.12699999809E+01 0.  1.
</event>
<event>
 5   0  0.8602414E-05  0.2235506E+04  0.7818609E-02  0.8503793E-01
        1   -1    0    0  501    0  0.00000000000E+00  0.00000000000E+00  0.12811067542E+04  0.12811067542E+04  0.50400001928E-02 0. -1.
       -1   -1    0    0    0  501  0.00000000000E+00  0.00000000000E+00 -0.97522849464E+03  0.97522849465E+03  0.50400001928E-02 0.  1.
    10030    2    1    2    0    0  0.00000000000E+00  0.00000000000E+00  0.30587825954E+03  0.22563352488E+04  0.22355060379E+04 0.  0.
        3    1    3    3  502    0  0.31590938978E+03  0.90044617666E+03  0.74040154611E+03  0.12078064908E+04  0.10100000352E+00 0. -1.
       -3    1    3    3    0  502 -0.31590938978E+03 -0.90044617666E+03 -0.43452328657E+03  0.10485287580E+04  0.10100000352E+00 0.  1.
</event>
<event>
 5   0  0.1733962E-04  0.1864961E+04  0.7818609E-02  0.8672497E-01
       -2   -1    0    0    0  501  0.00000000000E+00  0.00000000000E+00  0.35621969564E+03  0.35621969564E+03  0.25500000920E-02 0. -1.
        2   -1    0    0  501    0  0.00000000000E+00  0.00000000000E+00 -0.24409664138E+04  0.24409664138E+04  0.25500000920E-02 0.  1.
    10030    2    1    2    0    0  0.00000000000E+00  0.00000000000E+00 -0.20847467181E+04  0.27971861094E+04  0.18649614612E+04 0.  0.
        3    1    3    3  502    0  0.12149240660E+03 -0.76129638195E+02  0.33958890242E+03  0.36861464908E+03  0.10100000352E+00 0. -1.
       -3    1    3    3    0  502 -0.12149240660E+03  0.76129638195E+02 -0.24243356206E+04  0.24285714603E+04  0.10100000352E+00 0.  1.
</event>
<event>
 5   0  0.1733962E-04  0.2368189E+04  0.7818609E-02  0.8451510E-01
       -2   -1    0    0    0  501  0.00000000000E+00  0.00000000000E+00  0.15329750482E+04  0.15329750482E+04  0.25500000920E-02 0. -1.
        2   -1    0    0  501    0  0.00000000000E+00  0.00000000000E+00 -0.91461395668E+03  0.91461395668E+03  0.25500000920E-02 0.  1.
    10030    2    1    2    0    0  0.00000000000E+00  0.00000000000E+00  0.61836109149E+03  0.24475890049E+04  0.23681894977E+04 0.  0.
        3    1    3    3  502    0 -0.66236570061E+03 -0.74100426730E+03 -0.35603289645E+03  0.10557343790E+04  0.10100000352E+00 0.  1.
       -3    1    3    3    0  502  0.66236570061E+03  0.74100426730E+03  0.97439398795E+03  0.13918546258E+04  0.10100000352E+00 0. -1.
</event>
<event>
 5   0  0.8306787E-05  0.1985505E+04  0.7818609E-02  0.8613428E-01
        1   -1    0    0  501    0  0.00000000000E+00  0.00000000000E+00  0.12813735822E+04  0.12813735822E+04  0.50400001928E-02 0.  1.
       -1   -1    0    0    0  501  0.00000000000E+00  0.00000000000E+00 -0.76914116573E+03  0.76914116575E+03  0.50400001928E-02 0. -1.
    10030    2    1    2    0    0  0.00000000000E+00  0.00000000000E+00  0.51223241646E+03  0.20505147479E+04  0.19855046419E+04 0.  0.
        1    1    3    3  502    0 -0.95039255478E+03 -0.18329043102E+03  0.28172912727E+02  0.96831560109E+03  0.50400001928E-02 0. -1.
       -1    1    3    3    0  502  0.95039255478E+03  0.18329043102E+03  0.48405950373E+03  0.10821991469E+04  0.50400001928E-02 0.  1.
</event>
<event>
 5   0  0.8306787E-05  0.1764573E+04  0.7818609E-02  0.8725369E-01
       -1   -1    0    0    0  501  0.00000000000E+00  0.00000000000E+00  0.53963531609E+03  0.53963531612E+03  0.50400001928E-02 0. -1.
        1   -1    0    0  501    0  0.00000000000E+00  0.00000000000E+00 -0.14425100149E+04  0.14425100149E+04  0.50400001928E-02 0.  1.
    10030    2    1    2    0    0  0.00000000000E+00  0.00000000000E+00 -0.90287469884E+03  0.19821453311E+04  0.17645728638E+04 0.  0.
        1    1    3    3  502    0  0.18754380574E+03 -0.55960039887E+03  0.28524908025E+03  0.65550920916E+03  0.50400001928E-02 0. -1.
       -1    1    3    3    0  502 -0.18754380574E+03  0.55960039887E+03 -0.11881237791E+04  0.13266361219E+04  0.50400001928E-02 0.  1.
</event>
<event>
 5   0  0.1754356E-04  0.2219131E+04  0.7818609E-02  0.8510507E-01
        2   -1    0    0  501    0  0.00000000000E+00  0.00000000000E+00  0.11481918485E+04  0.11481918485E+04  0.25500000920E-02 0. -1.
       -2   -1    0    0    0  501  0.00000000000E+00  0.00000000000E+00 -0.10722387465E+04  0.10722387465E+04  0.25500000920E-02 0.  1.
    10030    2    1    2    0    0  0.00000000000E+00  0.00000000000E+00  0.75953102010E+02  0.22204305950E+04  0.22191311708E+04 0.  0.
        1    1    3    3  502    0 -0.32870726767E+03  0.12826522402E+03  0.10905599086E+04  0.11462204630E+04  0.50400001928E-02 0. -1.
       -1    1    3    3    0  502  0.32870726767E+03 -0.12826522402E+03 -0.10146068066E+04  0.10742101319E+04  0.50400001928E-02 0.  1.
</event>
<event>
 5   0  0.8784659E-05  0.1832121E+04  0.7818609E-02  0.8689402E-01
       -1   -1    0    0    0  501  0.00000000000E+00  0.00000000000E+00  0.11423871998E+04  0.11423871998E+04  0.50400001928E-02 0. -1.
        1   -1    0    0  501    0  0.00000000000E+00  0.00000000000E+00 -0.73457273335E+03  0.73457273337E+03  0.50400001928E-02 0.  1.
    10030    2    1    2    0    0  0.00000000000E+00  0.00000000000E+00  0.40781446647E+03  0.18769599332E+04  0.18321206160E+04 0.  0.
        4    1    3    3  502    0  0.43735504571E+03 -0.29162321387E+03 -0.56468135967E+03  0.77148570028E+03  0.12699999809E+01 0.  1.
       -4    1    3    3    0  502 -0.43735504571E+03  0.29162321387E+03  0.97249582614E+03  0.11054742329E+04  0.12699999809E+01 0. -1.
</event>
<event>
 5   0  0.1680258E-04  0.2228279E+04  0.7818609E-02  0.8506749E-01
       -2   -1    0    0    0  501  0.00000000000E+00  0.00000000000E+00  0.55091952746E+03  0.55091952747E+03  0.25500000920E-02 0.  1.
        2   -1    0    0  501    0  0.00000000000E+00  0.00000000000E+00 -0.22531549133E+04  0.22531549133E+04  0.25500000920E-02 0. -1.
    10030    2    1    2    0    0  0.00000000000E+00  0.00000000000E+00 -0.17022353858E+04  0.28040744408E+04  0.22282791927E+04 0.  0.
        5    1    3    3  502    0 -0.47451764745E+03  0.20914005362E+03  0.38978458921E+03  0.64873775576E+03  0.46999998093E+01 0.  1.
       -5    1    3    3    0  502  0.47451764745E+03 -0.20914005362E+03 -0.20920199750E+04  0.21553366850E+04  0.46999998093E+01 0. -1.
</event>
<event>
 5   0  0.8470971E-05  0.2111939E+04  0.7818609E-02  0.8556002E-01
        1   -1    0    0  501    0  0.00000000000E+00  0.00000000000E+00  0.10184890851E+04  0.10184890851E+04  0.50400001928E-02 0. -1.
       -1   -1    0    0    0  501  0.00000000000E+00  0.00000000000E+00 -0.10948287702E+04  0.10948287702E+04  0.50400001928E-02 0.  1.
    10030    2    1    2    0    0  0.00000000000E+00  0.00000000000E+00 -0.76339685068E+02  0.21133178553E+04  0.21119385905E+04 0.  0.
        2    1    3    3  502    0 -0.49218804920E+03 -0.90573859843E+03 -0.26736018081E+03  0.10649380032E+04  0.25500000920E-02 0. -1.
       -2    1    3    3    0  502  0.49218804920E+03  0.90573859843E+03  0.19102049574E+03  0.10483798521E+04  0.25500000920E-02 0.  1.
</event>
<event>
 5   0  0.7954459E-05  0.2128931E+04  0.7818609E-02  0.8548605E-01
       -1   -1    0    0    0  501  0.00000000000E+00  0.00000000000E+00  0.44612507107E+03  0.44612507109E+03  0.50400001928E-02 0. -1.
        1   -1    0    0  501    0  0.00000000000E+00  0.00000000000E+00 -0.25398419569E+04  0.25398419569E+04  0.50400001928E-02 0.  1.
    10030    2    1    2    0    0  0.00000000000E+00  0.00000000000E+00 -0.20937168858E+04  0.29859670280E+04  0.21289313503E+04 0.  0.
        5    1    3    3  502    0 -0.94138816582E+03  0.68876969117E+02 -0.35673123848E+03  0.10090763014E+04  0.46999998093E+01 0. -1.
       -5    1    3    3    0  502  0.94138816582E+03 -0.68876969117E+02 -0.17369856473E+04  0.19768907265E+04  0.46999998093E+01 0.  1.
</event>
<event>
 5   0  0.8306787E-05  0.2185077E+04  0.7818609E-02  0.8524665E-01
       -1   -1    0    0    0  501  0.00000000000E+00  0.00000000000E+00  0.69886828107E+03  0.69886828109E+03  0.50400001928E-02 0.  1.
        1   -1    0    0  501    0  0.00000000000E+00  0.00000000000E+00 -0.17079618430E+04  0.17079618430E+04  0.50400001928E-02 0. -1.
    10030    2    1    2    0    0  0.00000000000E+00  0.00000000000E+00 -0.10090935619E+04  0.24068301241E+04  0.21850769848E+04 0.  0.
        1    1    3    3  502    0 -0.86875481464E+02 -0.56642086653E+03  0.52004793632E+03  0.77384094194E+03  0.50400001928E-02 0.  1.
       -1    1    3    3    0  502  0.86875481464E+02  0.56642086653E+03 -0.15291414982E+04  0.16329891821E+04  0.50400001928E-02 0. -1.
</event>
<event>
 5   0  0.1680258E-04  0.2187088E+04  0.7818609E-02  0.8523822E-01
        2   -1    0    0  501    0  0.00000000000E+00  0.00000000000E+00  0.85268331299E+03  0.85268331300E+03  0.25500000920E-02 0. -1.
       -2   -1    0    0    0  501  0.00000000000E+00  0.00000000000E+00 -0.14024411620E+04  0.14024411620E+04  0.25500000920E-02 0.  1.
    10030    2    1    2    0    0  0.00000000000E+00  0.00000000000E+00 -0.54975784898E+03  0.22551244750E+04  0.21870877223E+04 0.  0.
        5    1    3    3  502    0 -0.98628983270E+03 -0.37845096297E+03 -0.56619819347E+03  0.11985805145E+04  0.46999998093E+01 0.  1.
       -5    1    3    3    0  502  0.98628983270E+03  0.37845096297E+03  0.16440344493E+02  0.10565439605E+04  0.46999998093E+01 0. -1.
</event>
<event>
 5   0  0.8470971E-05  0.2216231E+04  0.7818609E-02  0.8511703E-01
       -1   -1    0    0    0  501  0.00000000000E+00  0.00000000000E+00  0.11841706326E+04  0.11841706327E+04  0.50400001928E-02 0.  1.
        1   -1    0    0  501    0  0.00000000000E+00  0.00000000000E+00 -0.10369449338E+04  0.10369449339E+04  0.50400001928E-02 0. -1.
    10030    2    1    2    0    0  0.00000000000E+00  0.00000000000E+00  0.14722569880E+03  0.22211155665E+04  0.22162307988E+04 0.  0.
        2    1    3    3  502    0 -0.15921013799E+03  0.77489205524E+03 -0.70405759710E+03  0.10590102291E+04  0.25500000920E-02 0. -1.
       -2    1    3    3    0  502  0.15921013799E+03 -0.77489205524E+03  0.85128329590E+03  0.11621053374E+04  0.25500000920E-02 0.  1.
</event>
<event>
 5   0  0.8602414E-05  0.2232862E+04  0.7818609E-02  0.8504873E-01
        1   -1    0    0  501    0  0.00000000000E+00  0.00000000000E+00  0.11354265937E+04  0.11354265938E+04  0.50400001928E-02 0. -1.
       -1   -1    0    0    0  501  0.00000000000E+00  0.00000000000E+00 -0.10977530223E+04  0.10977530223E+04  0.50400001928E-02 0.  1.
    10030    2    1    2    0    0  0.00000000000E+00  0.00000000000E+00  0.37673571461E+02  0.22331796160E+04  0.22328618183E+04 0.  0.
        3    1    3    3  502    0  0.78920356533E+03  0.61636708400E+02 -0.76853418686E+03  0.11033069192E+04  0.10100000352E+00 0.  1.
       -3    1    3    3    0  502 -0.78920356533E+03 -0.61636708400E+02  0.80620775832E+03  0.11298726969E+04  0.10100000352E+00 0. -1.
</event>
<event>
 5   0  0.1733962E-04  0.2254370E+04  0.7818609E-02  0.8496133E-01
        2   -1    0    0  501    0  0.00000000000E+00  0.00000000000E+00  0.18488841001E+04  0.18488841001E+04  0.25500000920E-02 0. -1.
       -2   -1    0    0    0  501  0.00000000000E+00  0.00000000000E+00 -0.68719632293E+03  0.68719632294E+03  0.25500000920E-02 0.  1.
    10030    2    1    2    0    0  0.00000000000E+00  0.00000000000E+00  0.11616877772E+04  0.25360804231E+04  0.22543702936E+04 0.  0.
        3    1    3    3  502    0 -0.11246458453E+04 -0.72704807980E+02  0.60422790658E+03  0.12787515942E+04  0.10100000352E+00 0. -1.
       -3    1    3    3    0  502  0.11246458453E+04  0.72704807980E+02  0.55745987061E+03  0.12573288289E+04  0.10100000352E+00 0.  1.
</event>
<event>
 5   0  0.1680258E-04  0.2105849E+04  0.7818609E-02  0.8558671E-01
       -2   -1    0    0    0  501  0.00000000000E+00  0.00000000000E+00  0.70219511568E+03  0.70219511569E+03  0.25500000920E-02 0.  1.
        2   -1    0    0  501    0  0.00000000000E+00  0.00000000000E+00 -0.15788339842E+04  0.15788339842E+04  0.25500000920E-02 0. -1.
    10030    2    1    2    0    0  0.00000000000E+00  0.00000000000E+00 -0.87663886848E+03  0.22810290999E+04  0.21058485341E+04 0.  0.
        5    1    3    3  502    0  0.29308281566E+03  0.70425467691E+03  0.34783546515E+03  0.83838164794E+03  0.46999998093E+01 0.  1.
       -5    1    3    3    0  502 -0.29308281566E+03 -0.70425467691E+03 -0.12244743336E+04  0.14426474519E+04  0.46999998093E+01 0. -1.
</event>
<event>
 5   0  0.1754356E-04  0.2185651E+04  0.7818609E-02  0.8524424E-01
       -2   -1    0    0    0  501  0.00000000000E+00  0.00000000000E+00  0.82448393173E+03  0.82448393174E+03  0.25500000920E-02 0.  1.
        2   -1    0    0  501    0  0.00000000000E+00  0.00000000000E+00 -0.14485028170E+04  0.14485028170E+04  0.25500000920E-02 0. -1.
    10030    2    1    2    0    0  0.00000000000E+00  0.00000000000E+00 -0.62401888531E+03  0.22729867488E+04  0.21856507477E+04 0.  0.
        1    1    3    3  502    0  0.78037614926E+03 -0.66372614888E+03 -0.70766964422E+03  0.12451167256E+04  0.50400001928E-02 0. -1.
       -1    1    3    3    0  502 -0.78037614926E+03  0.66372614888E+03  0.83650758903E+02  0.10278700232E+04  0.50400001928E-02 0.  1.
</event>
<event>
 5   0  0.8784659E-05  0.1495441E+04  0.7818609E-02  0.8887490E-01
        1   -1    0    0  501    0  0.00000000000E+00  0.00000000000E+00  0.40360190686E+03  0.40360190689E+03  0.50400001928E-02 0. -1.
       -1   -1    0    0    0  501  0.00000000000E+00  0.00000000000E+00 -0.13852419937E+04  0.13852419937E+04  0.50400001928E-02 0.  1.
    10030    2    1    2    0    0  0.00000000000E+00  0.00000000000E+00 -0.98164008688E+03  0.17888439006E+04  0.14954414869E+04 0.  0.
        4    1    3    3  502    0  0.66800203133E+03 -0.78834759051E+02 -0.10018668513E+03  0.68005927526E+03  0.12699999809E+01 0. -1.
       -4    1    3    3    0  502 -0.66800203133E+03  0.78834759051E+02 -0.88145340175E+03  0.11087846254E+04  0.12699999809E+01 0.  1.
</event>
<event>
 5   0  0.7954459E-05  0.2244126E+04  0.7818609E-02  0.8500283E-01
       -1   -1    0    0    0  501  0.00000000000E+00  0.00000000000E+00  0.55397964642E+03  0.55397964645E+03  0.50400001928E-02 0.  1.
        1   -1    0    0  501    0  0.00000000000E+00  0.00000000000E+00 -0.22726916319E+04  0.22726916319E+04  0.50400001928E-02 0. -1.
    10030    2    1    2    0    0  0.00000000000E+00  0.00000000000E+00 -0.17187119855E+04  0.28266712784E+04  0.22441255818E+04 0.  0.
        5    1    3    3  502    0  0.21223607349E+03  0.94223468110E+03 -0.14000891022E+03  0.97594822101E+03  0.46999998093E+01 0.  1.
       -5    1    3    3    0  502 -0.21223607349E+03 -0.94223468110E+03 -0.15787030753E+04  0.18507230574E+04  0.46999998093E+01 0. -1.
</event>
<event>
 5   0  0.8602414E-05  0.2196834E+04  0.7818609E-02  0.8519747E-01
       -1   -1    0    0    0  501  0.00000000000E+00  0.00000000000E+00  0.55528023778E+03  0.55528023780E+03  0.50400001928E-02 0. -1.
        1   -1    0    0  501    0  0.00000000000E+00  0.00000000000E+00 -0.21728123884E+04  0.21728123884E+04  0.50400001928E-02 0.  1.
    10030    2    1    2    0    0  0.00000000000E+00  0.00000000000E+00 -0.16175321506E+04  0.27280926262E+04  0.21968338851E+04 0.  0.
        3    1    3    3  502    0  0.82587835275E+03  0.58737066317E+03 -0.28272212365E+03  0.10521459779E+04  0.10100000352E+00 0. -1.
       -3    1    3    3    0  502 -0.82587835275E+03 -0.58737066317E+03 -0.13348100270E+04  0.16759466483E+04  0.10100000352E+00 0.  1.
</event>
<event>
 5   0  0.1805501E-04  0.2111616E+04  0.7818609E-02  0.8556144E-01
        2   -1    0    0  501    0  0.00000000000E+00  0.00000000000E+00  0.25049756127E+04  0.25049756127E+04  0.25500000920E-02 0. -1.
       -2   -1    0    0    0  501  0.00000000000E+00  0.00000000000E+00 -0.44500656947E+03  0.44500656948E+03  0.25500000920E-02 0.  1.
    10030    2    1    2    0    0  0.00000000000E+00  0.00000000000E+00  0.20599690432E+04  0.29499821821E+04  0.21116160674E+04 0.  0.
        2    1    3    3  502    0  0.24861158870E+03  0.39056746468E+03 -0.29563026454E+03  0.54931586525E+03  0.25500000920E-02 0.  1.
       -2    1    3    3    0  502 -0.24861158870E+03 -0.39056746468E+03  0.23555993077E+04  0.24006663169E+04  0.25500000920E-02 0. -1.
</event>
<event>
 5   0  0.8602414E-05  0.2343650E+04  0.7818609E-02  0.8460907E-01
        1   -1    0    0  501    0  0.00000000000E+00  0.00000000000E+00  0.12795269433E+04  0.12795269433E+04  0.50400001928E-02 0. -1.
       -1   -1    0    0    0  501  0.00000000000E+00  0.00000000000E+00 -0.10731888899E+04  0.10731888899E+04  0.50400001928E-02 0.  1.
    10030    2    1    2    0    0  0.00000000000E+00  0.00000000000E+00  0.20633805336E+03  0.23527158332E+04  0.23436502298E+04 0.  0.
        3    1    3    3  502    0  0.10634091965E+04 -0.47474279762E+03 -0.27543113534E+02  0.11648941911E+04  0.10100000352E+00 0.  1.
       -3    1    3    3    0  502 -0.10634091965E+04  0.47474279762E+03  0.23388116690E+03  0.11878216421E+04  0.10100000352E+00 0. -1.
</event>
<event>
 5   0  0.6250625E-05  0.2075513E+04  0.7818609E-02  0.8572108E-01
        4   -1    0    0  501    0  0.00000000000E+00  0.00000000000E+00  0.15288885309E+04  0.15288890584E+04  0.12699999809E+01 0.  1.
       -4   -1    0    0    0  501  0.00000000000E+00  0.00000000000E+00 -0.70439179628E+03  0.70439294117E+03  0.12699999809E+01 0. -1.
    10030    2    1    2    0    0  0.00000000000E+00  0.00000000000E+00  0.82449673463E+03  0.22332819995E+04  0.20755128581E+04 0.  0.
        1    1    3    3  502    0  0.85215023170E+02  0.85816911469E+03  0.10333824298E+04  0.13459550794E+04  0.50400001928E-02 0.  1.
       -1    1    3    3    0  502 -0.85215023170E+02 -0.85816911469E+03 -0.20888569512E+03  0.88732692016E+03  0.50400001928E-02 0. -1.
</event>
<event>
 5   0  0.8784659E-05  0.2222376E+04  0.7818609E-02  0.8509172E-01
        1   -1    0    0  501    0  0.00000000000E+00  0.00000000000E+00  0.10487790791E+04  0.10487790791E+04  0.50400001928E-02 0.  1.
       -1   -1    0    0    0  501  0.00000000000E+00  0.00000000000E+00 -0.11773110587E+04  0.11773110587E+04  0.50400001928E-02 0. -1.
    10030    2    1    2    0    0  0.00000000000E+00  0.00000000000E+00 -0.12853197961E+03  0.22260901379E+04  0.22223763930E+04 0.  0.
        4    1    3    3  502    0 -0.71349766455E+03 -0.85061997157E+03 -0.18316227289E+02  0.11103919805E+04  0.12699999809E+01 0. -1.
       -4    1    3    3    0  502  0.71349766455E+03  0.85061997157E+03 -0.11021575232E+03  0.11156981573E+04  0.12699999809E+01 0.  1.
</event>
<event>
 5   0  0.1733962E-04  0.1245506E+04  0.7818609E-02  0.9073932E-01
        2   -1    0    0  501    0  0.00000000000E+00  0.00000000000E+00  0.34350100093E+03  0.34350100094E+03  0.25500000920E-02 0.  1.
       -2   -1    0    0    0  501  0.00000000000E+00  0.00000000000E+00 -0.11290245729E+04  0.11290245729E+04  0.25500000920E-02 0. -1.
    10030    2    1    2    0    0  0.00000000000E+00  0.00000000000E+00 -0.78552357200E+03  0.14725255739E+04  0.12455056337E+04 0.  0.
        3    1    3    3  502    0  0.26489864046E+03 -0.48090482004E+03 -0.45285983397E+02  0.55090068628E+03  0.10100000352E+00 0. -1.
       -3    1    3    3    0  502 -0.26489864046E+03  0.48090482004E+03 -0.74023758861E+03  0.92162488760E+03  0.10100000352E+00 0.  1.
</event>
<event>
 5   0  0.1733962E-04  0.2197982E+04  0.7818609E-02  0.8519268E-01
       -2   -1    0    0    0  501  0.00000000000E+00  0.00000000000E+00  0.63733809077E+03  0.63733809077E+03  0.25500000920E-02 0. -1.
        2   -1    0    0  501    0  0.00000000000E+00  0.00000000000E+00 -0.18950402426E+04  0.18950402426E+04  0.25500000920E-02 0.  1.
    10030    2    1    2    0    0  0.00000000000E+00  0.00000000000E+00 -0.12577021518E+04  0.25323783334E+04  0.21979821020E+04 0.  0.
        3    1    3    3  502    0  0.61852693071E+03  0.82100408348E+03 -0.18091083523E+03  0.10437202736E+04  0.10100000352E+00 0. -1.
       -3    1    3    3    0  502 -0.61852693071E+03 -0.82100408348E+03 -0.10767913166E+04  0.14886580597E+04  0.10100000352E+00 0.  1.
</event>
<event>
 5   0  0.8470971E-05  0.2176373E+04  0.7818609E-02  0.8528327E-01
        1   -1    0    0  501    0  0.00000000000E+00  0.00000000000E+00  0.17595099970E+04  0.17595099970E+04  0.50400001928E-02 0.  1.
       -1   -1    0    0    0  501  0.00000000000E+00  0.00000000000E+00 -0.67299963447E+03  0.67299963449E+03  0.50400001928E-02 0. -1.
    10030    2    1    2    0    0  0.00000000000E+00  0.00000000000E+00  0.10865103625E+04  0.24325096315E+04  0.21763727483E+04 0.  0.
        2    1    3    3  502    0  0.33677724913E+03  0.39713918376E+03  0.16112258549E+04  0.16932770601E+04  0.25500000920E-02 0.  1.
       -2    1    3    3    0  502 -0.33677724913E+03 -0.39713918376E+03 -0.52471549230E+03  0.73923257144E+03  0.25500000920E-02 0. -1.
</event>
<event>
 5   0  0.7954459E-05  0.2200699E+04  0.7818609E-02  0.8518137E-01
       -1   -1    0    0    0  501  0.00000000000E+00  0.00000000000E+00  0.86015187242E+03  0.86015187243E+03  0.50400001928E-02 0.  1.
        1   -1    0    0  501    0  0.00000000000E+00  0.00000000000E+00 -0.14076223816E+04  0.14076223816E+04  0.50400001928E-02 0. -1.
    10030    2    1    2    0    0  0.00000000000E+00  0.00000000000E+00 -0.54747050915E+03  0.22677742540E+04  0.22006990046E+04 0.  0.
        5    1    3    3  502    0  0.38549899810E+03  0.70759108787E+03  0.49840396219E+03  0.94748257224E+03  0.46999998093E+01 0.  1.
       -5    1    3    3    0  502 -0.38549899810E+03 -0.70759108787E+03 -0.10458744713E+04  0.13202916818E+04  0.46999998093E+01 0. -1.
</event>
<event>
 5   0  0.1680258E-04  0.2203114E+04  0.7818609E-02  0.8517133E-01
        2   -1    0    0  501    0  0.00000000000E+00  0.00000000000E+00  0.19241150485E+04  0.19241150485E+04  0.25500000920E-02 0.  1.
       -2   -1    0    0    0  501  0.00000000000E+00  0.00000000000E+00 -0.63064198103E+03  0.63064198103E+03  0.25500000920E-02 0. -1.
    10030    2    1    2    0    0  0.00000000000E+00  0.00000000000E+00  0.12934730675E+04  0.25547570295E+04  0.22031139107E+04 0.  0.
        5    1    3    3  502    0 -0.34279293375E+03  0.44642316384E+03  0.17447640617E+04  0.18333096731E+04  0.46999998093E+01 0.  1.
       -5    1    3    3    0  502  0.34279293375E+03 -0.44642316384E+03 -0.45129099420E+03  0.72144735642E+03  0.46999998093E+01 0. -1.
</event>
<event>
 5   0  0.1754356E-04  0.2180725E+04  0.7818609E-02  0.8526494E-01
        2   -1    0    0  501    0  0.00000000000E+00  0.00000000000E+00  0.19440375274E+04  0.19440375274E+04  0.25500000920E-02 0.  1.
       -2   -1    0    0    0  501  0.00000000000E+00  0.00000000000E+00 -0.61155741557E+03  0.61155741558E+03  0.25500000920E-02 0. -1.
    10030    2    1    2    0    0  0.00000000000E+00  0.00000000000E+00  0.13324801118E+04  0.25555949430E+04  0.21807251693E+04 0.  0.
        1    1    3    3  502    0 -0.40091787944E+03 -0.86829450980E+03  0.52561852841E+02  0.95782735929E+03  0.50400001928E-02 0. -1.
       -1    1    3    3    0  502  0.40091787944E+03  0.86829450980E+03  0.12799182590E+04  0.15977675837E+04  0.50400001928E-02 0.  1.
</event>
<event>
 5   0  0.6250625E-05  0.2291354E+04  0.7818609E-02  0.8481338E-01
       -3   -1    0    0    0  501  0.00000000000E+00  0.00000000000E+00  0.16500573837E+04  0.16500573868E+04  0.10100000352E+00 0. -1.
        3   -1    0    0  501    0  0.00000000000E+00  0.00000000000E+00 -0.79547284757E+03  0.79547285398E+03  0.10100000352E+00 0.  1.
    10030    2    1    2    0    0  0.00000000000E+00  0.00000000000E+00  0.85458453618E+03  0.24455302408E+04  0.22913540602E+04 0.  0.
        1    1    3    3  502    0 -0.10758425434E+04  0.37261679724E+02  0.87987400549E+01  0.10765235849E+04  0.50400001928E-02 0.  1.
       -1    1    3    3    0  502  0.10758425434E+04 -0.37261679724E+02  0.84578579612E+03  0.13690066559E+04  0.50400001928E-02 0. -1.
</event>
<event>
 5   0  0.8784659E-05  0.2225551E+04  0.7818609E-02  0.8507868E-01
        1   -1    0    0  501    0  0.00000000000E+00  0.00000000000E+00  0.16497216350E+04  0.16497216350E+04  0.50400001928E-02 0.  1.
       -1   -1    0    0    0  501  0.00000000000E+00  0.00000000000E+00 -0.75059259588E+03  0.75059259590E+03  0.50400001928E-02 0. -1.
    10030    2    1    2    0    0  0.00000000000E+00  0.00000000000E+00  0.89912903908E+03  0.24003142309E+04  0.22255505786E+04 0.  0.
        4    1    3    3  502    0 -0.16078911835E+03  0.38603298968E+03  0.15617505931E+04  0.16167687335E+04  0.12699999809E+01 0.  1.
       -4    1    3    3    0  502  0.16078911835E+03 -0.38603298968E+03 -0.66262155401E+03  0.78354549736E+03  0.12699999809E+01 0. -1.
</event>
<event>
 5   0  0.1798917E-04  0.2265800E+04  0.7818609E-02  0.8491529E-01
        2   -1    0    0  501    0  0.00000000000E+00  0.00000000000E+00  0.13562739498E+04  0.13562739498E+04  0.25500000920E-02 0.  1.
       -2   -1    0    0    0  501  0.00000000000E+00  0.00000000000E+00 -0.94631474635E+03  0.94631474636E+03  0.25500000920E-02 0. -1.
    10030    2    1    2    0    0  0.00000000000E+00  0.00000000000E+00  0.40995920346E+03  0.23025886962E+04  0.22657996724E+04 0.  0.
        4    1    3    3  502    0 -0.39007579593E+03 -0.20801286824E+03 -0.85504435897E+03  0.96256477632E+03  0.12699999809E+01 0. -1.
       -4    1    3    3    0  502  0.39007579593E+03  0.20801286824E+03  0.12650035624E+04  0.13400239198E+04  0.12699999809E+01 0.  1.
</event>
<event>
 5   0  0.1733962E-04  0.2205109E+04  0.7818609E-02  0.8516305E-01
        2   -1    0    0  501    0  0.00000000000E+00  0.00000000000E+00  0.16273227610E+04  0.16273227610E+04  0.25500000920E-02 0. -1.
       -2   -1    0    0    0  501  0.00000000000E+00  0.00000000000E+00 -0.74700969822E+03  0.74700969822E+03  0.25500000920E-02 0.  1.
    10030    2    1    2    0    0  0.00000000000E+00  0.00000000000E+00  0.88031306280E+03  0.23743324592E+04  0.22051085095E+04 0.  0.
        3    1    3    3  502    0 -0.75586764462E+03 -0.41694307886E+03  0.11786855837E+04  0.14609849905E+04  0.10100000352E+00 0. -1.
       -3    1    3    3    0  502  0.75586764462E+03  0.41694307886E+03 -0.29837252088E+03  0.91334746871E+03  0.10100000352E+00 0.  1.
</event>
<event>
 5   0  0.1680258E-04  0.2389747E+04  0.7818609E-02  0.8443352E-01
        2   -1    0    0  501    0  0.00000000000E+00  0.00000000000E+00  0.10221696301E+04  0.10221696301E+04  0.25500000920E-02 0.  1.
       -2   -1    0    0    0  501  0.00000000000E+00  0.00000000000E+00 -0.13967569777E+04  0.13967569777E+04  0.25500000920E-02 0. -1.
    10030    2    1    2    0    0  0.00000000000E+00  0.00000000000E+00 -0.37458734759E+03  0.24189266078E+04  0.23897469014E+04 0.  0.
        5    1    3    3  502    0 -0.49664456907E+03 -0.69320525736E+02 -0.12850820532E+04  0.13794633510E+04  0.46999998093E+01 0. -1.
       -5    1    3    3    0  502  0.49664456907E+03  0.69320525736E+02  0.91049470561E+03  0.10394632568E+04  0.46999998093E+01 0.  1.
</event>
<event>
 5   0  0.1680258E-04  0.1306738E+04  0.7818609E-02  0.9024239E-01
        2   -1    0    0  501    0  0.00000000000E+00  0.00000000000E+00  0.46803841363E+03  0.46803841364E+03  0.25500000920E-02 0. -1.
       -2   -1    0    0    0  501  0.00000000000E+00  0.00000000000E+00 -0.91208494446E+03  0.91208494446E+03  0.25500000920E-02 0.  1.
    10030    2    1    2    0    0  0.00000000000E+00  0.00000000000E+00 -0.44404653083E+03  0.13801233581E+04  0.13067376026E+04 0.  0.
        5    1    3    3  502    0 -0.32335332240E+03 -0.41506087712E+03 -0.63112089540E+03  0.82168642281E+03  0.46999998093E+01 0.  1.
       -5    1    3    3    0  502  0.32335332240E+03  0.41506087712E+03  0.18707436457E+03  0.55843693529E+03  0.46999998093E+01 0. -1.
</event>
<event>
 5   0  0.1680258E-04  0.2274776E+04  0.7818609E-02  0.8487934E-01
       -2   -1    0    0    0  501  0.00000000000E+00  0.00000000000E+00  0.72324228385E+03  0.72324228385E+03  0.25500000920E-02 0. -1.
        2   -1    0    0  501    0  0.00000000000E+00  0.00000000000E+00 -0.17886829916E+04  0.17886829916E+04  0.25500000920E-02 0.  1.
    10030    2    1    2    0    0  0.00000000000E+00  0.00000000000E+00 -0.10654407077E+04  0.25119252754E+04  0.22747757445E+04 0.  0.
        5    1    3    3  502    0 -0.89810046249E+03 -0.66692929734E+03 -0.75969703680E+03  0.13522354847E+04  0.46999998093E+01 0.  1.
       -5    1    3    3    0  502  0.89810046249E+03  0.66692929734E+03 -0.30574367091E+03  0.11596897907E+04  0.46999998093E+01 0. -1.
</event>
<event>
 5   0  0.7954459E-05  0.2224733E+04  0.7818609E-02  0.8508204E-01
        1   -1    0    0  501    0  0.00000000000E+00  0.00000000000E+00  0.94280164601E+03  0.94280164602E+03  0.50400001928E-02 0.  1.
       -1   -1    0    0    0  501  0.00000000000E+00  0.00000000000E+00 -0.13124275040E+04  0.13124275040E+04  0.50400001928E-02 0. -1.
    10030    2    1    2    0    0  0.00000000000E+00  0.00000000000E+00 -0.36962585795E+03  0.22552291500E+04  0.22247326231E+04 0.  0.
        5    1    3    3  502    0  0.12148188618E+03 -0.23478223033E+03  0.91048721998E+03  0.94809789162E+03  0.46999998093E+01 0.  1.
       -5    1    3    3    0  502 -0.12148188618E+03  0.23478223033E+03 -0.12801130779E+04  0.13071312584E+04  0.46999998093E+01 0. -1.
</event>
<event>
 5   0  0.1754356E-04  0.2247870E+04  0.7818609E-02  0.8498764E-01
        2   -1    0    0  501    0  0.00000000000E+00  0.00000000000E+00  0.20129925828E+04  0.20129925828E+04  0.25500000920E-02 0. -1.
       -2   -1    0    0    0  501  0.00000000000E+00  0.00000000000E+00 -0.62753830986E+03  0.62753830987E+03  0.25500000920E-02 0.  1.
    10030    2    1    2    0    0  0.00000000000E+00  0.00000000000E+00  0.13854542730E+04  0.26405308927E+04  0.22478700703E+04 0.  0.
        1    1    3    3  502    0  0.10382275591E+04  0.14025247103E+03  0.21464088459E+03  0.10694194357E+04  0.50400001928E-02 0.  1.
       -1    1    3    3    0  502 -0.10382275591E+04 -0.14025247103E+03  0.11708133884E+04  0.15711114570E+04  0.50400001928E-02 0. -1.
</event>
<event>
 5   0  0.8470971E-05  0.2150396E+04  0.7818609E-02  0.8539363E-01
       -1   -1    0    0    0  501  0.00000000000E+00  0.00000000000E+00  0.77024196074E+03  0.77024196076E+03  0.50400001928E-02 0.  1.
        1   -1    0    0  501    0  0.00000000000E+00  0.00000000000E+00 -0.15008932856E+04  0.15008932856E+04  0.50400001928E-02 0. -1.
    10030    2    1    2    0    0  0.00000000000E+00  0.00000000000E+00 -0.73065132488E+03  0.22711352464E+04  0.21503962307E+04 0.  0.
        2    1    3    3  502    0 -0.86302580844E+03  0.57835760487E+03 -0.72752029779E+02  0.10414431924E+04  0.25500000920E-02 0.  1.
       -2    1    3    3    0  502  0.86302580844E+03 -0.57835760487E+03 -0.65789929510E+03  0.12296920540E+04  0.25500000920E-02 0. -1.
</event>
<event>
 5   0  0.8470971E-05  0.1340537E+04  0.7818609E-02  0.8998022E-01
        1   -1    0    0  501    0  0.00000000000E+00  0.00000000000E+00  0.77247904626E+03  0.77247904628E+03  0.50400001928E-02 0.  1.
       -1   -1    0    0    0  501  0.00000000000E+00  0.00000000000E+00 -0.58158198396E+03  0.58158198398E+03  0.50400001928E-02 0. -1.
    10030    2    1    2    0    0  0.00000000000E+00  0.00000000000E+00  0.19089706230E+03  0.13540610303E+04  0.13405370511E+04 0.  0.
        2    1    3    3  502    0 -0.53374994021E+03  0.36706003770E+03  0.26934172818E+03  0.70154617559E+03  0.25500000920E-02 0.  1.
       -2    1    3    3    0  502  0.53374994021E+03 -0.36706003770E+03 -0.78444665877E+02  0.65251485466E+03  0.25500000920E-02 0. -1.
</event>
<event>
 5   0  0.8602414E-05  0.2184751E+04  0.7818609E-02  0.8524802E-01
        1   -1    0    0  501    0  0.00000000000E+00  0.00000000000E+00  0.30435473418E+04  0.30435473418E+04  0.50400001928E-02 0. -1.
       -1   -1    0    0    0  501  0.00000000000E+00  0.00000000000E+00 -0.39207029596E+03  0.39207029599E+03  0.50400001928E-02 0.  1.
    10030    2    1    2    0    0  0.00000000000E+00  0.00000000000E+00  0.26514770459E+04  0.34356176378E+04  0.21847512509E+04 0.  0.
        3    1    3    3  502    0 -0.13511744825E+03  0.30008840073E+03 -0.31225672453E+03  0.45366732887E+03  0.10100000352E+00 0.  1.
       -3    1    3    3    0  502  0.13511744825E+03 -0.30008840073E+03  0.29637337704E+04  0.29819503089E+04  0.10100000352E+00 0. -1.
</event>
<event>
 5   0  0.1754356E-04  0.2212099E+04  0.7818609E-02  0.8513409E-01
        2   -1    0    0  501    0  0.00000000000E+00  0.00000000000E+00  0.11159589433E+04  0.11159589433E+04  0.25500000920E-02 0. -1.
       -2   -1    0    0    0  501  0.00000000000E+00  0.00000000000E+00 -0.10962283630E+04  0.10962283630E+04  0.25500000920E-02 0.  1.
    10030    2    1    2    0    0  0.00000000000E+00  0.00000000000E+00  0.19730580300E+02  0.22121873063E+04  0.22120993156E+04 0.  0.
        1    1    3    3  502    0  0.53351590795E+03 -0.17576563528E+03  0.96269543477E+03  0.11145919804E+04  0.50400001928E-02 0. -1.
       -1    1    3    3    0  502 -0.53351590795E+03  0.17576563528E+03 -0.94296485447E+03  0.10975953259E+04  0.50400001928E-02 0.  1.
</event>
<event>
 5   0  0.8784659E-05  0.2144613E+04  0.7818609E-02  0.8541842E-01
       -1   -1    0    0    0  501  0.00000000000E+00  0.00000000000E+00  0.60274955166E+03  0.60274955168E+03  0.50400001928E-02 0. -1.
        1   -1    0    0  501    0  0.00000000000E+00  0.00000000000E+00 -0.19076592029E+04  0.19076592029E+04  0.50400001928E-02 0.  1.
    10030    2    1    2    0    0  0.00000000000E+00  0.00000000000E+00 -0.13049096512E+04  0.25104087545E+04  0.21446125331E+04 0.  0.
        4    1    3    3  502    0  0.65280430617E+03 -0.39479567564E+03 -0.15345221203E+04  0.17137026691E+04  0.12699999809E+01 0.  1.
       -4    1    3    3    0  502 -0.65280430617E+03  0.39479567564E+03  0.22961246909E+03  0.79670608541E+03  0.12699999809E+01 0. -1.
</event>
<event>
 5   0  0.8784659E-05  0.2213572E+04  0.7818609E-02  0.8512800E-01
       -1   -1    0    0    0  501  0.00000000000E+00  0.00000000000E+00  0.67551198769E+03  0.67551198771E+03  0.50400001928E-02 0.  1.
        1   -1    0    0  501    0  0.00000000000E+00  0.00000000000E+00 -0.18134030771E+04  0.18134030771E+04  0.50400001928E-02 0. -1.
    10030    2    1    2    0    0  0.00000000000E+00  0.00000000000E+00 -0.11378910894E+04  0.24889150648E+04  0.22135722415E+04 0.  0.
        4    1    3    3  502    0  0.46051796541E+03 -0.16529708446E+03 -0.16851943094E+04  0.17547881342E+04  0.12699999809E+01 0. -1.
       -4    1    3    3    0  502 -0.46051796541E+03  0.16529708446E+03  0.54730322005E+03  0.73412693056E+03  0.12699999809E+01 0.  1.
</event>
<event>
 5   0  0.7954459E-05  0.2102592E+04  0.7818609E-02  0.8560102E-01
       -1   -1    0    0    0  501  0.00000000000E+00  0.00000000000E+00  0.72815761057E+03  0.72815761059E+03  0.50400001928E-02 0.  1.
        1   -1    0    0  501    0  0.00000000000E+00  0.00000000000E+00 -0.15178357324E+04  0.15178357324E+04  0.50400001928E-02 0. -1.
    10030    2    1    2    0    0  0.00000000000E+00  0.00000000000E+00 -0.78967812185E+03  0.22459933430E+04  0.21025923430E+04 0.  0.
        5    1    3    3  502    0  0.75491563624E+03 -0.35630165411E+03  0.28776881569E+03  0.88299573489E+03  0.46999998093E+01 0.  1.
       -5    1    3    3    0  502 -0.75491563624E+03  0.35630165411E+03 -0.10774469375E+04  0.13629976081E+04  0.46999998093E+01 0. -1.
</event>
<event>
 5   0  0.1805501E-04  0.2197258E+04  0.7818609E-02  0.8519570E-01
       -2   -1    0    0    0  501  0.00000000000E+00  0.00000000000E+00  0.84018234663E+03  0.84018234663E+03  0.25500000920E-02 0.  1.
        2   -1    0    0  501    0  0.00000000000E+00  0.00000000000E+00 -0.14365755138E+04  0.14365755139E+04  0.25500000920E-02 0. -1.
    10030    2    1    2    0    0  0.00000000000E+00  0.00000000000E+00 -0.59639316722E+03  0.22767578605E+04  0.21972577330E+04 0.  0.
        2    1    3    3  502    0  0.60762708207E+03  0.70463091711E+03  0.30712323106E+03  0.97981634977E+03  0.25500000920E-02 0.  1.
       -2    1    3    3    0  502 -0.60762708207E+03 -0.70463091711E+03 -0.90351639829E+03  0.12969415107E+04  0.25500000920E-02 0. -1.
</event>
<event>
 5   0  0.1798917E-04  0.2237658E+04  0.7818609E-02  0.8502916E-01
       -2   -1    0    0    0  501  0.00000000000E+00  0.00000000000E+00  0.96177921718E+03  0.96177921719E+03  0.25500000920E-02 0.  1.
        2   -1    0    0  501    0  0.00000000000E+00  0.00000000000E+00 -0.13015234662E+04  0.13015234662E+04  0.25500000920E-02 0. -1.
    10030    2    1    2    0    0  0.00000000000E+00  0.00000000000E+00 -0.33974424904E+03  0.22633026834E+04  0.22376579010E+04 0.  0.
        4    1    3    3  502    0  0.55468099073E+03  0.77882837197E+03  0.41776118607E+03  0.10434417358E+04  0.12699999809E+01 0.  1.
       -4    1    3    3    0  502 -0.55468099073E+03 -0.77882837197E+03 -0.75750543512E+03  0.12198609476E+04  0.12699999809E+01 0. -1.
</event>
<event>
 5   0  0.1680258E-04  0.2183310E+04  0.7818609E-02  0.8525407E-01
       -2   -1    0    0    0  501  0.00000000000E+00  0.00000000000E+00  0.82145374617E+03  0.82145374618E+03  0.25500000920E-02 0.  1.
        2   -1    0    0  501    0  0.00000000000E+00  0.00000000000E+00 -0.14507339365E+04  0.14507339365E+04  0.25500000920E-02 0. -1.
    10030    2    1    2    0    0  0.00000000000E+00  0.00000000000E+00 -0.62928019036E+03  0.22721876827E+04  0.21833101721E+04 0.  0.
        5    1    3    3  502    0  0.24782799604E+03 -0.85187343431E+03  0.34732008598E+03  0.95276460672E+03  0.46999998093E+01 0.  1.
       -5    1    3    3    0  502 -0.24782799604E+03  0.85187343431E+03 -0.97660027635E+03  0.13194230760E+04  0.46999998093E+01 0. -1.
</event>
<event>
 5   0  0.1733962E-04  0.2034909E+04  0.7818609E-02  0.8590471E-01
       -2   -1    0    0    0  501  0.00000000000E+00  0.00000000000E+00  0.80959147321E+03  0.80959147321E+03  0.25500000920E-02 0. -1.
        2   -1    0    0  501    0  0.00000000000E+00  0.00000000000E+00 -0.12786863183E+04  0.12786863183E+04  0.25500000920E-02 0.  1.
    10030    2    1    2    0    0  0.00000000000E+00  0.00000000000E+00 -0.46909484509E+03  0.20882777915E+04  0.20349088827E+04 0.  0.
        3    1    3    3  502    0 -0.30422459937E+03 -0.80508755740E+03 -0.79145384558E+03  0.11692381202E+04  0.10100000352E+00 0.  1.
       -3    1    3    3    0  502  0.30422459937E+03  0.80508755740E+03  0.32235900050E+03  0.91903967126E+03  0.10100000352E+00 0. -1.
</event>
<event>
 5   0  0.1680258E-04  0.2192888E+04  0.7818609E-02  0.8521394E-01
       -2   -1    0    0    0  501  0.00000000000E+00  0.00000000000E+00  0.60645299212E+03  0.60645299213E+03  0.25500000920E-02 0. -1.
        2   -1    0    0  501    0  0.00000000000E+00  0.00000000000E+00 -0.19823283214E+04  0.19823283214E+04  0.25500000920E-02 0.  1.
    10030    2    1    2    0    0  0.00000000000E+00  0.00000000000E+00 -0.13758753292E+04  0.25887813135E+04  0.21928875410E+04 0.  0.
        5    1    3    3  502    0 -0.21460737659E+03 -0.51662133689E+03 -0.18011599380E+04  0.18860416602E+04  0.46999998093E+01 0.  1.
       -5    1    3    3    0  502  0.21460737659E+03  0.51662133689E+03  0.42528460877E+03  0.70273965327E+03  0.46999998093E+01 0. -1.
</event>
<event>
 5   0  0.1805501E-04  0.2172418E+04  0.7818609E-02  0.8529997E-01
       -2   -1    0    0    0  501  0.00000000000E+00  0.00000000000E+00  0.90315901907E+03  0.90315901908E+03  0.25500000920E-02 0.  1.
        2   -1    0    0  501    0  0.00000000000E+00  0.00000000000E+00 -0.13063596006E+04  0.13063596006E+04  0.25500000920E-02 0. -1.
    10030    2    1    2    0    0  0.00000000000E+00  0.00000000000E+00 -0.40320058152E+03  0.22095186197E+04  0.21724184269E+04 0.  0.
        2    1    3    3  502    0 -0.25428602017E+03  0.49023966242E+03 -0.11529101892E+04  0.12783576225E+04  0.25500000920E-02 0. -1.
       -2    1    3    3    0  502  0.25428602017E+03 -0.49023966242E+03  0.74970960771E+03  0.93116099713E+03  0.25500000920E-02 0.  1.
</event>
<event>
 5   0  0.8306787E-05  0.2212314E+04  0.7818609E-02  0.8513320E-01
       -1   -1    0    0    0  501  0.00000000000E+00  0.00000000000E+00  0.91025573029E+03  0.91025573030E+03  0.50400001928E-02 0. -1.
        1   -1    0    0  501    0  0.00000000000E+00  0.00000000000E+00 -0.13442198458E+04  0.13442198458E+04  0.50400001928E-02 0.  1.
    10030    2    1    2    0    0  0.00000000000E+00  0.00000000000E+00 -0.43396411554E+03  0.22544755761E+04  0.22123144600E+04 0.  0.
        1    1    3    3  502    0 -0.10870901471E+04 -0.20319866990E+03 -0.24042325995E+03  0.11317499862E+04  0.50400001928E-02 0.  1.
       -1    1    3    3    0  502  0.10870901471E+04  0.20319866990E+03 -0.19354085559E+03  0.11227255899E+04  0.50400001928E-02 0. -1.
</event>
<event>
 5   0  0.8784659E-05  0.2400067E+04  0.7818609E-02  0.8439478E-01
        1   -1    0    0  501    0  0.00000000000E+00  0.00000000000E+00  0.17080095638E+04  0.17080095638E+04  0.50400001928E-02 0.  1.
       -1   -1    0    0    0  501  0.00000000000E+00  0.00000000000E+00 -0.84313390391E+03  0.84313390393E+03  0.50400001928E-02 0. -1.
    10030    2    1    2    0    0  0.00000000000E+00  0.00000000000E+00  0.86487565988E+03  0.25511434677E+04  0.24000673086E+04 0.  0.
        4    1    3    3  502    0  0.96312976703E+03 -0.63109864555E+03  0.73270836070E+02  0.11538087696E+04  0.12699999809E+01 0. -1.
       -4    1    3    3    0  502 -0.96312976703E+03  0.63109864555E+03  0.79160482381E+03  0.13973346981E+04  0.12699999809E+01 0.  1.
</event>
<event>
 5   0  0.1798917E-04  0.2152676E+04  0.7818609E-02  0.8538388E-01
        2   -1    0    0  501    0  0.00000000000E+00  0.00000000000E+00  0.19100073735E+04  0.19100073735E+04  0.25500000920E-02 0. -1.
       -2   -1    0    0    0  501  0.00000000000E+00  0.00000000000E+00 -0.60654385739E+03  0.60654385740E+03  0.25500000920E-02 0.  1.
    10030    2    1    2    0    0  0.00000000000E+00  0.00000000000E+00  0.13034635161E+04  0.25165512309E+04  0.21526757675E+04 0.  0.
        4    1    3    3  502    0 -0.71054415470E+03 -0.75640986905E+03  0.98541417193E+03  0.14311085175E+04  0.12699999809E+01 0. -1.
       -4    1    3    3    0  502  0.71054415470E+03  0.75640986905E+03  0.31804934417E+03  0.10854427134E+04  0.12699999809E+01 0.  1.
</event>
<event>
 5   0  0.1798917E-04  0.2096491E+04  0.7818609E-02  0.8562791E-01
       -2   -1    0    0    0  501  0.00000000000E+00  0.00000000000E+00  0.68146035852E+03  0.68146035852E+03  0.25500000920E-02 0.  1.
        2   -1    0    0  501    0  0.00000000000E+00  0.00000000000E+00 -0.16124474769E+04  0.16124474769E+04  0.25500000920E-02 0. -1.
    10030    2    1    2    0    0  0.00000000000E+00  0.00000000000E+00 -0.93098711835E+03  0.22939078354E+04  0.20964913887E+04 0.  0.
        4    1    3    3  502    0  0.85825089139E+03 -0.46595706930E+03 -0.88229270849E+03  0.13161126925E+04  0.12699999809E+01 0. -1.
       -4    1    3    3    0  502 -0.85825089139E+03  0.46595706930E+03 -0.48694409856E+02  0.97779514289E+03  0.12699999809E+01 0.  1.
</event>
<event>
 5   0  0.8470971E-05  0.2189230E+04  0.7818609E-02  0.8522924E-01
       -1   -1    0    0    0  501  0.00000000000E+00  0.00000000000E+00  0.97364078508E+03  0.97364078509E+03  0.50400001928E-02 0.  1.
        1   -1    0    0  501    0  0.00000000000E+00  0.00000000000E+00 -0.12306203000E+04  0.12306203000E+04  0.50400001928E-02 0. -1.
    10030    2    1    2    0    0  0.00000000000E+00  0.00000000000E+00 -0.25697951487E+03  0.22042610851E+04  0.21892301067E+04 0.  0.
        2    1    3    3  502    0 -0.63089026700E+03  0.89447457047E+03 -0.13719951336E+03  0.11031459526E+04  0.25500000920E-02 0.  1.
       -2    1    3    3    0  502  0.63089026700E+03 -0.89447457047E+03 -0.11978000151E+03  0.11011151325E+04  0.25500000920E-02 0. -1.
</event>
<event>
 5   0  0.8470971E-05  0.2146031E+04  0.7818609E-02  0.8541233E-01
        1   -1    0    0  501    0  0.00000000000E+00  0.00000000000E+00  0.26356435694E+04  0.26356435694E+04  0.50400001928E-02 0.  1.
       -1   -1    0    0    0  501  0.00000000000E+00  0.00000000000E+00 -0.43684294944E+03  0.43684294947E+03  0.50400001928E-02 0. -1.
    10030    2    1    2    0    0  0.00000000000E+00  0.00000000000E+00  0.21988006199E+04  0.30724865188E+04  0.21460310441E+04 0.  0.
        2    1    3    3  502    0  0.87580183664E+03 -0.59326392358E+03  0.13569935899E+04  0.17205878481E+04  0.25500000920E-02 0. -1.
       -2    1    3    3    0  502 -0.87580183664E+03  0.59326392358E+03  0.84180703004E+03  0.13518986707E+04  0.25500000920E-02 0.  1.
</event>
<event>
 5   0  0.1805501E-04  0.2224065E+04  0.7818609E-02  0.8508478E-01
       -2   -1    0    0    0  501  0.00000000000E+00  0.00000000000E+00  0.12384793727E+04  0.12384793727E+04  0.25500000920E-02 0. -1.
        2   -1    0    0  501    0  0.00000000000E+00  0.00000000000E+00 -0.99849598609E+03  0.99849598609E+03  0.25500000920E-02 0.  1.
    10030    2    1    2    0    0  0.00000000000E+00  0.00000000000E+00  0.23998338657E+03  0.22369753588E+04  0.22240653610E+04 0.  0.
        2    1    3    3  502    0  0.29315908490E+03  0.10121246376E+04  0.47741079725E+03  0.11568317079E+04  0.25500000920E-02 0. -1.
       -2    1    3    3    0  502 -0.29315908490E+03 -0.10121246376E+04 -0.23742741068E+03  0.10801436508E+04  0.25500000920E-02 0.  1.
</event>
<event>
 5   0  0.1733962E-04  0.2199354E+04  0.7818609E-02  0.8518697E-01
        2   -1    0    0  501    0  0.00000000000E+00  0.00000000000E+00  0.21219637155E+04  0.21219637155E+04  0.25500000920E-02 0. -1.
       -2   -1    0    0    0  501  0.00000000000E+00  0.00000000000E+00 -0.56989180853E+03  0.56989180854E+03  0.25500000920E-02 0.  1.
    10030    2    1    2    0    0  0.00000000000E+00  0.00000000000E+00  0.15520719069E+04  0.26918555240E+04  0.21993542138E+04 0.  0.
        3    1    3    3  502    0 -0.88874225735E+02 -0.91517141743E+02  0.21128766232E+04  0.21167242736E+04  0.10100000352E+00 0. -1.
       -3    1    3    3    0  502  0.88874225735E+02  0.91517141743E+02 -0.56080471627E+03  0.57513125043E+03  0.10100000352E+00 0.  1.
</event>
<event>
 5   0  0.1805501E-04  0.2233762E+04  0.7818609E-02  0.8504506E-01
       -2   -1    0    0    0  501  0.00000000000E+00  0.00000000000E+00  0.60318563698E+03  0.60318563699E+03  0.25500000920E-02 0.  1.
        2   -1    0    0  501    0  0.00000000000E+00  0.00000000000E+00 -0.20680575571E+04  0.20680575571E+04  0.25500000920E-02 0. -1.
    10030    2    1    2    0    0  0.00000000000E+00  0.00000000000E+00 -0.14648719201E+04  0.26712431941E+04  0.22337615046E+04 0.  0.
        2    1    3    3  502    0 -0.69443781098E+03 -0.49591089389E+03 -0.15941543280E+04  0.18081757408E+04  0.25500000920E-02 0. -1.
       -2    1    3    3    0  502  0.69443781098E+03  0.49591089389E+03  0.12928240788E+03  0.86306745332E+03  0.25500000920E-02 0.  1.
</event>
<event>
 5   0  0.1754356E-04  0.2236327E+04  0.7818609E-02  0.8503458E-01
        2   -1    0    0  501    0  0.00000000000E+00  0.00000000000E+00  0.86717035076E+03  0.86717035076E+03  0.25500000920E-02 0. -1.
       -2   -1    0    0    0  501  0.00000000000E+00  0.00000000000E+00 -0.14418039792E+04  0.14418039792E+04  0.25500000920E-02 0.  1.
    10030    2    1    2    0    0  0.00000000000E+00  0.00000000000E+00 -0.57463362843E+03  0.23089743299E+04  0.22363270444E+04 0.  0.
        1    1    3    3  502    0 -0.24030759842E+02  0.71099619766E+03 -0.11780089693E+04  0.13761534080E+04  0.50400001928E-02 0.  1.
       -1    1    3    3    0  502  0.24030759842E+02 -0.71099619766E+03  0.60337534087E+03  0.93282092198E+03  0.50400001928E-02 0. -1.
</event>
<event>
 5   0  0.7954459E-05  0.2121372E+04  0.7818609E-02  0.8551887E-01
        1   -1    0    0  501    0  0.00000000000E+00  0.00000000000E+00  0.92403920277E+03  0.92403920279E+03  0.50400001928E-02 0.  1.
       -1   -1    0    0    0  501  0.00000000000E+00  0.00000000000E+00 -0.12175400092E+04  0.12175400092E+04  0.50400001928E-02 0. -1.
    10030    2    1    2    0    0  0.00000000000E+00  0.00000000000E+00 -0.29350080641E+03  0.21415792120E+04  0.21213719141E+04 0.  0.
        5    1    3    3  502    0 -0.58657863549E+03 -0.92534799465E+02 -0.10339823561E+04  0.11923836578E+04  0.46999998093E+01 0. -1.
       -5    1    3    3    0  502  0.58657863549E+03  0.92534799465E+02  0.74048154965E+03  0.94919555419E+03  0.46999998093E+01 0.  1.
</event>
<event>
 5   0  0.1680258E-04  0.2116274E+04  0.7818609E-02  0.8554108E-01
       -2   -1    0    0    0  501  0.00000000000E+00  0.00000000000E+00  0.95742759968E+03  0.95742759969E+03  0.25500000920E-02 0. -1.
        2   -1    0    0  501    0  0.00000000000E+00  0.00000000000E+00 -0.11694399893E+04  0.11694399893E+04  0.25500000920E-02 0.  1.
    10030    2    1    2    0    0  0.00000000000E+00  0.00000000000E+00 -0.21201238965E+03  0.21268675890E+04  0.21162741996E+04 0.  0.
        5    1    3    3  502    0  0.67928531146E+03  0.77119448938E+03 -0.35918497298E+03  0.10886713965E+04  0.46999998093E+01 0. -1.
       -5    1    3    3    0  502 -0.67928531146E+03 -0.77119448938E+03  0.14717258333E+03  0.10381961925E+04  0.46999998093E+01 0.  1.
</event>
<event>
 5   0  0.1798917E-04  0.2238530E+04  0.7818609E-02  0.8502560E-01
        2   -1    0    0  501    0  0.00000000000E+00  0.00000000000E+00  0.20682231042E+04  0.20682231042E+04  0.25500000920E-02 0. -1.
       -2   -1    0    0    0  501  0.00000000000E+00  0.00000000000E+00 -0.60571502466E+03  0.60571502467E+03  0.25500000920E-02 0.  1.
    10030    2    1    2    0    0  0.00000000000E+00  0.00000000000E+00  0.14625080796E+04  0.26739381289E+04  0.22385297037E+04 0.  0.
        4    1    3    3  502    0  0.21975008418E+03 -0.76339278885E+03  0.16730930444E+04  0.18521070697E+04  0.12699999809E+01 0. -1.
       -4    1    3    3    0  502 -0.21975008418E+03  0.76339278885E+03 -0.21058496482E+03  0.82183105920E+03  0.12699999809E+01 0.  1.
</event>
<event>
 5   0  0.1805501E-04  0.2203950E+04  0.7818609E-02  0.8516786E-01
        2   -1    0    0  501    0  0.00000000000E+00  0.00000000000E+00  0.14741876306E+04  0.14741876306E+04  0.25500000920E-02 0.  1.
       -2   -1    0    0    0  501  0.00000000000E+00  0.00000000000E+00 -0.82374121557E+03  0.82374121558E+03  0.25500000920E-02 0. -1.
    10030    2    1    2    0    0  0.00000000000E+00  0.00000000000E+00  0.65044641505E+03  0.22979288462E+04  0.22039501908E+04 0.  0.
        2    1    3    3  502    0 -0.53926105241E+03  0.67436635470E+03  0.10390909965E+04  0.13510301855E+04  0.25500000920E-02 0.  1.
       -2    1    3    3    0  502  0.53926105241E+03 -0.67436635470E+03 -0.38864458146E+03  0.94689866074E+03  0.25500000920E-02 0. -1.
</event>
<event>
 5   0  0.7954459E-05  0.2191482E+04  0.7818609E-02  0.8521982E-01
        1   -1    0    0  501    0  0.00000000000E+00  0.00000000000E+00  0.76430409824E+03  0.76430409826E+03  0.50400001928E-02 0. -1.
       -1   -1    0    0    0  501  0.00000000000E+00  0.00000000000E+00 -0.15709041329E+04  0.15709041329E+04  0.50400001928E-02 0.  1.
    10030    2    1    2    0    0  0.00000000000E+00  0.00000000000E+00 -0.80660003470E+03  0.23352082312E+04  0.21914821165E+04 0.  0.
        5    1    3    3  502    0  0.46146944487E+03  0.22575574433E+03  0.62801059962E+03  0.81138098812E+03  0.46999998093E+01 0. -1.
       -5    1    3    3    0  502 -0.46146944487E+03 -0.22575574433E+03 -0.14346106343E+04  0.15238272431E+04  0.46999998093E+01 0.  1.
</event>
<event>
 5   0  0.7954459E-05  0.2195019E+04  0.7818609E-02  0.8520504E-01
        1   -1    0    0  501    0  0.00000000000E+00  0.00000000000E+00  0.78499712960E+03  0.78499712962E+03  0.50400001928E-02 0. -1.
       -1   -1    0    0    0  501  0.00000000000E+00  0.00000000000E+00 -0.15344343489E+04  0.15344343489E+04  0.50400001928E-02 0.  1.
    10030    2    1    2    0    0  0.00000000000E+00  0.00000000000E+00 -0.74943721928E+03  0.23194314785E+04  0.21950185051E+04 0.  0.
        5    1    3    3  502    0  0.70398293942E+02  0.20793487582E+03  0.76154947709E+03  0.79257335839E+03  0.46999998093E+01 0. -1.
       -5    1    3    3    0  502 -0.70398293942E+02 -0.20793487582E+03 -0.15109866964E+04  0.15268581201E+04  0.46999998093E+01 0.  1.
</event>
<event>
 5   0  0.1754356E-04  0.2151948E+04  0.7818609E-02  0.8538699E-01
        2   -1    0    0  501    0  0.00000000000E+00  0.00000000000E+00  0.22011016512E+04  0.22011016512E+04  0.25500000920E-02 0. -1.
       -2   -1    0    0    0  501  0.00000000000E+00  0.00000000000E+00 -0.52597320733E+03  0.52597320734E+03  0.25500000920E-02 0.  1.
    10030    2    1    2    0    0  0.00000000000E+00  0.00000000000E+00  0.16751284439E+04  0.27270748585E+04  0.21519484150E+04 0.  0.
        1    1    3    3  502    0  0.10948243471E+02  0.94924284870E+02 -0.52058572371E+03  0.52928251402E+03  0.50400001928E-02 0.  1.
       -1    1    3    3    0  502 -0.10948243471E+02 -0.94924284870E+02  0.21957141676E+04  0.21977923445E+04  0.50400001928E-02 0. -1.
</event>
<event>
 5   0  0.1680258E-04  0.2122151E+04  0.7818609E-02  0.8551548E-01
       -2   -1    0    0    0  501  0.00000000000E+00  0.00000000000E+00  0.11906892315E+04  0.11906892315E+04  0.25500000920E-02 0. -1.
        2   -1    0    0  501    0  0.00000000000E+00  0.00000000000E+00 -0.94557140316E+03  0.94557140317E+03  0.25500000920E-02 0.  1.
    10030    2    1    2    0    0  0.00000000000E+00  0.00000000000E+00  0.24511782836E+03  0.21362606347E+04  0.21221514436E+04 0.  0.
        5    1    3    3  502    0  0.21937073432E+03 -0.82612413380E+03 -0.51031405570E+03  0.99551350014E+03  0.46999998093E+01 0.  1.
       -5    1    3    3    0  502 -0.21937073432E+03  0.82612413380E+03  0.75543188406E+03  0.11407471345E+04  0.46999998093E+01 0. -1.
</event>
<event>
 5   0  0.1680258E-04  0.2200685E+04  0.7818609E-02  0.8518143E-01
       -2   -1    0    0    0  501  0.00000000000E+00  0.00000000000E+00  0.60333233145E+03  0.60333233145E+03  0.25500000920E-02 0.  1.
        2   -1    0    0  501    0  0.00000000000E+00  0.00000000000E+00 -0.20067778056E+04  0.20067778056E+04  0.25500000920E-02 0. -1.
    10030    2    1    2    0    0  0.00000000000E+00  0.00000000000E+00 -0.14034454742E+04  0.26101101371E+04  0.22006852862E+04 0.  0.
        5    1    3    3  502    0  0.91096119078E+03  0.13212475127E+03  0.13280577119E+02  0.92060073035E+03  0.46999998093E+01 0.  1.
       -5    1    3    3    0  502 -0.91096119078E+03 -0.13212475127E+03 -0.14167260513E+04  0.16895094067E+04  0.46999998093E+01 0. -1.
</event>
<event>
 5   0  0.8784659E-05  0.2213806E+04  0.7818609E-02  0.8512704E-01
       -1   -1    0    0    0  501  0.00000000000E+00  0.00000000000E+00  0.75721084090E+03  0.75721084092E+03  0.50400001928E-02 0.  1.
        1   -1    0    0  501    0  0.00000000000E+00  0.00000000000E+00 -0.16180888249E+04  0.16180888249E+04  0.50400001928E-02 0. -1.
    10030    2    1    2    0    0  0.00000000000E+00  0.00000000000E+00 -0.86087798398E+03  0.23752996658E+04  0.22138061340E+04 0.  0.
        4    1    3    3  502    0  0.78610349500E+03  0.76395307164E+03 -0.59544221673E+03  0.12474518215E+04  0.12699999809E+01 0.  1.
       -4    1    3    3    0  502 -0.78610349500E+03 -0.76395307164E+03 -0.26543576725E+03  0.11278478443E+04  0.12699999809E+01 0. -1.
</event>
<event>
 5   0  0.8784659E-05  0.1992387E+04  0.7818609E-02  0.8610188E-01
       -1   -1    0    0    0  501  0.00000000000E+00  0.00000000000E+00  0.64898981728E+03  0.64898981730E+03  0.50400001928E-02 0.  1.
        1   -1    0    0  501    0  0.00000000000E+00  0.00000000000E+00 -0.15291486831E+04  0.15291486831E+04  0.50400001928E-02 0. -1.
    10030    2    1    2    0    0  0.00000000000E+00  0.00000000000E+00 -0.88015886581E+03  0.21781385004E+04  0.19923874367E+04 0.  0.
        4    1    3    3  502    0  0.52810003550E+03 -0.72850966811E+03 -0.90747132536E+03  0.12779365412E+04  0.12699999809E+01 0. -1.
       -4    1    3    3    0  502 -0.52810003550E+03  0.72850966811E+03  0.27312459554E+02  0.90020195922E+03  0.12699999809E+01 0.  1.
</event>
<event>
 5   0  0.8470971E-05  0.2214163E+04  0.7818609E-02  0.8512556E-01
        1   -1    0    0  501    0  0.00000000000E+00  0.00000000000E+00  0.92230985668E+03  0.92230985669E+03  0.50400001928E-02 0.  1.
       -1   -1    0    0    0  501  0.00000000000E+00  0.00000000000E+00 -0.13288693013E+04  0.13288693013E+04  0.50400001928E-02 0. -1.
    10030    2    1    2    0    0  0.00000000000E+00  0.00000000000E+00 -0.40655944460E+03  0.22511791580E+04  0.22141628258E+04 0.  0.
        2    1    3    3  502    0 -0.82376779304E+03 -0.69087548836E+03  0.65193391508E+02  0.10771037534E+04  0.25500000920E-02 0.  1.
       -2    1    3    3    0  502  0.82376779304E+03  0.69087548836E+03 -0.47175283611E+03  0.11740754046E+04  0.25500000920E-02 0. -1.
</event>
<event>
 5   0  0.1754356E-04  0.2178700E+04  0.7818609E-02  0.8527346E-01
        2   -1    0    0  501    0  0.00000000000E+00  0.00000000000E+00  0.13718636826E+04  0.13718636826E+04  0.25500000920E-02 0.  1.
       -2   -1    0    0    0  501  0.00000000000E+00  0.00000000000E+00 -0.86501583813E+03  0.86501583813E+03  0.25500000920E-02 0. -1.
    10030    2    1    2    0    0  0.00000000000E+00  0.00000000000E+00  0.50684784445E+03  0.22368795207E+04  0.21787003586E+04 0.  0.
        1    1    3    3  502    0  0.91523133056E+03  0.20582971611E+03  0.82198931071E+03  0.12472692923E+04  0.50400001928E-02 0. -1.
       -1    1    3    3    0  502 -0.91523133056E+03 -0.20582971611E+03 -0.31514146626E+03  0.98961022845E+03  0.50400001928E-02 0.  1.
</event>
<event>
 5   0  0.1680258E-04  0.2115576E+04  0.7818609E-02  0.8554413E-01
        2   -1    0    0  501    0  0.00000000000E+00  0.00000000000E+00  0.17955379140E+04  0.17955379140E+04  0.25500000920E-02 0. -1.
       -2   -1    0    0    0  501  0.00000000000E+00  0.00000000000E+00 -0.62316428020E+03  0.62316428021E+03  0.25500000920E-02 0.  1.
    10030    2    1    2    0    0  0.00000000000E+00  0.00000000000E+00  0.11723736338E+04  0.24187021942E+04  0.21155756585E+04 0.  0.
        5    1    3    3  502    0  0.31689907101E+03  0.95312476647E+03  0.96540743965E+03  0.13931638296E+04  0.46999998093E+01 0. -1.
       -5    1    3    3    0  502 -0.31689907101E+03 -0.95312476647E+03  0.20696619413E+03  0.10255383646E+04  0.46999998093E+01 0.  1.
</event>
<event>
 5   0  0.1733962E-04  0.2233510E+04  0.7818609E-02  0.8504609E-01
       -2   -1    0    0    0  501  0.00000000000E+00  0.00000000000E+00  0.72302863568E+03  0.72302863568E+03  0.25500000920E-02 0.  1.
        2   -1    0    0  501    0  0.00000000000E+00  0.00000000000E+00 -0.17248849571E+04  0.17248849571E+04  0.25500000920E-02 0. -1.
    10030    2    1    2    0    0  0.00000000000E+00  0.00000000000E+00 -0.10018563214E+04  0.24479135928E+04  0.22335095408E+04 0.  0.
        3    1    3    3  502    0 -0.12578641332E+03  0.11033374665E+04 -0.37140862524E+03  0.11709484036E+04  0.10100000352E+00 0.  1.
       -3    1    3    3    0  502  0.12578641332E+03 -0.11033374665E+04 -0.63044769621E+03  0.12769651893E+04  0.10100000352E+00 0. -1.
</event>
<event>
 5   0  0.8306787E-05  0.2196731E+04  0.7818609E-02  0.8519790E-01
        1   -1    0    0  501    0  0.00000000000E+00  0.00000000000E+00  0.66780240895E+03  0.66780240897E+03  0.50400001928E-02 0. -1.
       -1   -1    0    0    0  501  0.00000000000E+00  0.00000000000E+00 -0.18065321834E+04  0.18065321834E+04  0.50400001928E-02 0.  1.
    10030    2    1    2    0    0  0.00000000000E+00  0.00000000000E+00 -0.11387297745E+04  0.24743345924E+04  0.21967307928E+04 0.  0.
        1    1    3    3  502    0  0.97589474035E+03  0.44580461230E+03 -0.30450172216E+03  0.11152728793E+04  0.50400001928E-02 0. -1.
       -1    1    3    3    0  502 -0.97589474035E+03 -0.44580461230E+03 -0.83422805230E+03  0.13590617130E+04  0.50400001928E-02 0.  1.
</event>
<event>
 5   0  0.1754356E-04  0.2219967E+04  0.7818609E-02  0.8510163E-01
       -2   -1    0    0    0  501  0.00000000000E+00  0.00000000000E+00  0.67547473467E+03  0.67547473467E+03  0.25500000920E-02 0. -1.
        2   -1    0    0  501    0  0.00000000000E+00  0.00000000000E+00 -0.18239963310E+04  0.18239963310E+04  0.25500000920E-02 0.  1.
    10030    2    1    2    0    0  0.00000000000E+00  0.00000000000E+00 -0.11485215963E+04  0.24994710656E+04  0.22199670607E+04 0.  0.
        1    1    3    3  502    0  0.63117314680E+03  0.78490269811E+03 -0.10994824908E+04  0.14910779773E+04  0.50400001928E-02 0.  1.
       -1    1    3    3    0  502 -0.63117314680E+03 -0.78490269811E+03 -0.49039105506E+02  0.10083930884E+04  0.50400001928E-02 0. -1.
</event>
<event>
 5   0  0.8784659E-05  0.2232791E+04  0.7818609E-02  0.8504902E-01
       -1   -1    0    0    0  501  0.00000000000E+00  0.00000000000E+00  0.28024161305E+04  0.28024161305E+04  0.50400001928E-02 0.  1.
        1   -1    0    0  501    0  0.00000000000E+00  0.00000000000E+00 -0.44473746553E+03  0.44473746556E+03  0.50400001928E-02 0. -1.
    10030    2    1    2    0    0  0.00000000000E+00  0.00000000000E+00  0.23576786650E+04  0.32471535961E+04  0.22327914791E+04 0.  0.
        4    1    3    3  502    0  0.47855514692E+03 -0.13690343530E+03  0.26321088129E+04  0.26787601600E+04  0.12699999809E+01 0.  1.
       -4    1    3    3    0  502 -0.47855514692E+03  0.13690343530E+03 -0.27443014785E+03  0.56839343609E+03  0.12699999809E+01 0. -1.
</event>
<event>
 5   0  0.1733962E-04  0.2281757E+04  0.7818609E-02  0.8485149E-01
       -2   -1    0    0    0  501  0.00000000000E+00  0.00000000000E+00  0.17906449554E+04  0.17906449554E+04  0.25500000920E-02 0.  1.
        2   -1    0    0  501    0  0.00000000000E+00  0.00000000000E+00 -0.72689115055E+03  0.72689115055E+03  0.25500000920E-02 0. -1.
    10030    2    1    2    0    0  0.00000000000E+00  0.00000000000E+00  0.10637538048E+04  0.25175361059E+04  0.22817571929E+04 0.  0.
        3    1    3    3  502    0 -0.61289525083E+03 -0.11737075097E+03 -0.52189917025E+03  0.81350798139E+03  0.10100000352E+00 0. -1.
       -3    1    3    3    0  502  0.61289525083E+03  0.11737075097E+03  0.15856529751E+04  0.17040281245E+04  0.10100000352E+00 0.  1.
</event>
<event>
 5   0  0.1798917E-04  0.2062770E+04  0.7818609E-02  0.8577823E-01
        2   -1    0    0  501    0  0.00000000000E+00  0.00000000000E+00  0.56572691153E+03  0.56572691154E+03  0.25500000920E-02 0. -1.
       -2   -1    0    0    0  501  0.00000000000E+00  0.00000000000E+00 -0.18803330483E+04  0.18803330483E+04  0.25500000920E-02 0.  1.
    10030    2    1    2    0    0  0.00000000000E+00  0.00000000000E+00 -0.13146061367E+04  0.24460599598E+04  0.20627699901E+04 0.  0.
        4    1    3    3  502    0  0.19368301682E+03 -0.91826035736E+03 -0.14997701878E+03  0.95037356548E+03  0.12699999809E+01 0. -1.
       -4    1    3    3    0  502 -0.19368301682E+03  0.91826035736E+03 -0.11646291180E+04  0.14956863943E+04  0.12699999809E+01 0.  1.
</event>
<event>
 5   0  0.8306787E-05  0.2176035E+04  0.7818609E-02  0.8528470E-01
        1   -1    0    0  501    0  0.00000000000E+00  0.00000000000E+00  0.15575202068E+04  0.15575202068E+04  0.50400001928E-02 0. -1.
       -1   -1    0    0    0  501  0.00000000000E+00  0.00000000000E+00 -0.76004274930E+03  0.76004274931E+03  0.50400001928E-02 0.  1.
    10030    2    1    2    0    0  0.00000000000E+00  0.00000000000E+00  0.79747745751E+03  0.23175629561E+04  0.21760348711E+04 0.  0.
        1    1    3    3  502    0 -0.90446647392E+03  0.31488195683E+03  0.94862477995E+03  0.13479982279E+04  0.50400001928E-02 0. -1.
       -1    1    3    3    0  502  0.90446647392E+03 -0.31488195683E+03 -0.15114732244E+03  0.96956472826E+03  0.50400001928E-02 0.  1.
</event>
<event>
 5   0  0.1754356E-04  0.2121171E+04  0.7818609E-02  0.8551974E-01
        2   -1    0    0  501    0  0.00000000000E+00  0.00000000000E+00  0.14937170958E+04  0.14937170958E+04  0.25500000920E-02 0. -1.
       -2   -1    0    0    0  501  0.00000000000E+00  0.00000000000E+00 -0.75304897416E+03  0.75304897417E+03  0.25500000920E-02 0.  1.
    10030    2    1    2    0    0  0.00000000000E+00  0.00000000000E+00  0.74066812168E+03  0.22467660700E+04  0.21211714940E+04 0.  0.
        1    1    3    3  502    0 -0.71998285017E+02  0.11643953841E+01 -0.75045679196E+03  0.75390351205E+03  0.50400001928E-02 0.  1.
       -1    1    3    3    0  502  0.71998285017E+02 -0.11643953841E+01  0.14911249136E+04  0.14928625580E+04  0.50400001928E-02 0. -1.
</event>
<event>
 5   0  0.7954459E-05  0.2153722E+04  0.7818609E-02  0.8537941E-01
        1   -1    0    0  501    0  0.00000000000E+00  0.00000000000E+00  0.16288061415E+04  0.16288061415E+04  0.50400001928E-02 0. -1.
       -1   -1    0    0    0  501  0.00000000000E+00  0.00000000000E+00 -0.71195078673E+03  0.71195078675E+03  0.50400001928E-02 0.  1.
    10030    2    1    2    0    0  0.00000000000E+00  0.00000000000E+00  0.91685535479E+03  0.23407569283E+04  0.21537221863E+04 0.  0.
        5    1    3    3  502    0 -0.10492617246E+04 -0.16271325719E+03  0.26345541354E+03  0.10940094221E+04  0.46999998093E+01 0. -1.
       -5    1    3    3    0  502  0.10492617246E+04  0.16271325719E+03  0.65339994124E+03  0.12467475061E+04  0.46999998093E+01 0.  1.
</event>
<event>
 5   0  0.7954459E-05  0.2198540E+04  0.7818609E-02  0.8519036E-01
       -1   -1    0    0    0  501  0.00000000000E+00  0.00000000000E+00  0.66900824992E+03  0.66900824994E+03  0.50400001928E-02 0.  1.
        1   -1    0    0  501    0  0.00000000000E+00  0.00000000000E+00 -0.18062475372E+04  0.18062475372E+04  0.50400001928E-02 0. -1.
    10030    2    1    2    0    0  0.00000000000E+00  0.00000000000E+00 -0.11372392873E+04  0.24752557872E+04  0.21985399736E+04 0.  0.
        5    1    3    3  502    0 -0.34160475574E+03  0.14183743606E+03 -0.17340709052E+04  0.17730864789E+04  0.46999998093E+01 0. -1.
       -5    1    3    3    0  502  0.34160475574E+03 -0.14183743606E+03  0.59683161788E+03  0.70216930829E+03  0.46999998093E+01 0.  1.
</event>
<event>
 5   0  0.8306787E-05  0.2246306E+04  0.7818609E-02  0.8499398E-01
       -1   -1    0    0    0  501  0.00000000000E+00  0.00000000000E+00  0.14714692651E+04  0.14714692651E+04  0.50400001928E-02 0.  1.
        1   -1    0    0  501    0  0.00000000000E+00  0.00000000000E+00 -0.85728759242E+03  0.85728759243E+03  0.50400001928E-02 0. -1.
    10030    2    1    2    0    0  0.00000000000E+00  0.00000000000E+00  0.61418167270E+03  0.23287568576E+04  0.22463057171E+04 0.  0.
        1    1    3    3  502    0 -0.45977540311E+03  0.34803806824E+03 -0.69210608167E+03  0.90085223348E+03  0.50400001928E-02 0. -1.
       -1    1    3    3    0  502  0.45977540311E+03 -0.34803806824E+03  0.13062877544E+04  0.14279046241E+04  0.50400001928E-02 0.  1.
</event>
<event>
 5   0  0.8602414E-05  0.2141801E+04  0.7818609E-02  0.8543050E-01
        1   -1    0    0  501    0  0.00000000000E+00  0.00000000000E+00  0.10848318242E+04  0.10848318242E+04  0.50400001928E-02 0. -1.
       -1   -1    0    0    0  501  0.00000000000E+00  0.00000000000E+00 -0.10571483012E+04  0.10571483012E+04  0.50400001928E-02 0.  1.
    10030    2    1    2    0    0  0.00000000000E+00  0.00000000000E+00  0.27683522999E+02  0.21419801255E+04  0.21418012234E+04 0.  0.
        3    1    3    3  502    0  0.72965972618E+03 -0.31987799911E+03 -0.70183163735E+03  0.10617405087E+04  0.10100000352E+00 0.  1.
       -3    1    3    3    0  502 -0.72965972618E+03  0.31987799911E+03  0.72951516035E+03  0.10802396168E+04  0.10100000352E+00 0. -1.
</event>
<event>
 5   0  0.8602414E-05  0.1789361E+04  0.7818609E-02  0.8711978E-01
        1   -1    0    0  501    0  0.00000000000E+00  0.00000000000E+00  0.25422681421E+04  0.25422681421E+04  0.50400001928E-02 0. -1.
       -1   -1    0    0    0  501  0.00000000000E+00  0.00000000000E+00 -0.31485776604E+03  0.31485776608E+03  0.50400001928E-02 0.  1.
    10030    2    1    2    0    0  0.00000000000E+00  0.00000000000E+00  0.22274103760E+04  0.28571259081E+04  0.17893606321E+04 0.  0.
        3    1    3    3  502    0 -0.36596615258E+01  0.86280786006E+03  0.14915674389E+04  0.17231437060E+04  0.10100000352E+00 0.  1.
       -3    1    3    3    0  502  0.36596615258E+01 -0.86280786006E+03  0.73584293715E+03  0.11339822022E+04  0.10100000352E+00 0. -1.
</event>
<event>
 5   0  0.8784659E-05  0.2074389E+04  0.7818609E-02  0.8572610E-01
       -1   -1    0    0    0  501  0.00000000000E+00  0.00000000000E+00  0.12070834794E+04  0.12070834794E+04  0.50400001928E-02 0. -1.
        1   -1    0    0  501    0  0.00000000000E+00  0.00000000000E+00 -0.89121660548E+03  0.89121660549E+03  0.50400001928E-02 0.  1.
    10030    2    1    2    0    0  0.00000000000E+00  0.00000000000E+00  0.31586687391E+03  0.20983000849E+04  0.20743893955E+04 0.  0.
        4    1    3    3  502    0  0.78238806350E+03  0.62876501089E+03 -0.10641140386E+03  0.10093569837E+04  0.12699999809E+01 0.  1.
       -4    1    3    3    0  502 -0.78238806350E+03 -0.62876501089E+03  0.42227827777E+03  0.10889431012E+04  0.12699999809E+01 0. -1.
</event>
<event>
 5   0  0.8602414E-05  0.2098726E+04  0.7818609E-02  0.8561805E-01
        1   -1    0    0  501    0  0.00000000000E+00  0.00000000000E+00  0.24173679961E+04  0.24173679961E+04  0.50400001928E-02 0.  1.
       -1   -1    0    0    0  501  0.00000000000E+00  0.00000000000E+00 -0.45552142005E+03  0.45552142008E+03  0.50400001928E-02 0. -1.
    10030    2    1    2    0    0  0.00000000000E+00  0.00000000000E+00  0.19618465761E+04  0.28728894162E+04  0.20987261874E+04 0.  0.
        3    1    3    3  502    0 -0.66448373218E+03 -0.41939512337E+03  0.28860625994E+02  0.78629755549E+03  0.10100000352E+00 0. -1.
       -3    1    3    3    0  502  0.66448373218E+03  0.41939512337E+03  0.19329859501E+04  0.20865918607E+04  0.10100000352E+00 0.  1.
</event>
<event>
 5   0  0.8306787E-05  0.1996386E+04  0.7818609E-02  0.8608312E-01
       -1   -1    0    0    0  501  0.00000000000E+00  0.00000000000E+00  0.18096249893E+04  0.18096249893E+04  0.50400001928E-02 0. -1.
        1   -1    0    0  501    0  0.00000000000E+00  0.00000000000E+00 -0.55060519591E+03  0.55060519594E+03  0.50400001928E-02 0.  1.
    10030    2    1    2    0    0  0.00000000000E+00  0.00000000000E+00  0.12590197933E+04  0.23602301852E+04  0.19963856559E+04 0.  0.
        1    1    3    3  502    0 -0.67881391490E+03  0.64696435254E+03  0.22505244543E+03  0.96436497641E+03  0.50400001928E-02 0.  1.
       -1    1    3    3    0  502  0.67881391490E+03 -0.64696435254E+03  0.10339673479E+04  0.13958652088E+04  0.50400001928E-02 0. -1.
</event>
<event>
 5   0  0.7954459E-05  0.2211549E+04  0.7818609E-02  0.8513637E-01
       -1   -1    0    0    0  501  0.00000000000E+00  0.00000000000E+00  0.70379831909E+03  0.70379831911E+03  0.50400001928E-02 0. -1.
        1   -1    0    0  501    0  0.00000000000E+00  0.00000000000E+00 -0.17373398828E+04  0.17373398828E+04  0.50400001928E-02 0.  1.
    10030    2    1    2    0    0  0.00000000000E+00  0.00000000000E+00 -0.10335415637E+04  0.24411382019E+04  0.22115486784E+04 0.  0.
        5    1    3    3  502    0 -0.92371214546E+03 -0.44211270387E+03 -0.97721737037E+03  0.14155153300E+04  0.46999998093E+01 0.  1.
       -5    1    3    3    0  502  0.92371214546E+03  0.44211270387E+03 -0.56324193351E+02  0.10256228719E+04  0.46999998093E+01 0. -1.
</event>
<event>
 5   0  0.1733962E-04  0.1958232E+04  0.7818609E-02  0.8626401E-01
       -2   -1    0    0    0  501  0.00000000000E+00  0.00000000000E+00  0.45930288392E+03  0.45930288393E+03  0.25500000920E-02 0. -1.
        2   -1    0    0  501    0  0.00000000000E+00  0.00000000000E+00 -0.20872239985E+04  0.20872239985E+04  0.25500000920E-02 0.  1.
    10030    2    1    2    0    0  0.00000000000E+00  0.00000000000E+00 -0.16279211145E+04  0.25465268824E+04  0.19582318575E+04 0.  0.
        3    1    3    3  502    0 -0.24132286734E+03  0.69192496734E+03  0.30483871055E+02  0.73343449832E+03  0.10100000352E+00 0. -1.
       -3    1    3    3    0  502  0.24132286734E+03 -0.69192496734E+03 -0.16584049856E+04  0.18130923841E+04  0.10100000352E+00 0.  1.
</event>
<event>
 5   0  0.1805501E-04  0.2183892E+04  0.7818609E-02  0.8525163E-01
        2   -1    0    0  501    0  0.00000000000E+00  0.00000000000E+00  0.22443745141E+04  0.22443745141E+04  0.25500000920E-02 0.  1.
       -2   -1    0    0    0  501  0.00000000000E+00  0.00000000000E+00 -0.53125982794E+03  0.53125982795E+03  0.25500000920E-02 0. -1.
    10030    2    1    2    0    0  0.00000000000E+00  0.00000000000E+00  0.17131146862E+04  0.27756343421E+04  0.21838919554E+04 0.  0.
        2    1    3    3  502    0 -0.50332376331E+03  0.74013714625E+03  0.16514986879E+04  0.18784530130E+04  0.25500000920E-02 0.  1.
       -2    1    3    3    0  502  0.50332376331E+03 -0.74013714625E+03  0.61615998297E+02  0.89718132907E+03  0.25500000920E-02 0. -1.
</event>
<event>
 5   0  0.7954459E-05  0.2195773E+04  0.7818609E-02  0.8520190E-01
        1   -1    0    0  501    0  0.00000000000E+00  0.00000000000E+00  0.17454763724E+04  0.17454763725E+04  0.50400001928E-02 0. -1.
       -1   -1    0    0    0  501  0.00000000000E+00  0.00000000000E+00 -0.69055920695E+03  0.69055920696E+03  0.50400001928E-02 0.  1.
    10030    2    1    2    0    0  0.00000000000E+00  0.00000000000E+00  0.10549171655E+04  0.24360355794E+04  0.21957730115E+04 0.  0.
        5    1    3    3  502    0 -0.43516662342E+03  0.55176630924E+03  0.14632708086E+04  0.16232681847E+04  0.46999998093E+01 0. -1.
       -5    1    3    3    0  502  0.43516662342E+03 -0.55176630924E+03 -0.40835364307E+03  0.81276739474E+03  0.46999998093E+01 0.  1.
</event>
<event>
 5   0  0.1733962E-04  0.2208422E+04  0.7818609E-02  0.8514931E-01
       -2   -1    0    0    0  501  0.00000000000E+00  0.00000000000E+00  0.96584339244E+03  0.96584339244E+03  0.25500000920E-02 0.  1.
        2   -1    0    0  501    0  0.00000000000E+00  0.00000000000E+00 -0.12624007334E+04  0.12624007334E+04  0.25500000920E-02 0. -1.
    10030    2    1    2    0    0  0.00000000000E+00  0.00000000000E+00 -0.29655734095E+03  0.22282441258E+04  0.22084215240E+04 0.  0.
        3    1    3    3  502    0 -0.15359382872E+03  0.99012862160E+03  0.31992925627E+03  0.10518082006E+04  0.10100000352E+00 0.  1.
       -3    1    3    3    0  502  0.15359382872E+03 -0.99012862160E+03 -0.61648659722E+03  0.11764359253E+04  0.10100000352E+00 0. -1.
</event>
<event>
 5   0  0.1754356E-04  0.2129840E+04  0.7818609E-02  0.8548212E-01
       -2   -1    0    0    0  501  0.00000000000E+00  0.00000000000E+00  0.54923288474E+03  0.54923288475E+03  0.25500000920E-02 0.  1.
        2   -1    0    0  501    0  0.00000000000E+00  0.00000000000E+00 -0.20647966338E+04  0.20647966338E+04  0.25500000920E-02 0. -1.
    10030    2    1    2    0    0  0.00000000000E+00  0.00000000000E+00 -0.15155637491E+04  0.26140295186E+04  0.21298396293E+04 0.  0.
        1    1    3    3  502    0 -0.86172831311E+03  0.46818905451E+03 -0.12672041235E+04  0.16023679250E+04  0.50400001928E-02 0. -1.
       -1    1    3    3    0  502  0.86172831311E+03 -0.46818905451E+03 -0.24835962564E+03  0.10116615936E+04  0.50400001928E-02 0.  1.
</event>
<event>
 5   0  0.1798917E-04  0.2208026E+04  0.7818609E-02  0.8515095E-01
       -2   -1    0    0    0  501  0.00000000000E+00  0.00000000000E+00  0.11320889144E+04  0.11320889144E+04  0.25500000920E-02 0. -1.
        2   -1    0    0  501    0  0.00000000000E+00  0.00000000000E+00 -0.10766336254E+04  0.10766336254E+04  0.25500000920E-02 0.  1.
    10030    2    1    2    0    0  0.00000000000E+00  0.00000000000E+00  0.55455288972E+02  0.22087225398E+04  0.22080262608E+04 0.  0.
        4    1    3    3  502    0  0.41411277030E+03 -0.29133938213E+03 -0.95364000667E+03  0.10797216759E+04  0.12699999809E+01 0.  1.
       -4    1    3    3    0  502 -0.41411277030E+03  0.29133938213E+03  0.10090952956E+04  0.11290008639E+04  0.12699999809E+01 0. -1.
</event>
<event>
 5   0  0.1805501E-04  0.2163842E+04  0.7818609E-02  0.8533630E-01
       -2   -1    0    0    0  501  0.00000000000E+00  0.00000000000E+00  0.82533622067E+03  0.82533622067E+03  0.25500000920E-02 0. -1.
        2   -1    0    0  501    0  0.00000000000E+00  0.00000000000E+00 -0.14182743709E+04  0.14182743709E+04  0.25500000920E-02 0.  1.
    10030    2    1    2    0    0  0.00000000000E+00  0.00000000000E+00 -0.59293815023E+03  0.22436105916E+04  0.21638421469E+04 0.  0.
        2    1    3    3  502    0 -0.58808247376E+02  0.65195851403E+03  0.59670682594E+03  0.88575806522E+03  0.25500000920E-02 0. -1.
       -2    1    3    3    0  502  0.58808247376E+02 -0.65195851403E+03 -0.11896449762E+04  0.13578525264E+04  0.25500000920E-02 0.  1.
</event>
<event>
 5   0  0.7954459E-05  0.2177632E+04  0.7818609E-02  0.8527796E-01
        1   -1    0    0  501    0  0.00000000000E+00  0.00000000000E+00  0.15301236858E+04  0.15301236858E+04  0.50400001928E-02 0.  1.
       -1   -1    0    0    0  501  0.00000000000E+00  0.00000000000E+00 -0.77478695346E+03  0.77478695348E+03  0.50400001928E-02 0. -1.
    10030    2    1    2    0    0  0.00000000000E+00  0.00000000000E+00  0.75533673232E+03  0.23049106393E+04  0.21776316208E+04 0.  0.
        5    1    3    3  502    0  0.25468158507E+03  0.19671820582E+03 -0.72328942266E+03  0.79166308567E+03  0.46999998093E+01 0. -1.
       -5    1    3    3    0  502 -0.25468158507E+03 -0.19671820582E+03  0.14786261550E+04  0.15132475536E+04  0.46999998093E+01 0.  1.
</event>
<event>
 5   0  0.1805501E-04  0.2192323E+04  0.7818609E-02  0.8521630E-01
        2   -1    0    0  501    0  0.00000000000E+00  0.00000000000E+00  0.17498617358E+04  0.17498617358E+04  0.25500000920E-02 0.  1.
       -2   -1    0    0    0  501  0.00000000000E+00  0.00000000000E+00 -0.68666562635E+03  0.68666562636E+03  0.25500000920E-02 0. -1.
    10030    2    1    2    0    0  0.00000000000E+00  0.00000000000E+00  0.10631961094E+04  0.24365273621E+04  0.21923228821E+04 0.  0.
        2    1    3    3  502    0  0.10704165178E+04  0.20266468407E+03  0.66637181007E+03  0.12770731714E+04  0.25500000920E-02 0.  1.
       -2    1    3    3    0  502 -0.10704165178E+04 -0.20266468407E+03  0.39682429933E+03  0.11594541907E+04  0.25500000920E-02 0. -1.
</event>
<event>
 5   0  0.7954459E-05  0.2141760E+04  0.7818609E-02  0.8543068E-01
        1   -1    0    0  501    0  0.00000000000E+00  0.00000000000E+00  0.19706727259E+04  0.19706727260E+04  0.50400001928E-02 0. -1.
       -1   -1    0    0    0  501  0.00000000000E+00  0.00000000000E+00 -0.58192505593E+03  0.58192505595E+03  0.50400001928E-02 0.  1.
    10030    2    1    2    0    0  0.00000000000E+00  0.00000000000E+00  0.13887476700E+04  0.25525977819E+04  0.21417598710E+04 0.  0.
        5    1    3    3  502    0  0.15998942798E+03 -0.65696956596E+03 -0.29530986735E+03  0.73785881808E+03  0.46999998093E+01 0.  1.
       -5    1    3    3    0  502 -0.15998942798E+03  0.65696956596E+03  0.16840575374E+04  0.18147389638E+04  0.46999998093E+01 0. -1.
</event>
<event>
 5   0  0.8784659E-05  0.2213317E+04  0.7818609E-02  0.8512905E-01
        1   -1    0    0  501    0  0.00000000000E+00  0.00000000000E+00  0.15962245886E+04  0.15962245886E+04  0.50400001928E-02 0.  1.
       -1   -1    0    0    0  501  0.00000000000E+00  0.00000000000E+00 -0.76724385271E+03  0.76724385273E+03  0.50400001928E-02 0. -1.
    10030    2    1    2    0    0  0.00000000000E+00  0.00000000000E+00  0.82898073588E+03  0.23634684413E+04  0.22133174225E+04 0.  0.
        4    1    3    3  502    0  0.10397492761E+04 -0.37478470790E+03  0.47442040514E+03  0.12027545336E+04  0.12699999809E+01 0. -1.
       -4    1    3    3    0  502 -0.10397492761E+04  0.37478470790E+03  0.35456033074E+03  0.11607139077E+04  0.12699999809E+01 0.  1.
</event>
<event>
 5   0  0.8470971E-05  0.2128339E+04  0.7818609E-02  0.8548861E-01
        1   -1    0    0  501    0  0.00000000000E+00  0.00000000000E+00  0.22073828648E+04  0.22073828648E+04  0.50400001928E-02 0.  1.
       -1   -1    0    0    0  501  0.00000000000E+00  0.00000000000E+00 -0.51303159123E+03  0.51303159125E+03  0.50400001928E-02 0. -1.
    10030    2    1    2    0    0  0.00000000000E+00  0.00000000000E+00  0.16943512736E+04  0.27204144561E+04  0.21283393936E+04 0.  0.
        2    1    3    3  502    0  0.52676169145E+02  0.32725616112E+03  0.21397158478E+04  0.21652379276E+04  0.25500000920E-02 0.  1.
       -2    1    3    3    0  502 -0.52676169145E+02 -0.32725616112E+03 -0.44536457422E+03  0.55517652847E+03  0.25500000920E-02 0. -1.
</event>
<event>
 5   0  0.8784659E-05  0.2242304E+04  0.7818609E-02  0.8501024E-01
        1   -1    0    0  501    0  0.00000000000E+00  0.00000000000E+00  0.21958728347E+04  0.21958728347E+04  0.50400001928E-02 0.  1.
       -1   -1    0    0    0  501  0.00000000000E+00  0.00000000000E+00 -0.57242902737E+03  0.57242902739E+03  0.50400001928E-02 0. -1.
    10030    2    1    2    0    0  0.00000000000E+00  0.00000000000E+00  0.16234438074E+04  0.27683018621E+04  0.22423035932E+04 0.  0.
        4    1    3    3  502    0  0.24040234767E+02  0.36418660563E+03  0.21204750352E+04  0.21516565257E+04  0.12699999809E+01 0.  1.
       -4    1    3    3    0  502 -0.24040234767E+02 -0.36418660563E+03 -0.49703122785E+03  0.61664533645E+03  0.12699999809E+01 0. -1.
</event>
<event>
 5   0  0.1754356E-04  0.2206683E+04  0.7818609E-02  0.8515652E-01
        2   -1    0    0  501    0  0.00000000000E+00  0.00000000000E+00  0.70753999554E+03  0.70753999554E+03  0.25500000920E-02 0. -1.
       -2   -1    0    0    0  501  0.00000000000E+00  0.00000000000E+00 -0.17205567769E+04  0.17205567769E+04  0.25500000920E-02 0.  1.
    10030    2    1    2    0    0  0.00000000000E+00  0.00000000000E+00 -0.10130167814E+04  0.24280967724E+04  0.22066832435E+04 0.  0.
        1    1    3    3  502    0 -0.87202364781E+03  0.25660266940E+03  0.18161413175E+03  0.92695947331E+03  0.50400001928E-02 0. -1.
       -1    1    3    3    0  502  0.87202364781E+03 -0.25660266940E+03 -0.11946309131E+04  0.15011372991E+04  0.50400001928E-02 0.  1.
</event>
<event>
 5   0  0.1798917E-04  0.2273007E+04  0.7818609E-02  0.8488641E-01
        2   -1    0    0  501    0  0.00000000000E+00  0.00000000000E+00  0.14564441631E+04  0.14564441631E+04  0.25500000920E-02 0. -1.
       -2   -1    0    0    0  501  0.00000000000E+00  0.00000000000E+00 -0.88684521212E+03  0.88684521212E+03  0.25500000920E-02 0.  1.
    10030    2    1    2    0    0  0.00000000000E+00  0.00000000000E+00  0.56959895100E+03  0.23432893752E+04  0.22730072880E+04 0.  0.
        4    1    3    3  502    0 -0.61576416110E+03  0.93877487094E+03  0.46682380379E+03  0.12158905531E+04  0.12699999809E+01 0. -1.
       -4    1    3    3    0  502  0.61576416110E+03 -0.93877487094E+03  0.10277514721E+03  0.11273988221E+04  0.12699999809E+01 0.  1.
</event>
<event>
 5   0  0.8602414E-05  0.2197208E+04  0.7818609E-02  0.8519591E-01
       -1   -1    0    0    0  501  0.00000000000E+00  0.00000000000E+00  0.64746513061E+03  0.64746513063E+03  0.50400001928E-02 0.  1.
        1   -1    0    0  501    0  0.00000000000E+00  0.00000000000E+00 -0.18640859475E+04  0.18640859475E+04  0.50400001928E-02 0. -1.
    10030    2    1    2    0    0  0.00000000000E+00  0.00000000000E+00 -0.12166208169E+04  0.25115510781E+04  0.21972079114E+04 0.  0.
        3    1    3    3  502    0  0.34386499476E+03  0.10003651113E+04 -0.26930514805E+03  0.10915579524E+04  0.10100000352E+00 0.  1.
       -3    1    3    3    0  502 -0.34386499476E+03 -0.10003651113E+04 -0.94731566881E+03  0.14199931257E+04  0.10100000352E+00 0. -1.
</event>
<event>
 5   0  0.1733962E-04  0.2201635E+04  0.7818609E-02  0.8517748E-01
       -2   -1    0    0    0  501  0.00000000000E+00  0.00000000000E+00  0.71095388005E+03  0.71095388006E+03  0.25500000920E-02 0. -1.
        2   -1    0    0  501    0  0.00000000000E+00  0.00000000000E+00 -0.17044687474E+04  0.17044687475E+04  0.25500000920E-02 0.  1.
    10030    2    1    2    0    0  0.00000000000E+00  0.00000000000E+00 -0.99351486739E+03  0.24154226275E+04  0.22016345468E+04 0.  0.
        3    1    3    3  502    0  0.28159125632E+03  0.20572937369E+03  0.64874784176E+03  0.73654055097E+03  0.10100000352E+00 0. -1.
       -3    1    3    3    0  502 -0.28159125632E+03 -0.20572937369E+03 -0.16422627092E+04  0.16788820765E+04  0.10100000352E+00 0.  1.
</event>
<event>
 5   0  0.8602414E-05  0.2044525E+04  0.7818609E-02  0.8586082E-01
       -1   -1    0    0    0  501  0.00000000000E+00  0.00000000000E+00  0.55869207889E+03  0.55869207892E+03  0.50400001928E-02 0. -1.
        1   -1    0    0  501    0  0.00000000000E+00  0.00000000000E+00 -0.18704773392E+04  0.18704773392E+04  0.50400001928E-02 0.  1.
    10030    2    1    2    0    0  0.00000000000E+00  0.00000000000E+00 -0.13117852603E+04  0.24291694181E+04  0.20445252487E+04 0.  0.
        3    1    3    3  502    0  0.61253365114E+03  0.81831540292E+03 -0.67197816037E+03  0.12232711190E+04  0.10100000352E+00 0.  1.
       -3    1    3    3    0  502 -0.61253365114E+03 -0.81831540292E+03 -0.63980709993E+03  0.12058982991E+04  0.10100000352E+00 0. -1.
</event>
<event>
 5   0  0.8470971E-05  0.2212209E+04  0.7818609E-02  0.8513364E-01
       -1   -1    0    0    0  501  0.00000000000E+00  0.00000000000E+00  0.54357649862E+03  0.54357649864E+03  0.50400001928E-02 0.  1.
        1   -1    0    0  501    0  0.00000000000E+00  0.00000000000E+00 -0.22507730732E+04  0.22507730732E+04  0.50400001928E-02 0. -1.
    10030    2    1    2    0    0  0.00000000000E+00  0.00000000000E+00 -0.17071965746E+04  0.27943495719E+04  0.22122091640E+04 0.  0.
        2    1    3    3  502    0 -0.80523472044E+03 -0.17122663504E+03  0.79548062328E+02  0.82707279593E+03  0.25500000920E-02 0.  1.
       -2    1    3    3    0  502  0.80523472044E+03  0.17122663504E+03 -0.17867446369E+04  0.19672767759E+04  0.25500000920E-02 0. -1.
</event>
<event>
 5   0  0.1805501E-04  0.2112618E+04  0.7818609E-02  0.8555705E-01
        2   -1    0    0  501    0  0.00000000000E+00  0.00000000000E+00  0.16162013360E+04  0.16162013360E+04  0.25500000920E-02 0.  1.
       -2   -1    0    0    0  501  0.00000000000E+00  0.00000000000E+00 -0.69037751236E+03  0.69037751237E+03  0.25500000920E-02 0. -1.
    10030    2    1    2    0    0  0.00000000000E+00  0.00000000000E+00  0.92582382367E+03  0.23065788484E+04  0.21126183355E+04 0.  0.
        2    1    3    3  502    0  0.10300082966E+04 -0.23306881331E+03  0.48853796304E+03  0.11635753109E+04  0.25500000920E-02 0.  1.
       -2    1    3    3    0  502 -0.10300082966E+04  0.23306881331E+03  0.43728586063E+03  0.11430035375E+04  0.25500000920E-02 0. -1.
</event>
<event>
 5   0  0.6250625E-05  0.2020287E+04  0.7818609E-02  0.8597194E-01
        3   -1    0    0  501    0  0.00000000000E+00  0.00000000000E+00  0.90338372967E+03  0.90338373531E+03  0.10100000352E+00 0. -1.
       -3   -1    0    0    0  501  0.00000000000E+00  0.00000000000E+00 -0.11295197135E+04  0.11295197180E+04  0.10100000352E+00 0.  1.
    10030    2    1    2    0    0  0.00000000000E+00  0.00000000000E+00 -0.22613598383E+03  0.20329034533E+04  0.20202868527E+04 0.  0.
        4    1    3    3  502    0  0.89196877220E+03  0.28353288526E+03 -0.49542643281E+03  0.10589844904E+04  0.12699999809E+01 0.  1.
       -4    1    3    3    0  502 -0.89196877220E+03 -0.28353288526E+03  0.26929044898E+03  0.97391896296E+03  0.12699999809E+01 0. -1.
</event>
<event>
 5   0  0.8306787E-05  0.2120664E+04  0.7818609E-02  0.8552195E-01
        1   -1    0    0  501    0  0.00000000000E+00  0.00000000000E+00  0.11699873838E+04  0.11699873839E+04  0.50400001928E-02 0. -1.
       -1   -1    0    0    0  501  0.00000000000E+00  0.00000000000E+00 -0.96095351183E+03  0.96095351184E+03  0.50400001928E-02 0.  1.
    10030    2    1    2    0    0  0.00000000000E+00  0.00000000000E+00  0.20903387202E+03  0.21309408957E+04  0.21206635616E+04 0.  0.
        1    1    3    3  502    0 -0.23544707671E+03  0.62892429862E+03 -0.72002197791E+03  0.98458760302E+03  0.50400001928E-02 0.  1.
       -1    1    3    3    0  502  0.23544707671E+03 -0.62892429862E+03  0.92905584993E+03  0.11463532927E+04  0.50400001928E-02 0. -1.
</event>
<event>
 5   0  0.1798917E-04  0.2212922E+04  0.7818609E-02  0.8513069E-01
       -2   -1    0    0    0  501  0.00000000000E+00  0.00000000000E+00  0.18374248025E+04  0.18374248025E+04  0.25500000920E-02 0. -1.
        2   -1    0    0  501    0  0.00000000000E+00  0.00000000000E+00 -0.66628886102E+03  0.66628886103E+03  0.25500000920E-02 0.  1.
    10030    2    1    2    0    0  0.00000000000E+00  0.00000000000E+00  0.11711359415E+04  0.25037136635E+04  0.22129217599E+04 0.  0.
        4    1    3    3  502    0 -0.17050274554E+03 -0.37057555465E+02  0.18217605629E+04  0.18300977051E+04  0.12699999809E+01 0. -1.
       -4    1    3    3    0  502  0.17050274554E+03  0.37057555465E+02 -0.65062462140E+03  0.67361595848E+03  0.12699999809E+01 0.  1.
</event>
<event>
 5   0  0.8306787E-05  0.2181577E+04  0.7818609E-02  0.8526135E-01
        1   -1    0    0  501    0  0.00000000000E+00  0.00000000000E+00  0.11531845612E+04  0.11531845612E+04  0.50400001928E-02 0. -1.
       -1   -1    0    0    0  501  0.00000000000E+00  0.00000000000E+00 -0.10317689231E+04  0.10317689231E+04  0.50400001928E-02 0.  1.
    10030    2    1    2    0    0  0.00000000000E+00  0.00000000000E+00  0.12141563804E+03  0.21849534843E+04  0.21815774044E+04 0.  0.
        1    1    3    3  502    0 -0.63041786177E+02 -0.10884759837E+04  0.28011333941E+02  0.10906598318E+04  0.50400001928E-02 0. -1.
       -1    1    3    3    0  502  0.63041786177E+02  0.10884759837E+04  0.93404304098E+02  0.10942936525E+04  0.50400001928E-02 0.  1.
</event>
<event>
 5   0  0.1798917E-04  0.1819086E+04  0.7818609E-02  0.8696215E-01
        2   -1    0    0  501    0  0.00000000000E+00  0.00000000000E+00  0.16990278198E+04  0.16990278198E+04  0.25500000920E-02 0.  1.
       -2   -1    0    0    0  501  0.00000000000E+00  0.00000000000E+00 -0.48690688987E+03  0.48690688988E+03  0.25500000920E-02 0. -1.
    10030    2    1    2    0    0  0.00000000000E+00  0.00000000000E+00  0.12121209299E+04  0.21859347097E+04  0.18190858710E+04 0.  0.
        4    1    3    3  502    0  0.33140209479E+03  0.43585009131E+03 -0.26667887021E+03  0.60902535517E+03  0.12699999809E+01 0. -1.
       -4    1    3    3    0  502 -0.33140209479E+03 -0.43585009131E+03  0.14787998001E+04  0.15769093545E+04  0.12699999809E+01 0.  1.
</event>
<event>
 5   0  0.1680258E-04  0.2234561E+04  0.7818609E-02  0.8504179E-01
        2   -1    0    0  501    0  0.00000000000E+00  0.00000000000E+00  0.11272808078E+04  0.11272808078E+04  0.25500000920E-02 0.  1.
       -2   -1    0    0    0  501  0.00000000000E+00  0.00000000000E+00 -0.11073685315E+04  0.11073685315E+04  0.25500000920E-02 0. -1.
    10030    2    1    2    0    0  0.00000000000E+00  0.00000000000E+00  0.19912276304E+02  0.22346493394E+04  0.22345606215E+04 0.  0.
        5    1    3    3  502    0 -0.45773548433E+03  0.62875416765E+03  0.81213487092E+03  0.11244726388E+04  0.46999998093E+01 0.  1.
       -5    1    3    3    0  502  0.45773548433E+03 -0.62875416765E+03 -0.79222259461E+03  0.11101767005E+04  0.46999998093E+01 0. -1.
</event>
<event>
 5   0  0.8784659E-05  0.2193143E+04  0.7818609E-02  0.8521287E-01
        1   -1    0    0  501    0  0.00000000000E+00  0.00000000000E+00  0.19482303592E+04  0.19482303592E+04  0.50400001928E-02 0.  1.
       -1   -1    0    0    0  501  0.00000000000E+00  0.00000000000E+00 -0.61721114389E+03  0.61721114391E+03  0.50400001928E-02 0. -1.
    10030    2    1    2    0    0  0.00000000000E+00  0.00000000000E+00  0.13310192153E+04  0.25654415031E+04  0.21931433958E+04 0.  0.
        4    1    3    3  502    0 -0.10075770014E+04  0.84224205111E+02  0.16900008380E+03  0.10251184184E+04  0.12699999809E+01 0. -1.
       -4    1    3    3    0  502  0.10075770014E+04 -0.84224205111E+02  0.11620191315E+04  0.15403230847E+04  0.12699999809E+01 0.  1.
</event>
<event>
 5   0  0.1680258E-04  0.2156957E+04  0.7818609E-02  0.8536560E-01
       -2   -1    0    0    0  501  0.00000000000E+00  0.00000000000E+00  0.13561846989E+04  0.13561846989E+04  0.25500000920E-02 0.  1.
        2   -1    0    0  501    0  0.00000000000E+00  0.00000000000E+00 -0.85763791008E+03  0.85763791009E+03  0.25500000920E-02 0. -1.
    10030    2    1    2    0    0  0.00000000000E+00  0.00000000000E+00  0.49854678877E+03  0.22138226089E+04  0.21569565696E+04 0.  0.
        5    1    3    3  502    0  0.10058604763E+04  0.38900500343E+03  0.25299249985E+03  0.11077488368E+04  0.46999998093E+01 0.  1.
       -5    1    3    3    0  502 -0.10058604763E+04 -0.38900500343E+03  0.24555428892E+03  0.11060737721E+04  0.46999998093E+01 0. -1.
</event>
<event>
 5   0  0.8470971E-05  0.2203108E+04  0.7818609E-02  0.8517136E-01
        1   -1    0    0  501    0  0.00000000000E+00  0.00000000000E+00  0.21789333229E+04  0.21789333229E+04  0.50400001928E-02 0. -1.
       -1   -1    0    0    0  501  0.00000000000E+00  0.00000000000E+00 -0.55688760860E+03  0.55688760862E+03  0.50400001928E-02 0.  1.
    10030    2    1    2    0    0  0.00000000000E+00  0.00000000000E+00  0.16220457143E+04  0.27358209315E+04  0.22031077754E+04 0.  0.
        2    1    3    3  502    0 -0.81331994414E+03 -0.62805970947E+03  0.13038044480E+04  0.16600766154E+04  0.25500000920E-02 0. -1.
       -2    1    3    3    0  502  0.81331994414E+03  0.62805970947E+03  0.31824126628E+03  0.10757443162E+04  0.25500000920E-02 0.  1.
</event>
<event>
 5   0  0.1805501E-04  0.2212734E+04  0.7818609E-02  0.8513147E-01
        2   -1    0    0  501    0  0.00000000000E+00  0.00000000000E+00  0.19135448841E+04  0.19135448841E+04  0.25500000920E-02 0. -1.
       -2   -1    0    0    0  501  0.00000000000E+00  0.00000000000E+00 -0.63967530019E+03  0.63967530019E+03  0.25500000920E-02 0.  1.
    10030    2    1    2    0    0  0.00000000000E+00  0.00000000000E+00  0.12738695839E+04  0.25532201843E+04  0.22127335114E+04 0.  0.
        2    1    3    3  502    0  0.50692014475E+03 -0.95382357458E+03  0.91314281593E+03  0.14144176352E+04  0.25500000920E-02 0. -1.
       -2    1    3    3    0  502 -0.50692014475E+03  0.95382357458E+03  0.36072676796E+03  0.11388025490E+04  0.25500000920E-02 0.  1.
</event>
<event>
 5   0  0.7954459E-05  0.2347951E+04  0.7818609E-02  0.8459251E-01
        1   -1    0    0  501    0  0.00000000000E+00  0.00000000000E+00  0.16948358864E+04  0.16948358864E+04  0.50400001928E-02 0. -1.
       -1   -1    0    0    0  501  0.00000000000E+00  0.00000000000E+00 -0.81318726612E+03  0.81318726613E+03  0.50400001928E-02 0.  1.
    10030    2    1    2    0    0  0.00000000000E+00  0.00000000000E+00  0.88164862024E+03  0.25080231525E+04  0.23479514143E+04 0.  0.
        5    1    3    3  502    0 -0.58604766226E+03 -0.89436564309E+03 -0.76833103115E+02  0.10720387967E+04  0.46999998093E+01 0.  1.
       -5    1    3    3    0  502  0.58604766226E+03  0.89436564309E+03  0.95848172336E+03  0.14359843558E+04  0.46999998093E+01 0. -1.
</event>
</LesHouchesEvents>
